Membrane in water
40167
    1TCq1    O1    1   4.197   1.728  11.385  0.6307 -0.1076  0.5323
    1TCq1    C1    2   4.326   1.716  11.360  0.1504 -0.2251  0.0153
    1TCq1    O2    3   4.400   1.807  11.323 -0.1274  0.4532 -1.2265
    1TCq1    C2    4   4.378   1.583  11.393  0.9656 -0.9536 -0.5884
    1TCq1    C3    5   4.513   1.569  11.403 -0.2317  0.4703 -0.5043
    1TCq1    C4    6   4.570   1.448  11.434  0.5828  0.0517 -0.5282
    1TCq1    C5    7   4.492   1.338  11.443  0.3062 -0.1706 -0.4476
    1TCq1    C6    8   4.355   1.357  11.446 -0.4229  0.3757  0.1102
    1TCq1    C7    9   4.295   1.476  11.424 -0.0348  0.7421 -0.4920
    1TCq1    C8   10   4.283   1.258  11.510 -0.0142 -0.2189  0.2690
    1TCq1    O4   11   4.173   1.291  11.552  0.8266 -0.2444 -0.2983
    1TCq1    C9   12   4.713   1.427  11.455 -0.0460 -0.3955  0.5833
    1TCq1    O5   13   0.067   1.530  11.445  0.2925 -0.7888  0.2580
    1TCq1    O6   14   0.037   1.315  11.485  0.5642  0.8878 -0.2779
    1TCq1    H1   15   4.157   1.654  11.436  0.0895 -0.3289 -0.2140
    1TCq1    H2   16   4.587   1.644  11.377  0.2197 -0.3373 -1.5412
    1TCq1    H3   17   4.543   1.255  11.490 -0.1195 -0.1432  0.0519
    1TCq1    H4   18   4.188   1.483  11.409 -0.0739  0.6148 -0.2711
    2MPD2     C   19   4.190   0.803  11.727  0.2758  0.0039  0.5636
    2MPD2    C1   20   4.153   0.932  11.765  0.0995  1.0595 -0.9513
    2MPD2    C2   21   4.202   1.040  11.681 -0.6061 -0.4173  0.0937
    2MPD2    C3   22   4.279   1.021  11.574 -0.2340 -0.1215 -0.3350
    2MPD2    C4   23   4.322   0.890  11.548  0.7869  0.8985 -0.1365
    2MPD2    C5   24   4.277   0.786  11.628 -0.4026  0.1520  0.6490
    2MPD2     H   25   4.170   1.139  11.713  0.0836  0.3699 -1.6280
    2MPD2    H1   26   4.402   0.864  11.480  1.1252 -1.3185  1.1190
    2MPD2    H2   27   4.173   0.712  11.783 -0.3217 -0.2603 -0.0562
    2MPD2    H3   28   4.310   0.684  11.613  1.5411  0.7891  0.6682
    2MPD2     N   29   4.329   1.127  11.496 -0.0946 -0.2758 -0.6056
    2MPD2    H5   30   4.409   1.113  11.436  0.3074  0.4792 -0.2405
    2MPD2    N1   31   4.077   0.962  11.884 -0.1420 -0.4307 -0.5368
    2MPD2    H7   32   4.059   1.060  11.902  1.0226 -0.5709  1.2888
    3TCq1    O1   33   4.187   1.082  10.799  0.0824  0.0837  0.1449
    3TCq1    C1   34   4.064   1.113  10.840 -0.2844 -0.0794 -0.0104
    3TCq1    O2   35   4.003   1.039  10.911 -0.8581  0.7166 -0.1548
    3TCq1    C2   36   4.017   1.236  10.784 -0.3090  0.4040 -0.3606
    3TCq1    C3   37   4.053   1.280  10.657 -0.6146  0.2733 -0.3409
    3TCq1    C4   38   3.980   1.386  10.602  0.5330 -0.8883  0.7320
    3TCq1    C5   39   3.885   1.450  10.669  0.3206  0.3462 -0.0560
    3TCq1    C6   40   3.853   1.404  10.788  0.0167  1.5198 -0.7065
    3TCq1    C7   41   3.910   1.295  10.854  0.2371  0.5125  0.2123
    3TCq1    C8   42   3.729   1.452  10.854  0.1811  0.7580 -0.4362
    3TCq1    O4   43   3.680   1.370  10.931 -0.1392  0.4445  0.4406
    3TCq1    C9   44   4.008   1.418  10.461  0.1631  0.1670  0.5230
    3TCq1    O5   45   3.942   1.512  10.404  0.0524 -0.4250 -0.3131
    3TCq1    O6   46   4.097   1.352  10.401 -0.4741 -0.2481  0.9407
    3TCq1    H1   47   4.245   1.146  10.752  0.9007 -0.2169  0.7334
    3TCq1    H2   48   4.130   1.231  10.598 -1.7204  0.8827 -2.2706
    3TCq1    H3   49   3.829   1.531  10.622  0.5079  1.1068  1.0482
    3TCq1    H4   50   3.885   1.249  10.949  3.9423 -0.1908  0.8304
    4MPD2     C   51   3.329   1.760  10.954 -0.4166 -0.2240 -0.6902
    4MPD2    C1   52   3.427   1.826  10.881 -0.4339  0.1442 -1.1227
    4MPD2    C2   53   3.540   1.759  10.839  0.6978  0.3312 -0.3400
    4MPD2    C3   54   3.563   1.625  10.868 -0.5350  0.1848 -0.3283
    4MPD2    C4   55   3.466   1.561  10.950 -0.2961 -0.3453  0.1411
    4MPD2    C5   56   3.354   1.630  10.980 -0.3690 -0.3931  0.1702
    4MPD2     H   57   3.621   1.818  10.797  0.6889 -0.4682 -1.4694
    4MPD2    H1   58   3.475   1.464  10.997  0.9241 -1.0640 -1.5762
    4MPD2    H2   59   3.244   1.810  10.998  1.3414  1.6206  0.6052
    4MPD2    H3   60   3.286   1.579  11.047 -3.1305 -0.6646 -2.8398
    4MPD2     N   61   3.687   1.576  10.836  0.1952  0.7542 -0.4866
    4MPD2    H5   62   3.754   1.636  10.790  1.2642 -1.3034 -1.6194
    4MPD2    N1   63   3.418   1.965  10.863  0.1813 -0.2471  0.6780
    4MPD2    H7   64   3.489   2.015  10.812  1.1510 -0.4635  1.8015
    5TCq1    O1   65   4.590   4.433  11.138  0.7892 -0.3208 -0.1110
    5TCq1    C1   66   4.704   4.422  11.214  0.0815  0.1005 -0.2721
    5TCq1    O2   67   0.050   4.515  11.258  0.5618  0.0385 -0.7208
    5TCq1    C2   68   0.024   4.284  11.249 -0.4029 -0.5044 -0.3164
    5TCq1    C3   69   0.112   4.260  11.354  0.5787  0.6168 -0.9879
    5TCq1    C4   70   0.118   4.133  11.400 -0.3462  0.3599  0.2827
    5TCq1    C5   71   0.059   4.028  11.344 -0.2600  0.2627 -0.0039
    5TCq1    C6   72   4.700   4.054  11.236  0.6443  0.1475  0.6047
    5TCq1    C7   73   4.675   4.182  11.196  0.2426  0.3188 -0.1272
    5TCq1    C8   74   4.614   3.949  11.184 -0.2061  0.6819 -0.0988
    5TCq1    O4   75   4.630   3.841  11.236 -0.4587 -0.4372 -0.1158
    5TCq1    C9   76   0.185   4.114  11.527 -0.4672  0.0810  0.3989
    5TCq1    O5   77   0.244   4.209  11.577  0.0971 -0.5997  0.3347
    5TCq1    O6   78   0.169   4.001  11.583 -0.1596  0.5397 -0.0699
    5TCq1    H1   79   4.552   4.354  11.094 -1.7519  0.9297 -0.2043
    5TCq1    H2   80   0.161   4.338  11.412 -1.8009  1.5727 -0.2450
    5TCq1    H3   81   0.070   3.924  11.371  3.7235  0.6198 -0.2479
    5TCq1    H4   82   4.623   4.187  11.101 -2.0451 -1.8167  0.9948
    6MPD2     C   83   4.279   3.995  11.024 -0.6289 -0.3815  0.2367
    6MPD2    C1   84   4.383   3.928  11.087  0.3110  0.2586  0.6241
    6MPD2    C2   85   4.352   3.804  11.133 -0.1101  0.3928  0.4588
    6MPD2    C3   86   4.224   3.750  11.118 -0.0991  0.3733 -0.2084
    6MPD2    C4   87   4.126   3.821  11.058 -0.3543 -0.5061 -0.1369
    6MPD2    C5   88   4.150   3.947  11.012 -0.5383 -0.8269 -0.6280
    6MPD2     H   89   4.426   3.745  11.186 -0.5646 -0.4239  0.1850
    6MPD2    H1   90   4.027   3.775  11.050 -0.6277 -0.4619  3.2254
    6MPD2    H2   91   4.290   4.100  10.998 -1.1978 -0.2399  0.5593
    6MPD2    H3   92   4.082   4.005  10.951 -0.1475  0.7393  0.4438
    6MPD2     N   93   4.211   3.619  11.172  0.3625  1.2728  0.0333
    6MPD2    H5   94   4.301   3.582  11.200 -1.8652 -3.9517  0.2512
    6MPD2    N1   95   4.499   3.998  11.118  0.4374  0.5265  0.0970
    6MPD2    H7   96   4.494   4.096  11.093 -1.0221  0.2918 -0.5179
    7TCq1    O1   97   1.679   3.731  13.232 -0.2656 -0.2849  0.2996
    7TCq1    C1   98   1.608   3.697  13.119  0.4378 -0.0556 -0.4061
    7TCq1    O2   99   1.650   3.677  13.008 -1.1273  0.2458 -0.3137
    7TCq1    C2  100   1.518   3.597  13.178  0.2793  0.0683  0.2854
    7TCq1    C3  101   1.419   3.643  13.254 -0.2892  0.2506  0.2275
    7TCq1    C4  102   1.342   3.553  13.325 -0.3869  0.5964 -0.7618
    7TCq1    C5  103   1.366   3.416  13.309 -0.3068  0.2341  0.5777
    7TCq1    C6  104   1.470   3.371  13.224  0.2090  0.5703 -0.0802
    7TCq1    C7  105   1.545   3.462  13.154 -0.9293  0.4873  0.1928
    7TCq1    C8  106   1.516   3.235  13.240  0.0245 -0.1208 -0.6083
    7TCq1    O4  107   1.428   3.162  13.278 -0.1081  0.1806  0.5318
    7TCq1    C9  108   1.230   3.594  13.410 -0.1672  0.3090 -0.3549
    7TCq1    O5  109   1.156   3.509  13.465  0.5855  0.7465  0.3521
    7TCq1    O6  110   1.200   3.718  13.402 -0.2172  0.3032  0.0061
    7TCq1    H1  111   1.626   3.730  13.314  0.9410  3.0612  1.0990
    7TCq1    H2  112   1.403   3.750  13.265 -0.8237  0.5881 -4.0520
    7TCq1    H3  113   1.293   3.349  13.353 -0.9144  1.0496  0.8117
    7TCq1    H4  114   1.635   3.436  13.099  1.0509 -0.4910  3.9430
    8MPD2     C  115   1.848   2.836  13.198 -0.6798 -0.5701  1.0835
    8MPD2    C1  116   1.716   2.844  13.238  0.3138 -0.4354 -0.5236
    8MPD2    C2  117   1.647   2.963  13.244 -0.1769 -1.1020 -1.0340
    8MPD2    C3  118   1.714   3.081  13.207 -0.2132 -0.7235  0.5362
    8MPD2    C4  119   1.838   3.070  13.152  0.1624 -0.1007 -0.1548
    8MPD2    C5  120   1.905   2.950  13.150  0.2033 -0.2925 -0.4903
    8MPD2     H  121   1.543   2.963  13.274  0.1703  1.2124  0.1676
    8MPD2    H1  122   1.890   3.162  13.127 -1.6122  1.7672  3.0897
    8MPD2    H2  123   1.905   2.744  13.196 -1.5581 -1.0494 -1.5534
    8MPD2    H3  124   2.007   2.945  13.113  1.0992  1.1605  1.7627
    8MPD2     N  125   1.647   3.208  13.204 -0.5127  0.0334 -1.1129
    8MPD2    H5  126   1.706   3.289  13.189  0.6369 -0.7402 -0.6896
    8MPD2    N1  127   1.641   2.732  13.259 -0.5379 -0.5057 -0.7451
    8MPD2    H7  128   1.555   2.741  13.313  1.1086  1.6918  1.5131
    9TCq1    O1  129   3.805   1.735  10.469 -0.1339  0.4030  0.2955
    9TCq1    C1  130   3.846   1.861  10.462  0.5271  0.6744 -0.2767
    9TCq1    O2  131   3.786   1.951  10.523 -0.1159 -0.1691  0.2832
    9TCq1    C2  132   3.994   1.846  10.471  0.0223 -0.2226 -0.3679
    9TCq1    C3  133   4.051   1.774  10.362 -0.1503 -0.1164  0.2657
    9TCq1    C4  134   4.188   1.771  10.357 -0.2476  0.9135 -0.3173
    9TCq1    C5  135   4.258   1.833  10.452  0.2759  0.1353 -0.7046
    9TCq1    C6  136   4.199   1.898  10.559  0.3651  0.8341 -0.3973
    9TCq1    C7  137   4.064   1.908  10.563  0.7333 -0.2811  0.4341
    9TCq1    C8  138   4.274   1.973  10.656  0.7091 -0.1073 -0.1115
    9TCq1    O4  139   4.391   2.008  10.642 -0.1757 -0.3770 -0.2539
    9TCq1    C9  140   4.259   1.705  10.247 -0.1446  0.4143  0.5390
    9TCq1    O5  141   4.188   1.629  10.180  0.0710  0.2079 -0.1284
    9TCq1    O6  142   4.385   1.729  10.233 -0.1176  0.0758 -0.0598
    9TCq1    H1  143   3.869   1.668  10.440  0.8190  1.9986 -1.2763
    9TCq1    H2  144   3.991   1.726  10.285 -0.5809  0.6821  0.1061
    9TCq1    H3  145   4.367   1.831  10.452  0.2272 -1.8137 -1.4684
    9TCq1    H4  146   4.011   1.979  10.627  1.1905 -1.3390  1.9830
   10MPD2     C  147   4.328   2.177  10.872 -0.1124  0.0245 -0.2536
   10MPD2    C1  148   4.229   2.086  10.871 -0.5730 -0.4424  0.0702
   10MPD2    C2  149   4.143   2.084  10.982  0.5451  0.5013 -0.2756
   10MPD2    C3  150   4.161   2.168  11.091  0.0035 -0.3211 -0.0844
   10MPD2    C4  151   4.252   2.268  11.086  0.2711  0.6892 -0.3781
   10MPD2    C5  152   4.334   2.271  10.972 -0.0387  0.0154 -0.0088
   10MPD2     H  153   4.084   1.995  11.002 -0.3911  0.5528 -2.7951
   10MPD2    H1  154   4.264   2.351  11.155  1.2792 -3.5729  4.5764
   10MPD2    H2  155   4.402   2.179  10.793  0.1397 -0.3777 -0.0231
   10MPD2    H3  156   4.415   2.344  10.970 -0.4056  0.4509  1.0486
   10MPD2     N  157   4.098   2.143  11.214  0.2612 -0.1336  0.2109
   10MPD2    H5  158   4.135   2.207  11.284  0.2232 -1.1421  1.1361
   10MPD2    N1  159   4.199   1.988  10.770 -0.2431 -0.0439 -0.8433
   10MPD2    H7  160   4.131   1.915  10.783  0.8652 -1.2793 -1.8706
   11TCq1    O1  161   0.558   1.355  13.674  0.3342  0.1457 -0.1024
   11TCq1    C1  162   0.622   1.399  13.784 -0.0895 -0.4219 -0.0154
   11TCq1    O2  163   0.744   1.410  13.792  0.0660  0.4620 -0.0353
   11TCq1    C2  164   0.531   1.495  13.846 -0.4415 -0.8195  0.8688
   11TCq1    C3  165   0.579   1.622  13.875  0.8767  0.3661  0.1175
   11TCq1    C4  166   0.494   1.716  13.917 -0.0990  0.2398  0.5568
   11TCq1    C5  167   0.355   1.693  13.929 -0.4102 -0.4498  0.1994
   11TCq1    C6  168   0.306   1.568  13.905 -0.1991  0.2848  0.5296
   11TCq1    C7  169   0.400   1.470  13.866  0.6790 -0.7638 -0.0732
   11TCq1    C8  170   0.170   1.551  13.925  0.7495  0.4831 -0.8043
   11TCq1    O4  171   0.112   1.625  14.006  0.0646  0.5275 -0.1296
   11TCq1    C9  172   0.543   1.848  13.939 -0.0683  0.3760  0.4769
   11TCq1    O5  173   0.648   1.881  13.886  0.8404  0.6259 -0.0600
   11TCq1    O6  174   0.466   1.929  13.997  0.3288  0.0011  0.2991
   11TCq1    H1  175   0.463   1.379  13.677  0.7121  1.6110  0.3062
   11TCq1    H2  176   0.684   1.646  13.865  0.8290  1.1634  1.5901
   11TCq1    H3  177   0.291   1.763  13.980 -1.2470 -0.9215 -0.2147
   11TCq1    H4  178   0.364   1.370  13.849 -0.2831 -0.2463 -1.0981
   12MPD2     C  179   4.613   1.469  13.913 -0.2667 -0.0087  0.4757
   12MPD2    C1  180   4.705   1.406  13.841 -0.7835 -0.0738 -0.9527
   12MPD2    C2  181   4.679   1.292  13.766 -0.2126  0.2689  0.7328
   12MPD2    C3  182   4.544   1.247  13.771  0.4066 -0.1034 -0.5074
   12MPD2    C4  183   4.444   1.322  13.834  0.1032  0.5780 -0.4447
   12MPD2    C5  184   4.480   1.431  13.911 -0.0821  0.3658 -0.1839
   12MPD2     H  185   0.032   1.249  13.699 -1.2028 -0.3405  0.0238
   12MPD2    H1  186   4.340   1.293  13.832  0.6493 -1.5041  1.2971
   12MPD2    H2  187   4.642   1.556  13.972  0.4102  0.1727 -0.1245
   12MPD2    H3  188   4.403   1.489  13.959 -1.2207 -1.0585 -0.3070
   12MPD2     N  189   4.533   1.120  13.706 -0.1282 -0.3421 -0.0007
   12MPD2    H5  190   4.612   1.082  13.655 -0.4542 -2.0536  0.7721
   12MPD2    N1  191   0.122   1.444  13.856  0.4045  0.9853 -0.3555
   12MPD2    H7  192   0.191   1.405  13.792 -1.7070 -0.4164 -1.8071
   13TCq1    O1  193   0.020   1.790  11.006  0.5976 -0.2641  0.0843
   13TCq1    C1  194   4.673   1.719  10.911  0.3336  0.4323 -0.8901
   13TCq1    O2  195   4.624   1.765  10.810  0.0873  0.0359  0.8962
   13TCq1    C2  196   4.628   1.609  10.975 -0.3023  0.4257  0.5380
   13TCq1    C3  197   4.713   1.517  11.018  0.0747  0.0156 -0.4791
   13TCq1    C4  198   4.670   1.395  11.072  0.6667  0.2240  0.6038
   13TCq1    C5  199   4.537   1.369  11.074 -0.9697  0.4265 -0.1679
   13TCq1    C6  200   4.446   1.468  11.031  0.2856 -0.0788  0.9697
   13TCq1    C7  201   4.492   1.583  10.971 -0.5319 -0.0696 -0.1276
   13TCq1    C8  202   4.304   1.458  11.058 -0.3997  0.0202 -0.4169
   13TCq1    O4  203   4.235   1.539  11.003 -0.4377  0.8813  0.7593
   13TCq1    C9  204   0.046   1.300  11.118  0.7037  0.3136  0.7664
   13TCq1    O5  205   0.006   1.201  11.184 -0.1402  0.1062 -0.1328
   13TCq1    O6  206   0.164   1.329  11.096 -0.0669 -0.2565  0.1515
   13TCq1    H1  207   0.045   1.739  11.086  0.5440  2.3528  1.7603
   13TCq1    H2  208   0.097   1.541  11.026  0.1465 -0.8133  0.9315
   13TCq1    H3  209   4.515   1.272  11.117 -1.0768 -0.0868 -1.3793
   13TCq1    H4  210   4.427   1.668  10.954  0.8955  0.4799 -2.8587
   14MPD2     C  211   4.126   1.178  11.209 -0.1653 -0.0354 -0.4315
   14MPD2    C1  212   4.135   1.307  11.162 -0.0241  0.3576  0.4101
   14MPD2    C2  213   4.021   1.393  11.172 -0.6064  0.5634  0.7777
   14MPD2    C3  214   3.904   1.353  11.238  0.1123 -0.0120 -0.1525
   14MPD2    C4  215   3.911   1.226  11.287 -0.0364 -0.0473  0.7990
   14MPD2    C5  216   4.020   1.139  11.279  0.8355  0.5152 -0.0133
   14MPD2     H  217   4.030   1.497  11.145 -0.6452 -0.0883 -1.8353
   14MPD2    H1  218   3.819   1.184  11.326 -0.2416  0.2321  0.6075
   14MPD2    H2  219   4.215   1.118  11.228 -2.0614 -2.5923  0.4235
   14MPD2    H3  220   4.013   1.044  11.332  1.1478  0.2471 -0.4609
   14MPD2     N  221   3.790   1.428  11.249 -0.5163  0.2203  0.7163
   14MPD2    H5  222   3.703   1.380  11.269  0.0748 -0.7150  1.0624
   14MPD2    N1  223   4.265   1.340  11.115  1.2495  0.6823 -0.2596
   14MPD2    H7  224   4.333   1.269  11.138  0.6354  0.2873  0.3442
   15TCq1    O1  225   1.556   1.145   1.624 -0.0261  0.3627  0.3731
   15TCq1    C1  226   1.516   1.019   1.603  0.1928  0.3354  0.1066
   15TCq1    O2  227   1.417   0.987   1.540  0.3497  0.3517 -0.5246
   15TCq1    C2  228   1.635   0.931   1.625 -0.1716 -0.0704  0.6109
   15TCq1    C3  229   1.740   0.957   1.715 -0.0189  0.9464 -0.1450
   15TCq1    C4  230   1.838   0.859   1.724  0.2729 -0.0895  0.1267
   15TCq1    C5  231   1.837   0.752   1.635  0.0921  0.6265 -0.2362
   15TCq1    C6  232   1.729   0.728   1.558  0.0426 -0.3464  0.6818
   15TCq1    C7  233   1.629   0.821   1.554 -0.0566 -0.0204 -0.2177
   15TCq1    C8  234   1.730   0.609   1.470 -0.2038 -0.5965  0.0023
   15TCq1    O4  235   1.818   0.529   1.481 -0.3449 -0.0085  0.1835
   15TCq1    C9  236   1.949   0.876   1.811  0.5128  0.5899  0.3466
   15TCq1    O5  237   1.933   0.963   1.902  0.0489 -0.3413  0.3086
   15TCq1    O6  238   2.053   0.806   1.798  0.4934  0.3176 -0.1305
   15TCq1    H1  239   1.641   1.149   1.672  0.5784 -1.7095 -0.5036
   15TCq1    H2  240   1.749   1.039   1.786  0.1985 -0.7624  1.8114
   15TCq1    H3  241   1.923   0.686   1.637  0.0394  0.5514 -0.4631
   15TCq1    H4  242   1.545   0.803   1.488 -1.6482 -0.4979  1.9375
   16MPD2     C  243   1.554   0.552   1.140  0.1132  0.4288  0.1343
   16MPD2    C1  244   1.635   0.521   1.251  0.1639  0.6359 -0.2262
   16MPD2    C2  245   1.695   0.396   1.267  0.4897 -0.7830 -0.0759
   16MPD2    C3  246   1.697   0.313   1.160  0.1887 -0.3465  0.0330
   16MPD2    C4  247   1.608   0.344   1.053 -1.2119  0.2445  0.3826
   16MPD2    C5  248   1.537   0.456   1.053  0.2249 -0.6594  0.0888
   16MPD2     H  249   1.763   0.365   1.345  0.5953  0.8172  0.4655
   16MPD2    H1  250   1.600   0.292   0.958 -0.4997  0.3945  0.2420
   16MPD2    H2  251   1.491   0.641   1.148 -0.8110 -0.1831 -0.3171
   16MPD2    H3  252   1.463   0.463   0.974 -1.4517 -1.8249  1.5573
   16MPD2     N  253   1.763   0.192   1.179 -0.1601  0.8936 -0.5795
   16MPD2    H5  254   1.801   0.167   1.270  4.0742  2.0898 -1.9996
   16MPD2    N1  255   1.641   0.618   1.357  0.1158 -0.0100 -0.6344
   16MPD2    H7  256   1.598   0.709   1.338 -2.0601 -1.1367 -1.0965
   17TCq1    O1  257   3.226   1.741  10.270 -0.0860 -0.0966 -0.8109
   17TCq1    C1  258   3.338   1.797  10.216  0.1041  0.8434  0.0434
   17TCq1    O2  259   3.377   1.911  10.218  0.2238 -0.6008 -0.3728
   17TCq1    C2  260   3.432   1.693  10.215 -0.8430 -0.1979  0.3310
   17TCq1    C3  261   3.538   1.711  10.131  0.0319  0.2076 -0.2027
   17TCq1    C4  262   3.640   1.621  10.134  1.3291  0.4049  0.6518
   17TCq1    C5  263   3.645   1.529  10.236  0.0693 -0.3229 -0.2184
   17TCq1    C6  264   3.549   1.527  10.335 -0.0827 -0.6885 -0.8791
   17TCq1    C7  265   3.432   1.603  10.319  0.3211 -0.0773  0.3446
   17TCq1    C8  266   3.559   1.438  10.449  0.4762  0.8022 -0.3666
   17TCq1    O4  267   3.484   1.463  10.538  0.4206 -0.3516  0.2131
   17TCq1    C9  268   3.762   1.632  10.050  0.7594 -0.0422  0.2509
   17TCq1    O5  269   3.764   1.727   9.970 -1.1026 -0.6151  0.1328
   17TCq1    O6  270   3.864   1.561  10.078 -0.1724 -0.2920  0.4432
   17TCq1    H1  271   3.217   1.644  10.263  1.2578 -0.3077  0.2433
   17TCq1    H2  272   3.532   1.790  10.057 -1.4633 -0.5395 -0.8799
   17TCq1    H3  273   3.739   1.473  10.236 -0.1982 -0.7795 -1.4974
   17TCq1    H4  274   3.364   1.604  10.403 -0.5252  2.1514 -0.3724
   18MPD2     C  275   3.573   1.205  10.635 -0.1302 -0.2206  0.0975
   18MPD2    C1  276   3.650   1.226  10.527 -0.5285 -0.3315  0.6342
   18MPD2    C2  277   3.749   1.132  10.493  0.3167 -0.0438 -0.0933
   18MPD2    C3  278   3.760   1.019  10.578  0.0062 -0.4559 -0.1961
   18MPD2    C4  279   3.690   1.006  10.689 -0.1512 -0.1143  0.1991
   18MPD2    C5  280   3.599   1.099  10.718 -0.7722  0.6816  0.8548
   18MPD2     H  281   3.823   1.153  10.418  1.8348 -1.6509  0.9527
   18MPD2    H1  282   3.719   0.928  10.758  2.3344 -0.5030 -1.2416
   18MPD2    H2  283   3.501   1.280  10.666  0.4642 -0.0093  0.9772
   18MPD2    H3  284   3.552   1.085  10.815 -1.5818  2.9910  0.7917
   18MPD2     N  285   3.854   0.920  10.555  0.5201 -0.4393 -0.2720
   18MPD2    H5  286   3.844   0.833  10.606 -0.3508 -0.0115  0.2662
   18MPD2    N1  287   3.654   1.340  10.442 -0.0206 -0.2867 -0.0998
   18MPD2    H7  288   3.720   1.344  10.365 -0.4497  0.9076 -0.4084
   19TMC2    C1  289   1.220   1.249  13.755 -0.0413 -0.5298  0.4193
   19TMC2    C2  290   1.213   1.317  13.634  0.7148 -0.9392  0.7036
   19TMC2    C3  291   1.092   1.316  13.575 -0.6968  0.4805  0.2301
   19TMC2    C4  292   1.118   1.171  13.809  0.0894  0.1047 -0.7433
   19TMC2    C5  293   1.003   1.166  13.735 -0.1192  0.7708  0.2155
   19TMC2    C6  294   0.989   1.241  13.623 -0.6659 -0.1401 -0.1768
   19TMC2     C  295   1.332   1.274  13.842 -0.3268  0.2071  0.5398
   19TMC2     O  296   1.398   1.371  13.807 -0.0483  0.0756 -0.0465
   19TMC2     H  297   1.294   1.384  13.607 -0.5292 -0.0655 -0.8753
   19TMC2    H1  298   1.142   1.107  13.892 -1.6224  1.6247  0.9154
   19TMC2    H2  299   0.904   1.215  13.560  0.8120  0.0809 -2.2538
   19TMC2    C7  300   0.908   1.062  13.777  0.1727 -0.5065 -0.3556
   19TMC2    C8  301   1.095   1.328  13.431 -0.0156 -0.7342  0.6292
   19TMC2    O1  302   0.951   0.992  13.866 -0.3071 -0.7069 -0.4640
   19TMC2    O2  303   1.013   1.272  13.360 -0.3119  0.3729  0.1659
   19TMC2    O5  304   1.176   1.429  13.389 -0.4942 -0.1733  0.3621
   19TMC2    H5  305   1.217   1.474  13.465  0.6469 -1.0368  0.2424
   20MPD2     C  306   1.536   1.294  14.049  0.2410 -0.1155 -0.3531
   20MPD2    C1  307   1.440   1.202  14.044  0.0457 -0.5017  0.1999
   20MPD2    C2  308   1.426   1.113  14.147 -0.1324  0.4982 -0.2229
   20MPD2    C3  309   1.505   1.126  14.261  0.2700  0.1048 -0.0369
   20MPD2    C4  310   1.597   1.225  14.267  0.1750 -0.2148 -0.0992
   20MPD2    C5  311   1.616   1.309  14.164 -0.2447 -0.8814 -0.0656
   20MPD2     H  312   1.354   1.033  14.137  1.6097 -1.1481  0.4376
   20MPD2    H1  313   1.654   1.260  14.353 -0.5543  0.1654  0.2312
   20MPD2    H2  314   1.555   1.364  13.969  3.0835 -2.1863 -1.5034
   20MPD2    H3  315   1.694   1.383  14.180 -0.6996 -0.2919 -0.5632
   20MPD2     N  316   1.484   1.048  14.380 -0.8740  0.2809  0.0515
   20MPD2    H5  317   1.556   1.051  14.451 -0.6569  1.9658 -0.2256
   20MPD2    N1  318   1.343   1.189  13.949 -0.1070  0.6109  0.1311
   20MPD2    H7  319   1.281   1.109  13.953  0.0371  0.5160  0.5013
   21MPD2     C  320   3.429   2.010  14.151 -0.4300 -0.3412  0.0058
   21MPD2    C1  321   3.433   1.867  14.130  0.7562  0.1369  0.1005
   21MPD2    C2  322   3.369   1.781  14.217 -0.4154  0.0006 -0.2266
   21MPD2    C3  323   3.302   1.826  14.327 -0.0979 -0.1251  0.6613
   21MPD2    C4  324   3.294   1.960  14.344  0.1212 -0.0852  0.9752
   21MPD2    C5  325   3.361   2.051  14.262 -0.2639  0.3860  0.0342
   21MPD2     H  326   3.377   1.674  14.198 -0.4627 -0.0865  0.2454
   21MPD2    H1  327   3.250   2.000  14.435 -0.8682  1.6070 -0.2388
   21MPD2    H2  328   3.473   2.083  14.085 -1.5749  0.5838  0.2781
   21MPD2    H3  329   3.368   2.155  14.291 -1.5587  0.5534 -0.2761
   21MPD2     N  330   3.239   1.735  14.419  0.0077  0.0215  0.6604
   21MPD2    H5  331   3.185   1.774  14.495 -0.8067 -0.3615  0.2882
   21MPD2    N1  332   3.512   1.810  14.024  0.2367 -0.5191  0.1966
   21MPD2    H7  333   3.498   1.711  14.009 -0.7156 -0.2507 -0.6636
   22TCq2    C1  334   3.259   1.594  14.418  0.0619  0.7115 -0.0935
   22TCq2    O2  335   3.335   1.516  14.358  0.0684 -1.0565 -0.4570
   22TCq2    C2  336   3.172   1.533  14.516  0.0659  0.8053 -0.2013
   22TCq2    C3  337   3.221   1.422  14.575 -0.2362 -0.2459  0.0497
   22TCq2    C4  338   3.166   1.384  14.696  0.3341 -0.0933  0.3678
   22TCq2    C5  339   3.057   1.444  14.739 -0.0295  0.0676  0.1803
   22TCq2    C6  340   3.008   1.552  14.676 -0.0542 -0.5423 -0.4702
   22TCq2    C7  341   3.065   1.603  14.562 -0.2439  0.2155  0.3752
   22TCq2    C8  342   2.872   1.592  14.719  0.6646 -0.6573 -0.0914
   22TCq2    O4  343   2.829   1.515  14.805  0.9683  0.1312  0.3078
   22TCq2    C9  344   3.219   1.263  14.762  0.4195  0.1845  0.3942
   22TCq2    O5  345   3.168   1.241  14.878 -0.1829  0.8266 -0.2115
   22TCq2    O6  346   3.292   1.182  14.700 -0.0551 -0.7807 -0.5327
   22TCq2    H2  347   3.300   1.362  14.532 -0.6856  0.1730 -1.3695
   22TCq2    H3  348   3.017   1.403  14.831 -2.4161  1.5670 -0.1944
   22TCq2    H4  349   3.010   1.682  14.513 -0.5710  0.3658  0.9919
   23MPD2     C  350   0.243   2.675  14.287  0.6836  0.7865 -0.0061
   23MPD2    C1  351   0.119   2.692  14.351  0.0069  0.1123 -0.0355
   23MPD2    C2  352   0.022   2.772  14.298  0.0156 -0.3598  0.4610
   23MPD2    C3  353   0.037   2.841  14.180 -0.4281  0.1223 -0.2980
   23MPD2    C4  354   0.160   2.812  14.107 -0.1681  0.0951 -0.3663
   23MPD2    C5  355   0.256   2.735  14.170 -0.2250 -0.5390  0.2061
   23MPD2     H  356   4.655   2.792  14.359 -1.2533 -0.6293 -1.2800
   23MPD2    H1  357   0.183   2.864  14.015 -1.1589 -1.1234 -1.2973
   23MPD2    H2  358   0.321   2.611  14.327 -0.1832  0.2708  0.8350
   23MPD2    H3  359   0.355   2.727  14.126 -0.0656 -0.0756  0.4738
   23MPD2     N  360   4.669   2.934  14.124  0.2015 -0.6203  0.7223
   23MPD2    H5  361   4.704   2.980  14.040  0.1608  0.6061  1.3779
   23MPD2    N1  362   0.078   2.635  14.475  0.4756 -0.1581 -0.5240
   23MPD2    H7  363   4.703   2.641  14.508  0.4383  0.5391 -0.7671
   24TCq2    C1  364   4.542   2.957  14.172  0.1408 -0.0132  0.0216
   24TCq2    O2  365   4.495   2.920  14.279 -0.0652 -0.1416  0.6841
   24TCq2    C2  366   4.444   3.031  14.092 -0.0645 -0.2952  0.2598
   24TCq2    C3  367   4.464   3.156  14.040  0.0230  0.0155 -0.2240
   24TCq2    C4  368   4.355   3.230  13.993  0.2167  0.0629 -0.2734
   24TCq2    C5  369   4.228   3.166  13.986  0.5195 -0.1513  0.2955
   24TCq2    C6  370   4.211   3.042  14.037  0.1678  0.3516 -0.0824
   24TCq2    C7  371   4.322   2.976  14.085  1.1483 -0.4078  0.5353
   24TCq2    C8  372   4.076   2.981  14.068  0.1687  0.4599 -0.4416
   24TCq2    O4  373   4.086   2.865  14.099 -0.3548  0.7946 -0.1182
   24TCq2    C9  374   4.373   3.372  13.968 -0.0575 -0.5149 -0.1974
   24TCq2    O5  375   4.491   3.414  13.947  0.2306 -0.1686 -0.3808
   24TCq2    O6  376   4.270   3.438  13.935  0.1223  0.3699  0.0043
   24TCq2    H2  377   4.549   3.222  14.053  0.3195 -0.4328  0.0862
   24TCq2    H3  378   4.146   3.227  13.950  0.5253 -1.9025 -2.6790
   24TCq2    H4  379   4.311   2.881  14.135 -0.7324 -0.3619  0.2106
   25TMC2    C1  380   3.241   0.890  11.107 -0.4950 -0.5269  0.9541
   25TMC2    C2  381   3.281   1.022  11.096 -0.6987 -0.5480  0.4948
   25TMC2    C3  382   3.222   1.107  11.188 -0.1073  0.2864 -0.8798
   25TMC2    C4  383   3.180   0.840  11.222  0.2812 -0.4052 -0.1734
   25TMC2    C5  384   3.135   0.935  11.314  0.4261 -0.2139  0.2595
   25TMC2    C6  385   3.152   1.067  11.297 -0.4605 -1.0195  0.1306
   25TMC2     C  386   3.297   0.803  11.008 -0.5639 -0.2636  0.4107
   25TMC2     O  387   3.371   0.851  10.925  0.0321 -0.2446 -0.3363
   25TMC2     H  388   3.336   1.059  11.011 -0.6065  2.5799  1.9387
   25TMC2    H1  389   3.143   0.738  11.230 -1.1584  0.0601 -0.8833
   25TMC2    H2  390   3.134   1.143  11.372  1.7788 -0.5316  0.1626
   25TMC2    C7  391   3.062   0.889  11.433  0.0861 -1.0025 -0.5138
   25TMC2    C8  392   3.233   1.244  11.164  0.3269 -0.5226  0.2605
   25TMC2    O1  393   3.089   0.782  11.483  0.1998  0.2503  0.4795
   25TMC2    O2  394   3.160   1.326  11.220 -0.1461  0.0273  0.5057
   25TMC2    O5  395   3.339   1.277  11.093  0.1540  0.0057 -0.2045
   25TMC2    H5  396   3.394   1.196  11.079  1.3232  0.9440 -1.0447
   26MPD2     C  397   3.431   0.356  10.830  0.4351  0.3651  0.3087
   26MPD2    C1  398   3.308   0.337  10.888 -0.4243 -0.0124  0.3287
   26MPD2    C2  399   3.254   0.445  10.959 -0.3893 -0.3139 -0.2939
   26MPD2    C3  400   3.302   0.569  10.950  0.1706 -0.1329 -0.0332
   26MPD2    C4  401   3.433   0.579  10.898 -0.2221 -0.8304 -0.6501
   26MPD2    C5  402   3.494   0.476  10.839 -0.0160  0.9320  0.2335
   26MPD2     H  403   3.156   0.437  11.006  0.0324  2.5824  1.0656
   26MPD2    H1  404   3.495   0.668  10.902 -0.7142 -0.4695 -1.1235
   26MPD2    H2  405   3.485   0.288  10.765  0.6211  0.2710  0.5577
   26MPD2    H3  406   3.588   0.501  10.793 -0.2297  1.5811  0.1511
   26MPD2     N  407   3.237   0.680  11.015  0.0853 -0.8336 -0.5072
   26MPD2    H5  408   3.159   0.656  11.075  1.2733 -1.7572  0.6625
   26MPD2    N1  409   3.253   0.214  10.877  0.1087  1.0644 -0.1519
   26MPD2    H7  410   3.291   0.150  10.808  1.6443  1.9274 -0.0978
   27TMC2    C1  411   2.903   2.852  11.992 -0.2704 -0.6435  0.2171
   27TMC2    C2  412   3.024   2.859  11.920  0.0474  0.2093  0.7138
   27TMC2    C3  413   3.138   2.894  11.977 -0.5977  0.1441  0.1791
   27TMC2    C4  414   2.897   2.902  12.125 -0.2197 -0.8214 -0.3334
   27TMC2    C5  415   3.017   2.946  12.172 -0.1067  1.2209  0.7117
   27TMC2    C6  416   3.135   2.944  12.100  0.4828  0.1369 -0.0892
   27TMC2     C  417   2.780   2.837  11.915  0.3262  0.2126 -0.3976
   27TMC2     O  418   2.797   2.791  11.800 -0.0896 -0.2178  0.5749
   27TMC2     H  419   3.028   2.801  11.828 -1.7810  2.3078 -0.7047
   27TMC2    H1  420   2.807   2.906  12.186  0.5262 -0.7371  0.7614
   27TMC2    H2  421   3.228   2.973  12.147  1.2317 -0.5117 -1.1813
   27TMC2    C7  422   3.039   2.940  12.319 -0.2885 -0.0908 -0.3338
   27TMC2    C8  423   3.275   2.856  11.927 -0.2456 -0.1886 -0.3791
   27TMC2    O1  424   3.140   2.981  12.373  0.3639  0.4716 -0.2844
   27TMC2    O2  425   3.366   2.816  12.001 -0.1091 -0.3088  0.0727
   27TMC2    O5  426   3.259   2.820  11.796  0.0184 -0.5219 -0.4882
   27TMC2    H5  427   3.201   2.871  11.735  1.3575 -0.4163 -1.6674
   28MPD2     C  428   2.281   2.788  11.870 -0.3527 -0.2954  0.3584
   28MPD2    C1  429   2.305   2.828  11.998 -0.1929  1.0200 -0.0448
   28MPD2    C2  430   2.437   2.848  12.040 -0.6303  0.0047  0.5158
   28MPD2    C3  431   2.534   2.848  11.939 -0.3485 -0.3771 -0.1618
   28MPD2    C4  432   2.500   2.832  11.803  0.1201  0.4823 -0.1396
   28MPD2    C5  433   2.373   2.805  11.771 -0.6465 -0.4710 -0.5326
   28MPD2     H  434   2.465   2.868  12.143 -0.9188  0.1539  0.5642
   28MPD2    H1  435   2.568   2.855  11.722  0.7609  0.7638  0.4775
   28MPD2    H2  436   2.187   2.739  11.847 -0.3596  0.3986 -1.0698
   28MPD2    H3  437   2.340   2.791  11.668 -1.1577 -0.1799 -0.4073
   28MPD2     N  438   2.670   2.868  11.981  0.3754 -0.1071 -0.3745
   28MPD2    H5  439   2.676   2.878  12.082 -0.8824  1.5297 -0.4648
   28MPD2    N1  440   2.194   2.819  12.091  0.5862  0.6089 -0.0110
   28MPD2    H7  441   2.105   2.807  12.043 -1.1596  3.3917  2.5468
   29MPD2     C  442   1.504   4.221  14.286 -0.4778  0.5760  0.0257
   29MPD2    C1  443   1.543   4.219  14.417 -0.4054  0.2984  0.2054
   29MPD2    C2  444   1.576   4.337  14.479 -0.2026 -0.3008 -0.1975
   29MPD2    C3  445   1.563   4.457  14.411  0.7508 -0.5250 -1.0224
   29MPD2    C4  446   1.528   4.452  14.275 -0.3835  0.0645 -0.2649
   29MPD2    C5  447   1.498   4.336  14.209 -0.7244 -0.3656  0.7118
   29MPD2     H  448   1.613   4.334  14.580  0.3311  4.4447 -0.2733
   29MPD2    H1  449   1.513   4.542  14.217  0.4366  0.7801  0.6402
   29MPD2    H2  450   1.488   4.131  14.228  0.0832 -0.1722  1.0248
   29MPD2    H3  451   1.468   4.335  14.105  1.3300  0.4917  0.1113
   29MPD2     N  452   1.579   4.585  14.469 -0.1747 -0.3669 -0.4302
   29MPD2    H5  453   1.560   4.666  14.411 -1.0607  0.8356  1.5364
   29MPD2    N1  454   1.549   4.099  14.488  0.2063 -0.4707  0.3626
   29MPD2    H7  455   1.601   4.105  14.575 -0.0039 -0.5469  0.4920
   30TCq2    C1  456   1.619   4.610  14.602  0.2891  0.2785  0.2583
   30TCq2    O2  457   1.657   4.532  14.690 -0.0512 -0.3989 -0.1281
   30TCq2    C2  458   1.620   0.031  14.630 -0.3561  0.1230 -0.6521
   30TCq2    C3  459   1.664   0.062  14.759 -0.7120 -0.5026 -0.1760
   30TCq2    C4  460   1.674   0.186  14.799 -0.8395  0.1591 -0.0370
   30TCq2    C5  461   1.655   0.280  14.699  0.1497  0.0254  0.1400
   30TCq2    C6  462   1.622   0.259  14.571  0.1685  0.3014  0.0534
   30TCq2    C7  463   1.602   0.127  14.531  0.2649  0.4855  0.2683
   30TCq2    C8  464   1.599   0.368  14.477  0.3740 -0.1032 -0.3304
   30TCq2    O4  465   1.524   0.359  14.381 -0.6698 -0.1177 -0.1253
   30TCq2    C9  466   1.689   0.224  14.936 -0.3459 -0.7382  0.1618
   30TCq2    O5  467   1.721   0.132  15.017 -0.2901  0.2240 -0.1562
   30TCq2    O6  468   1.653   0.344  14.961  0.0483 -0.2622  0.5574
   30TCq2    H2  469   1.690   4.708  14.834  0.1704  0.6505  0.6766
   30TCq2    H3  470   1.663   0.384  14.732  1.6601 -0.1308  0.2837
   30TCq2    H4  471   1.567   0.107  14.430 -1.1219  1.6584  0.5161
   31MPD2     C  472   4.057   3.345  14.226  0.2593 -0.1450  0.6815
   31MPD2    C1  473   4.120   3.464  14.274  1.0440  0.1430 -0.2724
   31MPD2    C2  474   4.087   3.506  14.409  0.3663 -0.7132 -0.3390
   31MPD2    C3  475   4.006   3.427  14.486 -0.4561 -0.7270  0.1116
   31MPD2    C4  476   3.955   3.309  14.433  0.6880 -0.6536  0.1616
   31MPD2    C5  477   3.969   3.279  14.305 -0.6102  0.3165 -0.1083
   31MPD2     H  478   4.139   3.593  14.449  0.7891 -0.2054 -2.0302
   31MPD2    H1  479   3.898   3.241  14.496  0.4591 -0.8330 -0.2457
   31MPD2    H2  480   4.067   3.305  14.126  0.5513  0.5642  0.4235
   31MPD2    H3  481   3.923   3.186  14.273 -0.4575  0.1034  0.3062
   31MPD2     N  482   3.977   3.460  14.620  0.0100  0.0410  0.9182
   31MPD2    H5  483   3.916   3.399  14.674 -0.3108  1.8003  2.5680
   31MPD2    N1  484   4.206   3.537  14.192 -0.4603  0.6432 -0.3462
   31MPD2    H7  485   4.220   3.501  14.098  2.9108  0.2327  0.3216
   32TCq2    C1  486   3.974   3.592  14.661  0.3146  0.1692  1.2417
   32TCq2    O2  487   4.006   3.694  14.603 -0.1864  0.8493  0.4065
   32TCq2    C2  488   3.885   3.608  14.779  0.6675 -0.9243  0.0096
   32TCq2    C3  489   3.796   3.707  14.769  0.1381 -0.1215  0.3948
   32TCq2    C4  490   3.716   3.733  14.878 -0.6310 -0.2388  0.4914
   32TCq2    C5  491   3.735   3.660  14.997 -0.1821  0.5530  0.2276
   32TCq2    C6  492   3.815   3.554  14.997  0.7751  0.1244  1.0685
   32TCq2    C7  493   3.892   3.520  14.881  0.4445 -0.6693 -0.0073
   32TCq2    C8  494   3.840   3.476  15.115 -0.0443  0.1075  0.0597
   32TCq2    O4  495   3.935   3.395  15.114  0.0514  0.0266 -0.0182
   32TCq2    C9  496   3.631   3.850  14.882 -0.6137 -0.2786 -0.2149
   32TCq2    O5  497   3.621   3.905  14.769 -0.1516  0.0187  0.3202
   32TCq2    O6  498   3.560   3.873  14.979 -0.1987 -0.1230 -0.1645
   32TCq2    H2  499   3.790   3.772  14.682 -0.4445  0.4469  0.8567
   32TCq2    H3  500   3.681   3.690  15.086  1.1840 -2.2881  1.9688
   32TCq2    H4  501   3.964   3.439  14.872  0.8731 -0.4225  1.1724
   33MPD2     C  502   4.653   0.642  10.213  0.2114  0.0984  0.6821
   33MPD2    C1  503   4.525   0.650  10.165  1.0086 -0.4775 -0.3346
   33MPD2    C2  504   4.508   0.686  10.031  0.3975  0.7613  0.5984
   33MPD2    C3  505   4.612   0.722   9.948  0.4455 -0.4111  0.6205
   33MPD2    C4  506   0.016   0.713  10.006  0.0016 -0.2474  0.0720
   33MPD2    C5  507   0.033   0.661  10.131  0.8876 -0.7828  0.3664
   33MPD2     H  508   4.408   0.685   9.991  0.5626  0.5398  0.1965
   33MPD2    H1  509   0.107   0.728   9.948  0.3358 -0.8201  0.4555
   33MPD2    H2  510   4.673   0.614  10.316  0.3903  1.4527  1.0043
   33MPD2    H3  511   0.130   0.642  10.175 -0.2199 -1.3618  2.5744
   33MPD2     N  512   4.598   0.765   9.815  0.3502  0.4643 -0.5446
   33MPD2    H5  513   4.683   0.807   9.779  0.5703  0.8297  0.4289
   33MPD2    N1  514   4.411   0.640  10.251  0.2856 -0.0855  0.7544
   33MPD2    H7  515   4.441   0.614  10.345 -0.0335 -2.6329  0.1434
   34TCq2    C1  516   4.486   0.769   9.743 -0.4748 -0.7477 -0.0419
   34TCq2    O2  517   4.395   0.688   9.751 -1.2113 -0.4518  0.0864
   34TCq2    C2  518   4.497   0.840   9.613  0.5203 -0.0970  0.1431
   34TCq2    C3  519   4.416   0.795   9.509 -0.3566  0.3571  0.4082
   34TCq2    C4  520   4.448   0.843   9.384  0.9188 -0.2881 -1.0347
   34TCq2    C5  521   4.534   0.939   9.359 -0.4908 -0.2052 -0.2121
   34TCq2    C6  522   4.606   0.977   9.469 -0.5198 -0.4999 -0.4740
   34TCq2    C7  523   4.594   0.934   9.589  0.6231 -0.4676 -0.4006
   34TCq2    C8  524   4.661   1.113   9.463 -0.0857 -0.6893 -0.1171
   34TCq2    O4  525   0.028   1.150   9.537  0.4219  0.1262  0.2619
   34TCq2    C9  526   4.366   0.790   9.276 -0.5592 -0.2170  0.8931
   34TCq2    O5  527   4.365   0.842   9.164  0.3962  0.3771  0.1166
   34TCq2    O6  528   4.273   0.708   9.304 -0.1825 -0.2398 -0.2082
   34TCq2    H2  529   4.334   0.725   9.523  0.0847 -0.3236 -0.3900
   34TCq2    H3  530   4.543   0.975   9.257  0.8835 -1.3627 -0.4845
   34TCq2    H4  531   4.660   0.977   9.663 -1.2356  0.1127  0.9259
   35MPD2     C  532   1.348   2.546  11.529  0.1149 -0.0986  0.6540
   35MPD2    C1  533   1.337   2.495  11.657 -0.5521  0.5695  0.3650
   35MPD2    C2  534   1.210   2.453  11.697  0.7977  0.1015  0.2308
   35MPD2    C3  535   1.102   2.464  11.618 -0.2472  0.4345 -0.1238
   35MPD2    C4  536   1.110   2.523  11.497  0.4224  0.2823  0.4840
   35MPD2    C5  537   1.234   2.557  11.458 -0.1431  0.2809  0.2216
   35MPD2     H  538   1.196   2.402  11.791 -1.0990  1.2461  0.5738
   35MPD2    H1  539   1.028   2.538  11.429  0.2376 -2.0163  0.1986
   35MPD2    H2  540   1.447   2.571  11.492 -0.4069 -0.0535 -0.7075
   35MPD2    H3  541   1.243   2.598  11.358 -1.7558  0.6008  0.1914
   35MPD2     N  542   0.981   2.403  11.660  0.3668  0.6943 -0.0532
   35MPD2    H5  543   0.980   2.354  11.749  1.9685 -0.1803 -0.5321
   35MPD2    N1  544   1.449   2.493  11.742  0.2943  0.9095  0.1361
   35MPD2    H7  545   1.537   2.530  11.706 -0.4850  1.5700 -1.0636
   36TCq2    C1  546   0.862   2.401  11.587 -0.2276  0.3596  0.0385
   36TCq2    O2  547   0.829   2.466  11.489 -0.0839 -0.7314 -0.6335
   36TCq2    C2  548   0.751   2.337  11.663  0.3809  0.1749 -0.0160
   36TCq2    C3  549   0.630   2.356  11.608  0.5832  0.1007  0.0814
   36TCq2    C4  550   0.535   2.264  11.638  0.1348 -0.1262  0.4394
   36TCq2    C5  551   0.556   2.170  11.736  0.2234  0.0445  0.4585
   36TCq2    C6  552   0.678   2.157  11.789  0.0598 -0.1827  0.3841
   36TCq2    C7  553   0.783   2.234  11.742  0.8834  0.2688 -0.4403
   36TCq2    C8  554   0.715   2.031  11.844  0.1288 -0.5912 -0.2097
   36TCq2    O4  555   0.631   1.940  11.831  0.0755  0.1370  0.4025
   36TCq2    C9  556   0.408   2.260  11.571  0.1324 -0.0447  0.4228
   36TCq2    O5  557   0.387   2.357  11.490  0.3563  0.4227  0.1060
   36TCq2    O6  558   0.318   2.177  11.601 -0.1034 -0.3013 -0.7332
   36TCq2    H2  559   0.603   2.436  11.540  0.5510 -0.4461 -0.5473
   36TCq2    H3  560   0.475   2.098  11.741 -0.5518  0.8302 -0.6851
   36TCq2    H4  561   0.884   2.198  11.757  0.6111 -0.0305  0.6819
   37TMC2    C1  562   3.664   3.069  11.195  0.6468 -0.0560  0.9449
   37TMC2    C2  563   3.629   2.959  11.120  0.1815  0.1750  1.1009
   37TMC2    C3  564   3.733   2.878  11.097  0.6095 -0.6244 -0.2223
   37TMC2    C4  565   3.787   3.102  11.236 -0.3426 -0.4159 -0.2545
   37TMC2    C5  566   3.890   3.013  11.206 -0.5572 -0.3582 -0.2771
   37TMC2    C6  567   3.862   2.897  11.142  0.1751  0.2582  0.0589
   37TMC2     C  568   3.551   3.087  11.292  0.5048  0.0076 -0.0949
   37TMC2     O  569   3.434   3.095  11.249  0.1118  0.2358  0.5191
   37TMC2     H  570   3.529   2.928  11.095 -0.1744  1.3333  1.0838
   37TMC2    H1  571   3.809   3.196  11.284  0.0663 -1.3387  1.3854
   37TMC2    H2  572   3.932   2.815  11.125  1.9018  1.7305  0.0236
   37TMC2    C7  573   4.015   3.029  11.287 -0.2215 -0.0208  0.3668
   37TMC2    C8  574   3.706   2.757  11.022  0.2025 -0.8404 -0.5209
   37TMC2    O1  575   4.031   3.133  11.350 -0.8466  0.4085 -0.3054
   37TMC2    O2  576   3.595   2.708  11.030  0.3959 -0.2213  0.0650
   37TMC2    O5  577   3.807   2.731  10.944  0.1252 -0.0324 -0.3066
   37TMC2    H5  578   3.873   2.802  10.932  0.2943 -0.3683 -1.3867
   38MPD2     C  579   3.362   3.184  11.757  0.0239 -0.3416  0.2176
   38MPD2    C1  580   3.489   3.126  11.764 -0.4532  0.2953 -0.2693
   38MPD2    C2  581   3.565   3.101  11.655 -0.3399 -0.4555 -0.5059
   38MPD2    C3  582   3.522   3.135  11.532 -0.2812 -0.0682  0.0437
   38MPD2    C4  583   3.401   3.203  11.525  0.1751  0.2938  0.5896
   38MPD2    C5  584   3.315   3.221  11.636 -0.1731 -0.3409  0.0362
   38MPD2     H  585   3.665   3.062  11.667 -0.6577 -1.3641 -0.8645
   38MPD2    H1  586   3.368   3.240  11.429 -1.9570  1.2761  1.6864
   38MPD2    H2  587   3.297   3.193  11.844 -0.9596  1.8085 -0.7449
   38MPD2    H3  588   3.219   3.271  11.625  0.5617  0.8217 -1.0740
   38MPD2     N  589   3.598   3.098  11.420  0.4516  0.5245  0.7800
   38MPD2    H5  590   3.688   3.056  11.442  0.3364  0.3281  0.8781
   38MPD2    N1  591   3.546   3.081  11.880  0.7038  0.3303 -0.0510
   38MPD2    H7  592   3.632   3.028  11.879  0.8689  0.5956  0.4496
   39MPD2     C  593   1.732   4.609   1.811  0.1672 -0.4137  0.0713
   39MPD2    C1  594   1.767   4.509   1.727  0.4039 -0.7220 -0.0047
   39MPD2    C2  595   1.695   4.491   1.611  0.3810  0.7207  0.3481
   39MPD2    C3  596   1.591   4.571   1.583 -0.1809  0.5582  0.7697
   39MPD2    C4  597   1.552   4.671   1.669  0.4931 -0.4674  0.3542
   39MPD2    C5  598   1.627   4.691   1.781  0.7472  0.5294 -0.5878
   39MPD2     H  599   1.726   4.407   1.550  0.7426 -0.3275  1.9741
   39MPD2    H1  600   1.483   0.027   1.636 -1.2491 -1.6130  1.3386
   39MPD2    H2  601   1.794   4.640   1.894 -1.0217 -0.3781  0.9455
   39MPD2    H3  602   1.611   0.059   1.840 -0.8901 -0.3564  0.3071
   39MPD2     N  603   1.523   4.565   1.458  0.2555 -0.2381  0.1385
   39MPD2    H5  604   1.453   4.639   1.450  0.4455  0.2249  2.5666
   39MPD2    N1  605   1.880   4.436   1.775  0.0906  0.3135 -0.4602
   39MPD2    H7  606   1.922   4.478   1.858 -2.0077  1.4433  0.0193
   40TCq2    C1  607   1.934   4.318   1.722  0.6788  0.3061 -0.4258
   40TCq2    O2  608   1.881   4.245   1.638  0.1485 -0.3279 -0.5662
   40TCq2    C2  609   2.047   4.268   1.806 -0.7368 -0.0032  0.1563
   40TCq2    C3  610   2.130   4.360   1.859 -0.0900 -0.2192  1.0939
   40TCq2    C4  611   2.247   4.318   1.909 -0.2638  0.3976  0.4308
   40TCq2    C5  612   2.293   4.193   1.888  0.3427  0.8058 -0.0314
   40TCq2    C6  613   2.213   4.106   1.825 -0.3819  0.4479 -0.0446
   40TCq2    C7  614   2.083   4.134   1.785  0.2989 -0.9852  0.2261
   40TCq2    C8  615   2.268   3.980   1.780 -0.0466 -0.1693  0.3629
   40TCq2    O4  616   2.185   3.895   1.751 -0.1404 -0.3186 -0.1543
   40TCq2    C9  617   2.330   4.415   1.977 -0.1642 -0.4248  0.8788
   40TCq2    O5  618   2.287   4.534   1.978  0.6902 -0.0029 -0.1439
   40TCq2    O6  619   2.438   4.372   2.023  0.0158  0.0114 -0.6222
   40TCq2    H2  620   2.107   4.465   1.872  0.3401  0.0487 -0.3827
   40TCq2    H3  621   2.383   4.162   1.938  0.8112 -0.9632 -1.9528
   40TCq2    H4  622   2.026   4.071   1.719 -0.1373  0.9681 -1.2706
   41TMC2    C1  623   1.023   3.062  13.437  0.1317 -0.2776  0.0610
   41TMC2    C2  624   0.984   3.144  13.543  0.1842 -0.3036 -0.4916
   41TMC2    C3  625   0.951   3.272  13.520  0.5458 -0.0320  0.5309
   41TMC2    C4  626   1.022   3.110  13.308  0.1010 -0.5487  0.3828
   41TMC2    C5  627   0.986   3.242  13.288 -0.4952 -0.3288 -0.2838
   41TMC2    C6  628   0.943   3.324  13.393  0.0453  0.5295  0.5134
   41TMC2     C  629   1.016   2.921  13.448  0.5697 -0.6660  0.7340
   41TMC2     O  630   1.032   2.859  13.344  0.4844  0.0583  0.1803
   41TMC2     H  631   0.997   3.113  13.646 -1.8257  3.2954  0.8410
   41TMC2    H1  632   1.024   3.054  13.215  0.8101  0.3339 -0.1302
   41TMC2    H2  633   0.926   3.428  13.368  1.3479 -0.0272 -2.6908
   41TMC2    C7  634   1.031   3.327  13.171  0.0506 -0.1899  0.3064
   41TMC2    C8  635   0.921   3.358  13.642  0.0735 -0.1632  0.6122
   41TMC2    O1  636   1.000   3.445  13.164 -0.5443 -0.2425 -0.2103
   41TMC2    O2  637   0.865   3.322  13.743 -0.2792 -0.0766 -0.1944
   41TMC2    O5  638   0.951   3.490  13.611 -0.4537  0.5431 -0.0678
   41TMC2    H5  639   1.020   3.508  13.543 -0.8914  1.2506 -0.3191
   42MPD2     C  640   0.944   2.644  13.520  0.0903 -1.0705  0.0082
   42MPD2    C1  641   0.946   2.741  13.617  0.0866 -0.3379 -0.2472
   42MPD2    C2  642   0.888   2.721  13.745  0.2775  0.3379  0.4593
   42MPD2    C3  643   0.829   2.598  13.771 -0.2155  0.0407 -0.3231
   42MPD2    C4  644   0.835   2.493  13.678 -0.1722 -0.2753  0.3198
   42MPD2    C5  645   0.898   2.524  13.558 -0.0495 -0.1450  0.0542
   42MPD2     H  646   0.897   2.795  13.824 -0.3279 -1.1561  1.9231
   42MPD2    H1  647   0.788   2.397  13.695  2.2768 -1.2275  1.7136
   42MPD2    H2  648   0.980   2.657  13.419  0.8562 -0.9158  0.3018
   42MPD2    H3  649   0.894   2.445  13.484  0.9815 -0.0229 -0.1208
   42MPD2     N  650   0.763   2.568  13.890  0.0166  0.2203  0.1660
   42MPD2    H5  651   0.731   2.473  13.907  1.4097 -0.5947 -1.7983
   42MPD2    N1  652   0.985   2.873  13.576 -0.7420 -0.1062  1.0959
   42MPD2    H7  653   0.964   2.941  13.649  0.2810  1.2312  0.1431
   43MPD2     C  654   2.401   0.423   1.068  0.3657 -0.5419 -0.3808
   43MPD2    C1  655   2.341   0.454   0.949  0.0647  0.0066  0.0630
   43MPD2    C2  656   2.302   0.582   0.931 -0.2599  0.0719 -0.2674
   43MPD2    C3  657   2.310   0.678   1.035 -0.3430  0.5092  0.0766
   43MPD2    C4  658   2.392   0.655   1.137 -0.8680  0.9579  0.3598
   43MPD2    C5  659   2.431   0.524   1.152  0.5628  0.1625  0.2992
   43MPD2     H  660   2.249   0.603   0.839  0.1084  2.1522 -0.0150
   43MPD2    H1  661   2.420   0.722   1.217 -3.2642  1.4724  0.7706
   43MPD2    H2  662   2.438   0.329   1.106 -0.9178 -1.4734 -1.4799
   43MPD2    H3  663   2.484   0.499   1.243  0.8180  0.2062  0.1620
   43MPD2     N  664   2.253   0.801   1.029 -0.5599 -0.0644 -0.5630
   43MPD2    H5  665   2.278   0.865   1.103 -0.5492  0.3018 -0.8841
   43MPD2    N1  666   2.327   0.362   0.843  1.0993 -0.2976  0.0430
   43MPD2    H7  667   2.269   0.396   0.768  0.1984 -1.0516  0.3991
   44TCq2    C1  668   2.171   1.287   1.152 -0.1042  0.9480 -0.8145
   44TCq2    O2  669   2.152   1.408   1.146 -0.2528  0.3348  0.0958
   44TCq2    C2  670   2.139   1.206   1.044 -0.2700  1.0027  0.1712
   44TCq2    C3  671   2.088   1.268   0.942  0.0643  0.3100 -0.2330
   44TCq2    C4  672   2.058   1.182   0.841 -0.2953  0.0614 -0.0901
   44TCq2    C5  673   2.076   1.051   0.843  0.5664 -0.5686  0.1489
   44TCq2    C6  674   2.136   0.989   0.946 -0.0001  0.2133  0.1644
   44TCq2    C7  675   2.170   1.068   1.054  0.8021 -0.2368  0.0241
   44TCq2    C8  676   2.162   0.845   0.931 -0.2251  0.5956 -1.2984
   44TCq2    O4  677   2.115   0.780   0.838 -0.4757 -0.7414  0.2055
   44TCq2    C9  678   2.018   1.236   0.716 -0.0719 -0.3344  1.2056
   44TCq2    O5  679   1.967   1.157   0.631 -0.1647  0.4026  0.1660
   44TCq2    O6  680   2.011   1.364   0.706 -0.5139  0.3820  0.0341
   44TCq2    H2  681   2.089   1.376   0.934 -0.4940  0.3386  0.1081
   44TCq2    H3  682   2.052   0.997   0.752  0.4066 -2.3892  1.2642
   44TCq2    H4  683   2.208   1.019   1.143  0.2448 -0.9050 -0.1042
   45TMC2    C1  684   2.595   3.252   9.169 -0.0991  0.6335  0.0113
   45TMC2    C2  685   2.470   3.320   9.173  0.1860 -0.2335  0.6726
   45TMC2    C3  686   2.465   3.449   9.215 -0.2433  0.2963  0.5892
   45TMC2    C4  687   2.706   3.321   9.216 -0.2059  0.5200 -0.7738
   45TMC2    C5  688   2.691   3.443   9.281  0.4222  0.1723  0.4610
   45TMC2    C6  689   2.568   3.502   9.289  0.2803  0.3890 -0.3488
   45TMC2     C  690   2.607   3.120   9.108 -0.1308 -0.1995 -0.2412
   45TMC2     O  691   2.718   3.082   9.076  0.4231 -0.6076 -0.3209
   45TMC2     H  692   2.385   3.285   9.116  0.6830  0.2687 -0.3738
   45TMC2    H1  693   2.802   3.272   9.218 -1.7974 -2.6505 -1.6321
   45TMC2    H2  694   2.553   3.601   9.331  0.1236 -0.0246  0.5556
   45TMC2    C7  695   2.793   3.517   9.347  0.2760 -0.4079  0.6766
   45TMC2    C8  696   2.343   3.513   9.238 -0.2047  0.3297  0.6210
   45TMC2    O1  697   2.761   3.619   9.408 -0.1123  0.6367 -0.7688
   45TMC2    O2  698   2.299   3.548   9.351  0.3109  0.4435  0.6841
   45TMC2    O5  699   2.280   3.505   9.117  0.2784 -0.2069  0.1424
   45TMC2    H5  700   2.343   3.478   9.047 -0.7063 -2.0413 -0.0446
   46MPD2     C  701   2.560   2.861   8.956 -0.0638 -0.6379  0.4377
   46MPD2    C1  702   2.469   2.923   9.043  0.8907 -0.3309  0.2554
   46MPD2    C2  703   2.345   2.865   9.062  0.2436 -0.2119 -0.1425
   46MPD2    C3  704   2.304   2.740   9.014 -0.2112  0.0979  0.0483
   46MPD2    C4  705   2.401   2.679   8.937  0.1171  0.6023  0.4080
   46MPD2    C5  706   2.526   2.740   8.912  0.1261 -0.3139 -0.4533
   46MPD2     H  707   2.282   2.924   9.127  0.8088  1.5412 -1.1635
   46MPD2    H1  708   2.395   2.573   8.914  1.1098  1.1234 -2.2156
   46MPD2    H2  709   2.660   2.899   8.940 -0.1180 -0.1117  1.2864
   46MPD2    H3  710   2.595   2.677   8.857 -0.7880 -1.4919 -0.2316
   46MPD2     N  711   2.175   2.694   9.046  0.4958 -0.2690  0.2156
   46MPD2    H5  712   2.118   2.767   9.090  0.5339  0.7053 -1.3649
   46MPD2    N1  713   2.494   3.047   9.110 -0.3783  0.5046  0.2238
   46MPD2    H7  714   2.416   3.082   9.165 -1.2652 -0.4549 -0.4297
   47TMC2    C1  715   4.689   3.630   9.394 -0.4091  0.7423 -0.2560
   47TMC2    C2  716   4.702   3.520   9.309 -0.1484  0.6359 -0.0697
   47TMC2    C3  717   4.661   3.526   9.181 -0.6023 -0.0762  0.2831
   47TMC2    C4  718   4.614   3.734   9.356  0.0144 -0.9399 -0.4118
   47TMC2    C5  719   4.582   3.743   9.217  0.1995  0.0098  0.1102
   47TMC2    C6  720   4.611   3.642   9.130  0.8517  0.3177  0.8718
   47TMC2     C  721   0.036   3.635   9.522  0.0747  0.5872 -0.8242
   47TMC2     O  722   0.063   3.750   9.550  0.1538 -0.3509  0.0293
   47TMC2     H  723   0.035   3.430   9.336 -3.2057 -0.7956  1.2392
   47TMC2    H1  724   4.607   3.823   9.418  0.1803 -0.3838 -1.1910
   47TMC2    H2  725   4.571   3.649   9.030  1.4768 -1.3356  0.5068
   47TMC2    C7  726   4.567   3.879   9.160  0.2948 -0.6900 -0.2133
   47TMC2    C8  727   0.018   3.435   9.097  0.3932  0.4867  0.0710
   47TMC2    O1  728   4.609   3.897   9.046  0.1627 -0.4480 -0.0604
   47TMC2    O2  729   0.050   3.322   9.139 -0.2513 -1.0377 -0.1564
   47TMC2    O5  730   0.097   3.519   9.019  0.0408 -0.1454 -0.7855
   47TMC2    H5  731   0.051   3.594   8.976  1.4433  1.9008  1.3488
   48MPD2     C  732   0.241   3.612   9.718  0.5827 -0.4450 -0.2578
   48MPD2    C1  733   0.186   3.502   9.650 -0.6655  0.3934  0.3071
   48MPD2    C2  734   0.235   3.378   9.672  0.4800 -0.9218  0.2815
   48MPD2    C3  735   0.339   3.354   9.751 -0.2815 -0.6450 -0.3408
   48MPD2    C4  736   0.402   3.459   9.812  0.4536 -0.1246  0.5104
   48MPD2    C5  737   0.350   3.585   9.801 -0.6386 -0.8184 -0.6432
   48MPD2     H  738   0.180   3.298   9.625 -1.6059  1.2833 -0.9984
   48MPD2    H1  739   0.494   3.447   9.868 -0.9400 -0.5557  2.7100
   48MPD2    H2  740   0.216   3.717   9.709 -0.4024 -0.7107 -0.6925
   48MPD2    H3  741   0.411   3.662   9.846 -1.7346 -0.0769 -0.4251
   48MPD2     N  742   0.387   3.218   9.762  0.1344  0.0287  0.0197
   48MPD2    H5  743   0.332   3.144   9.720 -1.3217 -0.3623  2.6187
   48MPD2    N1  744   0.076   3.513   9.571 -0.2360  0.5998 -0.4489
   48MPD2    H7  745   0.037   3.429   9.530 -0.9380  0.6019  0.2196
   49MPD2     C  746   3.488   0.649   9.828 -0.3298  0.2594  0.9798
   49MPD2    C1  747   3.397   0.619   9.922 -0.1518  0.1755  0.0442
   49MPD2    C2  748   3.365   0.709  10.019 -0.2058 -0.5118  0.0439
   49MPD2    C3  749   3.420   0.834  10.017 -0.0304 -0.4505 -0.3500
   49MPD2    C4  750   3.512   0.874   9.922  0.2831  0.0317  0.4260
   49MPD2    C5  751   3.529   0.783   9.819  0.2189  0.0242 -0.6297
   49MPD2     H  752   3.303   0.677  10.102  0.1587  0.7752  0.8127
   49MPD2    H1  753   3.561   0.969   9.907  2.2146 -0.7324  1.9363
   49MPD2    H2  754   3.513   0.581   9.747 -2.2868  0.2653  0.3790
   49MPD2    H3  755   3.588   0.808   9.731  1.9928 -2.4243 -0.1452
   49MPD2     N  756   3.383   0.941  10.106  0.0245  0.4229 -0.0740
   49MPD2    H5  757   3.432   1.030  10.107  1.2218 -0.2165 -1.0263
   49MPD2    N1  758   3.348   0.493   9.945 -0.3096  0.1693  0.2128
   49MPD2    H7  759   3.286   0.480  10.024  0.7258 -2.0222  0.6782
   50TCq2    C1  760   3.388   0.379   9.887 -0.3122 -0.9371 -0.3941
   50TCq2    O2  761   3.468   0.359   9.796  0.6956 -0.0068  0.0853
   50TCq2    C2  762   3.303   0.264   9.928 -0.9664  0.0240  0.2914
   50TCq2    C3  763   3.181   0.282  10.000 -0.5069  0.4566 -0.1452
   50TCq2    C4  764   3.084   0.191  10.013  0.0847  0.7413 -0.6093
   50TCq2    C5  765   3.096   0.075   9.949  0.2468  0.0769  0.0136
   50TCq2    C6  766   3.203   0.060   9.868  0.8265 -0.2186  0.1302
   50TCq2    C7  767   3.309   0.146   9.865 -0.2189  0.4033  0.2598
   50TCq2    C8  768   3.215   4.664   9.778  0.2069  0.8106  0.5173
   50TCq2    O4  769   3.328   4.628   9.758 -0.5638  0.5360 -0.3286
   50TCq2    C9  770   2.968   0.217  10.092  0.0643 -0.0475 -0.5015
   50TCq2    O5  771   2.940   0.337  10.124 -0.2182 -0.0339 -0.2121
   50TCq2    O6  772   2.885   0.122  10.100  0.2570  0.0173  0.0627
   50TCq2    H2  773   3.176   0.369  10.065 -1.1525  1.5609 -1.6833
   50TCq2    H3  774   3.018   4.721   9.952  1.1743 -0.7129  3.6328
   50TCq2    H4  775   3.396   0.138   9.801  0.3436 -0.2916  1.1147
   51MPD2     C  776   4.128   3.877   1.158 -0.1687 -0.3218  0.6727
   51MPD2    C1  777   4.213   3.780   1.213  0.0802  0.2502 -0.6293
   51MPD2    C2  778   4.283   3.822   1.328 -0.2064 -0.3357  0.2689
   51MPD2    C3  779   4.261   3.949   1.380 -0.2140 -0.5757 -0.0745
   51MPD2    C4  780   4.186   4.039   1.315  0.2436 -0.3451  0.1030
   51MPD2    C5  781   4.111   4.002   1.209  0.6647 -0.4728 -0.4542
   51MPD2     H  782   4.344   3.747   1.377 -0.2301 -0.6841 -0.2310
   51MPD2    H1  783   4.188   4.139   1.356 -3.0070 -0.2868  0.1390
   51MPD2    H2  784   4.079   3.854   1.064 -0.3725 -2.0952  1.2154
   51MPD2    H3  785   4.052   4.080   1.161 -0.3672 -1.3423 -0.6027
   51MPD2     N  786   4.320   3.991   1.503  0.1069  0.1163 -0.4287
   51MPD2    H5  787   4.309   4.090   1.525 -0.6201  0.1672 -1.0072
   51MPD2    N1  788   4.229   3.645   1.159  0.2157  0.5110  0.0136
   51MPD2    H7  789   4.275   3.574   1.215 -1.6122 -0.5298  0.1909
   52TCq2    C1  790   4.387   3.907   1.594 -0.2638  0.2937 -0.3845
   52TCq2    O2  791   4.404   3.784   1.598 -0.7830 -0.9423 -1.0946
   52TCq2    C2  792   4.421   3.988   1.707 -0.8717  0.8598  0.2138
   52TCq2    C3  793   4.446   3.917   1.816  0.1809  0.4902 -1.1604
   52TCq2    C4  794   4.501   3.970   1.929 -0.1281 -0.2281  0.4925
   52TCq2    C5  795   4.556   4.089   1.921 -0.5554  0.3172 -0.2735
   52TCq2    C6  796   4.536   4.160   1.804 -0.4040 -0.0755 -0.1117
   52TCq2    C7  797   4.476   4.112   1.687  0.6043 -0.3217 -0.3750
   52TCq2    C8  798   4.591   4.289   1.799  0.0283 -0.1340 -0.1542
   52TCq2    O4  799   4.680   4.315   1.880  1.1971  0.1968 -0.2414
   52TCq2    C9  800   4.503   3.896   2.053 -0.5271  0.2391  0.6964
   52TCq2    O5  801   4.432   3.792   2.060  0.3808  0.7607 -0.1124
   52TCq2    O6  802   4.575   3.940   2.145 -0.1118 -0.2360 -0.3423
   52TCq2    H2  803   4.404   3.817   1.819 -1.2957  1.1832  1.9263
   52TCq2    H3  804   4.598   4.138   2.008 -3.4673 -0.6908  1.6884
   52TCq2    H4  805   4.465   4.168   1.595  1.0755  2.7180  1.4417
   53TMC2    C1  806   4.377   3.041  11.931 -0.0509  0.3736 -0.1693
   53TMC2    C2  807   4.486   3.104  11.990  0.3194  0.3407 -0.1091
   53TMC2    C3  808   4.466   3.185  12.095  0.2141 -0.8513 -0.1227
   53TMC2    C4  809   4.250   3.078  11.961  0.8787  0.1094  0.0605
   53TMC2    C5  810   4.238   3.177  12.056 -0.4910  0.6373 -0.2238
   53TMC2    C6  811   4.340   3.221  12.132 -0.4480 -0.0734  0.2599
   53TMC2     C  812   4.411   2.973  11.810 -0.0539  0.0947  0.6122
   53TMC2     O  813   4.529   2.945  11.789 -0.1201  0.0453  0.5130
   53TMC2     H  814   4.587   3.068  11.971  0.5970  0.4535  1.1571
   53TMC2    H1  815   4.166   3.014  11.937 -2.1689  3.9346  0.3737
   53TMC2    H2  816   4.332   3.288  12.218 -2.4534 -0.1127  0.1177
   53TMC2    C7  817   4.101   3.196  12.107  0.4540 -1.0790 -0.3406
   53TMC2    C8  818   4.574   3.224  12.176 -0.5069 -0.0127  0.1161
   53TMC2    O1  819   4.013   3.180  12.024  0.1933 -0.3008  0.4658
   53TMC2    O2  820   4.549   3.279  12.282 -0.7065 -0.2297 -0.0003
   53TMC2    O5  821   4.678   3.276  12.098 -0.8286 -0.0708  0.7213
   53TMC2    H5  822   4.677   3.261  12.001 -1.9201  1.9822  0.4157
   54MPD2     C  823   4.408   2.835  11.547  0.5658  0.0501  0.5908
   54MPD2    C1  824   4.313   2.925  11.585  0.4936 -0.0832  0.3129
   54MPD2    C2  825   4.214   2.963  11.503 -0.2204 -0.4527  0.0373
   54MPD2    C3  826   4.202   2.902  11.382 -0.3972  0.9473  0.1213
   54MPD2    C4  827   4.295   2.803  11.341 -0.3512  0.2054 -0.6752
   54MPD2    C5  828   4.405   2.782  11.423 -0.2351 -0.2643  0.2722
   54MPD2     H  829   4.141   3.039  11.530  1.1583  1.5975 -2.0049
   54MPD2    H1  830   4.288   2.759  11.242 -2.6176  0.7477 -0.7519
   54MPD2    H2  831   4.489   2.806  11.612 -0.6709 -0.8373  1.7194
   54MPD2    H3  832   4.484   2.715  11.390 -2.0485 -2.0448 -0.4859
   54MPD2     N  833   4.092   2.917  11.295  0.1323  0.2314  0.1689
   54MPD2    H5  834   4.083   2.850  11.219 -2.3312  0.1787  0.4993
   54MPD2    N1  835   4.315   2.987  11.711  0.6384  0.0344  0.2975
   54MPD2    H7  836   4.224   3.025  11.731  1.8888  3.1043  0.1538
   55MPD2     C  837   0.593   4.494   1.474  0.1260  0.3454  0.0625
   55MPD2    C1  838   0.476   4.520   1.419 -0.1209 -0.2888 -0.4007
   55MPD2    C2  839   0.458   4.611   1.321 -0.3102 -0.0823  0.1352
   55MPD2    C3  840   0.566   4.681   1.274  0.4552  0.6960  0.2097
   55MPD2    C4  841   0.688   4.668   1.345 -0.3492  0.3154 -0.0668
   55MPD2    C5  842   0.703   4.570   1.440  0.4035  0.6220 -0.0138
   55MPD2     H  843   0.365   4.629   1.269 -0.7489  0.0646  0.9696
   55MPD2    H1  844   0.778   0.002   1.320 -0.0688 -0.8296 -1.5565
   55MPD2    H2  845   0.592   4.427   1.560  1.1349 -0.6210 -0.6686
   55MPD2    H3  846   0.795   4.541   1.490  0.8340  1.3075 -0.4130
   55MPD2     N  847   0.558   0.035   1.158 -0.6837  0.4809  0.6146
   55MPD2    H5  848   0.470   0.034   1.107 -0.0074  0.4751 -0.5528
   55MPD2    N1  849   0.360   4.448   1.475 -0.0314 -0.5172  0.5465
   55MPD2    H7  850   0.382   4.374   1.540 -1.2927 -1.6275 -0.3089
   56TCq2    C1  851   0.227   4.484   1.445 -0.2583 -0.1797  0.4359
   56TCq2    O2  852   0.187   4.590   1.398 -0.0907  0.3116  0.2594
   56TCq2    C2  853   0.123   4.389   1.466 -0.2067  0.1112  0.3612
   56TCq2    C3  854   0.155   4.252   1.463  0.3641  0.2815 -0.6953
   56TCq2    C4  855   0.047   4.167   1.434  0.2652  0.0932  0.8794
   56TCq2    C5  856   4.645   4.213   1.393 -0.2449 -0.1454  1.0677
   56TCq2    C6  857   4.628   4.346   1.390 -0.1986  0.5898 -0.1294
   56TCq2    C7  858   0.002   4.432   1.433 -0.1782  0.7720 -0.1450
   56TCq2    C8  859   4.494   4.387   1.361 -0.6156 -0.6120 -0.9267
   56TCq2    O4  860   4.403   4.309   1.375 -0.1149 -0.2562  0.1959
   56TCq2    C9  861   0.058   4.025   1.453  0.3999  0.3320  0.0514
   56TCq2    O5  862   4.691   3.960   1.394 -0.8150  0.1683  0.0001
   56TCq2    O6  863   0.172   3.995   1.491 -0.2001  0.7842  0.3734
   56TCq2    H2  864   0.255   4.211   1.455  0.0138 -0.5806 -0.7710
   56TCq2    H3  865   4.560   4.147   1.376 -0.3173 -0.1450  1.4244
   56TCq2    H4  866   4.696   4.537   1.434  2.6204  1.4852  1.3109
   57TMC2    C1  867   3.454   1.875  13.489 -0.4453  0.3094 -0.2805
   57TMC2    C2  868   3.424   1.917  13.367 -0.6695  0.2713  0.4258
   57TMC2    C3  869   3.479   1.844  13.263  0.2777  0.4039 -0.1169
   57TMC2    C4  870   3.518   1.753  13.502 -0.4223  0.5500  0.5532
   57TMC2    C5  871   3.584   1.694  13.400 -0.6714 -0.0545  0.1129
   57TMC2    C6  872   3.560   1.739  13.272 -0.3918 -0.1106  0.3791
   57TMC2     C  873   3.376   1.925  13.603 -0.1703  0.1080  0.2033
   57TMC2     O  874   3.371   2.045  13.620  0.3579  0.1029 -0.4421
   57TMC2     H  875   3.360   2.004  13.359  2.5266  2.5328 -0.5227
   57TMC2    H1  876   3.531   1.713  13.601  0.3048 -0.6872 -0.0438
   57TMC2    H2  877   3.606   1.696  13.184  1.4437  2.0305  0.2911
   57TMC2    C7  878   3.652   1.574  13.438 -0.2488 -0.3615 -0.0462
   57TMC2    C8  879   3.475   1.907  13.138  0.0211 -0.5184 -0.2218
   57TMC2    O1  880   3.603   1.512  13.529 -0.7563 -0.0010  0.1603
   57TMC2    O2  881   3.544   1.868  13.040 -0.4589 -0.3775 -0.1471
   57TMC2    O5  882   3.349   1.955  13.132 -0.2115 -0.0122 -0.2420
   57TMC2    H5  883   3.298   1.939  13.214  0.1726  0.4849  0.0916
   58MPD2     C  884   3.112   1.832  14.028  0.3567 -0.5776 -0.7683
   58MPD2    C1  885   3.124   1.951  13.961 -0.0953 -0.0968  0.6915
   58MPD2    C2  886   3.213   1.964  13.856  0.7404 -0.0646 -0.5650
   58MPD2    C3  887   3.257   1.839  13.802 -0.0246 -0.7364 -0.6054
   58MPD2    C4  888   3.232   1.720  13.869 -0.0207  0.2003  0.6061
   58MPD2    C5  889   3.169   1.715  13.989  0.4078 -0.0794  0.5015
   58MPD2     H  890   3.247   2.057  13.813  3.2952  0.0816  1.7622
   58MPD2    H1  891   3.272   1.628  13.828  0.8729  0.9244 -0.1495
   58MPD2    H2  892   3.056   1.816  14.119 -1.5847 -0.5403 -1.9615
   58MPD2    H3  893   3.167   1.618  14.037 -0.8103  0.7554  2.1364
   58MPD2     N  894   3.338   1.826  13.681  0.4808 -0.2272  0.6606
   58MPD2    H5  895   3.343   1.730  13.649  1.0089 -0.0187  0.1136
   58MPD2    N1  896   3.060   2.074  14.007 -0.7193  0.1554  0.0801
   58MPD2    H7  897   3.070   2.157  13.950 -0.1372 -0.2956 -0.4704
   59MPD2     C  898   1.648   2.199  13.467 -0.2575 -0.0099  0.3941
   59MPD2    C1  899   1.739   2.222  13.364 -1.2132 -0.8878 -0.1204
   59MPD2    C2  900   1.843   2.310  13.383  0.2894 -0.9616 -0.3225
   59MPD2    C3  901   1.860   2.382  13.500  0.0623 -0.8128 -0.1312
   59MPD2    C4  902   1.773   2.357  13.607  0.1913  0.3723  0.1947
   59MPD2    C5  903   1.667   2.272  13.586 -0.6410 -0.2992 -0.6251
   59MPD2     H  904   1.922   2.319  13.309  1.6020  0.2072  1.1942
   59MPD2    H1  905   1.789   2.410  13.700 -1.3957  1.8199 -0.3470
   59MPD2    H2  906   1.566   2.129  13.465  0.7198 -1.2023  2.0120
   59MPD2    H3  907   1.595   2.248  13.663  1.1329 -0.3193  1.0286
   59MPD2     N  908   1.968   2.462  13.532 -0.1907  0.5691 -0.4049
   59MPD2    H5  909   1.975   2.508  13.622 -2.7259  1.2170 -0.5603
   59MPD2    N1  910   1.724   2.160  13.241 -0.2783 -0.0580 -0.3449
   59MPD2    H7  911   1.793   2.191  13.174 -1.5572 -0.7932 -1.9950
   60TCq2    C1  912   1.637   2.061  13.207 -0.1695  0.1088 -0.0571
   60TCq2    O2  913   1.553   2.007  13.280  0.1750  0.3445  0.4000
   60TCq2    C2  914   1.654   2.013  13.070 -0.2327  0.0753  0.0247
   60TCq2    C3  915   1.624   1.884  13.044  0.1261 -0.2934 -0.6361
   60TCq2    C4  916   1.612   1.845  12.911  0.3697 -0.7051  0.6153
   60TCq2    C5  917   1.622   1.933  12.814  0.0443 -0.7098  0.1579
   60TCq2    C6  918   1.673   2.059  12.838  0.1255  0.0554  0.1395
   60TCq2    C7  919   1.695   2.095  12.966 -0.6880 -1.1022  0.2936
   60TCq2    C8  920   1.696   2.156  12.726 -0.5578  1.0653  0.2750
   60TCq2    O4  921   1.624   2.138  12.630 -0.1766 -0.2303  0.2778
   60TCq2    C9  922   1.560   1.710  12.879  0.0595  0.3602  0.7609
   60TCq2    O5  923   1.489   1.704  12.777  0.5080  0.4517  0.0512
   60TCq2    O6  924   1.598   1.617  12.952 -0.4970 -0.1844 -0.0638
   60TCq2    H2  925   1.609   1.819  13.129  1.2904  1.2028  0.6926
   60TCq2    H3  926   1.602   1.908  12.710 -1.0107  2.0035 -0.2952
   60TCq2    H4  927   1.723   2.197  12.989 -1.4916 -1.0043  0.8087
   61MPD2     C  928   0.715   2.997  15.889  0.4499  0.1160  0.3017
   61MPD2    C1  929   0.685   3.072  15.775  0.5406  0.2171 -0.7035
   61MPD2    C2  930   0.757   3.046  15.658 -0.4788 -1.6084  0.7584
   61MPD2    C3  931   0.856   2.951  15.649 -0.4201  0.8350 -0.1575
   61MPD2    C4  932   0.894   2.885  15.764 -0.6145 -0.7558  0.7085
   61MPD2    C5  933   0.823   2.907  15.879  0.8349 -0.7924  0.3526
   61MPD2     H  934   0.734   3.104  15.570 -1.4746 -0.5330  1.7325
   61MPD2    H1  935   0.980   2.820  15.758 -0.2304 -0.1786  0.0215
   61MPD2    H2  936   0.659   3.006  15.982 -0.4458  0.5063 -0.2727
   61MPD2    H3  937   0.851   2.846  15.964 -0.2865  1.9062  2.6597
   61MPD2     N  938   0.902   2.936  15.519 -0.2772 -0.3417  0.2526
   61MPD2    H5  939   0.854   2.977  15.440  0.1118 -0.7931 -0.2127
   61MPD2    N1  940   0.593   3.171  15.772 -0.6500  0.0183  0.3298
   61MPD2    H7  941   0.567   3.200  15.678  1.0039 -0.5130 -0.2879
   62TCq2    C1  942   0.518   3.211  15.883 -0.5371 -1.0856  0.0220
   62TCq2    O2  943   0.522   3.172  15.994 -0.0067  0.0569  0.1597
   62TCq2    C2  944   0.415   3.310  15.853  0.8317 -0.1546  0.4067
   62TCq2    C3  945   0.300   3.308  15.935  0.3646 -0.5754  0.0335
   62TCq2    C4  946   0.206   3.404  15.907 -0.0961  0.3987 -0.4178
   62TCq2    C5  947   0.211   3.485  15.795 -0.1109 -0.8269 -0.6006
   62TCq2    C6  948   0.323   3.481  15.717  0.5861  0.2872  0.4079
   62TCq2    C7  949   0.427   3.395  15.748  0.1006 -0.1549 -0.7009
   62TCq2    C8  950   0.342   3.586  15.616  0.8122  0.1035 -0.6124
   62TCq2    O4  951   0.452   3.630  15.590  0.1570  0.0439  0.1089
   62TCq2    C9  952   0.091   3.420  15.993  0.1032 -0.4695 -0.6250
   62TCq2    O5  953   0.009   3.513  15.974  0.1635 -0.6403 -0.4619
   62TCq2    O6  954   0.097   3.357  16.102 -0.0596 -0.2581  0.0881
   62TCq2    H2  955   0.298   3.252  16.029 -2.2640  2.6714  1.8892
   62TCq2    H3  956   0.122   3.546  15.778  2.1816  2.1475 -1.8955
   62TCq2    H4  957   0.523   3.406  15.698 -0.3746  1.1929 -1.3093
   63TMC2    C1  958   0.968   3.314  10.421  0.3249  0.0597 -0.1383
   63TMC2    C2  959   1.100   3.321  10.459  1.0969 -0.0764  0.2706
   63TMC2    C3  960   1.181   3.408  10.386  0.0702 -0.5541 -0.6438
   63TMC2    C4  961   0.913   3.405  10.335  0.4043 -0.1846  0.7437
   63TMC2    C5  962   0.996   3.502  10.278  0.9300 -1.0677 -0.4779
   63TMC2    C6  963   1.132   3.511  10.305  0.3832  0.2212  0.0151
   63TMC2     C  964   0.883   3.224  10.492  0.1038  0.0836  0.2260
   63TMC2     O  965   0.938   3.127  10.532  0.3957  0.8272 -0.2640
   63TMC2     H  966   1.132   3.250  10.534 -0.5363 -1.8842 -0.7321
   63TMC2    H1  967   0.808   3.402  10.308  0.4597 -0.9554  0.6034
   63TMC2    H2  968   1.193   3.568  10.235  2.7081 -0.0876  1.8240
   63TMC2    C7  969   0.925   3.608  10.211  0.1934 -0.0592 -0.1434
   63TMC2    C8  970   1.325   3.398  10.411  0.9573 -0.2370 -0.4609
   63TMC2    O1  971   0.803   3.605  10.210  0.1847 -0.2293  0.1883
   63TMC2    O2  972   1.389   3.502  10.430 -0.0842 -0.0221 -0.4996
   63TMC2    O5  973   1.371   3.269  10.420  0.3564 -0.3348 -0.3869
   63TMC2    H5  974   1.310   3.201  10.385  0.1276 -1.0864  1.4316
   64MPD2     C  975   0.411   3.024  10.543 -0.1887  0.7995 -0.2968
   64MPD2    C1  976   0.535   2.958  10.544  0.7856  0.8692 -0.4215
   64MPD2    C2  977   0.654   3.033  10.547  0.3714 -0.4156  0.3941
   64MPD2    C3  978   0.644   3.169  10.531 -0.4703 -0.3566 -0.4694
   64MPD2    C4  979   0.525   3.234  10.520 -0.3143  0.1961 -0.6678
   64MPD2    C5  980   0.409   3.160  10.536  0.6343  0.2938 -0.3777
   64MPD2     H  981   0.756   2.994  10.548 -0.0235 -1.4884 -0.8713
   64MPD2    H1  982   0.522   3.342  10.526 -0.9697  0.2159 -1.3743
   64MPD2    H2  983   0.319   2.966  10.548  0.4760 -0.0754  1.5128
   64MPD2    H3  984   0.315   3.214  10.535  0.4350 -0.0685 -1.2253
   64MPD2     N  985   0.751   3.253  10.500  0.6178 -0.8798  0.2640
   64MPD2    H5  986   0.723   3.345  10.468  0.7824 -0.7989  0.3509
   64MPD2    N1  987   0.546   2.815  10.553  0.5982 -0.0966  0.4997
   64MPD2    H7  988   0.638   2.774  10.541  0.3748 -0.6680  0.7532
   65MPD2     C  989   1.362   2.146  15.663  0.6330 -0.0386  0.3973
   65MPD2    C1  990   1.376   2.161  15.525 -0.0356  0.5714  0.4432
   65MPD2    C2  991   1.404   2.051  15.454 -0.5313 -0.5274  0.5788
   65MPD2    C3  992   1.430   1.925  15.511 -0.6418  0.0309  0.4344
   65MPD2    C4  993   1.419   1.910  15.647 -0.3814  0.5829 -0.2687
   65MPD2    C5  994   1.381   2.019  15.721 -0.3604  0.5713 -0.3781
   65MPD2     H  995   1.406   2.064  15.346 -1.2624 -0.7782  0.5336
   65MPD2    H1  996   1.452   1.825  15.706 -0.7422 -0.7007 -1.9169
   65MPD2    H2  997   1.330   2.228  15.726 -0.7585 -1.1427  1.1148
   65MPD2    H3  998   1.361   2.012  15.827  1.6138 -2.7063 -0.2218
   65MPD2     N  999   1.471   1.809  15.441  0.4747 -0.8420  0.0618
   65MPD2    H5 1000   1.467   1.720  15.490  0.8544 -0.1114  1.4072
   65MPD2    N1 1001   1.364   2.280  15.447  0.3377 -0.4034  0.8748
   65MPD2    H7 1002   1.383   2.270  15.348 -1.6150  0.8147  0.3664
   66TCq2    C1 1003   1.335   2.410  15.488  0.0932  0.8323  0.2203
   66TCq2    O2 1004   1.296   2.457  15.597 -0.0943  0.0422 -0.1986
   66TCq2    C2 1005   1.345   2.494  15.370 -0.9798  0.2317 -0.1268
   66TCq2    C3 1006   1.343   2.434  15.242  0.8047  0.1067 -1.2912
   66TCq2    C4 1007   1.364   2.522  15.141 -0.0334  0.0847 -0.1817
   66TCq2    C5 1008   1.371   2.660  15.151 -0.4002 -0.3047 -0.0181
   66TCq2    C6 1009   1.361   2.717  15.277  0.3892 -0.4651 -0.4187
   66TCq2    C7 1010   1.353   2.630  15.388 -0.5106  1.3063 -0.0028
   66TCq2    C8 1011   1.352   2.855  15.282  0.6959  0.1699 -0.5451
   66TCq2    O4 1012   1.345   2.914  15.172 -0.6566 -0.5392 -0.3023
   66TCq2    C9 1013   1.360   2.476  15.003 -0.3915 -0.0990 -0.2584
   66TCq2    O5 1014   1.363   2.353  14.987 -0.7010 -0.5584 -0.1701
   66TCq2    O6 1015   1.388   2.552  14.907  0.0816  0.7720  0.1087
   66TCq2    H2 1016   1.299   2.339  15.216 -2.5795  0.8567  1.5936
   66TCq2    H3 1017   1.398   2.726  15.069  1.5782 -0.5091  0.4586
   66TCq2    H4 1018   1.352   2.671  15.489  1.1698 -1.0312  0.9585
   67MPD2     C 1019   1.472   1.987  13.769  0.9607  0.0606  0.1578
   67MPD2    C1 1020   1.379   2.055  13.849 -0.1787 -0.2588 -0.2444
   67MPD2    C2 1021   1.258   2.080  13.794  0.2150  0.5692 -0.6900
   67MPD2    C3 1022   1.227   2.046  13.666  0.4204 -0.3315  0.0679
   67MPD2    C4 1023   1.323   1.980  13.588  0.5405  0.2709 -0.5291
   67MPD2    C5 1024   1.445   1.948  13.641 -0.0942  0.6298  0.1270
   67MPD2     H 1025   1.190   2.123  13.867 -0.9904 -1.0840 -0.8112
   67MPD2    H1 1026   1.300   1.950  13.486 -0.8125  1.1773 -0.4836
   67MPD2    H2 1027   1.567   1.957  13.813  1.8492  0.4717 -1.5039
   67MPD2    H3 1028   1.522   1.901  13.581  1.1761  1.8113  0.8367
   67MPD2     N 1029   1.104   2.073  13.609  0.5087  0.4080 -0.0188
   67MPD2    H5 1030   1.087   2.044  13.513 -1.8080 -1.0670  0.8234
   67MPD2    N1 1031   1.401   2.101  13.980 -0.0711 -0.0311 -0.0616
   67MPD2    H7 1032   1.340   2.172  14.020 -1.5273 -1.3633  0.0838
   68TCq2    C1 1033   1.501   2.057  14.056 -0.9092 -0.0579 -0.1569
   68TCq2    O2 1034   1.563   1.956  14.044 -0.5544  0.4563  0.3252
   68TCq2    C2 1035   1.498   2.121  14.184 -0.3095  0.2588  0.6618
   68TCq2    C3 1036   1.430   2.241  14.205 -0.1266 -0.1332  0.2698
   68TCq2    C4 1037   1.442   2.299  14.328  0.1339 -0.1450 -0.2003
   68TCq2    C5 1038   1.521   2.235  14.425 -0.2059 -0.1888  0.5833
   68TCq2    C6 1039   1.589   2.122  14.393  0.1242 -0.6311  0.0292
   68TCq2    C7 1040   1.571   2.057  14.273 -0.5798  1.0772  0.2933
   68TCq2    C8 1041   1.708   2.087  14.473  0.1312 -0.4930 -0.3893
   68TCq2    O4 1042   1.795   2.030  14.409 -0.1762 -0.1789  0.1474
   68TCq2    C9 1043   1.380   2.422  14.370  0.3924  0.4136  0.5841
   68TCq2    O5 1044   1.326   2.482  14.267 -0.0509 -0.3322  0.0415
   68TCq2    O6 1045   1.333   2.430  14.485 -0.7703 -0.1183 -0.2826
   68TCq2    H2 1046   1.368   2.289  14.130  0.0827 -0.1750  0.0706
   68TCq2    H3 1047   1.534   2.282  14.522  1.3426 -0.2548  0.4072
   68TCq2    H4 1048   1.617   1.960  14.259 -3.5194 -0.1508 -0.8790
   69TMC2    C1 1049   4.577   3.018  13.174  0.1839  0.8602 -0.0954
   69TMC2    C2 1050   4.650   2.986  13.285  0.5380 -0.3293  0.1532
   69TMC2    C3 1051   0.059   3.021  13.276 -0.0894  0.3907 -0.4782
   69TMC2    C4 1052   4.634   3.068  13.059 -0.0146  0.2884 -0.2261
   69TMC2    C5 1053   0.045   3.105  13.064 -0.5725  0.6651  0.1731
   69TMC2    C6 1054   0.117   3.093  13.175  0.0924 -0.4755  0.1232
   69TMC2     C 1055   4.435   2.972  13.161  0.1610 -0.1409 -0.2666
   69TMC2     O 1056   4.386   2.985  13.051  0.6000 -0.4207  0.3157
   69TMC2     H 1057   4.622   2.927  13.372  0.4639  0.1621  0.4608
   69TMC2    H1 1058   4.575   3.062  12.968 -0.4662  0.8118  0.0333
   69TMC2    H2 1059   0.212   3.143  13.185 -0.4930  0.5929  0.4261
   69TMC2    C7 1060   0.102   3.130  12.937 -0.1213  0.2308 -0.4114
   69TMC2    C8 1061   0.142   2.991  13.384 -1.1744 -0.3299  0.2151
   69TMC2    O1 1062   0.021   3.138  12.843  0.1123  0.3480  0.7394
   69TMC2    O2 1063   0.127   3.017  13.503 -0.3233  0.4762 -0.0923
   69TMC2    O5 1064   0.260   2.939  13.336  0.0043  0.2081  0.2628
   69TMC2    H5 1065   0.249   2.929  13.239 -1.0608  0.2225  0.3799
   70MPD2     C 1066   4.217   2.773  13.392  0.3342 -0.5693 -0.8048
   70MPD2    C1 1067   4.248   2.846  13.280  0.3812 -0.5249  0.0997
   70MPD2    C2 1068   4.152   2.856  13.180 -0.2080 -0.7994 -0.1224
   70MPD2    C3 1069   4.033   2.785  13.184 -0.1231  0.1189 -0.3324
   70MPD2    C4 1070   4.002   2.722  13.303 -0.5924 -0.2787 -0.4515
   70MPD2    C5 1071   4.098   2.719  13.404 -0.0782 -1.3884  0.6817
   70MPD2     H 1072   4.170   2.913  13.089  0.2887  0.4649  0.7738
   70MPD2    H1 1073   3.910   2.668  13.323 -1.3795  1.2336 -0.0127
   70MPD2    H2 1074   4.278   2.762  13.481 -1.6430  1.9967  0.9028
   70MPD2    H3 1075   4.081   2.665  13.496 -0.4173 -1.0128  0.8364
   70MPD2     N 1076   3.944   2.772  13.072  0.0645 -0.4301  0.0731
   70MPD2    H5 1077   3.879   2.694  13.077 -0.2600 -0.1407  0.3450
   70MPD2    N1 1078   4.382   2.899  13.267  0.3937  0.3986  0.8278
   70MPD2    H7 1079   4.437   2.892  13.352  0.2770 -4.2141  0.4761
   71TMC2    C1 1080   2.488   3.475   0.845  0.1454  0.0172  0.1475
   71TMC2    C2 1081   2.537   3.346   0.860 -0.0193 -0.5020 -0.4789
   71TMC2    C3 1082   2.618   3.322   0.965  0.0142  0.0381  0.1852
   71TMC2    C4 1083   2.506   3.564   0.942  0.3143  0.0489  0.3269
   71TMC2    C5 1084   2.582   3.537   1.047  0.9658 -0.5084 -0.2534
   71TMC2    C6 1085   2.646   3.419   1.054  0.1772  0.3676  0.2501
   71TMC2     C 1086   2.351   3.471   0.793 -0.3641 -0.1717  0.1027
   71TMC2     O 1087   2.262   3.510   0.866 -0.0467  0.3049 -0.3222
   71TMC2     H 1088   2.513   3.261   0.797 -2.6148 -0.5679  0.5878
   71TMC2    H1 1089   2.452   3.657   0.935 -1.8036 -1.1715  0.6018
   71TMC2    H2 1090   2.705   3.393   1.141  0.4730  0.9368  0.2178
   71TMC2    C7 1091   2.505   3.576   1.169  0.0992 -0.4221  0.4001
   71TMC2    C8 1092   2.697   3.200   0.958 -0.0650  0.1186 -0.0183
   71TMC2    O1 1093   2.578   3.617   1.261  0.3283 -0.5327 -0.1571
   71TMC2    O2 1094   2.665   3.109   0.881  0.1492  0.0536  0.2256
   71TMC2    O5 1095   2.824   3.240   0.990  0.1685 -0.1621  0.1352
   71TMC2    H5 1096   2.832   3.337   0.984 -0.4650 -0.1507 -0.5189
   72MPD2     C 1097   2.023   3.392   0.420 -0.0061  0.6503 -0.2693
   72MPD2    C1 1098   2.012   3.472   0.532 -0.2336  0.8246 -0.9424
   72MPD2    C2 1099   2.123   3.487   0.610 -0.0572  1.0232 -0.3321
   72MPD2    C3 1100   2.240   3.416   0.584 -0.2556 -0.0069  0.0413
   72MPD2    C4 1101   2.253   3.343   0.470 -0.2826 -0.2526  0.4050
   72MPD2    C5 1102   2.145   3.348   0.381  0.4268  0.4256 -0.3501
   72MPD2     H 1103   2.110   3.551   0.696 -0.8268  1.4551 -0.7625
   72MPD2    H1 1104   2.333   3.275   0.444  0.7493  0.4710  1.7282
   72MPD2    H2 1105   1.940   3.371   0.353  1.0746 -0.8501 -1.1438
   72MPD2    H3 1106   2.155   3.284   0.295  0.4353  1.0227 -0.7959
   72MPD2     N 1107   2.357   3.418   0.665  0.2802  0.0356  0.5892
   72MPD2    H5 1108   2.443   3.379   0.629 -0.5149 -0.8856 -0.3175
   72MPD2    N1 1109   1.889   3.529   0.574 -0.2915  0.4311 -0.4216
   72MPD2    H7 1110   1.895   3.579   0.662 -1.3789 -0.1371 -0.0233
   73TMC2    C1 1111   1.078   0.567  13.927 -0.2675 -0.0464  0.7813
   73TMC2    C2 1112   1.026   0.557  14.051  0.2625 -0.3520  0.1283
   73TMC2    C3 1113   1.103   0.613  14.150  0.4483  0.6446  0.7249
   73TMC2    C4 1114   1.209   0.611  13.907 -0.0742  0.1391 -0.1755
   73TMC2    C5 1115   1.281   0.665  14.006 -0.0855  0.5360 -0.4766
   73TMC2    C6 1116   1.227   0.658  14.134 -0.3883 -0.2119 -0.1346
   73TMC2     C 1117   0.995   0.614  13.821 -0.3985 -0.3392 -0.5698
   73TMC2     O 1118   1.066   0.694  13.762  0.1927 -0.0676  0.0785
   73TMC2     H 1119   0.924   0.534  14.077  0.4983 -1.7758 -0.1812
   73TMC2    H1 1120   1.256   0.590  13.811 -0.2924  0.8228 -0.4354
   73TMC2    H2 1121   1.280   0.713  14.211 -2.0292  0.8168  0.2429
   73TMC2    C7 1122   1.356   0.778  13.963 -0.6080 -0.2000 -0.0811
   73TMC2    C8 1123   1.042   0.619  14.278  0.1113 -0.8291 -0.1032
   73TMC2    O1 1124   1.450   0.828  14.025 -0.0283 -0.4239 -0.2288
   73TMC2    O2 1125   0.939   0.559  14.308 -0.7735  0.0149 -0.2594
   73TMC2    O5 1126   1.074   0.737  14.334  0.2897 -0.2131  0.0307
   73TMC2    H5 1127   1.135   0.796  14.285  0.6974 -0.0123  0.7847
   74MPD2     C 1128   0.737   0.507  13.390  0.2943  0.7765  0.2836
   74MPD2    C1 1129   0.835   0.602  13.412  0.3301 -0.5510 -0.1360
   74MPD2    C2 1130   0.874   0.615  13.547  0.2710  0.7963 -0.3445
   74MPD2    C3 1131   0.831   0.524  13.648 -0.0202 -0.1442  0.5684
   74MPD2    C4 1132   0.746   0.419  13.615 -1.1042 -0.6598 -0.7418
   74MPD2    C5 1133   0.693   0.418  13.487  0.5982 -0.1771 -0.0018
   74MPD2     H 1134   0.941   0.694  13.578  1.2503 -1.3555  2.9516
   74MPD2    H1 1135   0.713   0.343  13.685  2.0833 -0.2113  1.2699
   74MPD2    H2 1136   0.702   0.498  13.288  0.4842 -0.6525  0.3371
   74MPD2    H3 1137   0.632   0.334  13.456  3.5859 -2.3971  0.1177
   74MPD2     N 1138   0.885   0.535  13.782 -0.6018 -0.0593 -0.0743
   74MPD2    H5 1139   0.858   0.469  13.854 -1.1702 -0.2587 -0.4644
   74MPD2    N1 1140   0.885   0.682  13.308 -0.5244  0.8597  0.0165
   74MPD2    H7 1141   0.874   0.649  13.213 -0.4014  0.4582  0.1398
   75TCq2    C1 1142   1.000   2.128  13.675  0.2418  0.6666 -0.1855
   75TCq2    O2 1143   0.984   2.152  13.795 -0.0875 -0.6515  0.1753
   75TCq2    C2 1144   0.884   2.143  13.580  0.0276 -0.5447  0.0593
   75TCq2    C3 1145   0.756   2.147  13.641 -0.3617  0.8641 -0.2648
   75TCq2    C4 1146   0.645   2.155  13.558  0.4406  0.7345  0.2320
   75TCq2    C5 1147   0.670   2.161  13.426 -0.4190  0.1353  0.0993
   75TCq2    C6 1148   0.794   2.156  13.372  0.3514 -0.3621  0.0289
   75TCq2    C7 1149   0.905   2.143  13.449 -0.7751 -0.5501 -0.4374
   75TCq2    C8 1150   0.809   2.238  13.253  0.3550  1.2847  0.5414
   75TCq2    O4 1151   0.714   2.245  13.173 -0.0237  0.3243  0.0590
   75TCq2    C9 1152   0.512   2.155  13.618 -0.2419 -0.1162  0.0589
   75TCq2    O5 1153   0.406   2.150  13.543  0.3592  0.0833 -0.1750
   75TCq2    O6 1154   0.503   2.156  13.744  0.1622  0.1296 -0.5739
   75TCq2    H2 1155   0.748   2.153  13.749 -0.9302 -0.1421 -0.2491
   75TCq2    H3 1156   0.588   2.178  13.357  0.9858 -0.6973 -1.7730
   75TCq2    H4 1157   1.005   2.144  13.408 -0.2071  1.0615  0.9706
   76MPD2     C 1158   0.664   3.764  12.002 -0.8232 -0.3178 -0.4894
   76MPD2    C1 1159   0.585   3.654  11.980 -0.4298 -0.0585  0.3250
   76MPD2    C2 1160   0.620   3.571  11.874 -0.3881  0.0474 -0.3896
   76MPD2    C3 1161   0.746   3.577  11.814  0.1779 -0.2013 -0.4481
   76MPD2    C4 1162   0.835   3.663  11.867 -0.1159 -0.4013 -0.0157
   76MPD2    C5 1163   0.789   3.766  11.947  0.0590 -0.3714  0.1210
   76MPD2     H 1164   0.553   3.487  11.856  0.3599 -0.8380  0.9611
   76MPD2    H1 1165   0.938   3.661  11.833  0.0192  3.7044  0.2272
   76MPD2    H2 1166   0.631   3.844  12.067  1.7196  1.4681 -1.3975
   76MPD2    H3 1167   0.851   3.851  11.971  0.5001 -0.8946  0.8317
   76MPD2     N 1168   0.805   3.477  11.734 -0.0080  0.1460 -0.1674
   76MPD2    H5 1169   0.906   3.469  11.727 -0.1759 -2.0371 -0.2459
   76MPD2    N1 1170   0.464   3.640  12.051  0.1770 -0.4105 -0.6168
   76MPD2    H7 1171   0.394   3.576  12.014 -0.2162 -1.1975  1.5050
   77TCq2    C1 1172   0.726   3.394  11.650 -0.4382 -0.0922 -0.7203
   77TCq2    O2 1173   0.603   3.391  11.639  0.4015  0.2551  0.2934
   77TCq2    C2 1174   0.811   3.313  11.564  0.5508  0.0663  0.6229
   77TCq2    C3 1175   0.748   3.259  11.452  0.2616 -0.8567  0.3763
   77TCq2    C4 1176   0.819   3.197  11.357  0.6514 -0.2417 -0.5116
   77TCq2    C5 1177   0.955   3.197  11.373 -0.2735 -0.0617  0.0278
   77TCq2    C6 1178   1.021   3.241  11.490 -0.8174  0.4445 -0.4068
   77TCq2    C7 1179   0.945   3.299  11.590 -0.2850 -0.4216  0.2261
   77TCq2    C8 1180   1.163   3.218  11.507  0.2803 -0.1898  0.0998
   77TCq2    O4 1181   1.222   3.171  11.412 -0.0542  0.5743 -1.0546
   77TCq2    C9 1182   0.746   3.155  11.245  0.7914  0.1852  0.1697
   77TCq2    O5 1183   0.810   3.084  11.161 -0.0327  0.3586  0.3851
   77TCq2    O6 1184   0.624   3.172  11.242  0.3098  0.1540 -0.1036
   77TCq2    H2 1185   0.646   3.286  11.427 -0.0925 -1.0128  1.6671
   77TCq2    H3 1186   1.025   3.153  11.303  2.0978  1.9508  1.1020
   77TCq2    H4 1187   0.983   3.343  11.681 -0.0090 -0.6401  0.2181
   78MPD1     C 1188   4.692   0.948   1.701 -0.4873 -0.3832  0.2017
   78MPD1    C1 1189   4.584   0.897   1.768 -0.0379  0.2177 -0.2658
   78MPD1    C2 1190   4.467   0.972   1.789  0.0618  0.0918 -0.1478
   78MPD1    C3 1191   4.450   1.096   1.721 -0.2462 -0.2867 -0.1674
   78MPD1    C4 1192   4.564   1.142   1.660 -0.0235 -0.6087  0.0216
   78MPD1    C5 1193   4.677   1.072   1.644  0.1275 -0.2381  0.2541
   78MPD1     H 1194   4.391   0.934   1.856 -0.2403 -1.9192 -1.6560
   78MPD1    H1 1195   4.552   1.237   1.610  0.1660 -1.4617 -1.6489
   78MPD1    H2 1196   0.065   0.899   1.679 -0.9985 -0.8783 -0.8496
   78MPD1    H3 1197   0.032   1.115   1.580 -0.5811  0.4402 -0.1259
   78MPD1     N 1198   4.340   1.184   1.724 -0.0796  0.5416  0.0088
   78MPD1    H5 1199   4.359   1.276   1.684 -0.6121  1.5053  1.9338
   78MPD1    N1 1200   4.608   0.779   1.841  0.5449 -0.3582 -0.0201
   78MPD1    H6 1201   4.681   0.725   1.794  1.4163  0.4307  0.4116
   78MPD1    H7 1202   4.532   0.715   1.820  0.0968 -0.0197  0.5726
   79TCq2    C1 1203   4.213   1.147   1.776 -0.2966  0.0314  0.5891
   79TCq2    O2 1204   4.180   1.032   1.805  0.0035  0.3170  0.0359
   79TCq2    C2 1205   4.105   1.255   1.763  0.4891 -0.2312  0.2075
   79TCq2    C3 1206   3.976   1.213   1.764  0.1133 -0.7702  0.1322
   79TCq2    C4 1207   3.880   1.305   1.749  0.1050 -0.1100  0.1670
   79TCq2    C5 1208   3.923   1.438   1.739  0.3810 -0.1821  0.4871
   79TCq2    C6 1209   4.056   1.472   1.743 -0.0045 -0.3771  0.9894
   79TCq2    C7 1210   4.156   1.385   1.757  0.1523  0.5063 -0.0820
   79TCq2    C8 1211   4.084   1.607   1.777 -0.2876  0.2702  0.4210
   79TCq2    O4 1212   3.987   1.683   1.791 -0.0350 -0.5163  0.0680
   79TCq2    C9 1213   3.745   1.273   1.748 -0.0514  0.2542 -0.0984
   79TCq2    O5 1214   3.673   1.364   1.802  0.6008  0.1629  0.2874
   79TCq2    O6 1215   3.730   1.150   1.755  0.4863 -0.0374  0.4700
   79TCq2    H2 1216   3.956   1.107   1.769  0.6571 -0.9013 -0.4425
   79TCq2    H3 1217   3.848   1.515   1.726  1.6167  0.7624 -1.1207
   79TCq2    H4 1218   4.258   1.413   1.776  0.7372 -1.7490  0.1189
   80MPD2     C 1219   4.374   2.690  12.093 -0.5456 -0.1693  0.1527
   80MPD2    C1 1220   4.284   2.688  11.992 -0.6643  0.4722  0.6278
   80MPD2    C2 1221   4.153   2.727  12.014 -0.9420 -0.1966 -0.7406
   80MPD2    C3 1222   4.119   2.775  12.131 -0.0306 -0.1966 -0.2649
   80MPD2    C4 1223   4.210   2.780  12.234 -0.3085  0.2507 -0.6479
   80MPD2    C5 1224   4.337   2.737  12.216 -0.0566  0.0322  0.2601
   80MPD2     H 1225   4.088   2.714  11.928  0.0511  0.0454 -1.5322
   80MPD2    H1 1226   4.172   2.806  12.332  0.1906  0.3833 -0.4907
   80MPD2    H2 1227   4.474   2.651  12.076 -0.6495 -0.6006  0.5292
   80MPD2    H3 1228   4.396   2.735  12.307 -0.9038  0.9082  0.8359
   80MPD2     N 1229   3.991   2.836  12.163 -0.2397 -0.7523 -0.5129
   80MPD2    H5 1230   3.962   2.864  12.256  3.9155 -0.0819  0.6012
   80MPD2    N1 1231   4.317   2.644  11.860 -0.1244 -0.2898  0.0420
   80MPD2    H7 1232   4.239   2.641  11.795 -0.5311  1.8938  0.4571
   81TCq2    C1 1233   4.430   2.580  11.820  0.3213 -0.1037 -1.2029
   81TCq2    O2 1234   4.543   2.602  11.867 -0.1291  0.4859  0.0691
   81TCq2    C2 1235   4.407   2.495  11.703 -0.1933  0.5008  0.7254
   81TCq2    C3 1236   4.513   2.476  11.620 -0.0552 -0.5605 -0.1419
   81TCq2    C4 1237   4.486   2.436  11.493 -0.0090  0.2513 -0.0390
   81TCq2    C5 1238   4.362   2.402  11.456 -0.7056 -0.4527  0.1416
   81TCq2    C6 1239   4.266   2.422  11.539 -0.4576 -0.2736 -0.6062
   81TCq2    C7 1240   4.283   2.469  11.670 -0.1662 -1.1111  0.0716
   81TCq2    C8 1241   4.129   2.396  11.498 -0.0594  0.4549  0.0472
   81TCq2    O4 1242   4.099   2.380  11.383  0.0589 -0.6024  0.5692
   81TCq2    C9 1243   4.592   2.413  11.406 -0.0243  0.8678 -0.2020
   81TCq2    O5 1244   4.708   2.424  11.453 -0.1047  0.0988  0.0144
   81TCq2    O6 1245   4.568   2.353  11.295  0.4080  0.5090  0.5221
   81TCq2    H2 1246   4.612   2.507  11.651  0.4517 -0.4296 -1.8745
   81TCq2    H3 1247   4.345   2.391  11.349  0.2555  1.0740 -0.1767
   81TCq2    H4 1248   4.198   2.485  11.734  0.6829 -0.0970  0.9402
   82MPD2     C 1249   2.403   1.810  10.353 -0.6215  0.1209  0.0520
   82MPD2    C1 1250   2.315   1.728  10.422 -0.0382  0.5495 -0.4339
   82MPD2    C2 1251   2.359   1.653  10.527 -1.2392 -0.8401 -0.1850
   82MPD2    C3 1252   2.491   1.660  10.564  0.3824 -0.0366 -0.4533
   82MPD2    C4 1253   2.577   1.734  10.489  0.1045  0.1924 -0.1907
   82MPD2    C5 1254   2.537   1.814  10.384  0.2684  0.0782 -0.0539
   82MPD2     H 1255   2.289   1.598  10.589 -0.6992 -1.0039  0.2817
   82MPD2    H1 1256   2.682   1.743  10.515  0.5457 -1.1204 -1.4925
   82MPD2    H2 1257   2.375   1.866  10.265 -1.0528 -0.7821 -0.3779
   82MPD2    H3 1258   2.613   1.879  10.341  0.4764  0.9453  1.6492
   82MPD2     N 1259   2.553   1.586  10.666 -0.4172 -0.2561  0.1171
   82MPD2    H5 1260   2.651   1.604  10.683 -0.3636 -0.0476 -0.4023
   82MPD2    N1 1261   2.177   1.740  10.390 -0.8686  0.8604  0.8557
   82MPD2    H7 1262   2.158   1.790  10.303 -3.1051 -0.3649  0.6256
   83TCq2    C1 1263   2.487   1.492  10.736  0.2510  0.4952  0.5997
   83TCq2    O2 1264   2.385   1.431  10.705  0.6242  0.0448 -0.5773
   83TCq2    C2 1265   2.554   1.448  10.854  0.2864  0.2146  0.1184
   83TCq2    C3 1266   2.566   1.552  10.945 -0.5314  0.3617  0.0977
   83TCq2    C4 1267   2.542   1.527  11.071 -0.1004  0.3239 -0.1412
   83TCq2    C5 1268   2.511   1.403  11.119  0.7966  0.5982  0.4934
   83TCq2    C6 1269   2.503   1.298  11.031  0.3970 -0.2013  0.8001
   83TCq2    C7 1270   2.518   1.324  10.892 -0.2282 -0.0092 -0.1576
   83TCq2    C8 1271   2.375   1.222  11.044  0.1594 -0.5158 -0.0159
   83TCq2    O4 1272   2.340   1.194  11.159  0.1588  0.1968 -0.1783
   83TCq2    C9 1273   2.544   1.632  11.171  0.4270 -0.8412  0.2434
   83TCq2    O5 1274   2.597   1.742  11.139 -0.6751 -0.0487  0.1344
   83TCq2    O6 1275   2.476   1.609  11.278  0.1485 -0.1169  0.4794
   83TCq2    H2 1276   2.583   1.653  10.910  0.6869 -0.3231 -1.2858
   83TCq2    H3 1277   2.493   1.393  11.225  1.1168  0.2640  0.5160
   83TCq2    H4 1278   2.509   1.247  10.817 -1.3139  1.5388 -1.6252
   84TCq2    C1 1279   3.296   0.928  10.212 -0.7705  0.4952 -0.3914
   84TCq2    O2 1280   3.228   0.834  10.242  0.3507  0.5207  0.3817
   84TCq2    C2 1281   3.293   1.054  10.271 -0.5212 -0.0860  0.8935
   84TCq2    C3 1282   3.296   1.164  10.191  0.4554  0.3853  0.3625
   84TCq2    C4 1283   3.253   1.284  10.244  0.3078 -0.0786 -0.1781
   84TCq2    C5 1284   3.215   1.297  10.376 -0.1183  0.0338 -0.5009
   84TCq2    C6 1285   3.221   1.188  10.457 -0.0691 -0.5913 -0.0275
   84TCq2    C7 1286   3.251   1.065  10.402  0.0007  0.4777  0.7687
   84TCq2    C8 1287   3.175   1.205  10.602  0.6965 -0.0742  0.1982
   84TCq2    O4 1288   3.162   1.317  10.647  0.4636  0.8343 -0.1815
   84TCq2    C9 1289   3.240   1.398  10.159  0.4640 -0.2507 -0.2094
   84TCq2    O5 1290   3.280   1.384  10.040  0.3006 -0.3048 -0.4640
   84TCq2    O6 1291   3.176   1.492  10.208  0.4676 -0.0129  0.2571
   84TCq2    H2 1292   3.312   1.163  10.084 -0.1331 -0.7516  0.2843
   84TCq2    H3 1293   3.199   1.398  10.413  1.0262 -0.3500  1.0383
   84TCq2    H4 1294   3.246   0.982  10.472 -1.8453 -0.3247 -0.3156
   85MPD2     C 1295   3.755   3.368  16.152 -0.1804 -0.0815  0.4313
   85MPD2    C1 1296   3.653   3.345  16.066 -0.1646  0.1742 -0.1030
   85MPD2    C2 1297   3.618   3.435  15.961  0.5424  0.8287  0.5659
   85MPD2    C3 1298   3.696   3.553  15.951  0.1392  0.1533  0.1971
   85MPD2    C4 1299   3.802   3.566  16.034  0.5721  0.1364 -1.0626
   85MPD2    C5 1300   3.835   3.480  16.135  0.8971 -0.0744 -0.1676
   85MPD2     H 1301   3.534   3.421  15.894  0.4961  0.7130  0.6477
   85MPD2    H1 1302   3.865   3.653  16.040 -0.4034  0.8768 -1.5918
   85MPD2    H2 1303   3.769   3.315  16.245  0.3191  0.4713  0.6745
   85MPD2    H3 1304   3.918   3.499  16.202 -1.0816  0.2027  2.1938
   85MPD2     N 1305   3.670   3.646  15.851 -0.2537 -0.6427 -0.2464
   85MPD2    H5 1306   3.582   3.630  15.801 -0.9178  0.6763  0.4952
   85MPD2    N1 1307   3.572   3.232  16.071  0.6993 -0.1458  0.0517
   85MPD2    H7 1308   3.498   3.230  16.002  1.3095  2.0462 -0.7059
   86TCq2    C1 1309   3.746   3.752  15.821  0.8229 -0.3362  0.0839
   86TCq2    O2 1310   3.855   3.787  15.865  0.5136  0.5189  0.1854
   86TCq2    C2 1311   3.683   3.845  15.739 -0.3071  0.3279  0.1594
   86TCq2    C3 1312   3.584   3.800  15.655  0.0223  0.4716 -0.0964
   86TCq2    C4 1313   3.522   3.887  15.570  0.3563 -0.2402  0.2334
   86TCq2    C5 1314   3.558   4.019  15.565  0.4875 -0.3797  0.3531
   86TCq2    C6 1315   3.653   4.064  15.649 -0.4930 -0.2463  0.1907
   86TCq2    C7 1316   3.724   3.975  15.735 -0.4098  0.1322  0.1051
   86TCq2    C8 1317   3.722   4.193  15.624  0.3989 -0.1240  0.2613
   86TCq2    O4 1318   3.819   4.209  15.698 -0.0772 -0.6643 -0.3356
   86TCq2    C9 1319   3.426   3.835  15.469  0.2023 -0.7470  0.3377
   86TCq2    O5 1320   3.380   3.718  15.491 -0.6982  0.2120  0.2064
   86TCq2    O6 1321   3.388   3.912  15.374 -0.1174  0.4922 -0.3689
   86TCq2    H2 1322   3.554   3.696  15.645  0.4462  0.2374  1.1317
   86TCq2    H3 1323   3.525   4.074  15.477  0.3664 -1.5672 -0.3517
   86TCq2    H4 1324   3.806   4.001  15.800  0.5362 -0.8753 -0.6784
   87MPD2     C 1325   2.762   3.149   1.415  1.0646 -0.4617  0.1399
   87MPD2    C1 1326   2.716   3.079   1.307 -0.0706  0.3684 -0.0328
   87MPD2    C2 1327   2.593   3.111   1.253  0.3516 -0.4181 -0.3789
   87MPD2    C3 1328   2.521   3.219   1.299  0.1712  0.3266 -0.2353
   87MPD2    C4 1329   2.566   3.283   1.410  0.0424 -0.7800  0.1327
   87MPD2    C5 1330   2.691   3.257   1.467 -0.4024  0.0948  0.8012
   87MPD2     H 1331   2.553   3.053   1.171 -0.2381 -1.4803  0.6717
   87MPD2    H1 1332   2.513   3.367   1.452  0.4860 -1.3751  1.8750
   87MPD2    H2 1333   2.858   3.134   1.462  0.6383  2.6620  1.9899
   87MPD2    H3 1334   2.734   3.308   1.552 -1.0952 -0.9571  1.7937
   87MPD2     N 1335   2.381   3.251   1.257 -0.5265  0.1929  1.0833
   87MPD2    H5 1336   2.325   3.319   1.307 -2.0559  0.3897 -0.9026
   87MPD2    N1 1337   2.795   2.970   1.264  0.2409  1.1202 -0.5854
   87MPD2    H7 1338   2.875   2.952   1.325 -0.0332  3.0285  0.3302
   88TCq2    C1 1339   2.768   2.884   1.157  0.0773  0.1427  0.3662
   88TCq2    O2 1340   2.691   2.899   1.066  0.3197  0.3079  0.1103
   88TCq2    C2 1341   2.843   2.761   1.171 -0.8009 -0.7398 -0.5977
   88TCq2    C3 1342   2.878   2.724   1.290  0.7791  0.2975 -0.6394
   88TCq2    C4 1343   2.910   2.595   1.314  0.7424  0.0302 -0.6109
   88TCq2    C5 1344   2.908   2.503   1.213  0.1711  0.0323 -0.0218
   88TCq2    C6 1345   2.877   2.550   1.091 -0.3934  0.4318  0.3493
   88TCq2    C7 1346   2.849   2.682   1.066  0.1411  0.1654  0.2765
   88TCq2    C8 1347   2.867   2.451   0.984  1.3330 -0.4088  0.1998
   88TCq2    O4 1348   2.895   2.335   1.004  0.5693  0.1401 -0.3375
   88TCq2    C9 1349   2.919   2.550   1.450  0.1163 -0.1150 -0.1503
   88TCq2    O5 1350   2.977   2.443   1.468 -0.6360  0.5411  0.2274
   88TCq2    O6 1351   2.874   2.632   1.541 -0.0786  0.0081  0.0394
   88TCq2    H2 1352   2.883   2.798   1.369  1.4960  1.0444 -1.3870
   88TCq2    H3 1353   2.928   2.398   1.230  0.3068  0.1755  0.7146
   88TCq2    H4 1354   2.843   2.731   0.969  0.1801  0.3282  0.3574
   89MPD2     C 1355   2.444   3.757   1.684 -0.3270  0.8104 -0.4386
   89MPD2    C1 1356   2.485   3.887   1.702 -0.0771  0.1882 -0.8705
   89MPD2    C2 1357   2.608   3.930   1.653 -0.6271  0.5394  0.7312
   89MPD2    C3 1358   2.701   3.844   1.603 -0.1845 -0.7016  0.1670
   89MPD2    C4 1359   2.669   3.706   1.605  0.1748 -0.8210 -0.6027
   89MPD2    C5 1360   2.544   3.667   1.641  0.3555 -0.6546 -0.1004
   89MPD2     H 1361   2.616   4.038   1.651  0.3493  0.5205  3.0353
   89MPD2    H1 1362   2.731   3.632   1.556  0.3230  0.3354 -2.1557
   89MPD2    H2 1363   2.349   3.721   1.721  0.2017 -0.8109 -0.6731
   89MPD2    H3 1364   2.519   3.562   1.630 -3.2593  0.0708  1.0241
   89MPD2     N 1365   2.828   3.894   1.549 -0.0310  0.6162  0.0189
   89MPD2    H5 1366   2.829   3.995   1.542  0.4355  0.5808 -0.3606
   89MPD2    N1 1367   2.404   3.985   1.762  0.6160 -0.2331 -0.5251
   89MPD2    H7 1368   2.447   4.077   1.762  0.8722 -0.3562 -0.0772
   90TCq2    C1 1369   2.938   3.820   1.518 -0.2923  0.0706  1.1534
   90TCq2    O2 1370   2.963   3.709   1.562 -0.1420  0.4245 -0.4367
   90TCq2    C2 1371   3.049   3.897   1.466 -0.2764 -0.1375 -0.4681
   90TCq2    C3 1372   3.028   4.033   1.449  0.2289 -0.2412 -0.2654
   90TCq2    C4 1373   3.126   4.107   1.390  0.3664 -0.6641  0.8931
   90TCq2    C5 1374   3.234   4.035   1.329 -0.2645 -0.9493 -0.2126
   90TCq2    C6 1375   3.249   3.897   1.354  0.0163 -0.0500 -0.1867
   90TCq2    C7 1376   3.159   3.825   1.422  0.8104  0.0972  0.2049
   90TCq2    C8 1377   3.378   3.837   1.324 -0.3558 -0.4033 -0.2683
   90TCq2    O4 1378   3.411   3.731   1.378  0.9051  0.9685 -0.2955
   90TCq2    C9 1379   3.122   4.250   1.381 -0.1247  0.7467  0.5604
   90TCq2    O5 1380   3.036   4.308   1.447 -0.0770  0.4914 -0.3818
   90TCq2    O6 1381   3.223   4.306   1.324 -0.8376 -0.4391 -0.1827
   90TCq2    H2 1382   2.942   4.092   1.479  0.1064  0.1390 -1.3809
   90TCq2    H3 1383   3.310   4.090   1.274  0.4424 -0.5341  1.1705
   90TCq2    H4 1384   3.169   3.722   1.455 -0.0905 -0.1604 -0.3419
   91TMC2    C1 1385   4.088   4.577  16.575  0.0326 -0.1172  1.1598
   91TMC2    C2 1386   4.118   4.673  16.483 -0.3241  0.8696  0.1173
   91TMC2    C3 1387   4.015   0.044  16.457  0.0826  0.6226 -0.4813
   91TMC2    C4 1388   3.967   4.561  16.640  1.1221  0.1406 -0.7646
   91TMC2    C5 1389   3.871   4.652  16.612 -0.3637 -0.7603  0.2509
   91TMC2    C6 1390   3.890   0.034  16.517  0.5891  0.4777  0.2919
   91TMC2     C 1391   4.179   4.469  16.598  0.0973 -0.5159  0.1918
   91TMC2     O 1392   4.145   4.367  16.658  0.0716 -1.1781  0.1339
   91TMC2     H 1393   4.217   4.677  16.439 -0.5487  2.2163 -0.2615
   91TMC2    H1 1394   3.951   4.470  16.697 -0.1760  0.2049 -1.0250
   91TMC2    H2 1395   3.809   0.103  16.497 -0.2495 -1.1910 -2.2001
   91TMC2    C7 1396   3.737   4.625  16.647  0.9227 -0.1946  0.8523
   91TMC2    C8 1397   4.032   0.145  16.362  0.2106  0.4746  0.0833
   91TMC2    O1 1398   3.702   4.633  16.765  0.5138 -0.5506 -0.5542
   91TMC2    O2 1399   3.941   0.219  16.324 -0.1321  0.3589  0.1721
   91TMC2    O5 1400   4.163   0.177  16.355 -0.4242  0.0926  0.2643
   91TMC2    H5 1401   4.218   0.109  16.400 -1.2693 -0.2755  0.7329
   92MPD2     C 1402   4.423   4.321  16.659  1.0187 -0.6787  0.5283
   92MPD2    C1 1403   4.421   4.417  16.561  0.2449  0.5519 -0.6820
   92MPD2    C2 1404   4.523   4.441  16.483  0.2127 -0.3048 -0.1504
   92MPD2    C3 1405   4.630   4.353  16.492  0.1790  0.2607  0.0217
   92MPD2    C4 1406   4.636   4.249  16.578  0.8166 -0.4299 -0.5900
   92MPD2    C5 1407   4.535   4.243  16.669  0.5287 -0.1526  0.3166
   92MPD2     H 1408   4.516   4.518  16.407 -1.2442  0.2516  0.5432
   92MPD2    H1 1409   4.716   4.176  16.590  2.2681  1.6065  2.1906
   92MPD2    H2 1410   4.340   4.308  16.729 -0.0394  0.7247 -0.4840
   92MPD2    H3 1411   4.531   4.162  16.741 -0.0090 -0.0968  0.3505
   92MPD2     N 1412   0.020   4.372  16.405  0.4882  0.0020  0.4863
   92MPD2    H5 1413   0.025   4.465  16.366  2.9107  0.0686  0.9233
   92MPD2    N1 1414   4.305   4.495  16.546 -0.2134 -0.3588 -0.2926
   92MPD2    H7 1415   4.320   4.577  16.489  1.3747  0.5410  1.4207
   93MPD2     C 1416   0.735   4.713  13.634  0.6487 -0.0951 -0.5944
   93MPD2    C1 1417   0.716   0.076  13.745 -0.1614  0.1302 -0.6392
   93MPD2    C2 1418   0.579   0.117  13.778 -0.0765  0.2408 -0.4336
   93MPD2    C3 1419   0.473   0.060  13.710 -0.0089 -0.0475  0.1935
   93MPD2    C4 1420   0.505   4.697  13.608  0.1492 -0.1975 -0.4986
   93MPD2    C5 1421   0.625   4.667  13.566 -0.4889 -0.0990 -0.1008
   93MPD2     H 1422   0.564   0.190  13.857  0.6924  0.1157 -0.1708
   93MPD2    H1 1423   0.425   4.639  13.563  0.0432 -2.3156  2.4359
   93MPD2    H2 1424   0.832   4.674  13.606 -0.3553 -1.8927 -1.5652
   93MPD2    H3 1425   0.643   4.604  13.480  2.2066 -3.4262  2.9122
   93MPD2     N 1426   0.338   0.094  13.725 -0.1592  0.4441  0.1574
   93MPD2    H5 1427   0.272   0.053  13.659  0.5219  2.1004 -1.5392
   93MPD2    N1 1428   0.825   0.142  13.807  0.1337  0.1217  0.3923
   93MPD2    H7 1429   0.818   0.203  13.888  0.3161  0.9339 -0.1983
   94TCq2    C1 1430   0.957   0.136  13.775 -0.4697 -0.2705  0.2561
   94TCq2    O2 1431   1.008   0.079  13.681  0.0162 -0.3818 -0.2547
   94TCq2    C2 1432   1.049   0.173  13.881  0.8816  0.0073 -0.3615
   94TCq2    C3 1433   0.997   0.181  14.006  0.3375 -1.2803 -0.6253
   94TCq2    C4 1434   1.095   0.215  14.101  0.5169 -0.3555  0.3503
   94TCq2    C5 1435   1.216   0.258  14.075  0.0700 -0.3760  0.4996
   94TCq2    C6 1436   1.258   0.260  13.945  0.9361 -0.5176  0.4057
   94TCq2    C7 1437   1.176   0.214  13.846  0.2504  0.3869  0.5431
   94TCq2    C8 1438   1.389   0.326  13.915 -0.1086 -0.4459  0.7428
   94TCq2    O4 1439   1.457   0.348  14.015  0.3414  0.2543  0.0088
   94TCq2    C9 1440   1.064   0.189  14.241  0.2529 -0.2454  0.5678
   94TCq2    O5 1441   0.941   0.174  14.268 -0.9812 -0.0707 -0.2357
   94TCq2    O6 1442   1.162   0.184  14.323  0.2857 -0.6439  0.1193
   94TCq2    H2 1443   0.907   0.134  14.045  0.2993 -1.1485 -0.5534
   94TCq2    H3 1444   1.294   0.268  14.150  0.8209 -0.4418 -0.2663
   94TCq2    H4 1445   1.211   0.240  13.747  2.0968  1.1680  1.4026
   95TMC2    C1 1446   0.895   1.158  15.684 -0.2332 -0.0550  0.0242
   95TMC2    C2 1447   0.954   1.088  15.782  0.0025  0.3931 -0.4992
   95TMC2    C3 1448   0.896   1.116  15.905  0.9802  0.5549 -0.7877
   95TMC2    C4 1449   0.780   1.239  15.686  0.5393  0.1467 -0.4259
   95TMC2    C5 1450   0.720   1.240  15.808  0.2465  0.2820 -0.5841
   95TMC2    C6 1451   0.772   1.174  15.924  0.0450  0.1187 -0.4559
   95TMC2     C 1452   0.971   1.162  15.555  0.9555 -1.5050  0.6947
   95TMC2     O 1453   1.093   1.143  15.563 -0.0347  0.6821 -0.6133
   95TMC2     H 1454   1.043   1.026  15.779 -0.3332 -0.0413 -1.5568
   95TMC2    H1 1455   0.738   1.294  15.603 -0.2591  1.1045  0.6051
   95TMC2    H2 1456   0.712   1.168  16.014 -0.8669  0.6222 -1.0272
   95TMC2    C7 1457   0.620   1.352  15.819 -0.8011  0.3624 -0.1153
   95TMC2    C8 1458   0.959   1.053  16.019 -0.3031  0.2251  0.3379
   95TMC2    O1 1459   0.561   1.382  15.715  0.2869  0.3979  0.2695
   95TMC2    O2 1460   1.035   0.959  16.004  0.4686  0.0354 -0.0181
   95TMC2    O5 1461   0.901   1.096  16.137 -0.0182  0.0320 -0.3410
   95TMC2    H5 1462   0.838   1.171  16.136  0.2036  0.2531  1.1275
   96MPD2     C 1463   1.022   1.285  15.062 -0.3309 -0.2588  0.0340
   96MPD2    C1 1464   1.110   1.300  15.160 -0.4174  0.3447 -0.2107
   96MPD2    C2 1465   1.072   1.272  15.284  0.7111  0.3118  0.0046
   96MPD2    C3 1466   0.943   1.218  15.313 -0.8460  0.0063  0.1223
   96MPD2    C4 1467   0.853   1.204  15.208  0.2071 -0.5149 -0.3254
   96MPD2    C5 1468   0.897   1.244  15.081 -0.1062 -0.5099  0.4267
   96MPD2     H 1469   1.138   1.281  15.370  0.0830  2.4037  0.2623
   96MPD2    H1 1470   0.754   1.160  15.212 -0.0380 -0.0213 -0.9370
   96MPD2    H2 1471   1.051   1.303  14.960 -1.4111 -1.4909 -0.4948
   96MPD2    H3 1472   0.827   1.236  14.999  0.7991 -0.3870 -0.3598
   96MPD2     N 1473   0.893   1.184  15.443 -0.1631  0.1878 -0.4286
   96MPD2    H5 1474   0.796   1.153  15.444  0.0925 -0.6197 -0.1259
   96MPD2    N1 1475   1.236   1.353  15.129  0.2783 -0.2728 -0.2603
   96MPD2    H7 1476   1.232   1.400  15.039 -0.1231 -2.1766 -1.2423
   97MPD2     C 1477   3.547   3.367   0.401  0.0428  0.2817  0.7268
   97MPD2    C1 1478   3.639   3.441   0.479 -0.4257  0.7104  0.4178
   97MPD2    C2 1479   3.740   3.513   0.416 -0.2681 -0.0597  0.7514
   97MPD2    C3 1480   3.750   3.522   0.276  0.0622 -0.2558  0.1671
   97MPD2    C4 1481   3.647   3.467   0.202 -0.3617  0.4521  0.1000
   97MPD2    C5 1482   3.550   3.390   0.260  0.8320 -0.0396 -0.2066
   97MPD2     H 1483   3.823   3.558   0.470  2.0759 -2.5159 -0.7905
   97MPD2    H1 1484   3.651   3.488   0.095 -0.1877 -2.5476 -0.4989
   97MPD2    H2 1485   3.474   3.299   0.444  1.8755 -1.5935  0.8925
   97MPD2    H3 1486   3.477   3.340   0.197 -1.2218  1.4421  1.0404
   97MPD2     N 1487   3.845   3.601   0.205 -0.2550  0.1457  0.3067
   97MPD2    H5 1488   3.825   3.618   0.107 -3.5285 -2.1039  0.5955
   97MPD2    N1 1489   3.624   3.433   0.623 -0.1072 -0.1062  0.0911
   97MPD2    H7 1490   3.556   3.373   0.669  0.6071 -0.1985  1.0370
   98TCq2    C1 1491   3.953   3.665   0.256  0.6666 -0.2836  0.7727
   98TCq2    O2 1492   4.026   3.633   0.353  0.2932  0.0954 -0.4399
   98TCq2    C2 1493   3.994   3.777   0.178 -0.5258  0.0771 -0.5339
   98TCq2    C3 1494   3.898   3.838   0.107  0.1075 -0.5554  0.2716
   98TCq2    C4 1495   3.925   3.969   0.068 -0.3474 -0.3198 -0.2055
   98TCq2    C5 1496   4.037   4.035   0.099  1.0596 -0.1809  0.4269
   98TCq2    C6 1497   4.133   3.971   0.171  0.1057 -0.4747 -0.0115
   98TCq2    C7 1498   4.113   3.840   0.219 -0.7165 -0.6988  0.5343
   98TCq2    C8 1499   4.263   4.019   0.208  0.1113  0.7241  0.5539
   98TCq2    O4 1500   4.329   3.955   0.286 -0.0757 -0.5095  0.1037
   98TCq2    C9 1501   3.822   4.035  17.676 -0.2853  0.1523 -0.1436
   98TCq2    O5 1502   3.848   4.146  17.624  0.2160 -0.1993 -0.1315
   98TCq2    O6 1503   3.707   3.994   0.019  0.1286 -0.5530 -0.3963
   98TCq2    H2 1504   3.800   3.800   0.084 -0.8760  1.3171  1.3754
   98TCq2    H3 1505   4.045   4.140   0.073  0.1488 -0.0087  0.8463
   98TCq2    H4 1506   4.191   3.779   0.262 -0.8238  0.6014  2.5314
   99MPD2     C 1507   2.377   1.352   1.635  0.2467 -0.2099  0.1824
   99MPD2    C1 1508   2.386   1.218   1.595  0.9881  0.1437  0.6161
   99MPD2    C2 1509   2.336   1.178   1.473  0.0891 -0.6082  0.6447
   99MPD2    C3 1510   2.280   1.268   1.382  0.3692  0.5474 -0.4223
   99MPD2    C4 1511   2.270   1.398   1.422 -0.0512 -0.4366 -0.2267
   99MPD2    C5 1512   2.319   1.435   1.544  0.2072  0.2824 -0.3655
   99MPD2     H 1513   2.360   1.074   1.450 -0.9692 -0.7768  0.2872
   99MPD2    H1 1514   2.211   1.468   1.365 -0.8833 -0.9016  0.0713
   99MPD2    H2 1515   2.397   1.383   1.737  2.0200 -2.0825  0.4226
   99MPD2    H3 1516   2.302   1.539   1.568  0.5585  0.3739 -0.5150
   99MPD2     N 1517   2.239   1.219   1.258  0.1272  0.5657 -0.4613
   99MPD2    H5 1518   2.264   1.125   1.231 -0.3441 -0.1266  1.5123
   99MPD2    N1 1519   2.457   1.121   1.666 -0.2101 -0.1759  0.0699
   99MPD2    H7 1520   2.450   1.029   1.624  2.8514 -1.4585  2.3535
  100TCq2    C1 1521   2.524   1.146   1.783  1.1578  0.0511 -0.1514
  100TCq2    O2 1522   2.547   1.249   1.842  0.5204  0.1015  0.6393
  100TCq2    C2 1523   2.580   1.030   1.852  0.1161  1.0465 -0.2169
  100TCq2    C3 1524   2.621   1.055   1.983 -0.5194  0.4412  0.1508
  100TCq2    C4 1525   2.663   0.941   2.053 -0.5894 -0.2795 -0.2738
  100TCq2    C5 1526   2.671   0.816   2.003 -0.7522  0.1510 -0.1439
  100TCq2    C6 1527   2.631   0.799   1.873 -0.3105  0.0375 -0.3460
  100TCq2    C7 1528   2.589   0.906   1.794  0.2381 -0.8584  0.4126
  100TCq2    C8 1529   2.592   0.656   1.845 -0.3318  0.0264  0.4932
  100TCq2    O4 1530   2.628   0.571   1.924  0.1221 -0.1306 -0.0727
  100TCq2    C9 1531   2.707   0.967   2.187  0.0104  0.8147 -1.0130
  100TCq2    O5 1532   2.796   0.885   2.222 -0.1245 -0.0940 -0.3160
  100TCq2    O6 1533   2.647   1.050   2.259  0.2072  0.5644 -0.3282
  100TCq2    H2 1534   2.630   1.154   2.026 -2.4706  0.0704  1.3892
  100TCq2    H3 1535   2.690   0.734   2.072  0.5999 -0.8126 -1.6581
  100TCq2    H4 1536   2.555   0.891   1.692 -1.0276  0.2715  0.6698
  101MPD2     C 1537   2.450   3.236  13.079 -0.0133  0.2060  0.2047
  101MPD2    C1 1538   2.427   3.116  13.014  0.3418 -0.5249  0.0687
  101MPD2    C2 1539   2.400   3.002  13.089  0.7942 -0.3355 -0.1608
  101MPD2    C3 1540   2.395   3.011  13.229  0.2336 -0.2688 -0.7190
  101MPD2    C4 1541   2.427   3.134  13.290 -0.8508 -0.5967 -0.7139
  101MPD2    C5 1542   2.452   3.243  13.217 -0.2770  0.2736  0.0941
  101MPD2     H 1543   2.379   2.907  13.042  0.9313 -0.1814 -0.5265
  101MPD2    H1 1544   2.440   3.135  13.398 -0.0046  1.1752 -0.8395
  101MPD2    H2 1545   2.474   3.330  13.029  0.4011  0.4350  0.8487
  101MPD2    H3 1546   2.477   3.332  13.272 -1.1234  0.3762  0.3196
  101MPD2     N 1547   2.360   2.903  13.313  0.0016  0.6668  0.2080
  101MPD2    H5 1548   2.363   2.809  13.275  1.5542  0.4685  0.8304
  101MPD2    N1 1549   2.419   3.120  12.875 -0.2959  0.8963 -0.2274
  101MPD2    H7 1550   2.422   3.211  12.830 -0.6331 -0.3717 -2.7605
  102TCq2    C1 1551   2.585   3.072  12.348 -0.0066  0.4450  0.7680
  102TCq2    O2 1552   2.692   3.014  12.373 -0.7535 -0.5012  0.0075
  102TCq2    C2 1553   2.468   3.062  12.432  0.1336  0.1260  0.1635
  102TCq2    C3 1554   2.359   3.135  12.394  0.6245 -1.2981  0.1437
  102TCq2    C4 1555   2.266   3.160  12.493 -0.1523 -0.6486 -0.9794
  102TCq2    C5 1556   2.293   3.125  12.623  0.2962  0.6328 -0.2791
  102TCq2    C6 1557   2.405   3.052  12.654 -0.2773  0.2858  0.1721
  102TCq2    C7 1558   2.495   3.019  12.558 -0.1051 -0.6238  0.0932
  102TCq2    C8 1559   2.428   3.014  12.787 -0.1381 -0.0647 -0.1072
  102TCq2    O4 1560   2.449   2.897  12.817 -0.3795 -0.2598  0.0917
  102TCq2    C9 1561   2.154   3.250  12.462  0.1229  0.3564  0.0641
  102TCq2    O5 1562   2.117   3.323  12.559  0.9184 -0.1525 -0.2604
  102TCq2    O6 1563   2.138   3.288  12.343 -0.7398 -0.5558  0.4752
  102TCq2    H2 1564   2.343   3.186  12.300  0.6745 -0.2841  0.6838
  102TCq2    H3 1565   2.227   3.165  12.699  0.6077  1.5701 -0.5014
  102TCq2    H4 1566   2.589   2.969  12.578  0.2038 -1.9322 -4.6915
  103TMC2    C1 1567   1.442   3.122  12.246  0.4803 -0.1270  0.3261
  103TMC2    C2 1568   1.569   3.156  12.265  0.3877 -1.1043 -0.2278
  103TMC2    C3 1569   1.623   3.168  12.387  0.3353  0.2691 -1.0403
  103TMC2    C4 1570   1.359   3.096  12.350  0.4306  0.3936 -0.5065
  103TMC2    C5 1571   1.414   3.115  12.483  0.4410 -0.0293 -0.1408
  103TMC2    C6 1572   1.548   3.149  12.491  0.3151 -0.2867 -0.2789
  103TMC2     C 1573   1.390   3.126  12.116  0.0316 -0.1111  0.4339
  103TMC2     O 1574   1.267   3.137  12.108  0.3486 -0.3761  0.1198
  103TMC2     H 1575   1.642   3.193  12.194  0.0519  1.0411  0.5467
  103TMC2    H1 1576   1.252   3.084  12.335  0.3040  3.3314 -2.0662
  103TMC2    H2 1577   1.596   3.152  12.589  0.6817  0.7734 -0.4943
  103TMC2    C7 1578   1.318   3.129  12.588  0.0533 -0.5643  0.1441
  103TMC2    C8 1579   1.761   3.180  12.407  0.0186  0.1256  0.2521
  103TMC2    O1 1580   1.246   3.036  12.613  0.3124 -0.4569  0.0004
  103TMC2    O2 1581   1.842   3.135  12.327  0.3371 -0.1869  0.3690
  103TMC2    O5 1582   1.772   3.294  12.470  0.1645  0.2140 -0.3269
  103TMC2    H5 1583   1.690   3.345  12.485 -0.3611 -0.6798 -0.2292
  104MPD2     C 1584   1.570   3.151  11.802  0.1389 -0.9284 -0.1599
  104MPD2    C1 1585   1.461   3.148  11.879 -0.3206 -0.3314  0.0505
  104MPD2    C2 1586   1.340   3.181  11.821  0.3147  0.1530  0.0496
  104MPD2    C3 1587   1.331   3.210  11.686  1.2093 -0.7473 -1.0176
  104MPD2    C4 1588   1.443   3.185  11.607 -0.0281 -0.0124  0.5386
  104MPD2    C5 1589   1.568   3.171  11.666 -0.5068 -0.5221 -0.4253
  104MPD2     H 1590   1.247   3.197  11.875 -0.7615 -1.0437 -1.4473
  104MPD2    H1 1591   1.446   3.210  11.502  1.2378 -0.0005  0.5771
  104MPD2    H2 1592   1.668   3.133  11.844 -0.5027  1.2343  2.2487
  104MPD2    H3 1593   1.661   3.169  11.609 -0.6830  0.8382 -0.7423
  104MPD2     N 1594   1.201   3.233  11.634  0.2877  0.8933  0.7148
  104MPD2    H5 1595   1.124   3.248  11.699 -0.8588 -1.6699 -0.0731
  104MPD2    N1 1596   1.484   3.123  12.015 -0.0189 -0.0215  0.1881
  104MPD2    H7 1597   1.582   3.110  12.039 -0.0281 -0.3722  0.0373
  105MPD2     C 1598   2.885   1.497  17.465  0.2720 -0.4467  1.1925
  105MPD2    C1 1599   2.812   1.608  17.499 -0.2191  0.1548  0.0189
  105MPD2    C2 1600   2.812   1.648  17.626 -0.5267  0.2861  0.6189
  105MPD2    C3 1601   2.896   1.589   0.039  0.2846 -0.3764 -0.6125
  105MPD2    C4 1602   2.978   1.485   0.000  0.1927 -0.4418  0.4609
  105MPD2    C5 1603   2.953   1.423  17.559  0.0666 -0.3931 -0.0547
  105MPD2     H 1604   2.766   1.743  17.650  0.6920  0.8683  0.5834
  105MPD2    H1 1605   3.058   1.454   0.067 -1.4859 -0.7827  2.3011
  105MPD2    H2 1606   2.916   1.473  17.364  2.2363 -1.3695  2.0132
  105MPD2    H3 1607   3.022   1.348  17.522  0.5842 -0.6670  1.4934
  105MPD2     N 1608   2.908   1.656   0.164 -0.3113 -0.3842 -0.5796
  105MPD2    H5 1609   2.850   1.738   0.175 -1.0042 -0.4190 -3.8499
  105MPD2    N1 1610   2.736   1.685  17.418 -0.2800  0.5824  0.0949
  105MPD2    H7 1611   2.691   1.769  17.453  0.7752  0.4917  1.6625
  106TCq2    C1 1612   2.984   1.612   0.272 -0.3225  0.0077 -0.2158
  106TCq2    O2 1613   3.060   1.512   0.289 -0.0916 -0.3672  0.1535
  106TCq2    C2 1614   2.974   1.702   0.390 -0.1170  0.2638 -0.1101
  106TCq2    C3 1615   3.031   1.659   0.505  0.0239  0.8808  0.0068
  106TCq2    C4 1616   3.022   1.749   0.611  0.5971  0.1659  0.5604
  106TCq2    C5 1617   2.976   1.877   0.601  0.0019  0.2788  0.0456
  106TCq2    C6 1618   2.933   1.917   0.475  0.8182 -0.1256 -0.0312
  106TCq2    C7 1619   2.923   1.831   0.373 -0.1344  0.4720 -0.6430
  106TCq2    C8 1620   2.886   2.053   0.457 -0.3213  0.2491  0.2028
  106TCq2    O4 1621   2.898   2.091   0.339  0.4150 -0.9308 -0.6750
  106TCq2    C9 1622   3.087   1.711   0.739 -0.5492  0.3224  0.6103
  106TCq2    O5 1623   3.050   1.773   0.840  0.1153  0.1519  0.0246
  106TCq2    O6 1624   3.167   1.614   0.743 -0.2121 -0.0009  0.2796
  106TCq2    H2 1625   3.083   1.567   0.528  0.5555  1.4253  1.0021
  106TCq2    H3 1626   2.977   1.936   0.692 -1.2257 -2.6289  1.9159
  106TCq2    H4 1627   2.879   1.862   0.279 -2.4448 -0.0756  0.2514
  107TMC2    C1 1628   2.783   1.519  11.435  0.1579  0.3419 -0.4264
  107TMC2    C2 1629   2.867   1.621  11.394  0.2652 -0.8432 -0.6302
  107TMC2    C3 1630   2.944   1.603  11.286 -0.2303 -0.5377 -0.2239
  107TMC2    C4 1631   2.776   1.397  11.365 -0.2288 -0.1263 -0.1683
  107TMC2    C5 1632   2.855   1.385  11.251  0.7551 -0.6811  0.0543
  107TMC2    C6 1633   2.933   1.488  11.212  0.3603 -0.4635  0.7468
  107TMC2     C 1634   2.687   1.556  11.539  0.2225 -0.4727 -0.1569
  107TMC2     O 1635   2.635   1.461  11.599  0.3480 -0.2603 -0.0521
  107TMC2     H 1636   2.879   1.709  11.456  0.9022 -1.3041 -0.1072
  107TMC2    H1 1637   2.717   1.317  11.408  0.1627 -0.6771 -0.6645
  107TMC2    H2 1638   3.001   1.480  11.128 -0.9052  2.9883 -0.6045
  107TMC2    C7 1639   2.864   1.255  11.191  0.2665  0.1173 -0.1997
  107TMC2    C8 1640   3.065   1.680  11.273 -0.1135  0.3818 -0.2410
  107TMC2    O1 1641   2.844   1.160  11.265 -0.4569 -0.0141  0.4370
  107TMC2    O2 1642   3.104   1.740  11.372 -0.1792  0.1583 -0.2875
  107TMC2    O5 1643   3.057   1.737  11.153 -0.4483  0.4466  0.1805
  107TMC2    H5 1644   2.974   1.710  11.107 -0.4759  0.9215 -0.0451
  108MPD2     C 1645   2.620   1.900  11.670  0.3284 -0.8050 -0.3225
  108MPD2    C1 1646   2.605   1.763  11.661 -0.0023  0.0328 -0.1521
  108MPD2    C2 1647   2.526   1.698  11.747 -0.0587  0.2426 -0.1539
  108MPD2    C3 1648   2.472   1.773  11.849 -0.1601  0.4867 -0.4838
  108MPD2    C4 1649   2.496   1.905  11.865  0.0188 -0.3766 -0.7236
  108MPD2    C5 1650   2.568   1.965  11.770 -0.2150  0.0846  0.2980
  108MPD2     H 1651   2.502   1.594  11.728 -1.5302  0.4594  0.4852
  108MPD2    H1 1652   2.442   1.965  11.938  1.2098 -0.6579  0.3947
  108MPD2    H2 1653   2.675   1.962  11.600  0.8064 -1.4540 -0.5196
  108MPD2    H3 1654   2.580   2.072  11.783 -0.3997  0.2479 -0.8190
  108MPD2     N 1655   2.390   1.710  11.952  0.5540  0.0908 -0.0775
  108MPD2    H5 1656   2.377   1.765  12.037  0.1585 -0.1381  0.0065
  108MPD2    N1 1657   2.678   1.691  11.566 -0.1390  0.2745  0.3639
  108MPD2    H7 1658   2.724   1.754  11.500 -1.5368  2.9055  1.9082
  109MPD2     C 1659   4.474   2.625   1.895 -0.0079  0.2119  0.3460
  109MPD2    C1 1660   4.381   2.660   1.804 -0.1838 -0.0542 -0.4104
  109MPD2    C2 1661   4.389   2.789   1.738  0.0420 -0.1028 -0.9337
  109MPD2    C3 1662   4.497   2.873   1.766  0.3476  0.0736 -0.3823
  109MPD2    C4 1663   4.591   2.831   1.857 -0.6984 -0.3566 -0.0367
  109MPD2    C5 1664   4.576   2.713   1.923  0.2053  0.0661 -0.0109
  109MPD2     H 1665   4.317   2.818   1.662  1.0117 -2.4924 -2.7385
  109MPD2    H1 1666   4.683   2.884   1.879  0.9514 -4.2712  2.5248
  109MPD2    H2 1667   4.472   2.530   1.948 -0.9070  0.4330  0.7003
  109MPD2    H3 1668   4.658   2.692   1.991  0.0648 -0.5311 -0.0242
  109MPD2     N 1669   4.496   2.992   1.687  0.4001 -0.1496  0.4830
  109MPD2    H5 1670   4.419   2.995   1.621  0.3361 -2.8246  0.4281
  109MPD2    N1 1671   4.271   2.571   1.782 -0.4214 -0.0171 -0.7635
  109MPD2    H7 1672   4.263   2.485   1.836 -1.1008  1.4095  1.3817
  110TCq2    C1 1673   4.591   3.097   1.692 -0.0969  0.3377 -0.9628
  110TCq2    O2 1674   4.704   3.099   1.740  0.0920 -0.4096  0.0552
  110TCq2    C2 1675   4.565   3.196   1.590  0.3632 -0.5317  0.5227
  110TCq2    C3 1676   4.660   3.286   1.547  0.1076 -0.6592 -0.4398
  110TCq2    C4 1677   4.623   3.385   1.461  0.3843 -0.4628  0.4358
  110TCq2    C5 1678   4.494   3.408   1.434  0.7769  0.4874  0.0719
  110TCq2    C6 1679   4.395   3.319   1.479  0.2657 -1.1301 -0.5511
  110TCq2    C7 1680   4.430   3.221   1.571 -1.0548  0.5900 -0.2124
  110TCq2    C8 1681   4.260   3.367   1.466 -0.1488 -0.3845  0.0972
  110TCq2    O4 1682   4.238   3.455   1.383  0.1348  0.0433 -0.3817
  110TCq2    C9 1683   4.719   3.475   1.412  0.0811  1.0724  0.5618
  110TCq2    O5 1684   4.680   3.593   1.392 -0.2488 -0.3173 -0.3136
  110TCq2    O6 1685   0.117   3.449   1.448  0.1567  0.2026  0.2293
  110TCq2    H2 1686   0.044   3.266   1.566  0.2557  0.5199  0.0121
  110TCq2    H3 1687   4.469   3.499   1.381 -1.1367 -1.1304 -1.8018
  110TCq2    H4 1688   4.354   3.169   1.628 -2.0758  2.1174 -0.1685
  111TMC2    C1 1689   2.912   3.826  11.265 -0.0974 -0.0538 -0.5216
  111TMC2    C2 1690   2.951   3.932  11.200 -0.7311 -0.2659 -0.4060
  111TMC2    C3 1691   3.003   4.033  11.271 -0.3216  0.3636  0.8542
  111TMC2    C4 1692   2.937   3.803  11.392  0.2523 -0.7098  0.6991
  111TMC2    C5 1693   3.016   3.889  11.462 -0.1064  0.2955  0.5481
  111TMC2    C6 1694   3.054   4.009  11.398 -0.1239  0.0891 -0.2072
  111TMC2     C 1695   2.841   3.715  11.186  0.4481 -0.1437 -0.0414
  111TMC2     O 1696   2.869   3.712  11.066  0.3599  0.0206 -0.0026
  111TMC2     H 1697   2.919   3.951  11.099 -1.7234 -1.8449 -0.3847
  111TMC2    H1 1698   2.911   3.711  11.443 -1.2465  0.0211  1.2533
  111TMC2    H2 1699   3.106   4.090  11.448  1.3784  0.2277 -1.9936
  111TMC2    C7 1700   3.058   3.864  11.597 -0.5062  0.2833  0.0803
  111TMC2    C8 1701   3.098   4.100  11.188  0.6164 -0.4940 -0.1455
  111TMC2    O1 1702   3.047   3.746  11.629 -0.4576 -0.8131 -0.5252
  111TMC2    O2 1703   3.072   4.143  11.075  0.6820  0.1546  0.0962
  111TMC2    O5 1704   3.207   4.022  11.214  0.2741 -0.1398  0.3145
  111TMC2    H5 1705   3.213   3.983  11.304 -3.1233 -1.3715 -0.0062
  112MPD2     C 1706   2.660   3.241  11.139  0.4638  0.4843  0.4231
  112MPD2    C1 1707   2.673   3.343  11.052  0.3550 -0.3561 -0.0152
  112MPD2    C2 1708   2.716   3.461  11.096 -0.6628 -0.2591 -0.0103
  112MPD2    C3 1709   2.736   3.488  11.228 -0.0318 -0.2064 -0.2348
  112MPD2    C4 1710   2.704   3.391  11.321 -0.2415 -0.0683 -0.4290
  112MPD2    C5 1711   2.675   3.266  11.272  0.7256  0.4232 -0.3476
  112MPD2     H 1712   2.737   3.539  11.024 -0.6313  1.0325  1.3892
  112MPD2    H1 1713   2.722   3.404  11.427  0.5892  0.0496 -0.5886
  112MPD2    H2 1714   2.631   3.139  11.115  1.8274 -0.1836  1.6254
  112MPD2    H3 1715   2.671   3.189  11.349  0.7113 -1.0946 -1.8715
  112MPD2     N 1716   2.779   3.623  11.267  0.5796 -0.2137  0.2902
  112MPD2    H5 1717   2.765   3.650  11.364  2.8551  1.2321  0.2168
  112MPD2    N1 1718   2.658   3.329  10.912  0.3713 -0.2795 -0.1482
  112MPD2    H7 1719   2.690   3.406  10.853 -2.1509 -1.8320 -3.5485
  113MPD2     C 1720   1.547   1.445   0.946 -0.7582 -0.1285 -0.0441
  113MPD2    C1 1721   1.539   1.577   0.977 -0.0194 -0.0565 -0.0482
  113MPD2    C2 1722   1.426   1.643   0.941 -0.1089 -0.6003 -0.3164
  113MPD2    C3 1723   1.324   1.577   0.868  0.2368  0.4928  0.1497
  113MPD2    C4 1724   1.343   1.445   0.829  0.4553  0.0064  0.6340
  113MPD2    C5 1725   1.454   1.382   0.868 -0.0746 -0.6277  0.1204
  113MPD2     H 1726   1.422   1.747   0.973  3.1896 -0.6538  0.2354
  113MPD2    H1 1727   1.273   1.385   0.772  1.5790 -0.7210  0.0160
  113MPD2    H2 1728   1.625   1.375   0.976 -0.5833  0.2205  0.3091
  113MPD2    H3 1729   1.467   1.283   0.825 -0.0278  1.0701 -3.7554
  113MPD2     N 1730   1.201   1.634   0.827  0.0228 -0.1304  0.1385
  113MPD2    H5 1731   1.137   1.566   0.786  0.2503 -0.7626  0.8211
  113MPD2    N1 1732   1.640   1.643   1.042  0.1042 -0.2614 -0.2383
  113MPD2    H7 1733   1.617   1.733   1.084 -1.4306  0.9848 -3.6732
  114TCq2    C1 1734   1.175   1.771   0.825 -0.1178 -0.3119 -0.1077
  114TCq2    O2 1735   1.239   1.859   0.875 -0.0108 -0.6787  0.2394
  114TCq2    C2 1736   1.055   1.813   0.750 -0.1507  0.1044  0.1287
  114TCq2    C3 1737   1.030   1.952   0.738 -0.0600 -0.0382 -0.5543
  114TCq2    C4 1738   0.909   1.980   0.677  0.6144 -0.4199 -0.2089
  114TCq2    C5 1739   0.824   1.884   0.631  0.4458 -0.3508 -0.2578
  114TCq2    C6 1740   0.855   1.753   0.650  0.1242  0.3516  0.4117
  114TCq2    C7 1741   0.962   1.718   0.722 -0.0133  0.4755 -0.1181
  114TCq2    C8 1742   0.778   1.642   0.587 -0.6424  0.4118 -0.3569
  114TCq2    O4 1743   0.698   1.676   0.500  0.3293  0.9977  0.0946
  114TCq2    C9 1744   0.882   2.121   0.659  0.8708  0.1195 -0.2315
  114TCq2    O5 1745   0.765   2.166   0.642  0.5286  0.4863  0.2660
  114TCq2    O6 1746   0.979   2.194   0.644 -0.2493 -0.2668 -0.4897
  114TCq2    H2 1747   1.101   2.032   0.760  0.5894 -0.6306 -0.4951
  114TCq2    H3 1748   0.739   1.917   0.573 -0.7343  0.8080  2.1014
  114TCq2    H4 1749   0.994   1.614   0.725 -1.5381 -0.0313 -1.8269
  115TMC2    C1 1750   1.546   3.480  17.549 -0.3156  0.2739 -0.3049
  115TMC2    C2 1751   1.684   3.456  17.537 -1.0359  0.0735  0.5623
  115TMC2    C3 1752   1.763   3.562  17.541  0.3096 -0.0762 -0.3237
  115TMC2    C4 1753   1.499   3.607  17.556  0.3982 -0.1141 -0.5660
  115TMC2    C5 1754   1.583   3.711  17.568  0.3949  0.5531 -0.3529
  115TMC2    C6 1755   1.719   3.686  17.553 -0.3913  0.3382 -0.0857
  115TMC2     C 1756   1.460   3.374  17.509  0.3143 -0.2450 -0.0755
  115TMC2     O 1757   1.511   3.285  17.448  0.2755 -0.6367 -0.4092
  115TMC2     H 1758   1.721   3.364  17.494 -1.3451  0.5171 -0.6526
  115TMC2    H1 1759   1.393   3.627  17.556  0.3990 -0.1047 -1.5897
  115TMC2    H2 1760   1.789   3.768  17.560  0.3091 -0.5266  2.8816
  115TMC2    C7 1761   1.523   3.843  17.565 -0.0797  0.3698 -0.5938
  115TMC2    C8 1762   1.907   3.561  17.511 -0.8438 -0.5871 -0.2349
  115TMC2    O1 1763   1.409   3.850  17.613  0.0143 -0.5078 -0.1881
  115TMC2    O2 1764   1.965   3.651  17.452  0.6467  0.2955 -0.5816
  115TMC2    O5 1765   1.958   3.438  17.528  0.0620 -0.1980 -0.1689
  115TMC2    H5 1766   1.931   3.395  17.611 -0.6187 -0.2773 -0.4340
  116MPD2     C 1767   1.025   3.121  17.447 -0.6362  0.2025  0.3775
  116MPD2    C1 1768   1.151   3.078  17.424 -0.4611  0.1076  0.0430
  116MPD2    C2 1769   1.251   3.159  17.456  0.0208 -0.1088 -0.1753
  116MPD2    C3 1770   1.231   3.282  17.524 -1.0123 -0.4072  0.4038
  116MPD2    C4 1771   1.105   3.308  17.570 -0.1478  0.0457  0.5701
  116MPD2    C5 1772   0.999   3.229  17.535 -0.3439 -0.2028  0.5249
  116MPD2     H 1773   1.350   3.124  17.429 -0.2452 -2.2533  1.7295
  116MPD2    H1 1774   1.084   3.390  17.637 -2.1446  0.6055 -0.7271
  116MPD2    H2 1775   0.944   3.065  17.403  0.8671 -1.1103 -0.7359
  116MPD2    H3 1776   0.899   3.252  17.568 -0.4301  0.1561 -0.0013
  116MPD2     N 1777   1.330   3.381  17.555  0.0429 -0.2882  0.8960
  116MPD2    H5 1778   1.299   3.465  17.602  0.4565  0.1591  0.3569
  116MPD2    N1 1779   1.166   2.968  17.334 -0.2241  1.1397  0.5345
  116MPD2    H7 1780   1.077   2.938  17.295  0.3212  1.7442 -1.1556
  117TMC2    C1 1781   0.452   0.493  14.318 -0.1110  0.4089  0.0615
  117TMC2    C2 1782   0.521   0.479  14.436 -0.1313  0.2390  0.3836
  117TMC2    C3 1783   0.619   0.568  14.461  0.9513 -0.6508 -0.5488
  117TMC2    C4 1784   0.485   0.596  14.233 -0.0043 -0.1202 -0.1850
  117TMC2    C5 1785   0.584   0.675  14.258 -0.7794  0.0343 -0.1258
  117TMC2    C6 1786   0.663   0.666  14.372  0.2583  0.2431  0.8956
  117TMC2     C 1787   0.338   0.409  14.282 -0.4101  0.0237  0.3669
  117TMC2     O 1788   0.331   0.299  14.345  0.3476  0.6238  0.1767
  117TMC2     H 1789   0.505   0.395  14.502  1.9840 -0.3575  0.1158
  117TMC2    H1 1790   0.437   0.605  14.136 -0.7529  2.0969  0.3779
  117TMC2    H2 1791   0.734   0.742  14.400  0.1110  0.3058  1.0965
  117TMC2    C7 1792   0.624   0.781  14.169 -0.2498 -0.0250  0.0757
  117TMC2    C8 1793   0.676   0.560  14.589  0.1674  0.0199 -0.5584
  117TMC2    O1 1794   0.740   0.825  14.175 -0.1604  0.4524 -0.3149
  117TMC2    O2 1795   0.624   0.497  14.680 -0.3384 -0.2335  0.6092
  117TMC2    O5 1796   0.808   0.540  14.556  0.6898 -0.0380 -0.2404
  117TMC2    H5 1797   0.839   0.561  14.465 -0.0099  0.9468 -0.2543
  118MPD2     C 1798   0.429   0.929  13.903  0.1114  0.5153 -0.5390
  118MPD2    C1 1799   0.543   0.893  13.965  0.4621 -0.3354 -0.1692
  118MPD2    C2 1800   0.666   0.943  13.919 -0.6516  0.5694  0.7192
  118MPD2    C3 1801   0.666   1.026  13.806 -0.2992  0.5990  0.0623
  118MPD2    C4 1802   0.545   1.060  13.751  0.3924  0.0534  0.3865
  118MPD2    C5 1803   0.425   1.014  13.796 -0.5944 -0.0358 -0.4523
  118MPD2     H 1804   0.757   0.919  13.972 -0.5772  1.9012  1.2028
  118MPD2    H1 1805   0.543   1.118  13.660  2.7914 -0.2887  0.0985
  118MPD2    H2 1806   0.333   0.887  13.932  2.0068 -3.1787  0.2690
  118MPD2    H3 1807   0.333   1.028  13.741 -1.5635 -0.3641  1.0887
  118MPD2     N 1808   0.778   1.082  13.740 -0.1002  0.0617 -0.1630
  118MPD2    H5 1809   0.751   1.142  13.662  0.1627  1.0340  0.4918
  118MPD2    N1 1810   0.531   0.806  14.073 -0.2934  0.2548  0.1823
  118MPD2    H7 1811   0.437   0.770  14.086 -0.3664  0.8437  1.3396
  119MPD2     C 1812   3.300   2.549  13.874 -0.0475  0.1564 -0.1513
  119MPD2    C1 1813   3.169   2.527  13.900 -0.3488  0.0459  0.6393
  119MPD2    C2 1814   3.104   2.433  13.821  0.0599 -0.1347 -0.3449
  119MPD2    C3 1815   3.169   2.340  13.741 -0.8471 -0.4165  0.2950
  119MPD2    C4 1816   3.300   2.366  13.724  0.5821  0.2792 -0.5322
  119MPD2    C5 1817   3.364   2.479  13.773 -0.2989 -0.7158 -0.5414
  119MPD2     H 1818   2.997   2.451  13.823  0.1021  0.0565  0.2140
  119MPD2    H1 1819   3.354   2.307  13.651  2.7374  0.8480  0.5849
  119MPD2    H2 1820   3.346   2.626  13.935  3.8243 -0.1643 -2.7270
  119MPD2    H3 1821   3.472   2.487  13.769 -0.3819  1.1900  1.4791
  119MPD2     N 1822   3.111   2.239  13.665 -0.0168  0.4341 -0.2785
  119MPD2    H5 1823   3.164   2.190  13.594 -0.6942  0.9417 -1.1328
  119MPD2    N1 1824   3.096   2.594  14.002  0.0651 -0.1769  0.0895
  119MPD2    H7 1825   3.139   2.682  14.030 -0.7489  0.2572 -0.0310
  120TCq2    C1 1826   2.984   2.193  13.691  0.4113  0.6973  0.4937
  120TCq2    O2 1827   2.912   2.229  13.785  0.2803 -0.2371 -0.0882
  120TCq2    C2 1828   2.939   2.092  13.599  0.0237 -0.1614  0.1033
  120TCq2    C3 1829   3.018   2.038  13.498 -0.2369  0.5100  0.1350
  120TCq2    C4 1830   2.946   1.987  13.393 -0.1894  0.0136 -0.6219
  120TCq2    C5 1831   2.806   1.991  13.392 -0.6568 -0.1910 -0.1117
  120TCq2    C6 1832   2.738   2.039  13.497  0.1805  0.6060 -0.5591
  120TCq2    C7 1833   2.802   2.094  13.606  0.4256  0.1192  0.0707
  120TCq2    C8 1834   2.599   2.006  13.510  0.1963 -0.0190  0.6663
  120TCq2    O4 1835   2.526   2.043  13.415 -0.0466 -0.0248 -0.5858
  120TCq2    C9 1836   3.019   1.931  13.286 -0.5701  0.0015 -0.0430
  120TCq2    O5 1837   3.143   1.942  13.298 -0.7988  0.0857  0.3176
  120TCq2    O6 1838   2.956   1.884  13.189  0.1237  0.1236 -0.5317
  120TCq2    H2 1839   3.125   2.027  13.501 -0.1182  2.0876  1.8344
  120TCq2    H3 1840   2.763   1.961  13.297  3.0781 -2.1522 -1.1955
  120TCq2    H4 1841   2.737   2.139  13.681 -2.4516 -0.9692 -1.7652
  121TMC2    C1 1842   4.582   3.839  13.675 -0.1174 -0.7957 -0.2293
  121TMC2    C2 1843   4.680   3.745  13.709  0.6774 -0.5666 -0.3109
  121TMC2    C3 1844   4.634   3.616  13.717 -0.2048 -0.0316 -0.2527
  121TMC2    C4 1845   4.449   3.805  13.669 -0.3755 -0.4285 -0.0227
  121TMC2    C5 1846   4.409   3.676  13.666 -0.9134  0.4134 -0.7941
  121TMC2    C6 1847   4.502   3.590  13.704  0.5775  0.2353  0.4605
  121TMC2     C 1848   4.613   3.977  13.669 -0.5352  0.0330 -0.6203
  121TMC2     O 1849   4.532   4.056  13.714  0.1227  0.7295 -0.1948
  121TMC2     H 1850   0.065   3.760  13.725  0.4036 -0.6813  1.5914
  121TMC2    H1 1851   4.374   3.878  13.641 -0.2361 -0.2206  0.1374
  121TMC2    H2 1852   4.475   3.485  13.698 -1.0964  0.6730  0.2421
  121TMC2    C7 1853   4.355   3.646  13.534  0.3265  0.5782  0.6000
  121TMC2    C8 1854   0.006   3.506  13.745 -0.2136 -0.1477  0.1317
  121TMC2    O1 1855   4.427   3.683  13.442 -0.0761 -0.7165 -0.6324
  121TMC2    O2 1856   0.125   3.517  13.720 -0.3872 -0.2512  0.3424
  121TMC2    O5 1857   4.665   3.389  13.773  0.0061 -0.5382 -0.0036
  121TMC2    H5 1858   4.575   3.397  13.811 -0.3998 -1.0873 -0.8600
  122MPD2     C 1859   0.061   4.235  13.675  0.3125 -0.5871  0.8920
  122MPD2    C1 1860   0.092   4.119  13.611 -0.0276  0.1043 -0.0962
  122MPD2    C2 1861   0.209   4.121  13.534 -0.1513 -0.2708 -0.0825
  122MPD2    C3 1862   0.294   4.227  13.525  0.1219  0.3990 -0.2041
  122MPD2    C4 1863   0.253   4.345  13.583  0.7025  0.2474  0.4698
  122MPD2    C5 1864   0.138   4.350  13.657  0.0839  0.1593 -0.2417
  122MPD2     H 1865   0.238   4.033  13.477 -1.9597 -0.3624 -0.8610
  122MPD2    H1 1866   0.307   4.438  13.587  0.9954  0.1263 -0.8915
  122MPD2    H2 1867   4.693   4.242  13.737  0.5386 -0.9192  1.2512
  122MPD2    H3 1868   0.105   4.447  13.693  0.5910 -0.2653  1.3582
  122MPD2     N 1869   0.399   4.217  13.435 -0.4717 -0.8096 -0.8936
  122MPD2    H5 1870   0.428   4.126  13.400  0.7500  0.4674 -3.1436
  122MPD2    N1 1871   0.021   3.996  13.624  0.0820 -0.3306  0.1719
  122MPD2    H7 1872   0.064   3.913  13.583 -1.1909 -0.8049 -0.2013
  123MPD2     C 1873   1.260   1.923   8.869 -0.1284 -0.1781  0.1510
  123MPD2    C1 1874   1.389   1.879   8.868  0.0071  0.2048  0.0906
  123MPD2    C2 1875   1.409   1.746   8.883  0.7184  0.1151  0.0595
  123MPD2    C3 1876   1.313   1.658   8.916 -0.1665  0.6976 -0.0988
  123MPD2    C4 1877   1.178   1.701   8.913  0.4709  0.1043 -0.3992
  123MPD2    C5 1878   1.160   1.835   8.879 -0.9736  0.4235  0.1591
  123MPD2     H 1879   1.508   1.702   8.878  0.6873 -0.1755  2.0056
  123MPD2    H1 1880   1.090   1.645   8.943  1.6682 -0.8026  1.3695
  123MPD2    H2 1881   1.234   2.027   8.858  1.8064  0.2471 -0.4614
  123MPD2    H3 1882   1.060   1.876   8.885 -0.7393  0.9990  0.1116
  123MPD2     N 1883   1.356   1.534   8.972  0.1983 -0.3760 -0.2156
  123MPD2    H5 1884   1.456   1.520   8.960  0.4537  1.2301 -0.0638
  123MPD2    N1 1885   1.499   1.972   8.848 -0.1635  0.3709 -0.1416
  123MPD2    H7 1886   1.476   2.063   8.810  1.7737  0.7570 -0.3878
  124TCq2    C1 1887   1.273   1.431   9.008 -0.4145 -0.2333 -0.9999
  124TCq2    O2 1888   1.151   1.434   9.014  0.8764 -0.5516  0.3641
  124TCq2    C2 1889   1.348   1.310   9.026  0.3650  0.0807 -0.0065
  124TCq2    C3 1890   1.290   1.196   8.989  0.6710 -0.3515 -0.6597
  124TCq2    C4 1891   1.363   1.083   8.991 -0.2250 -0.1478  0.1895
  124TCq2    C5 1892   1.494   1.082   9.027 -0.1737  0.4523  0.3464
  124TCq2    C6 1893   1.546   1.197   9.063 -0.5754  0.6376 -0.5490
  124TCq2    C7 1894   1.481   1.318   9.051  0.0542  0.1001 -0.2052
  124TCq2    C8 1895   1.687   1.199   9.106 -0.4763  0.1529  0.0617
  124TCq2    O4 1896   1.715   1.117   9.193  0.3761  0.1839  0.5240
  124TCq2    C9 1897   1.301   0.952   8.972  0.5251  0.3192  0.5790
  124TCq2    O5 1898   1.375   0.850   8.980  0.2902  0.1715  0.0858
  124TCq2    O6 1899   1.188   0.949   8.916 -0.2943  0.1935  0.2291
  124TCq2    H2 1900   1.183   1.199   8.969  0.0857  3.0235  2.9077
  124TCq2    H3 1901   1.554   0.992   9.034 -0.7971 -0.1248 -1.5070
  124TCq2    H4 1902   1.513   1.401   9.113  1.6304  0.2619 -1.2349
  125TMC2    C1 1903   0.131   4.628   8.784 -0.0526 -0.7877 -0.0310
  125TMC2    C2 1904   0.173   4.532   8.691  0.2461 -0.7032  0.5233
  125TMC2    C3 1905   0.085   4.429   8.680  0.3066  0.5525  0.3634
  125TMC2    C4 1906   0.004   4.628   8.848 -0.1980  0.3620 -0.3917
  125TMC2    C5 1907   4.641   4.518   8.821 -0.0758  0.1692 -0.5438
  125TMC2    C6 1908   4.684   4.421   8.743 -0.0595  0.5729  0.4754
  125TMC2     C 1909   0.205   0.033   8.795 -0.8177  0.9007  0.1083
  125TMC2     O 1910   0.146   0.132   8.825 -0.2329  0.0452  0.3734
  125TMC2     H 1911   0.273   4.533   8.649 -1.6895  2.3314 -3.9499
  125TMC2    H1 1912   4.692   4.704   8.918 -2.5702 -0.1026 -0.9991
  125TMC2    H2 1913   4.623   4.332   8.736 -0.2542  0.6289  1.5148
  125TMC2    C7 1914   4.531   4.487   8.910  0.1266 -0.3290 -0.4626
  125TMC2    C8 1915   0.103   4.337   8.570  0.1169 -0.4361  0.5376
  125TMC2    O1 1916   4.450   4.575   8.930  0.5358 -0.3561 -0.3444
  125TMC2    O2 1917   0.073   4.220   8.585  0.2875  0.4247  0.1561
  125TMC2    O5 1918   0.117   4.410   8.453 -0.1726  0.2249 -0.0283
  125TMC2    H5 1919   0.118   4.508   8.461  0.9584  0.2821 -0.9454
  126MPD1     C 1920   0.644   0.312   8.712  0.1640  0.0364 -0.3874
  126MPD1    C1 1921   0.679   0.183   8.739 -0.7706 -0.5208 -0.1886
  126MPD1    C2 1922   0.576   0.096   8.760 -0.3219  0.4519  0.1265
  126MPD1    C3 1923   0.441   0.130   8.772  0.2240 -0.4206  0.3960
  126MPD1    C4 1924   0.406   0.263   8.754 -0.1275 -0.4271  0.0810
  126MPD1    C5 1925   0.507   0.356   8.726  0.7240  0.0663 -0.1123
  126MPD1     H 1926   0.603   4.712   8.765 -1.9522  0.0470  0.3203
  126MPD1    H1 1927   0.305   0.300   8.763 -0.1488 -0.5336  0.2916
  126MPD1    H2 1928   0.723   0.383   8.695  0.1133  0.4199  0.9458
  126MPD1    H3 1929   0.483   0.462   8.724  1.0275  0.1034 -1.6750
  126MPD1     N 1930   0.344   0.021   8.785 -0.0594  0.5110 -0.2433
  126MPD1    H5 1931   0.390   4.652   8.769  2.1551  1.2866  1.6308
  126MPD1    N1 1932   0.813   0.137   8.729 -0.6176 -0.5180  0.3879
  126MPD1    H6 1933   0.846   0.059   8.786 -2.0623 -1.9583 -0.7371
  126MPD1    H7 1934   0.885   0.200   8.694  0.8802 -2.4594 -0.0037
  127MPD2     C 1935   0.220   2.336   9.383  1.0604  0.3024  0.0296
  127MPD2    C1 1936   0.277   2.300   9.497  0.4830  0.1684 -0.4362
  127MPD2    C2 1937   0.342   2.397   9.574  0.1539  0.4614 -0.2314
  127MPD2    C3 1938   0.347   2.524   9.536 -0.0535  0.4374  0.1072
  127MPD2    C4 1939   0.283   2.567   9.418 -0.3557 -0.7834  0.5046
  127MPD2    C5 1940   0.223   2.468   9.343 -0.2285  0.5432  0.2052
  127MPD2     H 1941   0.382   2.375   9.672  3.6802 -0.9087 -1.9973
  127MPD2    H1 1942   0.285   2.662   9.366 -0.0894 -1.6037 -1.0047
  127MPD2    H2 1943   0.166   2.262   9.324  0.4119  1.4143 -0.7628
  127MPD2    H3 1944   0.183   2.490   9.245 -1.0662 -1.1418  0.1686
  127MPD2     N 1945   0.407   2.619   9.626 -0.2297  0.4395  0.0391
  127MPD2    H5 1946   0.438   2.576   9.713  0.5711  0.9179 -0.0078
  127MPD2    N1 1947   0.264   2.165   9.532  0.1406 -0.0540 -0.0375
  127MPD2    H7 1948   0.207   2.114   9.465  0.2937  0.1917 -0.3560
  128TCq2    C1 1949   0.330   2.107   9.640  0.5368  0.2984  0.1667
  128TCq2    O2 1950   0.425   2.147   9.704  0.1160 -0.1142 -0.2882
  128TCq2    C2 1951   0.295   1.969   9.646  0.2545  0.0264  0.1232
  128TCq2    C3 1952   0.385   1.878   9.697 -0.0800 -0.7218  0.2155
  128TCq2    C4 1953   0.376   1.746   9.678 -0.0927  0.1931  0.7503
  128TCq2    C5 1954   0.274   1.697   9.601  0.0996 -0.2593  0.3924
  128TCq2    C6 1955   0.185   1.786   9.546  0.7008  0.0450 -0.2512
  128TCq2    C7 1956   0.190   1.919   9.579  0.2240  0.2188  0.0424
  128TCq2    C8 1957   0.076   1.748   9.457  0.4180  0.0560 -0.3522
  128TCq2    O4 1958   0.003   1.832   9.406  0.0839  0.3297  0.2298
  128TCq2    C9 1959   0.471   1.656   9.747 -0.2948  0.7366  0.3459
  128TCq2    O5 1960   0.440   1.537   9.759  0.0052  0.0043 -0.2012
  128TCq2    O6 1961   0.581   1.706   9.783  0.0287  0.2538  0.0254
  128TCq2    H2 1962   0.471   1.917   9.750  0.1017 -0.9335  0.0783
  128TCq2    H3 1963   0.278   1.589   9.589 -0.3502 -0.3640  1.2182
  128TCq2    H4 1964   0.101   1.979   9.562  0.5131  1.1754  1.8887
  129MPD2     C 1965   0.076   2.956   1.386 -0.7045 -0.8752  0.1264
  129MPD2    C1 1966   4.676   2.901   1.359 -0.4332  0.6863  0.8834
  129MPD2    C2 1967   4.581   2.956   1.267 -0.3360 -0.6067 -0.6628
  129MPD2    C3 1968   4.614   3.076   1.212  0.4833  0.0134  0.2885
  129MPD2    C4 1969   0.016   3.132   1.235  0.7191  0.1173 -0.2692
  129MPD2    C5 1970   0.103   3.074   1.322 -0.2491  0.0000  0.5638
  129MPD2     H 1971   4.478   2.923   1.261  0.0421 -1.8402 -0.2979
  129MPD2    H1 1972   0.040   3.231   1.200  0.2178  0.2233 -0.3104
  129MPD2    H2 1973   0.150   2.901   1.443  0.2845  0.8640  0.5290
  129MPD2    H3 1974   0.196   3.121   1.353  2.0625 -3.1823 -1.5575
  129MPD2     N 1975   4.516   3.139   1.135  0.2343 -0.2635 -0.1617
  129MPD2    H5 1976   4.425   3.096   1.152 -0.2431  0.7683 -0.0891
  129MPD2    N1 1977   4.665   2.778   1.418  0.2575 -0.0779 -0.0717
  129MPD2    H7 1978   0.014   2.737   1.479  0.6045  0.3022 -0.2154
  130TCq2    C1 1979   4.545   2.701   1.420 -0.3286  0.0958  0.1492
  130TCq2    O2 1980   4.439   2.728   1.375 -0.0248  0.8859 -0.0021
  130TCq2    C2 1981   4.561   2.577   1.499  0.4274 -0.0050  0.0465
  130TCq2    C3 1982   4.660   2.571   1.594  0.4387  0.2853 -0.2885
  130TCq2    C4 1983   4.674   2.457   1.664  0.0847 -0.7774  0.3403
  130TCq2    C5 1984   4.599   2.347   1.638 -0.2301 -0.4082 -0.8617
  130TCq2    C6 1985   4.494   2.361   1.550 -1.1033  0.1246  1.0505
  130TCq2    C7 1986   4.471   2.472   1.472  0.3648  0.3383  0.4215
  130TCq2    C8 1987   4.427   2.239   1.511  0.2083  0.5255  0.1113
  130TCq2    O4 1988   4.323   2.259   1.448 -0.3254  0.5689  0.1358
  130TCq2    C9 1989   0.067   2.449   1.751 -0.3361 -0.2149 -0.5543
  130TCq2    O5 1990   0.079   2.343   1.813 -0.2508  0.6393  0.6800
  130TCq2    O6 1991   0.149   2.544   1.753  0.1966 -0.0016  0.2409
  130TCq2    H2 1992   4.715   2.658   1.628 -0.0976  1.2710 -1.9593
  130TCq2    H3 1993   4.612   2.260   1.701 -1.6050 -0.5464 -0.7663
  130TCq2    H4 1994   4.393   2.489   1.398  1.4668 -2.3052 -1.3629
  131MPD2     C 1995   2.570   2.114   9.065 -0.1193 -0.8446 -0.2453
  131MPD2    C1 1996   2.499   2.224   9.102 -0.3677  0.1198  0.6986
  131MPD2    C2 1997   2.368   2.238   9.062  0.2092 -0.2445  0.0609
  131MPD2    C3 1998   2.305   2.136   8.993  0.5637 -0.6247  0.0482
  131MPD2    C4 1999   2.375   2.022   8.964 -0.0072 -0.0668  0.2975
  131MPD2    C5 2000   2.506   2.014   8.995  0.1860 -0.3627  0.1167
  131MPD2     H 2001   2.305   2.325   9.076  1.2928  0.2807  1.6259
  131MPD2    H1 2002   2.339   1.940   8.903  0.3379 -0.3173  0.4324
  131MPD2    H2 2003   2.676   2.108   9.086 -0.4231 -0.9865  1.2626
  131MPD2    H3 2004   2.561   1.923   8.974  2.4561  0.8597  0.7462
  131MPD2     N 2005   2.170   2.156   8.958  0.2191 -0.0629 -0.4040
  131MPD2    H5 2006   2.128   2.247   8.977  1.0667 -0.0737  1.5134
  131MPD2    N1 2007   2.574   2.322   9.163  0.0770  0.1117  0.5792
  131MPD2    H7 2008   2.674   2.303   9.174 -0.0195  2.0869  5.0377
  132TCq2    C1 2009   2.636   2.870   9.362 -0.0812 -0.3799  0.1631
  132TCq2    O2 2010   2.521   2.894   9.393 -0.5985 -0.0542  0.1152
  132TCq2    C2 2011   2.655   2.769   9.259  0.4710  0.2953  0.0529
  132TCq2    C3 2012   2.770   2.778   9.187 -0.1174 -0.1160  0.3974
  132TCq2    C4 2013   2.802   2.664   9.125  0.1786 -0.2704  0.0148
  132TCq2    C5 2014   2.730   2.545   9.128 -0.2404  0.4122  0.3102
  132TCq2    C6 2015   2.620   2.547   9.211  0.3831 -0.2679  0.3194
  132TCq2    C7 2016   2.580   2.657   9.281  0.0721  0.1583  0.3838
  132TCq2    C8 2017   2.525   2.440   9.216  0.2206  0.6882 -0.5822
  132TCq2    O4 2018   2.421   2.468   9.277 -0.1032 -0.5426 -0.8680
  132TCq2    C9 2019   2.919   2.660   9.046  1.3888 -0.2957  0.3082
  132TCq2    O5 2020   2.953   2.552   8.990 -0.2269 -0.0014  0.2190
  132TCq2    O6 2021   2.996   2.764   9.054  0.2339  0.1739  0.1904
  132TCq2    H2 2022   2.817   2.871   9.157  0.1653 -0.8733 -1.5091
  132TCq2    H3 2023   2.749   2.463   9.059 -2.0780  1.3244 -1.2867
  132TCq2    H4 2024   2.505   2.660   9.360 -0.4139 -2.0756 -0.0000
  133MPD2     C 2025   1.301   3.141   8.920  0.2927 -0.1455 -0.7978
  133MPD2    C1 2026   1.437   3.164   8.926 -0.0025  0.1976 -0.2842
  133MPD2    C2 2027   1.522   3.059   8.946  0.2598  0.5798  0.2469
  133MPD2    C3 2028   1.479   2.926   8.951  0.2561  0.6973 -0.1256
  133MPD2    C4 2029   1.348   2.902   8.945  0.2218 -0.0681  0.4924
  133MPD2    C5 2030   1.264   3.009   8.939 -0.2027  0.7590  0.0479
  133MPD2     H 2031   1.628   3.082   8.953  0.3022  0.8188 -1.2845
  133MPD2    H1 2032   1.316   2.800   8.963  1.1886 -0.3468  0.6094
  133MPD2    H2 2033   1.228   3.216   8.889  0.5923  1.6071  2.8018
  133MPD2    H3 2034   1.157   2.989   8.936  0.2352 -1.8726  2.2900
  133MPD2     N 2035   1.565   2.819   8.985 -0.1504 -0.0631  0.3607
  133MPD2    H5 2036   1.521   2.727   8.987 -0.2716 -0.0300 -0.6152
  133MPD2    N1 2037   1.473   3.301   8.911  0.4430  0.6230  1.0605
  133MPD2    H7 2038   1.394   3.355   8.877  2.2080  1.7011 -1.3011
  134TCq2    C1 2039   1.599   3.357   8.927 -1.2746 -0.2498  0.2562
  134TCq2    O2 2040   1.705   3.301   8.970  0.6082 -0.0111  0.5363
  134TCq2    C2 2041   1.613   3.503   8.909 -0.0633 -0.1807  0.1215
  134TCq2    C3 2042   1.728   3.565   8.953  0.8868 -0.3055  0.0249
  134TCq2    C4 2043   1.740   3.702   8.925  0.8957 -0.0304 -0.0147
  134TCq2    C5 2044   1.641   3.778   8.869 -0.1668 -0.1632 -0.3753
  134TCq2    C6 2045   1.525   3.718   8.845  0.1980 -0.4892 -0.4157
  134TCq2    C7 2046   1.500   3.577   8.864  0.5487 -0.4754 -1.1479
  134TCq2    C8 2047   1.411   3.803   8.800  0.2088  0.5021 -0.6181
  134TCq2    O4 2048   1.312   3.750   8.745 -0.3244 -0.5806 -0.5253
  134TCq2    C9 2049   1.853   3.771   8.978 -0.2777 -0.2517  0.2312
  134TCq2    O5 2050   1.842   3.899   8.993  0.5480  0.7555  0.4862
  134TCq2    O6 2051   1.952   3.704   9.014  0.2772  0.2152  0.4692
  134TCq2    H2 2052   1.804   3.510   9.008 -0.5427  0.4688  2.7725
  134TCq2    H3 2053   1.679   3.877   8.848  0.2835 -0.0256  1.0741
  134TCq2    H4 2054   1.402   3.533   8.847 -0.5438  1.3338  0.5763
  135MPD2     C 2055   0.479   3.936   9.605  0.4616  1.1201  0.0882
  135MPD2    C1 2056   0.366   3.894   9.547 -0.4196 -0.2161 -0.5452
  135MPD2    C2 2057   0.366   3.777   9.475  0.1027 -0.4817 -0.4560
  135MPD2    C3 2058   0.467   3.683   9.480  1.1100 -0.3148 -0.2358
  135MPD2    C4 2059   0.582   3.729   9.541  0.0618 -0.1303 -0.4147
  135MPD2    C5 2060   0.583   3.850   9.601 -0.0528  0.8518 -0.1992
  135MPD2     H 2061   0.273   3.758   9.423  0.0726  2.0890 -1.3510
  135MPD2    H1 2062   0.666   3.661   9.545  0.7460  0.7580  0.4171
  135MPD2    H2 2063   0.483   4.028   9.662 -2.3993  1.8944 -0.9693
  135MPD2    H3 2064   0.672   3.886   9.652  1.3715 -1.3318 -1.1447
  135MPD2     N 2065   0.476   3.559   9.417 -0.2466  0.6895 -0.2414
  135MPD2    H5 2066   0.565   3.512   9.430 -0.4234  0.4772  0.1860
  135MPD2    N1 2067   0.253   3.965   9.556  0.1228 -0.0089  0.0584
  135MPD2    H7 2068   0.175   3.900   9.560 -0.1911  0.3787  0.2158
  136TCq2    C1 2069   0.244   4.104   9.568  0.5359 -0.1920  0.3790
  136TCq2    O2 2070   0.333   4.185   9.538 -0.0572  0.0197  0.0552
  136TCq2    C2 2071   0.114   4.161   9.584  0.1548  0.6505 -0.1917
  136TCq2    C3 2072   0.103   4.292   9.624  1.0844 -0.9142 -0.3580
  136TCq2    C4 2073   4.707   4.337   9.668 -0.6016  0.5656  0.0316
  136TCq2    C5 2074   4.598   4.251   9.679  0.2837  0.7046 -0.7993
  136TCq2    C6 2075   4.604   4.124   9.621 -0.2895  0.2903  0.1301
  136TCq2    C7 2076   0.005   4.081   9.565  0.1590 -0.1313 -0.4158
  136TCq2    C8 2077   4.488   4.037   9.626 -0.1303  0.4801  0.1859
  136TCq2    O4 2078   4.479   3.968   9.522  0.7962  0.2391 -0.0430
  136TCq2    C9 2079   4.688   4.479   9.693 -0.6128  0.1459  0.1954
  136TCq2    O5 2080   4.580   4.520   9.747  0.2186 -0.2823  0.1928
  136TCq2    O6 2081   0.063   4.552   9.669  0.1229  0.1102  0.6205
  136TCq2    H2 2082   0.190   4.356   9.627  0.2938  0.1127  0.5296
  136TCq2    H3 2083   4.502   4.280   9.721  0.3617 -0.3378  0.0865
  136TCq2    H4 2084   0.028   3.981   9.528  2.2611  0.5723 -1.0386
  137MPD2     C 2085   4.391   2.345   9.802 -0.0576 -0.6898  0.8477
  137MPD2    C1 2086   4.342   2.469   9.754 -0.7414 -0.4473  0.6569
  137MPD2    C2 2087   4.375   2.589   9.819 -0.1802  0.3252 -0.0906
  137MPD2    C3 2088   4.468   2.583   9.923 -0.1156 -0.0125  0.4351
  137MPD2    C4 2089   4.512   2.460   9.969  0.0298 -0.2498  0.1055
  137MPD2    C5 2090   4.478   2.340   9.907 -0.6438 -0.2722 -0.2596
  137MPD2     H 2091   4.354   2.690   9.785 -1.9026 -0.4314 -1.2888
  137MPD2    H1 2092   4.573   2.449  10.059  1.4225 -0.9567 -0.9213
  137MPD2    H2 2093   4.365   2.253   9.749 -1.5826  0.5234 -0.5012
  137MPD2    H3 2094   4.512   2.247   9.952 -0.2544 -0.5725 -1.1728
  137MPD2     N 2095   4.503   2.713   9.980  0.1261 -0.1094 -0.0627
  137MPD2    H5 2096   4.459   2.798   9.946  0.5074 -0.7617 -2.2182
  137MPD2    N1 2097   4.269   2.471   9.636  0.4708 -0.3783 -0.1498
  137MPD2    H7 2098   4.255   2.380   9.594  1.7749 -0.2138 -0.9518
  138TCq2    C1 2099   4.229   2.581   9.567 -0.5584 -1.2305  0.2825
  138TCq2    O2 2100   4.237   2.700   9.594 -0.7732 -0.2789  0.0063
  138TCq2    C2 2101   4.190   2.550   9.428 -0.5733  0.5430 -0.5813
  138TCq2    C3 2102   4.220   2.426   9.375 -0.0934  0.7627  0.0316
  138TCq2    C4 2103   4.207   2.415   9.236 -0.8238  0.0320 -0.8810
  138TCq2    C5 2104   4.175   2.516   9.152 -0.1900  0.2343 -0.1362
  138TCq2    C6 2105   4.133   2.636   9.216 -0.0780  0.0185  0.6024
  138TCq2    C7 2106   4.145   2.653   9.352  0.0877  0.1878  0.3204
  138TCq2    C8 2107   4.097   2.745   9.130 -0.1407 -0.1944  0.4123
  138TCq2    O4 2108   4.113   2.729   9.007 -0.4679  0.2390 -0.2212
  138TCq2    C9 2109   4.244   2.296   9.177 -0.0161  0.0864 -0.6849
  138TCq2    O5 2110   4.264   2.200   9.255  0.7926 -0.2362  0.1523
  138TCq2    O6 2111   4.238   2.282   9.050  0.3257  0.6808 -0.1312
  138TCq2    H2 2112   4.264   2.342   9.426 -1.4329  1.0128  1.6127
  138TCq2    H3 2113   4.152   2.501   9.048 -0.1174  3.0330 -0.5524
  138TCq2    H4 2114   4.131   2.748   9.400  1.4224  0.8669 -0.6333
  139TMC2    C1 2115   0.227   1.849  13.151  0.3122  0.2318  0.2655
  139TMC2    C2 2116   0.299   1.971  13.156  0.5804  1.3704  0.8104
  139TMC2    C3 2117   0.264   2.055  13.258  1.2093  0.3577 -0.0731
  139TMC2    C4 2118   0.122   1.826  13.240  0.0727 -0.3250 -0.0798
  139TMC2    C5 2119   0.101   1.913  13.339  0.5301  0.3677 -0.0657
  139TMC2    C6 2120   0.171   2.027  13.355  0.1427  0.1482  0.6944
  139TMC2     C 2121   0.278   1.730  13.091  0.5354 -0.0962 -0.0185
  139TMC2     O 2122   0.226   1.629  13.135  0.3828  0.0529  0.5675
  139TMC2     H 2123   0.365   1.999  13.075  1.2840 -0.3944  0.7838
  139TMC2    H1 2124   0.063   1.735  13.243 -0.1900 -0.1369  0.4944
  139TMC2    H2 2125   0.127   2.102  13.420  2.2418  1.0504  1.0401
  139TMC2    C7 2126   4.693   1.914  13.395 -0.1277 -0.3605 -0.0332
  139TMC2    C8 2127   0.274   2.194  13.219 -0.0374  0.0140 -0.8761
  139TMC2    O1 2128   4.602   1.863  13.331  0.7119 -0.1601  0.2497
  139TMC2    O2 2129   0.284   2.237  13.105  0.6037 -0.0445 -0.3927
  139TMC2    O5 2130   0.344   2.247  13.315  0.5261 -0.1439 -0.4401
  139TMC2    H5 2131   0.342   2.188  13.393 -2.3913  0.4699 -0.0259
  140MPD2     C 2132   0.577   1.669  12.898 -0.4997  0.0503 -0.3298
  140MPD2    C1 2133   0.451   1.640  12.947 -0.6616  0.0331  0.1454
  140MPD2    C2 2134   0.401   1.510  12.939  0.5110  0.4015  0.1168
  140MPD2    C3 2135   0.481   1.415  12.884  0.2456 -0.6064  0.3723
  140MPD2    C4 2136   0.604   1.445  12.833 -0.2447  0.6556 -0.0613
  140MPD2    C5 2137   0.649   1.571  12.838 -0.4022 -0.1023 -0.1886
  140MPD2     H 2138   0.310   1.483  12.991  1.0238  1.4447  1.5552
  140MPD2    H1 2139   0.679   1.376  12.794 -0.5347  0.3168 -0.0168
  140MPD2    H2 2140   0.632   1.760  12.918  0.8445 -0.3195 -2.3363
  140MPD2    H3 2141   0.750   1.604  12.815 -1.9799  3.1685 -2.5678
  140MPD2     N 2142   0.432   1.282  12.894 -0.6147  0.1064 -0.4221
  140MPD2    H5 2143   0.332   1.283  12.914 -0.7159 -1.1447 -0.8576
  140MPD2    N1 2144   0.387   1.747  13.012  0.2807  0.3976  0.3815
  140MPD2    H7 2145   0.431   1.838  13.002 -0.8894  0.8235 -0.9258
  141TCq2    C1 2146   0.725   2.661  13.992  0.5541 -0.2162 -0.8033
  141TCq2    O2 2147   0.751   2.776  14.008 -0.2178  0.0931 -0.5270
  141TCq2    C2 2148   0.650   2.599  14.091  0.1536  0.3106 -0.1434
  141TCq2    C3 2149   0.593   2.477  14.070 -0.7313  0.6001 -0.6562
  141TCq2    C4 2150   0.547   2.400  14.177 -0.4537  0.0086 -0.5641
  141TCq2    C5 2151   0.561   2.442  14.307 -0.4811 -1.1263 -0.6230
  141TCq2    C6 2152   0.620   2.563  14.322  0.5662 -0.4404  0.4729
  141TCq2    C7 2153   0.658   2.644  14.213  0.0153 -0.4329  0.1711
  141TCq2    C8 2154   0.675   2.606  14.452  0.1194 -0.9093  0.6881
  141TCq2    O4 2155   0.715   2.722  14.462  0.2104 -0.3236 -0.3210
  141TCq2    C9 2156   0.493   2.274  14.142 -0.5132 -0.2957 -0.0574
  141TCq2    O5 2157   0.493   2.241  14.023 -0.2455  0.0268  0.1826
  141TCq2    O6 2158   0.446   2.196  14.230  0.6072 -0.1913  0.6513
  141TCq2    H2 2159   0.570   2.441  13.971  0.2912  0.2260 -0.7657
  141TCq2    H3 2160   0.540   2.366  14.381 -0.4063 -1.0826 -0.5567
  141TCq2    H4 2161   0.695   2.745  14.224  1.2517 -0.8576 -0.1315
  142MPD2     C 2162   2.746   0.436   9.716  0.7062 -0.5517  0.2805
  142MPD2    C1 2163   2.618   0.425   9.668 -0.8736  0.2942 -0.4463
  142MPD2    C2 2164   2.561   0.520   9.588 -0.4300 -0.7491 -0.3390
  142MPD2    C3 2165   2.643   0.619   9.534  0.6994  0.4437 -0.5644
  142MPD2    C4 2166   2.769   0.631   9.579  0.5467 -0.4602  0.8290
  142MPD2    C5 2167   2.819   0.548   9.672  0.2707 -0.2932 -0.5853
  142MPD2     H 2168   2.455   0.514   9.566 -0.3899 -2.0584 -0.1545
  142MPD2    H1 2169   2.827   0.718   9.550  0.4142 -0.3112  1.0014
  142MPD2    H2 2170   2.786   0.374   9.795  1.7927 -0.4069 -0.1473
  142MPD2    H3 2171   2.917   0.569   9.713 -0.1692  2.9239 -1.1760
  142MPD2     N 2172   2.600   0.711   9.438 -0.0154 -0.2023  0.1007
  142MPD2    H5 2173   2.668   0.776   9.400 -0.6808 -0.4792 -1.5449
  142MPD2    N1 2174   2.548   0.313   9.718 -0.6100 -0.0169 -0.4357
  142MPD2    H7 2175   2.586   0.243   9.781  0.1853  0.9936  0.2032
  143TCq2    C1 2176   2.472   0.726   9.385 -0.3065 -0.8022  0.1677
  143TCq2    O2 2177   2.364   0.674   9.420  0.2092 -0.1547 -0.0003
  143TCq2    C2 2178   2.464   0.830   9.296 -0.0388  0.4610 -0.1310
  143TCq2    C3 2179   2.570   0.873   9.230 -0.9937 -0.3094 -0.0761
  143TCq2    C4 2180   2.561   0.999   9.168  0.0695  0.1434 -0.0056
  143TCq2    C5 2181   2.442   1.063   9.163  0.2901 -0.8181  0.7463
  143TCq2    C6 2182   2.336   1.018   9.236  0.0542  0.3909  0.4051
  143TCq2    C7 2183   2.343   0.898   9.301 -0.0755  0.6917  0.5059
  143TCq2    C8 2184   2.206   1.080   9.234 -0.0626 -0.6244 -0.9988
  143TCq2    O4 2185   2.110   1.020   9.280 -0.3724 -0.0607  0.4562
  143TCq2    C9 2186   2.673   1.049   9.094  0.0124  0.0222 -0.1753
  143TCq2    O5 2187   2.785   0.989   9.111 -1.0446  0.4167  0.6284
  143TCq2    O6 2188   2.647   1.132   9.006  0.6822  0.3616  0.1467
  143TCq2    H2 2189   2.660   0.812   9.221 -0.0764  1.2723 -1.6742
  143TCq2    H3 2190   2.434   1.155   9.106  2.5506 -2.4887 -2.2736
  143TCq2    H4 2191   2.253   0.852   9.341 -0.1659  0.2646 -0.1777
  144MPD2     C 2192   1.294   0.337   0.342 -0.2622  0.2285  0.3287
  144MPD2    C1 2193   1.273   0.220   0.283 -0.1864  0.0729 -0.5105
  144MPD2    C2 2194   1.376   0.127   0.283 -0.5773 -0.6340  0.4643
  144MPD2    C3 2195   1.496   0.154   0.358  0.3982 -0.4623  0.9105
  144MPD2    C4 2196   1.512   0.276   0.423  0.1823  0.5697  0.2226
  144MPD2    C5 2197   1.408   0.362   0.406 -0.2482  0.0349  0.1286
  144MPD2     H 2198   1.351   0.029   0.245  0.0665  0.0129 -1.6408
  144MPD2    H1 2199   1.601   0.305   0.479 -0.7296  1.8988  0.9904
  144MPD2    H2 2200   1.220   0.417   0.336  0.3232  0.7708  0.3510
  144MPD2    H3 2201   1.417   0.465   0.440  1.1103  0.2861 -0.9796
  144MPD2     N 2202   1.612   0.072   0.366  0.0931  0.7311  0.6750
  144MPD2    H5 2203   1.689   0.106   0.423  1.9286 -1.0838 -0.7118
  144MPD2    N1 2204   1.150   0.188   0.220 -0.1586 -0.0714 -0.1879
  144MPD2    H7 2205   1.147   0.095   0.179  0.3893  1.3301 -3.4351
  145TCq2    C1 2206   1.612   4.663   0.323  0.1061 -0.6363  0.0143
  145TCq2    O2 2207   1.535   4.602   0.249  0.3352 -0.1628 -0.5629
  145TCq2    C2 2208   1.742   4.600   0.329 -0.1074 -0.2562 -0.0489
  145TCq2    C3 2209   1.783   4.519   0.226 -0.7123 -0.0956 -0.8262
  145TCq2    C4 2210   1.901   4.459   0.230  0.3291 -0.2622  0.1748
  145TCq2    C5 2211   1.985   4.489   0.337 -0.2365  0.3641  0.4576
  145TCq2    C6 2212   1.944   4.570   0.440 -0.1147  0.0401 -0.3339
  145TCq2    C7 2213   1.821   4.629   0.438  0.0154 -0.4085  0.4965
  145TCq2    C8 2214   2.003   4.562   0.573  0.4844 -0.1907 -0.4990
  145TCq2    O4 2215   2.078   4.463   0.586 -0.4611 -0.2423 -0.4419
  145TCq2    C9 2216   1.941   4.371   0.133  0.1441 -0.0009 -0.4477
  145TCq2    O5 2217   2.052   4.315   0.148 -0.2602 -0.7467  0.1607
  145TCq2    O6 2218   1.855   4.323   0.049  0.3356  0.3864  0.5387
  145TCq2    H2 2219   1.710   4.496   0.149 -0.3368 -1.7604 -0.6970
  145TCq2    H3 2220   2.077   4.434   0.354  0.5833  1.0984 -1.6338
  145TCq2    H4 2221   1.776   4.682   0.520 -1.6701 -1.9111  0.5406
  146TMC2    C1 2222   2.540   4.191  12.662 -0.2727 -0.1808 -0.3214
  146TMC2    C2 2223   2.523   4.291  12.581  0.6073  0.6696  0.0788
  146TMC2    C3 2224   2.545   4.276  12.449 -0.1003  0.4363  0.7906
  146TMC2    C4 2225   2.587   4.072  12.619 -0.2462  0.6050 -0.0857
  146TMC2    C5 2226   2.605   4.059  12.482  0.4068 -0.7161  0.2363
  146TMC2    C6 2227   2.589   4.161  12.395  0.0453 -0.4288 -0.1729
  146TMC2     C 2228   2.538   4.225  12.805  0.5294 -0.3058 -0.5344
  146TMC2     O 2229   2.470   4.319  12.845  0.0762  0.4671  0.3658
  146TMC2     H 2230   2.488   4.382  12.629  0.0932  0.2410  0.5271
  146TMC2    H1 2231   2.591   3.987  12.686 -2.6747  1.4578  1.1217
  146TMC2    H2 2232   2.594   4.156  12.287  1.0609  2.8915 -0.3035
  146TMC2    C7 2233   2.596   3.926  12.424  0.5533  0.3243  0.3721
  146TMC2    C8 2234   2.582   4.388  12.370 -0.0042  0.1815 -0.8274
  146TMC2    O1 2235   2.516   3.917  12.330 -0.3834 -0.7818 -0.0779
  146TMC2    O2 2236   2.553   4.391  12.250 -0.5072  0.3863 -0.1570
  146TMC2    O5 2237   2.692   4.442  12.422 -0.1632  0.5743 -0.3775
  146TMC2    H5 2238   2.688   4.455  12.519 -2.2043  1.3423 -0.5452
  147MPD2     C 2239   2.686   3.419  12.493 -0.6930  0.6848 -0.2159
  147MPD2    C1 2240   2.791   3.488  12.543 -0.3532  0.1125 -0.1799
  147MPD2    C2 2241   2.779   3.626  12.550  0.0113  0.5131 -0.7975
  147MPD2    C3 2242   2.677   3.694  12.491  0.5280 -0.8353 -0.3726
  147MPD2    C4 2243   2.583   3.621  12.420  0.2803  0.1495  0.7155
  147MPD2    C5 2244   2.582   3.484  12.432  0.5760  0.1809  0.3431
  147MPD2     H 2245   2.856   3.687  12.596 -2.8753  3.2838  0.3117
  147MPD2    H1 2246   2.503   3.667  12.362 -0.5198 -0.5530  1.2506
  147MPD2    H2 2247   2.685   3.312  12.505  1.2530  0.6820 -0.0713
  147MPD2    H3 2248   2.500   3.431  12.385  0.0346  0.1115  1.3683
  147MPD2     N 2249   2.672   3.836  12.496  0.5518 -0.1041 -0.0647
  147MPD2    H5 2250   2.730   3.877  12.568  1.4488 -0.1588 -0.7553
  147MPD2    N1 2251   2.905   3.426  12.592  0.0036 -0.4945  0.0129
  147MPD2    H7 2252   2.910   3.324  12.595  1.1357 -0.3787  2.2290
  148MPD2     C 2253   2.219   2.486   9.823 -0.3468  0.1634 -0.5057
  148MPD2    C1 2254   2.310   2.396   9.873  1.3769  0.6075 -0.3815
  148MPD2    C2 2255   2.306   2.268   9.834 -0.0950  0.3259  1.0338
  148MPD2    C3 2256   2.208   2.217   9.751  0.0288 -0.3409  0.4533
  148MPD2    C4 2257   2.109   2.303   9.710  0.1911 -0.1072  0.2734
  148MPD2    C5 2258   2.117   2.437   9.743 -0.4131  0.2817  0.4082
  148MPD2     H 2259   2.375   2.198   9.879  0.8520  0.6241  0.0476
  148MPD2    H1 2260   2.033   2.284   9.636  0.9542  1.3564 -0.9009
  148MPD2    H2 2261   2.211   2.592   9.844  0.1140 -0.3877  2.4124
  148MPD2    H3 2262   2.042   2.504   9.702  0.2688  0.7512 -0.0597
  148MPD2     N 2263   2.189   2.083   9.714 -0.3608 -0.3699 -0.4069
  148MPD2    H5 2264   2.097   2.058   9.680 -1.1026  1.8283 -0.0160
  148MPD2    N1 2265   2.409   2.435   9.964  0.0198 -0.4453 -0.3907
  148MPD2    H7 2266   2.467   2.368  10.014  0.7609 -1.1971 -2.2604
  149TCq2    C1 2267   2.441   2.565   9.989  0.2711  0.1923 -0.1378
  149TCq2    O2 2268   2.407   2.665   9.929  0.4790  0.3135 -0.2056
  149TCq2    C2 2269   2.547   2.589  10.090 -0.1454  0.6932  0.3084
  149TCq2    C3 2270   2.565   2.723  10.123  0.3617  0.4134  0.1707
  149TCq2    C4 2271   2.652   2.749  10.222 -0.2713 -0.1577  0.3075
  149TCq2    C5 2272   2.737   2.653  10.267  0.1331  0.2149  0.1254
  149TCq2    C6 2273   2.710   2.523  10.238  0.2832  0.4977  0.8354
  149TCq2    C7 2274   2.618   2.490  10.149  0.3149  0.1255  1.2834
  149TCq2    C8 2275   2.798   2.420  10.289 -0.2307 -0.2297  0.0382
  149TCq2    O4 2276   2.896   2.445  10.365 -0.2858  0.2122 -0.0241
  149TCq2    C9 2277   2.695   2.885  10.245 -0.6177  0.3240 -0.3517
  149TCq2    O5 2278   2.809   2.904  10.299  0.6402 -0.1752 -0.3937
  149TCq2    O6 2279   2.630   2.974  10.181  0.1717 -0.5962  0.0687
  149TCq2    H2 2280   2.516   2.803  10.069  0.0072  1.1500  1.5782
  149TCq2    H3 2281   2.813   2.680  10.339  0.5936 -2.4275  0.6166
  149TCq2    H4 2282   2.589   2.386  10.135  3.4971 -0.5892  0.1696
  150MPD2     C 2283   4.319   1.875  12.002 -0.9682 -0.6849 -0.5889
  150MPD2    C1 2284   4.343   1.955  11.890  0.7535  0.7956  0.0380
  150MPD2    C2 2285   4.450   2.039  11.884  1.0119 -0.1693  0.1989
  150MPD2    C3 2286   4.540   2.045  11.989  0.3138 -0.5545  0.5445
  150MPD2    C4 2287   4.521   1.960  12.099  0.4366 -0.4814  0.4223
  150MPD2    C5 2288   4.406   1.884  12.110  0.4680  0.2754 -0.3402
  150MPD2     H 2289   4.484   2.093  11.796 -2.0087  0.3716 -0.6503
  150MPD2    H1 2290   4.594   1.959  12.180  0.7425  2.0995  0.1808
  150MPD2    H2 2291   4.230   1.812  12.005 -1.8095  0.5160 -0.3450
  150MPD2    H3 2292   4.371   1.830  12.196  1.7499 -1.2693 -0.7870
  150MPD2     N 2293   4.654   2.132  11.974 -0.7047 -0.4151  0.1998
  150MPD2    H5 2294   4.664   2.192  11.892  1.0802 -0.4555  0.3929
  150MPD2    N1 2295   4.243   1.954  11.795  0.5226 -0.3053  0.1055
  150MPD2    H7 2296   4.162   1.894  11.804  0.4054 -0.1037  0.3644
  151TCq2    C1 2297   0.039   2.144  12.064  0.4026 -0.8415  0.0104
  151TCq2    O2 2298   0.060   2.088  12.171 -0.4685 -0.4145  0.4105
  151TCq2    C2 2299   0.132   2.252  12.034  0.2013 -0.8485 -0.6675
  151TCq2    C3 2300   0.117   2.327  11.919  0.5083 -0.2826 -0.4467
  151TCq2    C4 2301   0.221   2.418  11.884  0.2875  0.1890  0.2229
  151TCq2    C5 2302   0.332   2.416  11.956 -0.0710  0.0446  0.0874
  151TCq2    C6 2303   0.355   2.319  12.045  0.1805  0.5543 -0.4287
  151TCq2    C7 2304   0.257   2.242  12.093 -0.5486  0.0366  0.0714
  151TCq2    C8 2305   0.494   2.310  12.085 -0.4407 -0.4411 -0.4400
  151TCq2    O4 2306   0.560   2.417  12.092  0.2157  0.0866 -0.1225
  151TCq2    C9 2307   0.219   2.515  11.781  0.5507 -0.2928  0.7504
  151TCq2    O5 2308   0.302   2.604  11.776  0.5356  0.1791  0.2405
  151TCq2    O6 2309   0.142   2.496  11.686 -0.3660 -0.4380  0.3153
  151TCq2    H2 2310   0.020   2.332  11.870  0.3852  1.4415 -0.0001
  151TCq2    H3 2311   0.417   2.478  11.929  0.6362 -0.9025  0.1193
  151TCq2    H4 2312   0.278   2.170  12.172 -3.1171 -1.1797 -0.3744
  152MPD2     C 2313   4.163   1.767  12.651 -0.0461 -0.9092  0.5483
  152MPD2    C1 2314   4.196   1.849  12.548  0.5589 -0.5811  0.8533
  152MPD2    C2 2315   4.094   1.893  12.468 -0.0608 -0.2477  0.2071
  152MPD2    C3 2316   3.968   1.844  12.473  0.1179 -0.0972  0.4652
  152MPD2    C4 2317   3.941   1.744  12.562 -0.1355  0.2338 -0.5233
  152MPD2    C5 2318   4.040   1.704  12.649 -0.3030  0.2243  0.1379
  152MPD2     H 2319   4.109   1.970  12.392  0.2634 -1.2087 -0.7095
  152MPD2    H1 2320   3.848   1.689  12.562 -1.4386  2.4482  0.2211
  152MPD2    H2 2321   4.225   1.730  12.732 -1.6755  0.4238  2.4143
  152MPD2    H3 2322   4.015   1.624  12.717  0.1750  1.3256  1.6066
  152MPD2     N 2323   3.871   1.893  12.380  0.4561  0.2033  0.1272
  152MPD2    H5 2324   3.899   1.966  12.316 -1.0848  2.5251  2.0618
  152MPD2    N1 2325   4.325   1.896  12.541  0.2783  0.6185  0.1176
  152MPD2    H7 2326   4.388   1.875  12.618 -0.1350 -1.2854 -0.0705
  153TCq2    C1 2327   4.371   1.993  12.447 -0.7815  0.1389  0.4229
  153TCq2    O2 2328   4.303   2.067  12.372  0.6899  0.1473  0.2322
  153TCq2    C2 2329   4.503   2.031  12.479  0.3528  0.3745  0.0553
  153TCq2    C3 2330   4.601   1.939  12.519  0.1386 -0.0996 -0.6416
  153TCq2    C4 2331   0.012   1.982  12.526 -0.1846 -0.3717 -0.8342
  153TCq2    C5 2332   0.041   2.118  12.512  0.2054  0.2181  0.9202
  153TCq2    C6 2333   4.658   2.198  12.458  0.0343 -0.4251 -0.2204
  153TCq2    C7 2334   4.530   2.159  12.444  0.0963 -0.5914  0.0499
  153TCq2    C8 2335   4.686   2.326  12.397 -0.1625 -0.0838 -0.1472
  153TCq2    O4 2336   4.596   2.394  12.346 -0.1753 -0.6721  0.2827
  153TCq2    C9 2337   0.117   1.897  12.584 -0.3755  0.5807 -0.3946
  153TCq2    O5 2338   0.087   1.775  12.596  0.0797 -0.0517  0.0160
  153TCq2    O6 2339   0.234   1.948  12.604 -0.1909  0.8875 -0.4955
  153TCq2    H2 2340   4.590   1.835  12.548  0.1241 -0.2842 -1.2980
  153TCq2    H3 2341   0.142   2.152  12.528  0.2583  0.3338  0.3569
  153TCq2    H4 2342   4.464   2.233  12.402 -0.1026 -1.2048 -0.7149
  154MPD2     C 2343   1.488   2.668   0.564 -0.7070  0.7192  0.1456
  154MPD2    C1 2344   1.566   2.682   0.675 -0.3794 -0.1585 -0.6236
  154MPD2    C2 2345   1.521   2.654   0.801  0.3902 -0.6630  0.0101
  154MPD2    C3 2346   1.392   2.599   0.823  0.7468  0.1643  0.2783
  154MPD2    C4 2347   1.313   2.571   0.715  0.0551  1.0757  0.2139
  154MPD2    C5 2348   1.358   2.612   0.587  0.1918 -0.5787 -0.3198
  154MPD2     H 2349   1.589   2.669   0.885  0.2537 -1.1149  0.1970
  154MPD2    H1 2350   1.225   2.508   0.720  0.8179  0.0991  1.4115
  154MPD2    H2 2351   1.528   2.691   0.466 -1.5051  0.8142 -0.1611
  154MPD2    H3 2352   1.302   2.584   0.499 -1.0013  0.4587  0.1237
  154MPD2     N 2353   1.355   2.558   0.953 -0.5112 -0.4773 -0.7196
  154MPD2    H5 2354   1.427   2.584   1.019 -1.0893  3.0811 -1.5008
  154MPD2    N1 2355   1.699   2.714   0.640 -0.3677 -0.8268  0.0571
  154MPD2    H7 2356   1.725   2.705   0.543 -1.7438  1.2862 -0.5032
  155TCq2    C1 2357   1.801   2.758   0.725  0.4112  0.0536 -0.2325
  155TCq2    O2 2358   1.801   2.788   0.842 -0.2971 -0.0688  0.1134
  155TCq2    C2 2359   1.938   2.739   0.679  0.9429  0.4366  0.4785
  155TCq2    C3 2360   2.038   2.753   0.768 -0.5727  0.2475 -0.3580
  155TCq2    C4 2361   2.165   2.722   0.728  0.3293  0.2404 -0.0260
  155TCq2    C5 2362   2.188   2.665   0.603 -0.0087 -0.2676 -0.5479
  155TCq2    C6 2363   2.083   2.658   0.520  0.3255  0.4553  0.7212
  155TCq2    C7 2364   1.958   2.695   0.553 -0.3931 -0.3367 -0.5807
  155TCq2    C8 2365   2.103   2.626   0.382 -0.2734  0.0863 -0.0366
  155TCq2    O4 2366   2.010   2.575   0.319  0.1283  0.7138 -0.0901
  155TCq2    C9 2367   2.277   2.740   0.811  0.5284  0.5204  0.0730
  155TCq2    O5 2368   2.261   2.803   0.921  0.4168 -0.1505 -0.4776
  155TCq2    O6 2369   2.381   2.682   0.773 -0.3101  0.1870  0.2721
  155TCq2    H2 2370   2.028   2.793   0.868 -0.8546  0.4446 -0.4652
  155TCq2    H3 2371   2.290   2.642   0.576 -0.7773 -2.6449 -1.4230
  155TCq2    H4 2372   1.876   2.680   0.483 -3.1374 -1.5480  2.9163
  156MPD2     C 2373   4.348   3.858  11.914  0.6007 -0.4388  0.3845
  156MPD2    C1 2374   4.228   3.888  11.857  0.0972 -0.0492 -0.4394
  156MPD2    C2 2375   4.169   4.004  11.903 -0.0413  0.8011  0.3556
  156MPD2    C3 2376   4.227   4.082  12.000 -0.4574  0.1245  0.5737
  156MPD2    C4 2377   4.341   4.042  12.055  0.5346 -0.2423 -0.0448
  156MPD2    C5 2378   4.399   3.926  12.015  0.8805 -0.0390 -0.4164
  156MPD2     H 2379   4.079   4.039  11.855  0.1528  0.9428  0.0995
  156MPD2    H1 2380   4.388   4.099  12.134 -0.8762 -1.8425  1.9634
  156MPD2    H2 2381   4.408   3.771  11.890  1.5260  0.2369  0.2658
  156MPD2    H3 2382   4.494   3.893  12.054  1.4195  1.5237 -0.4047
  156MPD2     N 2383   4.170   4.208  12.038 -0.3885 -0.0429  0.4883
  156MPD2    H5 2384   4.091   4.246  11.989 -0.5172  0.3610  1.0077
  156MPD2    N1 2385   4.161   3.800  11.763 -0.3124 -0.7688 -0.2072
  156MPD2    H7 2386   4.218   3.736  11.710 -0.9209 -0.4388 -1.2464
  157TCq2    C1 2387   4.026   3.804  11.738 -0.3020  0.0898  0.3002
  157TCq2    O2 2388   3.943   3.848  11.811  0.0092  0.0847 -0.2474
  157TCq2    C2 2389   3.987   3.763  11.599 -0.7839  0.0960  0.3531
  157TCq2    C3 2390   3.855   3.765  11.570  0.0219 -0.1356  0.4957
  157TCq2    C4 2391   3.810   3.829  11.459 -0.1483  0.0855 -0.6929
  157TCq2    C5 2392   3.895   3.897  11.380 -0.1293  1.0377  0.3705
  157TCq2    C6 2393   4.029   3.890  11.406  0.0294 -0.3437 -0.0081
  157TCq2    C7 2394   4.078   3.808  11.507  0.3811 -0.0471  0.7744
  157TCq2    C8 2395   4.104   4.010  11.366 -0.3027 -0.0735 -0.3715
  157TCq2    O4 2396   4.050   4.098  11.297 -0.4964  0.0552 -0.4316
  157TCq2    C9 2397   3.670   3.830  11.425  0.1571  0.1014  0.0370
  157TCq2    O5 2398   3.646   3.913  11.332  0.1944 -0.0932  0.1734
  157TCq2    O6 2399   3.589   3.791  11.509  0.0211  0.1241  0.1716
  157TCq2    H2 2400   3.785   3.713  11.635 -1.2514 -0.8058 -1.4020
  157TCq2    H3 2401   3.864   3.966  11.303 -1.5106 -0.8718 -0.7714
  157TCq2    H4 2402   4.186   3.798  11.520  0.0665 -1.4464  2.3935
  158TMC2    C1 2403   4.495   2.653  12.985 -0.0751 -0.7103  0.9586
  158TMC2    C2 2404   4.503   2.761  12.897  0.0339 -0.7734  0.1128
  158TMC2    C3 2405   4.383   2.791  12.834 -0.9601  1.2607  0.0732
  158TMC2    C4 2406   4.381   2.587  13.001 -0.7989  0.2605 -0.4454
  158TMC2    C5 2407   4.268   2.619  12.930  0.5107 -0.3065 -0.0236
  158TMC2    C6 2408   4.270   2.724  12.848  0.6876  0.0589 -0.4413
  158TMC2     C 2409   4.618   2.628  13.056 -0.2107  0.1542 -0.0345
  158TMC2     O 2410   0.003   2.660  13.005 -0.9338 -0.2708  0.1331
  158TMC2     H 2411   4.599   2.804  12.870 -0.0988 -0.1266  0.6785
  158TMC2    H1 2412   4.387   2.502  13.068 -0.2858 -1.4477 -2.6687
  158TMC2    H2 2413   4.188   2.756  12.785  0.2565 -2.1271 -0.9928
  158TMC2    C7 2414   4.140   2.548  12.938  0.5684 -0.6068 -0.0033
  158TMC2    C8 2415   4.383   2.878  12.723 -0.3050 -0.7075  0.4545
  158TMC2    O1 2416   4.057   2.576  12.851  0.2318  0.2368  0.2962
  158TMC2    O2 2417   4.370   2.848  12.605  0.3792  0.5863  0.1834
  158TMC2    O5 2418   4.350   2.998  12.782  0.0739  0.1076  0.0883
  158TMC2    H5 2419   4.363   2.996  12.879 -1.2503 -1.7235  0.2117
  159MPD2     C 2420   0.168   2.615  13.488 -0.0100 -0.5562  0.5279
  159MPD2    C1 2421   0.037   2.660  13.514 -0.0639 -0.0879  1.4101
  159MPD2    C2 2422   4.673   2.657  13.407  0.0449 -0.6557  0.6332
  159MPD2    C3 2423   4.706   2.615  13.283  0.1309  0.7192 -0.4816
  159MPD2    C4 2424   0.114   2.572  13.257  0.7051 -0.6124  0.1808
  159MPD2    C5 2425   0.200   2.583  13.357 -0.1712 -0.4415 -0.4381
  159MPD2     H 2426   4.571   2.694  13.416  0.1148 -0.2382 -0.3184
  159MPD2    H1 2427   0.145   2.527  13.163 -1.2974  0.8302 -1.1711
  159MPD2    H2 2428   0.246   2.608  13.563  2.6156 -0.2576 -2.1662
  159MPD2    H3 2429   0.299   2.552  13.325  0.4070  0.2597  0.6680
  159MPD2     N 2430   4.597   2.614  13.192 -0.3523  0.9621  0.6960
  159MPD2    H5 2431   4.502   2.628  13.225  0.0837  0.4320  2.1886
  159MPD2    N1 2432   4.709   2.692  13.648  0.2340  0.2402  0.0438
  159MPD2    H7 2433   0.050   2.671  13.726  0.1711 -0.0477  0.0161
  160TMC2    C1 2434   0.523   0.544   1.730 -0.8647 -0.4495 -0.4381
  160TMC2    C2 2435   0.620   0.553   1.828 -0.2840 -0.0364 -0.0158
  160TMC2    C3 2436   0.746   0.590   1.791 -0.0513 -0.0736 -0.0068
  160TMC2    C4 2437   0.561   0.570   1.598 -0.0697 -0.3971 -0.3991
  160TMC2    C5 2438   0.680   0.638   1.580 -0.0409  0.1907 -0.9077
  160TMC2    C6 2439   0.779   0.647   1.673  0.7452 -0.8399  0.5001
  160TMC2     C 2440   0.386   0.487   1.763 -0.1260  0.0494 -0.0252
  160TMC2     O 2441   0.380   0.419   1.864 -0.0611 -0.3495 -0.2293
  160TMC2     H 2442   0.595   0.531   1.931 -1.0199 -3.2789 -0.8799
  160TMC2    H1 2443   0.498   0.543   1.515  1.4634 -1.5540 -1.1909
  160TMC2    H2 2444   0.872   0.701   1.661 -0.4990  0.5434 -2.9091
  160TMC2    C7 2445   0.686   0.716   1.454  0.5203 -0.4262  1.0751
  160TMC2    C8 2446   0.857   0.573   1.889 -0.7944 -0.3803 -0.3206
  160TMC2    O1 2447   0.587   0.698   1.386 -0.0161  1.1158 -0.0720
  160TMC2    O2 2448   0.947   0.651   1.908  0.1559 -0.2719  0.2232
  160TMC2    O5 2449   0.820   0.480   1.976 -0.0345 -0.4007  0.2253
  160TMC2    H5 2450   0.753   0.420   1.936 -0.5784  0.8075 -0.6709
  161MPD2     C 2451   0.111   0.384   1.768 -0.2031  0.0363 -0.1693
  161MPD2    C1 2452   0.158   0.477   1.678 -0.4206 -0.6868  0.4404
  161MPD2    C2 2453   0.065   0.537   1.590  0.3925 -0.0386  0.3183
  161MPD2    C3 2454   4.648   0.507   1.597  0.0396 -0.5159 -0.6149
  161MPD2    C4 2455   4.609   0.410   1.679  0.1703  0.3256  0.0437
  161MPD2    C5 2456   4.703   0.339   1.761 -0.0673 -0.8357  0.0692
  161MPD2     H 2457   0.103   0.621   1.533  0.1557 -0.1426  0.0114
  161MPD2    H1 2458   4.509   0.367   1.680  0.1560  0.3901  2.7948
  161MPD2    H2 2459   0.182   0.332   1.832 -0.1604 -2.1048 -1.9002
  161MPD2    H3 2460   4.669   0.256   1.821 -0.7077  0.1429  1.0609
  161MPD2     N 2461   4.549   0.586   1.536 -0.2021  0.0389  0.2985
  161MPD2    H5 2462   4.457   0.590   1.579 -1.5081  1.4843 -2.6682
  161MPD2    N1 2463   0.292   0.515   1.666 -0.1013 -0.1727 -0.3483
  161MPD2    H7 2464   0.323   0.577   1.592 -0.2860 -0.4732 -0.6809
  162TMC2    C1 2465   3.289   2.572   1.474 -0.0394  0.8019 -0.4110
  162TMC2    C2 2466   3.218   2.669   1.533  0.0071  0.0782 -0.0074
  162TMC2    C3 2467   3.220   2.681   1.665 -0.0228 -0.4547  0.2844
  162TMC2    C4 2468   3.363   2.474   1.540 -0.1748  0.0061 -0.9664
  162TMC2    C5 2469   3.359   2.492   1.678 -0.5488  0.8764 -0.0403
  162TMC2    C6 2470   3.292   2.595   1.740  0.1169 -0.3249  0.0069
  162TMC2     C 2471   3.278   2.566   1.326 -0.0846 -0.5477 -0.6849
  162TMC2     O 2472   3.309   2.462   1.262  0.0661  0.8176 -0.1451
  162TMC2     H 2473   3.156   2.737   1.475 -0.0768  0.4651  0.5318
  162TMC2    H1 2474   3.414   2.398   1.482 -1.1348 -0.5239 -1.1143
  162TMC2    H2 2475   3.287   2.603   1.848 -2.5334  1.2450 -0.2367
  162TMC2    C7 2476   3.390   2.382   1.763  0.2442 -0.2140  0.1859
  162TMC2    C8 2477   3.180   2.806   1.725  0.0449 -0.1030  0.0494
  162TMC2    O1 2478   3.372   2.390   1.883 -0.2287  0.0853 -0.2262
  162TMC2    O2 2479   3.163   2.807   1.845  0.1757 -0.1028 -0.5562
  162TMC2    O5 2480   3.232   2.910   1.659  0.7152 -0.4436  0.8280
  162TMC2    H5 2481   3.258   2.895   1.565 -3.2538  0.5286 -0.4352
  163MPD2     C 2482   3.160   2.776   0.862 -0.0065 -0.2975 -0.2914
  163MPD2    C1 2483   3.181   2.642   0.901  0.3923  0.4450  0.0668
  163MPD2    C2 2484   3.217   2.606   1.031 -0.0484 -0.5048  0.0575
  163MPD2    C3 2485   3.222   2.711   1.125  0.2359  0.2395 -0.6708
  163MPD2    C4 2486   3.213   2.844   1.084  0.1767  0.0262  0.0614
  163MPD2    C5 2487   3.177   2.876   0.956  0.1233 -0.0689  0.6009
  163MPD2     H 2488   3.230   2.505   1.067 -0.2026 -0.9038 -1.0085
  163MPD2    H1 2489   3.224   2.925   1.155  4.6374 -1.2831  0.8310
  163MPD2    H2 2490   3.145   2.812   0.760 -2.5226 -0.0812  0.1551
  163MPD2    H3 2491   3.165   2.981   0.934 -2.0159  0.0251  2.1902
  163MPD2     N 2492   3.251   2.692   1.263  0.0066  1.0129 -0.7053
  163MPD2    H5 2493   3.245   2.770   1.327  0.7301 -0.6023  1.3417
  163MPD2    N1 2494   3.189   2.558   0.789 -0.3342 -0.3013  0.0421
  163MPD2    H7 2495   3.173   2.613   0.705  1.2534 -0.5431 -0.4219
  164TCq2    C1 2496   3.321   2.049  10.910 -0.1437 -0.8546 -0.3151
  164TCq2    O2 2497   3.218   2.023  10.969  0.0699 -0.0967 -0.2322
  164TCq2    C2 2498   3.336   2.190  10.873  0.6740  0.4854  0.2220
  164TCq2    C3 2499   3.371   2.215  10.741  0.0546 -0.8908  0.4013
  164TCq2    C4 2500   3.368   2.342  10.699  0.1145  0.2592 -0.0007
  164TCq2    C5 2501   3.300   2.440  10.771 -0.4603 -0.3150  0.3649
  164TCq2    C6 2502   3.248   2.413  10.894 -0.2693  0.1851  1.4778
  164TCq2    C7 2503   3.276   2.289  10.948  0.0293  0.2236 -0.3294
  164TCq2    C8 2504   3.177   2.514  10.976 -0.0457 -0.4149 -0.1160
  164TCq2    O4 2505   3.189   2.519  11.099 -0.8800  0.4604 -0.0184
  164TCq2    C9 2506   3.408   2.375  10.567 -0.2362  0.0976 -0.2823
  164TCq2    O5 2507   3.330   2.454  10.497  0.3305  0.1061  0.4252
  164TCq2    O6 2508   3.491   2.295  10.515  0.2908 -0.1281 -0.1605
  164TCq2    H2 2509   3.420   2.140  10.679 -2.3376 -2.1469  0.0239
  164TCq2    H3 2510   3.280   2.531  10.716  1.4270  0.8774  1.6540
  164TCq2    H4 2511   3.231   2.261  11.043 -1.5044  1.4102 -0.7064
  165MPD2     C 2512   4.441   4.585   1.654 -0.3992  0.3455 -0.0933
  165MPD2    C1 2513   4.546   4.509   1.708 -0.7319  0.1971  0.1934
  165MPD2    C2 2514   4.668   4.566   1.723  0.1034  0.4919 -0.2432
  165MPD2    C3 2515   4.690   4.697   1.673  0.2059  0.6009  0.0441
  165MPD2    C4 2516   4.588   0.050   1.617 -0.3528 -1.1081 -0.2925
  165MPD2    C5 2517   4.467   4.718   1.620  0.1748  0.2792  0.0445
  165MPD2     H 2518   0.026   4.505   1.765 -1.3362 -1.2305 -0.0732
  165MPD2    H1 2519   4.610   0.150   1.581  2.5822 -0.2269  3.9670
  165MPD2    H2 2520   4.340   4.547   1.651 -0.0252 -0.8270  2.0918
  165MPD2    H3 2521   4.390   0.063   1.581 -1.4207 -0.8682  1.2790
  165MPD2     N 2522   0.100   0.028   1.669  0.1532 -0.2910  0.1393
  165MPD2    H5 2523   0.128   0.107   1.611  2.7269  0.5064  2.4565
  165MPD2    N1 2524   4.510   4.377   1.726 -0.8333 -0.6267  0.7482
  165MPD2    H7 2525   4.413   4.351   1.710 -0.5741 -0.5642 -0.8777
  166TCq2    C1 2526   0.203   4.701   1.742 -0.3713  0.0663 -0.1955
  166TCq2    O2 2527   0.203   4.634   1.847  0.5509  0.1520  0.1580
  166TCq2    C2 2528   0.334   0.045   1.715 -1.0193 -0.3265  0.3151
  166TCq2    C3 2529   0.419   0.062   1.824  0.3066 -0.4488 -0.2582
  166TCq2    C4 2530   0.529   0.136   1.801 -0.7272  0.2241  0.7262
  166TCq2    C5 2531   0.562   0.175   1.679 -0.2441 -0.2295 -0.5558
  166TCq2    C6 2532   0.483   0.157   1.569  0.4104  0.1203  0.3783
  166TCq2    C7 2533   0.358   0.099   1.588 -0.4562  0.0554 -0.1039
  166TCq2    C8 2534   0.505   0.242   1.448 -0.4574  0.8099  0.1152
  166TCq2    O4 2535   0.617   0.263   1.408  0.5944  0.0169  0.1546
  166TCq2    C9 2536   0.615   0.178   1.910  0.9883  0.8031  0.2039
  166TCq2    O5 2537   0.569   0.162   2.022 -0.1718 -0.7973  0.0590
  166TCq2    O6 2538   0.706   0.258   1.876  0.3056  0.0284  0.0943
  166TCq2    H2 2539   0.407   0.023   1.924  0.3401  1.1654  0.3837
  166TCq2    H3 2540   0.651   0.235   1.662  0.0246 -0.6684 -0.7033
  166TCq2    H4 2541   0.295   0.080   1.502 -0.1243 -2.5265  0.2435
  167TMC2    C1 2542   2.518   2.545  12.784  0.0557 -0.0543 -0.5527
  167TMC2    C2 2543   2.485   2.589  12.907 -0.3305 -0.2006  0.5737
  167TMC2    C3 2544   2.382   2.529  12.973  0.3789  0.6410  0.1961
  167TMC2    C4 2545   2.454   2.447  12.722  0.9024 -0.2100 -0.3470
  167TMC2    C5 2546   2.349   2.386  12.793  0.4429  0.2315  0.7505
  167TMC2    C6 2547   2.318   2.427  12.919  0.5053 -0.5356 -0.5908
  167TMC2     C 2548   2.603   2.634  12.703 -0.2711  0.5118  0.0218
  167TMC2     O 2549   2.573   2.641  12.584 -0.4437 -0.0123 -0.4345
  167TMC2     H 2550   2.538   2.679  12.936 -0.7492  1.2525 -3.0968
  167TMC2    H1 2551   2.478   2.431  12.618 -0.1033 -0.4315 -0.5506
  167TMC2    H2 2552   2.246   2.371  12.978  0.7436  0.2565  0.4475
  167TMC2    C7 2553   2.315   2.250  12.763  0.7614 -0.3960  0.2273
  167TMC2    C8 2554   2.349   2.592  13.101 -1.0436  0.8064 -0.2952
  167TMC2    O1 2555   2.227   2.198  12.827  0.9341  0.1140 -0.0256
  167TMC2    O2 2556   2.247   2.650  13.121 -0.5761  0.2427 -0.2273
  167TMC2    O5 2557   2.470   2.625  13.152 -0.3939  0.8600 -0.4182
  167TMC2    H5 2558   2.542   2.565  13.120 -0.8034 -0.3790  1.0032
  168MPD2     C 2559   2.947   2.722  12.778  0.6430  0.6774 -0.1503
  168MPD2    C1 2560   2.838   2.706  12.697  0.0544  0.3939  0.2350
  168MPD2    C2 2561   2.843   2.749  12.565  0.1892  0.2181 -0.4460
  168MPD2    C3 2562   2.955   2.810  12.516 -0.4122 -0.2441  0.3241
  168MPD2    C4 2563   3.067   2.828  12.599  0.1576 -0.2084  0.1379
  168MPD2    C5 2564   3.061   2.778  12.726 -0.4125 -0.9675 -0.3103
  168MPD2     H 2565   2.763   2.737  12.492 -1.6030 -0.6370  1.6289
  168MPD2    H1 2566   3.159   2.874  12.566  0.9039 -1.9785 -0.2764
  168MPD2    H2 2567   2.958   2.689  12.881  0.6665  0.0757 -0.3403
  168MPD2    H3 2568   3.148   2.793  12.788 -1.3228  0.3907  0.6151
  168MPD2     N 2569   2.951   2.854  12.381 -0.0081 -0.3441  0.4144
  168MPD2    H5 2570   2.877   2.827  12.318  0.0052  0.5231  0.0242
  168MPD2    N1 2571   2.728   2.639  12.756  0.3356  0.0157 -0.0028
  168MPD2    H7 2572   2.744   2.617  12.854 -1.8132 -0.4662  0.2413
  169MPD1     C 2573   0.715   2.205   9.474  0.0429  0.5877 -1.0052
  169MPD1    C1 2574   0.792   2.096   9.511  0.0517  0.1124  0.3984
  169MPD1    C2 2575   0.756   1.967   9.484 -0.1317  0.0915  0.2483
  169MPD1    C3 2576   0.637   1.941   9.414 -0.0660  0.5813 -0.1218
  169MPD1    C4 2577   0.553   2.052   9.377  0.1134 -0.8259  0.6474
  169MPD1    C5 2578   0.597   2.180   9.404  1.2910 -0.3555  0.3180
  169MPD1     H 2579   0.827   1.890   9.511  1.6792  2.6408  2.7285
  169MPD1    H1 2580   0.454   2.038   9.335 -0.0039 -2.5370  1.4529
  169MPD1    H2 2581   0.735   2.310   9.495 -0.7222  0.3909  0.7625
  169MPD1    H3 2582   0.531   2.261   9.376 -0.0104 -1.4612  0.1732
  169MPD1     N 2583   0.605   1.806   9.385 -0.0981  0.0552  0.0063
  169MPD1    H5 2584   0.673   1.737   9.416  2.4508  2.5722 -0.0287
  169MPD1    N1 2585   0.895   2.118   9.606  0.9047  0.2934  0.1162
  169MPD1    H6 2586   0.937   2.210   9.611 -0.6532  1.1647 -2.5978
  169MPD1    H7 2587   0.952   2.036   9.624  0.9512  0.5588  1.1737
  170MPD1     C 2588   2.143   0.167  12.940 -0.1848  0.0917  0.3670
  170MPD1    C1 2589   2.200   0.073  13.028 -0.4724 -0.0229  0.0774
  170MPD1    C2 2590   2.296   0.118  13.119  0.4346 -0.9319 -0.4249
  170MPD1    C3 2591   2.327   0.256  13.129 -0.4490  1.4953  0.1146
  170MPD1    C4 2592   2.255   0.345  13.059  0.0102  0.5286  0.5039
  170MPD1    C5 2593   2.166   0.298  12.965 -0.0546  0.0657 -0.3730
  170MPD1     H 2594   2.360   0.049  13.172 -1.1168 -0.0024  2.6316
  170MPD1    H1 2595   2.270   0.452  13.060  1.1024  0.3631  1.4974
  170MPD1    H2 2596   2.067   0.149  12.865 -0.7115 -1.6471  1.3177
  170MPD1    H3 2597   2.109   0.364  12.901 -0.0231 -0.1122 -0.5828
  170MPD1     N 2598   2.446   0.289  13.202 -0.9728 -0.0166  0.1967
  170MPD1    H5 2599   2.484   0.217  13.262 -1.6685  1.5436  2.5092
  170MPD1    N1 2600   2.180   4.657  13.008 -0.1894  0.0471  0.0476
  170MPD1    H6 2601   2.091   4.638  12.963  0.1175 -1.0160 -0.1097
  170MPD1    H7 2602   2.197   4.606  13.094  1.3338  2.3625  1.1075
  171MPD1     C 2603   1.369   1.003  15.724 -1.0060  0.4259 -0.1896
  171MPD1    C1 2604   1.431   1.054  15.602 -0.1713 -0.5712 -0.0703
  171MPD1    C2 2605   1.563   1.032  15.591 -0.3523 -0.0213  0.1976
  171MPD1    C3 2606   1.641   0.974  15.696 -0.1309 -0.0223 -0.4123
  171MPD1    C4 2607   1.574   0.936  15.810  0.2893 -0.3501  0.1150
  171MPD1    C5 2608   1.445   0.952  15.824 -0.9709 -0.4477  0.1021
  171MPD1     H 2609   1.606   1.047  15.493  0.4241  3.1998  1.0304
  171MPD1    H1 2610   1.624   0.892  15.896  0.6279 -0.0457  0.0768
  171MPD1    H2 2611   1.263   1.006  15.743 -0.9331 -0.2992  0.3075
  171MPD1    H3 2612   1.393   0.900  15.904 -1.0233 -0.2103  0.2206
  171MPD1     N 2613   1.780   0.948  15.684 -0.4099 -0.3562  0.7379
  171MPD1    H5 2614   1.833   0.935  15.770  0.5385 -0.4313  0.1414
  171MPD1    N1 2615   1.359   1.105  15.495  0.4387  0.0677  0.2943
  171MPD1    H6 2616   1.396   1.184  15.442 -0.6126 -0.2456 -0.9073
  171MPD1    H7 2617   1.259   1.119  15.511  0.0505 -0.7586 -1.3572
  172MPD1     C 2618   1.858   0.128   0.114 -0.4091 -0.0188 -0.1117
  172MPD1    C1 2619   1.960   0.189   0.186 -0.3420 -0.1468 -0.0627
  172MPD1    C2 2620   1.938   0.312   0.248 -1.0075 -0.0451  0.1036
  172MPD1    C3 2621   1.811   0.368   0.235 -0.5558 -0.0516  0.8413
  172MPD1    C4 2622   1.711   0.307   0.158  0.3193  0.0739 -0.1506
  172MPD1    C5 2623   1.740   0.189   0.098  0.8908 -0.0458  0.3217
  172MPD1     H 2624   2.022   0.358   0.299  0.3902 -2.3653 -0.1465
  172MPD1    H1 2625   1.621   0.365   0.141 -0.6011 -0.7812  1.8175
  172MPD1    H2 2626   1.881   0.031   0.071 -3.0103 -0.4960 -0.4259
  172MPD1    H3 2627   1.665   0.142   0.035 -0.1687  0.7734  0.9728
  172MPD1     N 2628   1.780   0.500   0.286 -0.2995  1.0247 -0.0883
  172MPD1    H5 2629   1.693   0.542   0.256 -0.9546  1.3688  2.2757
  172MPD1    N1 2630   2.079   0.128   0.216 -0.4452  0.3809 -0.5534
  172MPD1    H6 2631   2.153   0.195   0.235  1.3748 -1.0323 -2.6336
  172MPD1    H7 2632   2.101   0.060   0.144  1.2393 -1.0628  1.3121
  173MPD1     C 2633   2.105   0.453  14.302 -0.6815  0.2390 -0.1770
  173MPD1    C1 2634   1.994   0.380  14.264  0.5804 -0.0771  0.0666
  173MPD1    C2 2635   1.976   0.262  14.331  0.0620  0.3921 -0.2113
  173MPD1    C3 2636   2.055   0.234  14.440  0.4623 -0.9493  0.3209
  173MPD1    C4 2637   2.153   0.317  14.489  0.1939  0.1554 -0.6548
  173MPD1    C5 2638   2.177   0.434  14.417 -0.8606 -0.6654  0.2962
  173MPD1     H 2639   1.889   0.201  14.309  0.1266  0.1533  0.1935
  173MPD1    H1 2640   2.208   0.297  14.580 -2.7088  3.4663  1.8512
  173MPD1    H2 2641   2.140   0.536  14.241  0.4747 -0.7250 -0.8452
  173MPD1    H3 2642   2.250   0.505  14.453 -0.6359 -0.3283 -0.8550
  173MPD1     N 2643   2.022   0.110  14.503  0.2619 -0.0509  0.7263
  173MPD1    H5 2644   1.967   0.038  14.458  0.3085 -0.2033  0.9161
  173MPD1    N1 2645   1.929   0.414  14.147  0.3805  0.7083  0.4279
  173MPD1    H6 2646   1.934   0.514  14.129 -0.4603  0.6383 -0.2516
  173MPD1    H7 2647   1.835   0.375  14.135  1.3038 -1.6828  1.0370
  174MPD1     C 2648   1.846   4.109  14.111 -0.5297  0.3090 -0.3078
  174MPD1    C1 2649   1.874   4.052  14.236  0.4650 -0.3289 -0.1607
  174MPD1    C2 2650   1.923   4.131  14.337 -0.3556 -0.5928  0.0878
  174MPD1    C3 2651   1.927   4.273  14.318 -0.3180 -0.1927  0.2272
  174MPD1    C4 2652   1.888   4.323  14.194  0.3667  0.1910 -0.4584
  174MPD1    C5 2653   1.852   4.242  14.086 -0.0755  0.3297  0.0579
  174MPD1     H 2654   1.960   4.087  14.429 -1.0336  0.0863  0.6965
  174MPD1    H1 2655   1.886   4.431  14.190 -1.7191  0.2111  1.0012
  174MPD1    H2 2656   1.804   4.049  14.031 -1.7758 -0.6499  1.0548
  174MPD1    H3 2657   1.826   4.285  13.990  0.8985 -0.3469 -0.5086
  174MPD1     N 2658   1.966   4.365  14.418  0.1435  0.4167  0.4708
  174MPD1    H5 2659   1.948   4.463  14.401  0.3304  0.3717 -0.0009
  174MPD1    N1 2660   1.860   3.912  14.246 -0.0263 -0.7942  0.1582
  174MPD1    H6 2661   1.768   3.879  14.217  0.1995 -0.1871 -1.2496
  174MPD1    H7 2662   1.865   3.883  14.343 -0.4954  3.0022  1.3475
  175MPD1     C 2663   1.097   0.794  15.463  0.1742  0.2535 -0.0295
  175MPD1    C1 2664   0.962   0.821  15.485 -0.1192 -0.6782  0.6629
  175MPD1    C2 2665   0.906   0.795  15.608  0.4513  0.0588 -0.3390
  175MPD1    C3 2666   0.994   0.751  15.716  0.5575 -0.5875  0.6973
  175MPD1    C4 2667   1.128   0.744  15.692  0.0706 -0.5265  0.8545
  175MPD1    C5 2668   1.179   0.755  15.565  0.1277 -0.3965  0.4704
  175MPD1     H 2669   0.800   0.795  15.629  0.4617  0.3746 -0.2907
  175MPD1    H1 2670   1.191   0.698  15.768 -1.4097 -0.3752  2.1607
  175MPD1    H2 2671   1.142   0.810  15.366  0.7300 -0.1238  0.1700
  175MPD1    H3 2672   1.285   0.740  15.547  0.4886  1.3948  1.0841
  175MPD1     N 2673   0.948   0.701  15.845 -0.3659 -0.0300  0.4390
  175MPD1    H5 2674   1.013   0.673  15.918  0.2616 -1.7705 -0.7730
  175MPD1    N1 2675   0.883   0.849  15.376  0.3397 -0.3530  0.0779
  175MPD1    H6 2676   0.808   0.914  15.402  0.7189  0.8058 -1.6726
  175MPD1    H7 2677   0.941   0.890  15.303 -0.5722  0.5058 -0.1657
  176MPD1     C 2678   2.507   2.759  16.768 -0.3469  0.0451  0.4340
  176MPD1    C1 2679   2.411   2.848  16.798  0.0212  0.0062 -0.0262
  176MPD1    C2 2680   2.441   2.959  16.873  0.0263  0.2285  0.3233
  176MPD1    C3 2681   2.556   2.963  16.947 -0.1106  0.4202 -0.2866
  176MPD1    C4 2682   2.640   2.861  16.934  0.2071  0.5860 -0.6060
  176MPD1    C5 2683   2.627   2.764  16.839 -0.0852 -0.0968  0.7043
  176MPD1     H 2684   2.367   3.036  16.891 -0.2738  0.1344 -0.5067
  176MPD1    H1 2685   2.741   2.873  16.971 -0.8110  1.2752  1.9470
  176MPD1    H2 2686   2.493   2.677  16.700 -1.4590 -1.2146  2.1806
  176MPD1    H3 2687   2.715   2.702  16.823  0.4716  0.8070  0.2231
  176MPD1     N 2688   2.584   3.071  17.030 -0.2566 -0.4956  0.2500
  176MPD1    H5 2689   2.524   3.152  17.018 -0.7300 -0.8495  0.2495
  176MPD1    N1 2690   2.292   2.851  16.723 -0.0866  0.8197  0.0181
  176MPD1    H6 2691   2.215   2.903  16.764  1.0731  1.0572  1.9085
  176MPD1    H7 2692   2.254   2.757  16.714  0.8746  0.4841 -0.4970
  177MPD1     C 2693   1.091   2.415  10.076  0.5456  0.0824  0.3574
  177MPD1    C1 2694   0.976   2.361  10.024 -0.6115  0.4325  0.0484
  177MPD1    C2 2695   0.886   2.440   9.965 -0.0624  0.2190  0.1307
  177MPD1    C3 2696   0.901   2.580   9.955 -0.0265 -0.3367  0.6528
  177MPD1    C4 2697   1.008   2.634  10.024  0.1597 -0.9277  0.7968
  177MPD1    C5 2698   1.099   2.553  10.085 -1.1281  0.7157  0.1186
  177MPD1     H 2699   0.794   2.398   9.926  0.9304 -2.2320  0.4371
  177MPD1    H1 2700   1.026   2.741  10.026 -0.8488 -0.7635  1.2358
  177MPD1    H2 2701   1.162   2.350  10.127  0.4555  0.7127  1.2769
  177MPD1    H3 2702   1.179   2.601  10.139  0.4916 -0.2000 -1.4893
  177MPD1     N 2703   0.804   2.663   9.894 -0.4937 -0.1538 -0.2229
  177MPD1    H5 2704   0.720   2.618   9.859  1.0477 -1.9409 -1.6217
  177MPD1    N1 2705   0.964   2.221  10.020  0.0718 -0.0857  0.1265
  177MPD1    H6 2706   0.868   2.194  10.042 -0.1818  1.6793  1.1938
  177MPD1    H7 2707   1.032   2.180  10.083 -0.3074  0.1200  0.6745
  178MPD1     C 2708   3.011   3.646   0.307 -0.3034  0.1464  0.3431
  178MPD1    C1 2709   3.133   3.577   0.291 -0.0234  0.0513 -0.5485
  178MPD1    C2 2710   3.168   3.542   0.160  0.4506 -0.0730  1.1567
  178MPD1    C3 2711   3.092   3.572   0.048 -0.5076  0.2626  0.6486
  178MPD1    C4 2712   2.972   3.637   0.069 -0.3248 -0.2250 -0.3787
  178MPD1    C5 2713   2.936   3.676   0.197  0.2807  0.4432  0.1169
  178MPD1     H 2714   3.259   3.484   0.149 -0.4052 -1.2798  0.4153
  178MPD1    H1 2715   2.901   3.664  17.678  0.3821 -0.4060 -1.0895
  178MPD1    H2 2716   2.975   3.670   0.407 -2.1174  0.3452 -0.3716
  178MPD1    H3 2717   2.847   3.737   0.212 -0.2061 -0.6457  1.6403
  178MPD1     N 2718   3.135   3.557  17.600  0.3804  0.0062 -0.7881
  178MPD1    H5 2719   3.072   3.601  17.534  0.2863  0.5294 -0.3454
  178MPD1    N1 2720   3.208   3.545   0.403 -0.2081  0.3152 -0.3137
  178MPD1    H6 2721   3.298   3.517   0.366  0.1732 -1.1016  1.6705
  178MPD1    H7 2722   3.221   3.621   0.470  1.1258 -0.5540  0.4052
  179MPD1     C 2723   3.114   2.442  15.680 -0.6226  0.1410 -0.6535
  179MPD1    C1 2724   3.067   2.402  15.552  0.4864  0.5101  0.1163
  179MPD1    C2 2725   3.026   2.273  15.538  0.1971  0.4943  0.4781
  179MPD1    C3 2726   3.046   2.178  15.639 -0.1284 -0.3776 -0.4907
  179MPD1    C4 2727   3.102   2.218  15.754 -0.2519  0.3976 -0.2953
  179MPD1    C5 2728   3.121   2.351  15.783  0.7025  0.6459  0.3235
  179MPD1     H 2729   2.972   2.245  15.448  0.9216  0.1827  0.1324
  179MPD1    H1 2730   3.120   2.149  15.835  1.8333  1.7998  0.4180
  179MPD1    H2 2731   3.136   2.547  15.691  0.1784  0.0307 -1.1588
  179MPD1    H3 2732   3.161   2.382  15.879  0.1293  0.5995  0.5791
  179MPD1     N 2733   3.004   2.042  15.633  0.6564 -0.1123 -0.2486
  179MPD1    H5 2734   3.025   1.982  15.712 -0.6820  0.8632  0.8398
  179MPD1    N1 2735   3.043   2.494  15.446  0.7108 -0.1819 -0.5626
  179MPD1    H6 2736   3.061   2.441  15.361 -2.2076  1.1972 -2.0391
  179MPD1    H7 2737   3.109   2.571  15.451 -0.0113  0.1725  2.9559
  180MPD1     C 2738   2.882   2.816  15.001  0.2192  0.2126 -0.3356
  180MPD1    C1 2739   2.949   2.939  14.996  0.2585 -0.1263  0.4603
  180MPD1    C2 2740   2.879   3.049  14.941 -0.0495 -0.0331 -0.1764
  180MPD1    C3 2741   2.744   3.043  14.919 -0.2107  0.6657 -0.0653
  180MPD1    C4 2742   2.677   2.923  14.935  0.3135 -0.0910 -0.4290
  180MPD1    C5 2743   2.749   2.809  14.974  1.0607 -0.7137  0.0229
  180MPD1     H 2744   2.933   3.140  14.915 -0.5781  0.6782  1.1888
  180MPD1    H1 2745   2.574   2.911  14.902  0.8224 -2.2092 -1.2041
  180MPD1    H2 2746   2.918   2.721  15.039  0.4673  0.1091 -0.8286
  180MPD1    H3 2747   2.699   2.714  14.991 -1.7739  0.7004 -0.5456
  180MPD1     N 2748   2.688   3.157  14.862 -0.3377  0.2203 -0.0519
  180MPD1    H5 2749   2.754   3.232  14.844 -1.0589  0.5426 -1.2990
  180MPD1    N1 2750   3.093   2.930  14.995 -0.2169  0.1284 -0.0668
  180MPD1    H6 2751   3.125   3.026  15.010  3.1174 -1.0515  0.3111
  180MPD1    H7 2752   3.133   2.871  15.067  0.0693  1.7343  1.0933
  181MPD1     C 2753   4.553   0.286   9.799  0.5107  0.7762  0.2873
  181MPD1    C1 2754   4.607   0.156   9.811 -0.6575 -0.2605  0.5302
  181MPD1    C2 2755   0.021   0.149   9.822 -0.7084 -0.4735 -0.4552
  181MPD1    C3 2756   0.099   0.268   9.804  0.4969 -0.0030  0.3748
  181MPD1    C4 2757   0.039   0.390   9.782  0.3296  0.3004  0.2291
  181MPD1    C5 2758   4.628   0.396   9.777 -0.5637  0.0818  0.2017
  181MPD1     H 2759   0.066   0.056   9.855 -0.0956 -0.5825 -1.5744
  181MPD1    H1 2760   0.089   0.486   9.770  0.3068  0.2550 -0.2059
  181MPD1    H2 2761   4.445   0.291   9.795  0.4527 -0.7676 -0.3084
  181MPD1    H3 2762   4.576   0.487   9.748  0.0007  0.1908 -0.4461
  181MPD1     N 2763   0.245   0.267   9.816 -0.2171  0.7007  0.4198
  181MPD1    H5 2764   0.296   0.354   9.805 -0.6147  0.9826  0.7931
  181MPD1    N1 2765   4.528   0.045   9.847 -0.7766 -0.4934  0.1142
  181MPD1    H6 2766   4.435   0.059   9.807  0.1706 -0.3339 -2.0093
  181MPD1    H7 2767   4.564   4.673   9.825 -0.1282 -0.5449  1.3784
  182MPD1     C 2768   1.181   0.565   0.671  0.0014 -0.7282 -0.5587
  182MPD1    C1 2769   1.102   0.490   0.588 -0.0420 -0.0502 -0.1653
  182MPD1    C2 2770   1.063   0.365   0.623 -0.0116  0.1194 -0.9577
  182MPD1    C3 2771   1.107   0.304   0.742  0.3355  0.7401  0.0161
  182MPD1    C4 2772   1.186   0.385   0.825 -0.6315 -0.0706 -0.2775
  182MPD1    C5 2773   1.217   0.514   0.792  0.0997 -0.9033  0.3142
  182MPD1     H 2774   1.003   0.310   0.550 -0.5924 -3.1166  1.9686
  182MPD1    H1 2775   1.221   0.356   0.924 -0.4292  0.8021 -0.1004
  182MPD1    H2 2776   1.217   0.662   0.639 -2.1631 -0.1995 -1.3687
  182MPD1    H3 2777   1.276   0.577   0.857  0.3136 -3.2951  2.4035
  182MPD1     N 2778   1.083   0.169   0.782  0.2515  0.4375  0.8326
  182MPD1    H5 2779   1.130   0.137   0.867  1.5485 -1.4094 -0.5856
  182MPD1    N1 2780   1.046   0.546   0.468  0.1470  0.0821 -0.3367
  182MPD1    H6 2781   1.021   0.470   0.405 -2.1826  1.7222 -1.3885
  182MPD1    H7 2782   1.111   0.610   0.422  2.3847 -1.4711  0.6332
  183MPD1     C 2783   0.671   3.509   8.637 -0.7637  0.2454  1.2784
  183MPD1    C1 2784   0.664   3.638   8.597 -0.6511  0.9260 -1.1441
  183MPD1    C2 2785   0.752   3.719   8.661 -0.1504 -0.1022 -0.6578
  183MPD1    C3 2786   0.818   3.676   8.780  0.4074 -0.2130  0.4101
  183MPD1    C4 2787   0.821   3.546   8.817 -0.3021  0.3572  0.1551
  183MPD1    C5 2788   0.750   3.462   8.743  0.6226 -0.6930 -0.1548
  183MPD1     H 2789   0.761   3.823   8.634  2.9124  0.1440  1.3063
  183MPD1    H1 2790   0.876   3.509   8.903 -0.7779 -1.6630 -0.4010
  183MPD1    H2 2791   0.611   3.433   8.588  0.2842 -0.6627  1.3811
  183MPD1    H3 2792   0.755   3.354   8.745  2.7497 -0.5791  0.2375
  183MPD1     N 2793   0.887   3.762   8.868 -0.1849 -0.6030  0.5381
  183MPD1    H5 2794   0.928   3.711   8.946 -1.0469 -0.0378  1.3612
  183MPD1    N1 2795   0.605   3.673   8.471  0.1379 -0.1469  0.4039
  183MPD1    H6 2796   0.528   3.614   8.439 -1.4677  1.7715  0.6634
  183MPD1    H7 2797   0.564   3.767   8.475  0.8861  0.1640  0.6317
  184MPD1     C 2798   0.346   1.828  10.078  0.0312 -0.1013  0.6598
  184MPD1    C1 2799   0.229   1.834  10.009 -0.1421 -0.3145 -0.1433
  184MPD1    C2 2800   0.173   1.957   9.975  0.3894  0.3696  0.0955
  184MPD1    C3 2801   0.240   2.072  10.007  0.8958 -0.1181  0.1416
  184MPD1    C4 2802   0.363   2.062  10.070  0.3042  0.5395 -0.4118
  184MPD1    C5 2803   0.415   1.940  10.103 -1.3636  0.4233  0.1446
  184MPD1     H 2804   0.074   1.956   9.932  0.5015  0.0251 -0.1594
  184MPD1    H1 2805   0.428   2.146  10.093  0.9836 -0.4626  1.3408
  184MPD1    H2 2806   0.388   1.732  10.104  0.2596 -0.6389 -1.7415
  184MPD1    H3 2807   0.512   1.927  10.150 -0.3685  2.5252 -1.3574
  184MPD1     N 2808   0.193   2.198   9.962  0.2997  0.0707 -0.2740
  184MPD1    H5 2809   0.241   2.276  10.005  0.0216  0.7684 -1.2462
  184MPD1    N1 2810   0.156   1.718   9.996 -0.7954 -0.0670 -0.0315
  184MPD1    H6 2811   0.217   1.637   9.999 -0.0233  0.5169 -0.0219
  184MPD1    H7 2812   0.092   1.715   9.916 -0.9922 -0.6580  0.1510
  185MPD1     C 2813   4.461   2.686   9.084  0.6953 -0.7857  0.4834
  185MPD1    C1 2814   4.503   2.563   9.113  0.2588 -0.1485  0.5548
  185MPD1    C2 2815   4.571   2.534   9.235  0.4793  0.4465  0.1394
  185MPD1    C3 2816   4.587   2.638   9.327  0.2193  0.1674 -0.0491
  185MPD1    C4 2817   4.541   2.762   9.294  0.2303 -0.4595 -0.2335
  185MPD1    C5 2818   4.477   2.784   9.174  0.2579  0.7450  0.5812
  185MPD1     H 2819   4.609   2.434   9.252  0.3706  0.4522  0.4100
  185MPD1    H1 2820   4.561   2.847   9.358 -0.9212 -0.9631  0.8080
  185MPD1    H2 2821   4.424   2.717   8.987  2.3010 -2.9544 -0.8225
  185MPD1    H3 2822   4.455   2.880   9.130  4.2309  1.8242  0.9747
  185MPD1     N 2823   4.646   2.614   9.450  0.5640  0.6406 -0.2880
  185MPD1    H5 2824   4.657   2.697   9.509 -1.7677  0.1007  0.9002
  185MPD1    N1 2825   4.500   2.458   9.014  0.0400  0.3129  0.2815
  185MPD1    H6 2826   4.502   2.361   9.045 -0.3587  0.5070  0.9101
  185MPD1    H7 2827   4.415   2.470   8.960  1.3184  0.6471 -1.6543
  186MPD1     C 2828   3.390   2.068  15.440  0.0873  0.6183  0.2338
  186MPD1    C1 2829   3.373   1.970  15.538 -0.6480 -0.8126  0.5378
  186MPD1    C2 2830   3.389   1.992  15.665 -0.4122 -0.0811  0.3612
  186MPD1    C3 2831   3.420   2.121  15.712 -0.0470 -0.3905  0.9241
  186MPD1    C4 2832   3.427   2.220  15.618  0.2546  0.7628  1.3798
  186MPD1    C5 2833   3.416   2.197  15.481 -0.2794 -0.4702 -0.0704
  186MPD1     H 2834   3.366   1.918  15.740 -0.3989 -2.2190 -1.7393
  186MPD1    H1 2835   3.436   2.323  15.650 -1.4259  1.3530 -0.0270
  186MPD1    H2 2836   3.371   2.050  15.335 -0.7589  0.7359  0.3692
  186MPD1    H3 2837   3.435   2.287  15.424  3.8381  0.3597  2.6434
  186MPD1     N 2838   3.431   2.156  15.849  0.0416 -0.1943  0.5519
  186MPD1    H5 2839   3.434   2.255  15.874  1.4314  0.5604 -2.6609
  186MPD1    N1 2840   3.330   1.843  15.491  0.3173  0.1078 -0.1469
  186MPD1    H6 2841   3.370   1.769  15.548  1.2371  0.5468 -0.2228
  186MPD1    H7 2842   3.363   1.827  15.396 -2.6598 -2.1356 -0.8035
  187MPD1     C 2843   2.653   3.860  17.635  0.4397 -0.5354  0.3115
  187MPD1    C1 2844   2.723   3.890  17.525  0.2579  0.2526 -0.6892
  187MPD1    C2 2845   2.646   3.904  17.415 -0.1583 -0.4132 -0.6588
  187MPD1    C3 2846   2.505   3.900  17.419 -0.1861  0.7916 -0.3292
  187MPD1    C4 2847   2.436   3.869  17.534  0.0700  0.8068 -0.1711
  187MPD1    C5 2848   2.518   3.859  17.645 -0.1116  0.7151  0.0867
  187MPD1     H 2849   2.700   3.916  17.322  1.4688 -1.7212  0.1164
  187MPD1    H1 2850   2.328   3.864  17.537 -0.0721  3.2437 -1.1363
  187MPD1    H2 2851   2.714   3.836   0.037 -0.2351 -0.1124  0.8961
  187MPD1    H3 2852   2.472   3.825   0.051 -0.8089  0.0068 -0.5266
  187MPD1     N 2853   2.423   3.933  17.309 -0.2642 -0.0857  0.4778
  187MPD1    H5 2854   2.324   3.913  17.309 -0.3705  0.4886 -1.7765
  187MPD1    N1 2855   2.860   3.894  17.504 -0.2598 -0.1401 -0.0566
  187MPD1    H6 2856   2.902   3.940  17.584 -0.7848 -0.0586  0.1761
  187MPD1    H7 2857   2.890   3.952  17.426 -1.2674  0.7410  0.2060
  188MPD1     C 2858   2.256   3.666  10.102 -0.4116 -0.2220  0.3736
  188MPD1    C1 2859   2.186   3.650   9.983  0.2568  0.0745 -0.5778
  188MPD1    C2 2860   2.231   3.546   9.908  0.6654 -0.2128  0.3057
  188MPD1    C3 2861   2.331   3.464   9.956  0.5455 -0.7397 -0.5697
  188MPD1    C4 2862   2.383   3.473  10.081  0.5729 -0.5820 -0.1337
  188MPD1    C5 2863   2.338   3.574  10.157 -0.4185  0.0507 -0.1456
  188MPD1     H 2864   2.188   3.528   9.810  0.0216  2.2503  0.1395
  188MPD1    H1 2865   2.453   3.404  10.125  0.3654 -1.2653 -0.8629
  188MPD1    H2 2866   2.215   3.738  10.172 -4.1289 -0.4465 -1.5399
  188MPD1    H3 2867   2.368   3.582  10.261  1.7995 -1.5838 -0.6651
  188MPD1     N 2868   2.368   3.359   9.869  0.2241 -0.2145  0.0702
  188MPD1    H5 2869   2.308   3.351   9.788 -0.3377  1.6197  0.2880
  188MPD1    N1 2870   2.092   3.747   9.942  0.0024  0.2159  0.2657
  188MPD1    H6 2871   2.016   3.702   9.893  0.9755 -1.3611  0.2249
  188MPD1    H7 2872   2.048   3.799  10.018  2.9189 -0.8490  2.6680
  189MPD1     C 2873   0.551   4.022   1.218  0.0312 -0.7876  0.6107
  189MPD1    C1 2874   0.520   4.149   1.178  0.5287  0.1929 -0.3297
  189MPD1    C2 2875   0.459   4.165   1.057  0.2512  0.4607  0.4869
  189MPD1    C3 2876   0.418   4.060   0.974 -0.1966  0.7471  0.2506
  189MPD1    C4 2877   0.443   3.932   1.020 -0.9950 -0.2247  0.0454
  189MPD1    C5 2878   0.504   3.919   1.144  0.1395  0.5247 -0.0972
  189MPD1     H 2879   0.456   4.263   1.011  2.0485  0.2896  0.0304
  189MPD1    H1 2880   0.396   3.847   0.972 -1.3200  0.8371 -1.5008
  189MPD1    H2 2881   0.610   4.003   1.307  0.8012  0.2640  0.3357
  189MPD1    H3 2882   0.518   3.819   1.183  0.0941  0.5982  0.1060
  189MPD1     N 2883   0.370   4.082   0.843  0.5786  0.0196 -0.4682
  189MPD1    H5 2884   0.364   4.182   0.829 -0.5162  0.1333  0.8377
  189MPD1    N1 2885   0.579   4.257   1.242 -0.2057 -0.9198  0.9937
  189MPD1    H6 2886   0.524   4.342   1.247 -0.1527 -0.8018 -0.6134
  189MPD1    H7 2887   0.592   4.232   1.340  2.1040  0.1958  0.9699
  190MPD1     C 2888   2.397   3.390  15.590  0.6359  0.1987  0.3957
  190MPD1    C1 2889   2.447   3.367  15.714  0.3258 -0.4925  0.2561
  190MPD1    C2 2890   2.583   3.383  15.734  0.5354 -0.1380  0.1877
  190MPD1    C3 2891   2.668   3.400  15.626  0.2860 -0.4945 -0.1390
  190MPD1    C4 2892   2.615   3.402  15.501  0.5375 -0.0523  0.4006
  190MPD1    C5 2893   2.486   3.409  15.485  0.2324  0.4146  0.5179
  190MPD1     H 2894   2.622   3.389  15.834  0.3013  0.6563  0.2332
  190MPD1    H1 2895   2.677   3.416  15.413  1.3631 -0.6966  0.8822
  190MPD1    H2 2896   2.291   3.401  15.568  0.4207 -0.0194  1.3396
  190MPD1    H3 2897   2.449   3.419  15.383 -0.5828  1.8285  0.9563
  190MPD1     N 2898   2.806   3.392  15.659 -0.8326 -0.2068  0.0344
  190MPD1    H5 2899   2.831   3.382  15.757  0.7244 -0.2870 -0.3668
  190MPD1    N1 2900   2.363   3.349  15.830 -0.0653 -0.1267  0.2367
  190MPD1    H6 2901   2.398   3.288  15.904 -1.9895 -0.8279  0.5815
  190MPD1    H7 2902   2.285   3.290  15.800  0.0866 -0.4539  0.4857
  191MPD1     C 2903   2.221   0.334  12.000  0.4946  0.1952  0.1894
  191MPD1    C1 2904   2.318   0.409  12.058 -0.1086  0.0488  0.2151
  191MPD1    C2 2905   2.283   0.528  12.129  1.2221  0.1862  0.0784
  191MPD1    C3 2906   2.154   0.558  12.147 -1.1585 -0.2245  0.3115
  191MPD1    C4 2907   2.049   0.472  12.102  0.2534  0.0668  1.0915
  191MPD1    C5 2908   2.085   0.361  12.027 -0.0689 -0.2775 -0.3452
  191MPD1     H 2909   2.357   0.600  12.161  0.7130  1.2583 -1.2125
  191MPD1    H1 2910   1.947   0.501  12.122 -0.6388 -1.9295 -0.5687
  191MPD1    H2 2911   2.245   0.243  11.946 -4.4277 -0.6389 -0.5685
  191MPD1    H3 2912   2.004   0.300  11.989  0.1471 -0.6846 -0.1550
  191MPD1     N 2913   2.126   0.678  12.217  0.0532 -0.7486  0.7973
  191MPD1    H5 2914   2.205   0.738  12.240 -0.2980  0.8445 -2.1887
  191MPD1    N1 2915   2.452   0.382  12.038  0.3173 -0.3903  0.2176
  191MPD1    H6 2916   2.465   0.282  12.018 -2.0103 -0.1270 -2.6604
  191MPD1    H7 2917   2.519   0.399  12.112  2.5747  1.2461 -2.2372
  192MPD1     C 2918   1.261   1.083  12.553 -0.0437 -0.7456 -0.3779
  192MPD1    C1 2919   1.352   1.191  12.547  0.2393  0.2785  0.0020
  192MPD1    C2 2920   1.476   1.166  12.502 -0.5808 -0.4410  0.9318
  192MPD1    C3 2921   1.509   1.045  12.441 -0.0209  0.1839  0.9773
  192MPD1    C4 2922   1.421   0.936  12.445  0.0400  0.6939 -0.3094
  192MPD1    C5 2923   1.300   0.962  12.499 -0.3760  0.6076  0.0570
  192MPD1     H 2924   1.547   1.247  12.517  0.3875 -0.9013 -1.1472
  192MPD1    H1 2925   1.449   0.839  12.406 -0.6191  0.2783  0.2478
  192MPD1    H2 2926   1.166   1.080  12.606  0.5098  3.0694  0.8691
  192MPD1    H3 2927   1.226   0.883  12.494 -0.2482  0.4748  0.2606
  192MPD1     N 2928   1.633   1.013  12.391 -0.4387 -0.4973  0.3347
  192MPD1    H5 2929   1.639   0.926  12.339  2.2000 -0.8656  1.2879
  192MPD1    N1 2930   1.328   1.315  12.613  0.3566 -0.4065 -0.5667
  192MPD1    H6 2931   1.231   1.346  12.620 -0.0504 -1.8237  0.2069
  192MPD1    H7 2932   1.382   1.389  12.571  0.7802 -0.2987  0.1781
  193MPD1     C 2933   2.135   0.250  16.870 -0.0864  0.4737  0.7328
  193MPD1    C1 2934   2.257   0.292  16.905 -0.3055 -0.4792  0.3791
  193MPD1    C2 2935   2.320   0.403  16.851  0.0890  0.6692 -0.1192
  193MPD1    C3 2936   2.263   0.463  16.739  0.7042 -0.5287 -0.0136
  193MPD1    C4 2937   2.137   0.423  16.699 -0.0693 -0.4139  0.6666
  193MPD1    C5 2938   2.075   0.316  16.768  0.2763 -0.2838  0.0216
  193MPD1     H 2939   2.417   0.432  16.889 -0.4375  1.5059  0.5896
  193MPD1    H1 2940   2.085   0.476  16.619 -1.2342  0.9377  2.3216
  193MPD1    H2 2941   2.087   0.173  16.930 -0.7662  1.4384  1.4324
  193MPD1    H3 2942   1.975   0.284  16.740  0.9573 -2.1812 -0.2691
  193MPD1     N 2943   2.321   0.574  16.672 -0.7940 -0.6676 -0.3943
  193MPD1    H5 2944   2.267   0.610  16.594  1.6228 -0.6800 -2.0594
  193MPD1    N1 2945   2.312   0.237  17.022 -0.0435 -0.5213 -0.2220
  193MPD1    H6 2946   2.413   0.244  17.029  0.0159 -1.9471  0.3177
  193MPD1    H7 2947   2.291   0.137  17.030  0.4928 -0.7253 -1.3628
  194MPD1     C 2948   3.980   1.765   0.391  0.0384 -0.0086 -0.1115
  194MPD1    C1 2949   3.946   1.725   0.263  0.4469  0.3090  0.6440
  194MPD1    C2 2950   4.042   1.716   0.169  0.1016 -0.4435 -0.3340
  194MPD1    C3 2951   4.170   1.760   0.204  0.5088  0.6895  0.3654
  194MPD1    C4 2952   4.196   1.810   0.330  0.4310 -0.3048 -0.5805
  194MPD1    C5 2953   4.105   1.812   0.425 -1.3166  0.4060 -0.4897
  194MPD1     H 2954   4.020   1.667   0.074  2.1360 -1.4695 -0.2722
  194MPD1    H1 2955   4.288   1.860   0.357 -0.5512  0.6539  0.9376
  194MPD1    H2 2956   3.902   1.780   0.465  0.6313 -2.5906  1.0451
  194MPD1    H3 2957   4.128   1.849   0.524 -1.4504 -2.0573  0.4492
  194MPD1     N 2958   4.284   1.757   0.115 -0.3087  0.0443 -0.0963
  194MPD1    H5 2959   4.370   1.787   0.159 -1.6815  2.0683  1.2174
  194MPD1    N1 2960   3.818   1.667   0.249 -0.1125  0.4830 -0.2130
  194MPD1    H6 2961   3.799   1.660   0.149  1.1842  0.2229 -0.4421
  194MPD1    H7 2962   3.746   1.719   0.299 -1.0378 -0.9530 -0.0619
  195MPD1     C 2963   2.097   3.909   1.131 -0.1968  0.2537 -0.6231
  195MPD1    C1 2964   1.991   3.958   1.053  0.2812  0.0617  0.9930
  195MPD1    C2 2965   2.004   3.948   0.915 -0.6860  0.3536  0.4586
  195MPD1    C3 2966   2.121   3.905   0.856  1.1650  0.0976 -0.4638
  195MPD1    C4 2967   2.232   3.883   0.930 -0.3525  0.4653 -0.5223
  195MPD1    C5 2968   2.217   3.890   1.069 -0.0894 -0.4460  0.0288
  195MPD1     H 2969   1.912   3.964   0.860  0.1680 -0.8707 -1.3597
  195MPD1    H1 2970   2.322   3.845   0.883 -0.2054 -0.1166  0.2166
  195MPD1    H2 2971   2.101   3.904   1.239  1.1503  1.4983 -0.6257
  195MPD1    H3 2972   2.307   3.877   1.127  1.4725  0.7955 -2.1179
  195MPD1     N 2973   2.130   3.885   0.715  0.2170  0.3048  0.1920
  195MPD1    H5 2974   2.208   3.831   0.681  1.1799  0.3831  2.3619
  195MPD1    N1 2975   1.863   3.983   1.107  0.0078 -0.1425  0.2250
  195MPD1    H6 2976   1.869   4.002   1.206  0.7167 -0.6464  0.2796
  195MPD1    H7 2977   1.822   4.070   1.074 -1.3250 -0.7868  0.1783
  196MPD1     C 2978   1.130   2.962   0.532 -0.2501 -0.6099 -0.1408
  196MPD1    C1 2979   1.088   3.077   0.487 -0.3750 -0.2792  0.4065
  196MPD1    C2 2980   1.152   3.192   0.527 -0.1252  0.2785  0.2720
  196MPD1    C3 2981   1.266   3.181   0.599 -0.2306  0.0989  0.3901
  196MPD1    C4 2982   1.310   3.059   0.633 -0.6892  0.1869 -0.2545
  196MPD1    C5 2983   1.242   2.949   0.601 -0.4020 -0.0506  0.1456
  196MPD1     H 2984   1.112   3.287   0.494 -0.2789  0.3683  0.7246
  196MPD1    H1 2985   1.396   3.042   0.697 -0.5783 -0.2997 -0.5282
  196MPD1    H2 2986   1.074   2.871   0.510  0.9019 -1.7682  1.7123
  196MPD1    H3 2987   1.272   2.850   0.634  0.5492 -0.4471 -1.9552
  196MPD1     N 2988   1.346   3.297   0.633  0.0760  0.2549 -0.4182
  196MPD1    H5 2989   1.420   3.279   0.701 -0.6659 -1.2653  0.0016
  196MPD1    N1 2990   0.970   3.083   0.412 -0.2065 -0.3024 -0.3710
  196MPD1    H6 2991   0.971   3.153   0.338  1.2298  0.7369  0.6332
  196MPD1    H7 2992   0.956   2.995   0.363 -1.0860 -1.8829  2.7182
  197MPD1     C 2993   1.384   1.957  17.495  0.5480 -0.3858  0.2625
  197MPD1    C1 2994   1.445   1.863  17.413 -0.1705  0.5163  0.6028
  197MPD1    C2 2995   1.375   1.810  17.311 -0.0780  0.0305 -0.0405
  197MPD1    C3 2996   1.249   1.859  17.277  0.8456 -0.3169 -0.3288
  197MPD1    C4 2997   1.203   1.969  17.342 -0.2226  0.5665 -0.8742
  197MPD1    C5 2998   1.268   2.017  17.455  0.3877  0.4271  0.5062
  197MPD1     H 2999   1.415   1.729  17.252  0.2635  0.3334 -0.2256
  197MPD1    H1 3000   1.107   2.014  17.318  0.3674  1.8412 -0.8474
  197MPD1    H2 3001   1.442   2.004  17.574  1.2496  0.8153 -0.9730
  197MPD1    H3 3002   1.239   2.109  17.504 -1.0877  1.8314 -3.0534
  197MPD1     N 3003   1.168   1.807  17.174 -0.0621  0.2399 -0.2080
  197MPD1    H5 3004   1.086   1.859  17.142  0.4821 -0.3247 -2.5229
  197MPD1    N1 3005   1.561   1.802  17.454 -0.0067 -0.1914 -0.3864
  197MPD1    H6 3006   1.611   1.763  17.374  2.5589 -0.0018  1.1091
  197MPD1    H7 3007   1.624   1.858  17.512  0.1672 -0.6469 -0.1407
  198MPD1     C 3008   2.505   4.148  15.737  0.4228 -0.2044 -0.3228
  198MPD1    C1 3009   2.490   4.218  15.856 -0.2884  0.1793  0.4116
  198MPD1    C2 3010   2.605   4.290  15.901  0.1430 -0.1004  0.1011
  198MPD1    C3 3011   2.723   4.273  15.833  0.3838 -0.1872 -0.0208
  198MPD1    C4 3012   2.741   4.180  15.735 -1.2040  0.4327  0.0091
  198MPD1    C5 3013   2.634   4.120  15.686 -0.9961  0.6282  0.3815
  198MPD1     H 3014   2.583   4.353  15.986  3.5175 -0.7055  1.4210
  198MPD1    H1 3015   2.832   4.170  15.676 -0.1832  1.7106  1.3753
  198MPD1    H2 3016   2.417   4.101  15.696 -0.5423  2.0732 -0.8552
  198MPD1    H3 3017   2.649   4.061  15.597  2.3696 -0.3907  1.6365
  198MPD1     N 3018   2.826   4.357  15.877  0.1921 -0.2706  0.0885
  198MPD1    H5 3019   2.805   4.429  15.945 -1.6336 -0.0348 -0.7144
  198MPD1    N1 3020   2.365   4.258  15.911  0.5371  0.0171 -0.0822
  198MPD1    H6 3021   2.300   4.179  15.914  0.3185  0.2414  1.3294
  198MPD1    H7 3022   2.374   4.281  16.010  0.5236  2.1473 -0.5845
  199MPD1     C 3023   0.648   4.629   9.405 -0.0462 -0.3882 -0.1011
  199MPD1    C1 3024   0.686   0.040   9.443  0.9453 -0.4332 -0.1444
  199MPD1    C2 3025   0.588   0.134   9.466  0.1907 -0.1174 -0.6018
  199MPD1    C3 3026   0.457   0.102   9.456 -0.1863 -0.0744  0.5688
  199MPD1    C4 3027   0.416   4.695   9.430  0.2786  0.3239 -0.1044
  199MPD1    C5 3028   0.510   4.604   9.397  0.3252 -0.1405 -0.2829
  199MPD1     H 3029   0.626   0.232   9.491 -1.0823  0.7669 -2.1093
  199MPD1    H1 3030   0.312   4.666   9.418  0.4756 -0.1576 -0.6928
  199MPD1    H2 3031   0.717   4.546   9.396 -0.9461 -1.1092 -0.4070
  199MPD1    H3 3032   0.483   4.508   9.355 -1.6146  1.2976 -2.3157
  199MPD1     N 3033   0.352   0.197   9.484  0.0718  0.1454  0.1124
  199MPD1    H5 3034   0.260   0.156   9.486 -0.3246  0.9975 -0.8840
  199MPD1    N1 3035   0.820   0.077   9.463 -0.2373 -0.1954 -0.0256
  199MPD1    H6 3036   0.843   0.175   9.451  1.6429 -0.5084  1.0614
  199MPD1    H7 3037   0.891   0.016   9.421 -1.0111 -1.2604  0.2077
  200MPD1     C 3038   3.941   1.208  15.046 -0.4404  0.4881  0.0160
  200MPD1    C1 3039   3.841   1.171  14.955 -0.0371 -0.1758 -0.3265
  200MPD1    C2 3040   3.880   1.102  14.845 -0.5346 -0.2296 -0.1541
  200MPD1    C3 3041   4.010   1.076  14.815 -0.3570  0.3732 -0.5943
  200MPD1    C4 3042   4.110   1.107  14.908  0.4971 -0.3490  0.4593
  200MPD1    C5 3043   4.072   1.178  15.018  0.1729  0.0829 -0.0444
  200MPD1     H 3044   3.807   1.067  14.773 -1.2871  0.5024  0.2514
  200MPD1    H1 3045   4.213   1.075  14.896  0.3793 -0.2440 -0.8149
  200MPD1    H2 3046   3.914   1.255  15.140  0.8707 -0.2477  0.7646
  200MPD1    H3 3047   4.144   1.189  15.099 -0.0873  0.9627  0.0663
  200MPD1     N 3048   4.030   1.013  14.693  0.4287  0.1529 -0.8137
  200MPD1    H5 3049   3.952   0.986  14.634 -0.9059 -0.2362  1.1296
  200MPD1    N1 3050   3.706   1.190  14.989 -0.3305  0.4707  0.0588
  200MPD1    H6 3051   3.697   1.289  15.010 -0.9099  0.0478  1.8297
  200MPD1    H7 3052   3.658   1.177  14.900 -0.0752  0.7009 -0.1140
  201MPD1     C 3053   1.691   0.666  13.196 -0.5452 -0.5641 -0.6148
  201MPD1    C1 3054   1.826   0.635  13.222 -1.1028  0.7269  0.6111
  201MPD1    C2 3055   1.846   0.497  13.235  0.2114 -0.4116 -0.1351
  201MPD1    C3 3056   1.750   0.404  13.215 -0.4151 -0.2999 -0.2449
  201MPD1    C4 3057   1.626   0.445  13.170  0.4871  0.2192  0.0892
  201MPD1    C5 3058   1.595   0.575  13.162  0.1431 -0.5964  0.0815
  201MPD1     H 3059   1.944   0.463  13.267 -0.5648  1.0346  3.7719
  201MPD1    H1 3060   1.545   0.374  13.157 -0.0391  0.5429  1.4999
  201MPD1    H2 3061   1.663   0.770  13.182  0.8935 -0.1792 -0.6745
  201MPD1    H3 3062   1.496   0.606  13.133 -0.1423 -0.3224  1.3363
  201MPD1     N 3063   1.781   0.269  13.240  0.0509  0.0076  0.3704
  201MPD1    H5 3064   1.860   0.253  13.301  0.6748 -0.8880 -0.6797
  201MPD1    N1 3065   1.921   0.738  13.244 -0.1264  0.0634  0.1051
  201MPD1    H6 3066   2.020   0.714  13.236 -0.2130  0.0283 -0.8345
  201MPD1    H7 3067   1.909   0.813  13.177  0.1660 -0.4114 -0.4902
  202MPD1     C 3068   0.883   2.673   9.144  0.1325  0.4406  0.5390
  202MPD1    C1 3069   0.874   2.816   9.135  0.3054  0.3216  0.2732
  202MPD1    C2 3070   0.995   2.869   9.154  0.5239 -0.1666 -0.0326
  202MPD1    C3 3071   1.103   2.809   9.220  0.3339 -0.8503  0.1498
  202MPD1    C4 3072   1.091   2.677   9.247 -0.5793  0.0277 -0.1531
  202MPD1    C5 3073   0.976   2.609   9.209 -0.5448 -0.4043 -0.0413
  202MPD1     H 3074   1.006   2.976   9.136  0.3464 -0.0458  0.5774
  202MPD1    H1 3075   1.169   2.624   9.300 -0.4161 -0.2403 -0.6568
  202MPD1    H2 3076   0.800   2.621   9.096  2.7115 -1.0309 -2.2892
  202MPD1    H3 3077   0.972   2.500   9.214 -0.8252 -0.4672 -1.7354
  202MPD1     N 3078   1.229   2.863   9.268 -0.1643  0.4657  0.6289
  202MPD1    H5 3079   1.290   2.792   9.308  0.3399  0.3107 -0.4301
  202MPD1    N1 3080   0.789   2.876   9.040  0.5378 -0.2679  0.0051
  202MPD1    H6 3081   0.698   2.830   9.045 -0.3485  1.3929 -1.0609
  202MPD1    H7 3082   0.776   2.974   9.062  0.1727 -0.5090  0.8306
  203MPD1     C 3083   4.719   0.210  11.692  0.5729  0.3345 -0.1968
  203MPD1    C1 3084   0.110   0.155  11.630 -0.3505 -0.5753  0.1590
  203MPD1    C2 3085   0.207   0.084  11.699  0.3443 -0.0242 -0.4985
  203MPD1    C3 3086   0.194   0.044  11.830 -0.0223  0.1846 -0.4138
  203MPD1    C4 3087   0.075   0.070  11.883  0.3925 -0.5521 -0.4659
  203MPD1    C5 3088   4.701   0.149  11.813  0.5451 -0.0615  0.8256
  203MPD1     H 3089   0.296   0.050  11.648  1.9546  0.8998  1.7386
  203MPD1    H1 3090   0.043   0.051  11.985 -0.2356 -0.6659 -0.6898
  203MPD1    H2 3091   4.637   0.264  11.647  0.7188  1.4691  0.9111
  203MPD1    H3 3092   4.606   0.169  11.862  0.2905 -2.3927  1.2811
  203MPD1     N 3093   0.301   4.708  11.905 -0.4800  0.1731 -0.6854
  203MPD1    H5 3094   0.387   4.687  11.855  0.1038  1.7416 -0.3346
  203MPD1    N1 3095   0.140   0.197  11.496  0.4701  0.9080  0.5175
  203MPD1    H6 3096   0.054   0.236  11.457 -0.8349 -0.7813  1.6707
  203MPD1    H7 3097   0.177   0.122  11.437 -0.8491  1.3527 -0.8928
  204MPD1     C 3098   3.540   0.964  17.506  0.8504  0.7469  0.2181
  204MPD1    C1 3099   3.655   0.938  17.581  0.3454  0.0430 -0.2705
  204MPD1    C2 3100   3.747   0.860  17.509 -0.1979 -0.5634 -0.1516
  204MPD1    C3 3101   3.744   0.835  17.375 -0.2291 -0.5893  0.7938
  204MPD1    C4 3102   3.627   0.869  17.305  0.1393  0.0500 -0.4143
  204MPD1    C5 3103   3.526   0.932  17.373 -0.1738  0.2150 -0.2327
  204MPD1     H 3104   3.835   0.836  17.568 -0.4678 -2.8977 -0.7221
  204MPD1    H1 3105   3.619   0.839  17.201 -1.9344  0.2761 -0.3229
  204MPD1    H2 3106   3.462   1.026  17.549  0.1508 -0.7253  1.0402
  204MPD1    H3 3107   3.438   0.958  17.314  0.3546  0.7814 -0.7755
  204MPD1     N 3108   3.869   0.801  17.315  0.7523 -0.1764 -0.2623
  204MPD1    H5 3109   3.946   0.788  17.379  0.2023 -1.1975  0.1915
  204MPD1    N1 3110   3.659   0.944   0.032 -0.6557  0.1582  0.4433
  204MPD1    H6 3111   3.622   1.031   0.069  1.3207  1.0442  0.2862
  204MPD1    H7 3112   3.750   0.923   0.073 -0.3459 -0.9046 -0.7889
  205MPD1     C 3113   0.492   4.459  16.677  0.1607 -0.1390 -0.6479
  205MPD1    C1 3114   0.370   4.522  16.652 -0.4327 -0.2135 -0.0028
  205MPD1    C2 3115   0.260   4.514  16.735  0.0855  0.5723  0.2570
  205MPD1    C3 3116   0.267   4.436  16.847  0.0464  0.0637  0.4655
  205MPD1    C4 3117   0.386   4.375  16.880  0.1394 -0.2523 -0.1872
  205MPD1    C5 3118   0.497   4.380  16.794 -0.2322 -0.1174 -0.6222
  205MPD1     H 3119   0.172   4.573  16.711 -0.2022 -0.0001 -0.0915
  205MPD1    H1 3120   0.401   4.333  16.979 -1.9962 -1.0740 -0.2132
  205MPD1    H2 3121   0.578   4.461  16.610  0.9718 -1.2452  0.3767
  205MPD1    H3 3122   0.583   4.319  16.818  0.7292  0.4384 -2.6535
  205MPD1     N 3123   0.162   4.432  16.947  0.5213  0.1036 -0.5268
  205MPD1    H5 3124   0.189   4.372  17.024  1.4370 -0.3322 -1.1889
  205MPD1    N1 3125   0.359   4.592  16.533 -0.0478  0.3650 -0.1972
  205MPD1    H6 3126   0.450   4.624  16.500 -0.6278 -0.2803 -2.4456
  205MPD1    H7 3127   0.303   4.675  16.551 -1.4583 -0.9697  1.5578
  206MPD1     C 3128   4.351   2.622  16.378  0.1800  0.3661 -0.7262
  206MPD1    C1 3129   4.281   2.733  16.363  0.4960 -0.1803  0.2044
  206MPD1    C2 3130   4.295   2.813  16.255  0.2055  0.3399 -0.5715
  206MPD1    C3 3131   4.381   2.783  16.151  0.4771  0.2021  0.6314
  206MPD1    C4 3132   4.456   2.669  16.165  0.3325 -0.0370 -0.8776
  206MPD1    C5 3133   4.427   2.582  16.268  0.3042  0.0588 -0.2832
  206MPD1     H 3134   4.219   2.889  16.243  2.0299  2.3438  0.4835
  206MPD1    H1 3135   4.532   2.638  16.094 -0.8301 -1.2937 -1.5715
  206MPD1    H2 3136   4.341   2.562  16.468  0.1035  2.6336  0.8100
  206MPD1    H3 3137   4.480   2.488  16.282  0.7983  0.5567  1.2394
  206MPD1     N 3138   4.386   2.862  16.028  0.3000 -0.5749 -1.0611
  206MPD1    H5 3139   4.441   2.823  15.953  2.0551 -1.7579  0.8317
  206MPD1    N1 3140   4.177   2.765  16.450 -0.3502  0.1171  0.5119
  206MPD1    H6 3141   4.155   2.864  16.442  0.4991  0.1848 -1.0098
  206MPD1    H7 3142   4.185   2.734  16.546  1.5782  0.9961  0.6430
  207MPD1     C 3143   1.738   4.534   9.396  0.0351 -0.3340 -0.0951
  207MPD1    C1 3144   1.792   4.464   9.496  0.1766  0.2234 -0.4484
  207MPD1    C2 3145   1.880   4.521   9.587  0.2657  0.2446  1.2081
  207MPD1    C3 3146   1.927   4.649   9.563  0.5669 -0.0731  0.0628
  207MPD1    C4 3147   1.873   0.006   9.468 -0.4696 -0.2094  0.2884
  207MPD1    C5 3148   1.776   4.667   9.380 -0.1403  0.1610  0.0355
  207MPD1     H 3149   1.914   4.472   9.678  1.0898 -0.2750  0.6082
  207MPD1    H1 3150   1.908   0.107   9.450 -0.0009 -0.3086  0.6312
  207MPD1    H2 3151   1.663   4.487   9.333  1.1814  0.0401 -1.7454
  207MPD1    H3 3152   1.735   0.006   9.299 -1.5225 -0.7473  0.0678
  207MPD1     N 3153   2.017   4.721   9.647  0.5420 -0.1461  0.4514
  207MPD1    H5 3154   2.064   0.077   9.601  0.2850 -0.2416  0.0227
  207MPD1    N1 3155   1.736   4.337   9.526 -0.6045 -0.1839  0.4200
  207MPD1    H6 3156   1.715   4.289   9.438 -1.1889  0.5794  0.1391
  207MPD1    H7 3157   1.801   4.269   9.564  0.7917 -0.8223 -3.0375
  208MPD1     C 3158   0.852   3.942  17.005 -0.5399 -0.0280  0.2080
  208MPD1    C1 3159   0.749   3.865  17.052 -0.2672 -0.3155 -0.1674
  208MPD1    C2 3160   0.718   3.864  17.189 -0.1437  0.4738 -0.8745
  208MPD1    C3 3161   0.797   3.939  17.279  0.2759  0.6665  0.7930
  208MPD1    C4 3162   0.895   4.021  17.225  0.1646 -0.5121 -0.3725
  208MPD1    C5 3163   0.922   4.023  17.087 -0.7296  0.3717 -0.7961
  208MPD1     H 3164   0.637   3.808  17.234  1.2950 -0.6947  0.3013
  208MPD1    H1 3165   0.936   4.103  17.283 -0.4348  0.4555 -1.3183
  208MPD1    H2 3166   0.876   3.947  16.899  1.8047 -0.3921  0.7315
  208MPD1    H3 3167   0.988   4.098  17.044  0.1162  0.3588  0.4741
  208MPD1     N 3168   0.752   3.925  17.414 -0.1445 -0.2228  0.0951
  208MPD1    H5 3169   0.692   3.844  17.428 -0.2203 -0.6673 -2.8358
  208MPD1    N1 3170   0.696   3.767  16.969 -0.8989  0.5191 -0.4233
  208MPD1    H6 3171   0.703   3.792  16.871 -1.4339 -0.2135 -0.6469
  208MPD1    H7 3172   0.598   3.744  16.987 -0.1298 -2.7644 -0.4674
  209MPD1     C 3173   2.573   0.758  11.286 -0.5896  0.0350 -0.0656
  209MPD1    C1 3174   2.586   0.817  11.156  0.5550 -0.6331 -0.0103
  209MPD1    C2 3175   2.624   0.734  11.051  0.6849 -0.9495 -0.3921
  209MPD1    C3 3176   2.659   0.606  11.066 -0.2861  0.3260  0.0147
  209MPD1    C4 3177   2.650   0.550  11.194 -0.1381 -0.0471  0.6991
  209MPD1    C5 3178   2.609   0.628  11.303  0.2394  0.1877  0.2424
  209MPD1     H 3179   2.626   0.775  10.950  2.0586  0.1352  0.0755
  209MPD1    H1 3180   2.681   0.447  11.201 -2.4132 -0.8146 -0.6338
  209MPD1    H2 3181   2.532   0.808  11.374  1.1386  4.5275 -1.8587
  209MPD1    H3 3182   2.603   0.586  11.403 -0.6371 -2.0248 -0.7575
  209MPD1     N 3183   2.694   0.528  10.953  0.1145  0.6017 -0.4321
  209MPD1    H5 3184   2.714   0.574  10.864  0.3085 -2.7348 -2.1266
  209MPD1    N1 3185   2.541   0.945  11.129 -0.2325  0.7124 -0.4152
  209MPD1    H6 3186   2.571   0.976  11.037  1.0900  1.6618  0.3405
  209MPD1    H7 3187   2.579   1.005  11.202  0.3105 -0.6612  0.4478
  210MPD1     C 3188   3.495   0.398  10.319  0.0512 -0.0959  0.3150
  210MPD1    C1 3189   3.457   0.493  10.420 -0.2523 -0.0757  0.4893
  210MPD1    C2 3190   3.342   0.469  10.498 -0.5429 -0.4151  0.2763
  210MPD1    C3 3191   3.258   0.365  10.464 -0.6408 -1.1751  1.4262
  210MPD1    C4 3192   3.295   0.272  10.357 -0.3801  0.0342 -0.2066
  210MPD1    C5 3193   3.413   0.293  10.295 -0.3399 -0.1751  0.5039
  210MPD1     H 3194   3.320   0.531  10.584  0.3234 -1.1734  1.0467
  210MPD1    H1 3195   3.230   0.195  10.318  0.7560  0.6113 -3.2135
  210MPD1    H2 3196   3.585   0.412  10.260 -0.0512  1.7033  0.5769
  210MPD1    H3 3197   3.433   0.229  10.210 -3.3210  1.4733 -1.4626
  210MPD1     N 3198   3.135   0.344  10.522 -0.3401 -0.3932  0.0358
  210MPD1    H5 3199   3.098   0.253  10.494 -3.0947  0.6059  0.4454
  210MPD1    N1 3200   3.557   0.579  10.476  0.6903  0.4501 -0.0489
  210MPD1    H6 3201   3.512   0.655  10.527 -0.0610 -0.3701  0.5025
  210MPD1    H7 3202   3.612   0.626  10.404  1.6952  1.9900  1.7313
  211MPD1     C 3203   0.901   4.056  16.611  0.0238 -0.3982  0.1519
  211MPD1    C1 3204   0.775   3.993  16.599 -0.4214  0.3238 -0.8042
  211MPD1    C2 3205   0.678   4.061  16.529 -0.8193  0.3122  0.2611
  211MPD1    C3 3206   0.702   4.182  16.466 -0.2033  0.5229  0.6533
  211MPD1    C4 3207   0.824   4.243  16.470  0.1529  0.2922 -0.0990
  211MPD1    C5 3208   0.921   4.174  16.542  0.0987  0.3123 -0.0449
  211MPD1     H 3209   0.583   4.010  16.514 -1.6466  1.6475  1.0101
  211MPD1    H1 3210   0.847   4.338  16.424 -2.2170  0.0940 -1.7034
  211MPD1    H2 3211   0.986   4.020  16.668  0.7830 -0.1008 -0.7871
  211MPD1    H3 3212   1.022   4.212  16.539  0.8444 -1.6119  0.4490
  211MPD1     N 3213   0.595   4.238  16.396  0.3572  0.2386 -0.2364
  211MPD1    H5 3214   0.506   4.191  16.398  0.6383 -0.2273  1.4003
  211MPD1    N1 3215   0.733   3.884  16.681 -0.0773  0.7068  0.5208
  211MPD1    H6 3216   0.798   3.808  16.665 -2.2626 -0.9222 -0.5664
  211MPD1    H7 3217   0.650   3.850  16.635 -0.6112 -0.6313  2.4724
  212MPD1     C 3218   4.250   3.215  16.643  0.3720 -0.3263 -0.0825
  212MPD1    C1 3219   4.325   3.102  16.668 -0.4965 -0.2432 -0.3327
  212MPD1    C2 3220   4.262   2.981  16.701 -0.4529  0.0922  0.3735
  212MPD1    C3 3221   4.131   2.976  16.740  0.7009  0.2757 -0.1168
  212MPD1    C4 3222   4.060   3.088  16.716 -0.1280  0.2244 -0.3267
  212MPD1    C5 3223   4.114   3.200  16.664 -0.3127  0.1263  0.2195
  212MPD1     H 3224   4.324   2.892  16.699  1.2140  1.2508  0.3575
  212MPD1    H1 3225   3.952   3.088  16.733 -0.2152  2.4600 -0.8697
  212MPD1    H2 3226   4.287   3.314  16.618  1.9552 -0.6835  0.8237
  212MPD1    H3 3227   4.045   3.284  16.659 -1.1334 -0.5516  0.2895
  212MPD1     N 3228   4.063   2.856  16.788 -0.3674 -0.0183 -0.0904
  212MPD1    H5 3229   3.965   2.859  16.813 -0.4571 -0.9416 -0.3534
  212MPD1    N1 3230   4.450   3.112  16.605  0.0629 -0.6431  0.2515
  212MPD1    H6 3231   4.499   3.197  16.633 -0.0648 -0.5988  0.3419
  212MPD1    H7 3232   4.513   3.035  16.623 -0.2025 -0.3928  2.2795
  213MPD1     C 3233   2.052   4.548  16.114  0.1618  0.9132  0.3815
  213MPD1    C1 3234   1.987   4.437  16.171 -0.1959 -0.2204 -0.0180
  213MPD1    C2 3235   1.984   4.332  16.081 -0.2271 -0.8735  0.1679
  213MPD1    C3 3236   1.992   4.342  15.942 -0.1481  0.4638 -0.4921
  213MPD1    C4 3237   2.038   4.464  15.893  0.1118 -0.7375  0.3931
  213MPD1    C5 3238   2.057   4.573  15.979  1.1130 -0.1183  0.1469
  213MPD1     H 3239   1.961   4.229  16.106  3.9094 -2.0531 -0.7883
  213MPD1    H1 3240   2.079   4.482  15.794  0.0491 -1.5096  0.2253
  213MPD1    H2 3241   2.061   4.643  16.165 -3.6235  0.6126  1.6473
  213MPD1    H3 3242   2.107   4.663  15.946 -0.6129  0.2526 -1.4873
  213MPD1     N 3243   1.953   4.233  15.860 -0.7591  0.4726 -0.1889
  213MPD1    H5 3244   1.907   4.155  15.906 -0.5075 -1.1414 -2.6695
  213MPD1    N1 3245   2.019   4.421  16.306  0.4168  0.3759 -0.3924
  213MPD1    H6 3246   1.954   4.352  16.341  0.6070  1.3631  1.9372
  213MPD1    H7 3247   1.999   4.501  16.366 -2.1228  1.0849 -2.2016
  214MPD1     C 3248   1.506   3.356  15.761 -0.0397  0.1580 -0.1189
  214MPD1    C1 3249   1.527   3.454  15.853 -0.0998 -0.4425  0.0291
  214MPD1    C2 3250   1.602   3.571  15.819  0.2998 -0.2210 -0.1027
  214MPD1    C3 3251   1.626   3.597  15.683  0.5479 -0.1444 -0.2297
  214MPD1    C4 3252   1.588   3.504  15.591  0.1559  0.3341  0.1260
  214MPD1    C5 3253   1.529   3.386  15.630  0.0026 -0.1408 -0.7374
  214MPD1     H 3254   1.622   3.642  15.898  0.5838 -0.6730  0.2393
  214MPD1    H1 3255   1.613   3.517  15.486 -0.4374 -0.0740 -0.0675
  214MPD1    H2 3256   1.459   3.259  15.776 -0.6714  0.6265  0.9158
  214MPD1    H3 3257   1.502   3.314  15.554 -0.6340  0.3527 -0.9735
  214MPD1     N 3258   1.686   3.714  15.631  0.1221 -0.0053 -0.5128
  214MPD1    H5 3259   1.704   3.719  15.531  0.9058 -2.2223 -0.4814
  214MPD1    N1 3260   1.505   3.428  15.989 -0.4325 -0.5887  0.3419
  214MPD1    H6 3261   1.425   3.367  16.003  1.1607 -2.7098  0.1193
  214MPD1    H7 3262   1.499   3.503  16.059  0.3936  2.3728 -2.7528
  215MPD1     C 3263   1.959   4.182  10.894 -0.4614  0.5416  0.3989
  215MPD1    C1 3264   2.023   4.232  11.005  0.4015  0.1750  0.2992
  215MPD1    C2 3265   2.008   4.365  11.048  0.1746  0.2999  0.0969
  215MPD1    C3 3266   1.945   4.461  10.968 -0.7301  0.4092  0.0407
  215MPD1    C4 3267   1.893   4.411  10.855  0.3525  0.3770 -0.2891
  215MPD1    C5 3268   1.893   4.277  10.825 -0.2085 -0.4294  0.1431
  215MPD1     H 3269   2.044   4.394  11.146  0.0639  0.7119  0.0159
  215MPD1    H1 3270   1.834   4.475  10.790  0.9097  2.7685  1.5613
  215MPD1    H2 3271   1.952   4.078  10.864 -1.0665  0.8292 -0.4398
  215MPD1    H3 3272   1.838   4.241  10.738  0.1548  0.1872 -0.3417
  215MPD1     N 3273   1.944   4.598  11.012  0.0387  0.2529 -0.1505
  215MPD1    H5 3274   1.973   4.620  11.107  0.3422  1.6247 -0.5537
  215MPD1    N1 3275   2.082   4.139  11.089 -0.2664  0.3694 -1.0455
  215MPD1    H6 3276   2.108   4.043  11.065 -0.2445  0.1620 -0.1933
  215MPD1    H7 3277   2.162   4.185  11.132 -1.7701  1.0370  1.0041
  216MPD1     C 3278   3.736   1.990   0.793  0.6349 -0.0866 -0.0280
  216MPD1    C1 3279   3.874   1.991   0.787  0.0647  0.0197 -0.5728
  216MPD1    C2 3280   3.940   1.871   0.755 -0.5232  0.3151  0.3221
  216MPD1    C3 3281   3.869   1.750   0.743 -0.0551  0.3352  0.5478
  216MPD1    C4 3282   3.729   1.753   0.738  0.4093 -0.3021 -0.5412
  216MPD1    C5 3283   3.668   1.874   0.777 -0.7675  0.6237  0.2680
  216MPD1     H 3284   4.048   1.882   0.748 -0.6007  0.2446 -0.9688
  216MPD1    H1 3285   3.666   1.667   0.722 -0.4310 -0.0511  1.3837
  216MPD1    H2 3286   3.694   2.086   0.824  0.4652 -0.2894  0.3669
  216MPD1    H3 3287   3.560   1.873   0.773 -0.7999  0.8817  1.0896
  216MPD1     N 3288   3.953   1.636   0.735  0.0729  0.1956  0.0583
  216MPD1    H5 3289   4.054   1.643   0.741 -0.2232  1.9703  2.5951
  216MPD1    N1 3290   3.951   2.108   0.797  0.1406 -0.2825  0.0445
  216MPD1    H6 3291   4.044   2.094   0.837 -0.0094  0.7520  0.7644
  216MPD1    H7 3292   3.907   2.191   0.836 -0.4899 -0.2922 -0.6538
  217MPD1     C 3293   0.270   3.388   8.485  0.2583 -0.4951 -0.4264
  217MPD1    C1 3294   0.366   3.295   8.520 -0.1645 -0.2100 -0.2524
  217MPD1    C2 3295   0.380   3.261   8.653  0.9646  0.1482 -0.0413
  217MPD1    C3 3296   0.309   3.327   8.754 -0.0836 -0.4382 -0.3321
  217MPD1    C4 3297   0.207   3.405   8.711  0.0818  0.2781 -0.4890
  217MPD1    C5 3298   0.197   3.445   8.582  0.0426 -0.3560 -0.1446
  217MPD1     H 3299   0.448   3.186   8.691  2.2285  1.5907  0.5308
  217MPD1    H1 3300   0.142   3.459   8.779  3.2111  0.5355  2.3082
  217MPD1    H2 3301   0.252   3.419   8.382 -0.6732 -1.5011 -0.5587
  217MPD1    H3 3302   0.121   3.520   8.561 -2.2685 -2.6008  0.3185
  217MPD1     N 3303   0.334   3.321   8.895  0.2506  0.4314  0.1852
  217MPD1    H5 3304   0.268   3.379   8.944  0.2897  0.5062  0.1499
  217MPD1    N1 3305   0.446   3.229   8.427 -0.0670 -0.7376  0.4784
  217MPD1    H6 3306   0.543   3.220   8.458 -0.8040 -0.8862  2.8040
  217MPD1    H7 3307   0.442   3.273   8.336  0.8811 -1.5717  0.0390
  218MPD1     C 3308   1.455   0.147  12.735  0.8854 -0.3897 -0.1441
  218MPD1    C1 3309   1.579   0.181  12.784 -0.0435 -0.0037 -0.6393
  218MPD1    C2 3310   1.688   0.108  12.741  0.4009  0.0825  1.0541
  218MPD1    C3 3311   1.670   0.004  12.655  0.0254 -0.7267  0.8946
  218MPD1    C4 3312   1.543   4.689  12.609  0.0470 -0.0612 -0.3545
  218MPD1    C5 3313   1.436   0.040  12.649  0.3876 -0.3266 -0.0921
  218MPD1     H 3314   1.789   0.143  12.757  0.8409 -0.8316  0.2757
  218MPD1    H1 3315   1.520   4.600  12.552 -1.2326 -1.0312  1.6520
  218MPD1    H2 3316   1.376   0.215  12.764  0.0706 -1.5232  0.3128
  218MPD1    H3 3317   1.337   0.016  12.612  0.8911 -1.1258 -0.9306
  218MPD1     N 3318   1.787   4.666  12.596 -0.0617 -0.5991 -0.0428
  218MPD1    H5 3319   1.879   4.706  12.612 -0.2916  0.2372 -0.7760
  218MPD1    N1 3320   1.597   0.310  12.846  0.0254  0.5383 -0.2292
  218MPD1    H6 3321   1.509   0.346  12.882  0.1689 -2.5306  3.2230
  218MPD1    H7 3322   1.659   0.305  12.927  1.7709 -2.1656 -1.7449
  219MPD1     C 3323   1.889   0.009  11.630 -0.2633  0.5742 -0.0911
  219MPD1    C1 3324   1.972   0.085  11.704 -0.4892  0.1223 -0.0625
  219MPD1    C2 3325   2.005   0.043  11.833 -0.2355 -0.1305  0.4732
  219MPD1    C3 3326   1.959   4.636  11.877  0.0253  0.0128  0.2300
  219MPD1    C4 3327   1.878   4.561  11.797  0.1861  0.5014 -0.1781
  219MPD1    C5 3328   1.839   4.613  11.676 -0.0116  0.7545 -0.4718
  219MPD1     H 3329   2.047   0.114  11.904 -0.8816 -0.0995  0.8333
  219MPD1    H1 3330   1.829   4.471  11.832 -0.0049  0.6971  0.0557
  219MPD1    H2 3331   1.863   0.039  11.530  1.2425  1.7150 -0.1311
  219MPD1    H3 3332   1.765   4.558  11.618  0.3783 -0.1782 -0.0930
  219MPD1     N 3333   1.976   4.587  12.013 -0.1807 -0.5630  0.1360
  219MPD1    H5 3334   1.940   4.496  12.040 -0.2956 -0.4260  0.4436
  219MPD1    N1 3335   1.994   0.220  11.666  0.1849  0.0427  0.5139
  219MPD1    H6 3336   2.080   0.257  11.705  1.3752 -0.2304 -1.8702
  219MPD1    H7 3337   2.004   0.229  11.565  1.6952  0.9493  0.7410
  220MPD1     C 3338   2.598   1.133   9.529  0.1773  0.5179  0.1685
  220MPD1    C1 3339   2.690   1.071   9.607  0.4204 -0.3084  0.0632
  220MPD1    C2 3340   2.652   0.972   9.698  0.3584 -0.3373 -0.0175
  220MPD1    C3 3341   2.515   0.944   9.711  0.4753 -0.3546 -0.2330
  220MPD1    C4 3342   2.423   1.003   9.624 -0.2929 -0.0228  0.0436
  220MPD1    C5 3343   2.470   1.096   9.538  0.9753  0.7801 -0.1303
  220MPD1     H 3344   2.727   0.918   9.755 -0.4452 -1.5654 -0.1128
  220MPD1    H1 3345   2.319   0.973   9.629 -0.7544  1.5852  0.1143
  220MPD1    H2 3346   2.628   1.208   9.456  0.2863 -1.2029 -1.5397
  220MPD1    H3 3347   2.404   1.146   9.468  1.0803  1.0048 -0.0693
  220MPD1     N 3348   2.475   0.839   9.801 -0.4224  0.0611  0.1986
  220MPD1    H5 3349   2.550   0.806   9.860 -1.2019 -2.5867 -0.3132
  220MPD1    N1 3350   2.826   1.096   9.581  0.1797 -0.5140  0.6340
  220MPD1    H6 3351   2.880   1.094   9.667  3.4960 -1.0437 -1.4513
  220MPD1    H7 3352   2.851   1.184   9.535  0.0923 -0.9348 -0.2177
  221MPD1     C 3353   3.726   4.322  16.365  0.7339 -0.6671  0.5420
  221MPD1    C1 3354   3.811   4.409  16.309 -0.7518 -0.4757 -0.4130
  221MPD1    C2 3355   3.946   4.372  16.316 -0.0336  0.5756 -1.3359
  221MPD1    C3 3356   3.993   4.247  16.351  1.1480 -0.0435 -0.1162
  221MPD1    C4 3357   3.893   4.158  16.386  0.6739 -0.0537  0.4998
  221MPD1    C5 3358   3.763   4.197  16.405 -0.1590  0.3180  0.5530
  221MPD1     H 3359   4.018   4.448  16.286  0.6382  0.5922  0.3218
  221MPD1    H1 3360   3.905   4.053  16.410 -0.2720 -0.7085 -1.9058
  221MPD1    H2 3361   3.627   4.363  16.378  0.4662 -0.9442 -0.6626
  221MPD1    H3 3362   3.688   4.136  16.454  0.5835 -0.7917  0.3080
  221MPD1     N 3363   4.131   4.214  16.358  0.2774  0.4371 -0.2114
  221MPD1    H5 3364   4.191   4.293  16.334  1.2408 -0.6827 -1.5113
  221MPD1    N1 3365   3.778   4.540  16.273  0.3886 -0.7208  0.3393
  221MPD1    H6 3366   3.841   4.577  16.201  0.2636 -0.8855  0.1439
  221MPD1    H7 3367   3.685   4.544  16.232  0.8128  0.6250 -0.4935
  222MPD1     C 3368   3.968   1.550  16.916 -0.6791 -0.5780 -0.4487
  222MPD1    C1 3369   3.924   1.668  16.870 -0.2837  0.2581 -0.3005
  222MPD1    C2 3370   3.905   1.767  16.968  0.2084 -0.2114  0.0231
  222MPD1    C3 3371   3.910   1.744  17.105 -0.1117 -1.1778  0.4810
  222MPD1    C4 3372   3.949   1.622  17.149  0.5709  0.1470 -0.6365
  222MPD1    C5 3373   3.982   1.533  17.053  0.0226  0.4510  0.5075
  222MPD1     H 3374   3.869   1.864  16.934  2.3645  0.7958  0.6121
  222MPD1    H1 3375   3.946   1.591  17.253  3.2199 -1.7026 -1.1157
  222MPD1    H2 3376   4.007   1.476  16.848  0.2954  0.8323 -1.4333
  222MPD1    H3 3377   4.027   1.440  17.084  0.4080  0.2527 -0.6563
  222MPD1     N 3378   3.870   1.844  17.203 -0.2914  0.2728 -0.7915
  222MPD1    H5 3379   3.843   1.814  17.296 -1.2370 -0.5970 -1.3360
  222MPD1    N1 3380   3.911   1.689  16.737  0.3460  0.2596 -0.3229
  222MPD1    H6 3381   3.890   1.607  16.681 -0.9189  0.1133  0.3899
  222MPD1    H7 3382   3.843   1.758  16.706 -0.7678 -0.3987  0.7121
  223MPD1     C 3383   3.714   2.108   0.449  0.0473  0.5854  0.1768
  223MPD1    C1 3384   3.751   2.225   0.371  0.3173 -0.1671 -0.2220
  223MPD1    C2 3385   3.746   2.215   0.230  0.1707  0.1945 -0.0886
  223MPD1    C3 3386   3.701   2.100   0.168 -0.1679  0.1038  0.3333
  223MPD1    C4 3387   3.655   1.995   0.245 -0.4553 -0.2814  1.1244
  223MPD1    C5 3388   3.659   2.001   0.379 -0.1619 -0.0622  0.0594
  223MPD1     H 3389   3.772   2.293   0.159  3.0524 -0.5502  0.1666
  223MPD1    H1 3390   3.620   1.902   0.201  0.9529  0.1080 -0.8400
  223MPD1    H2 3391   3.711   2.100   0.557 -0.9379  0.3457  0.1283
  223MPD1    H3 3392   3.621   1.916   0.434  0.7086 -0.8791 -0.6100
  223MPD1     N 3393   3.697   2.110   0.027 -0.0181  0.2676 -0.6259
  223MPD1    H5 3394   3.725   2.202  17.681  0.6952 -0.3587 -1.8261
  223MPD1    N1 3395   3.797   2.345   0.428 -0.4347  0.4381 -0.1516
  223MPD1    H6 3396   3.761   2.420   0.369  0.2351 -0.2396 -1.4359
  223MPD1    H7 3397   3.755   2.370   0.517 -0.5945 -1.4814  0.3147
  224MPD1     C 3398   0.233   3.847   9.073  0.5650  0.0815 -0.1850
  224MPD1    C1 3399   0.342   3.778   9.031 -0.1144 -0.8693 -0.6536
  224MPD1    C2 3400   0.469   3.816   9.075  0.1195  0.1174 -0.6234
  224MPD1    C3 3401   0.488   3.911   9.172  0.6071 -0.5554  0.7220
  224MPD1    C4 3402   0.378   3.982   9.222 -0.0067 -0.1861  0.0234
  224MPD1    C5 3403   0.256   3.945   9.170 -0.8577 -0.5103 -0.4804
  224MPD1     H 3404   0.552   3.779   9.017  0.6805  0.7515 -0.2219
  224MPD1    H1 3405   0.386   4.057   9.300 -0.9764  1.0054 -1.0223
  224MPD1    H2 3406   0.130   3.845   9.039  1.2885 -0.1332 -2.3299
  224MPD1    H3 3407   0.173   4.004   9.206  0.6224  0.9191  0.6013
  224MPD1     N 3408   0.611   3.941   9.238 -0.7871 -0.7492 -0.2357
  224MPD1    H5 3409   0.609   4.016   9.307  0.4070 -1.8856  1.0462
  224MPD1    N1 3410   0.331   3.690   8.922 -0.2595 -0.1784  0.0643
  224MPD1    H6 3411   0.247   3.633   8.920 -1.0450  1.1016 -2.3074
  224MPD1    H7 3412   0.418   3.637   8.924  0.7270  1.4112 -0.6854
  225MPD1     C 3413   2.268   0.745  11.771 -0.8961 -0.2644 -0.1607
  225MPD1    C1 3414   2.211   0.868  11.789  0.8796  0.6155  0.0440
  225MPD1    C2 3415   2.074   0.876  11.820 -0.0902 -0.6945  0.2335
  225MPD1    C3 3416   1.993   0.765  11.833  0.7070 -0.1503  0.5954
  225MPD1    C4 3417   2.054   0.639  11.806 -0.3782 -0.0874  0.1879
  225MPD1    C5 3418   2.187   0.638  11.777 -0.0745 -0.1926 -0.9474
  225MPD1     H 3419   2.031   0.975  11.822  0.2749 -0.5110 -1.7289
  225MPD1    H1 3420   2.006   0.542  11.805  0.7570 -0.6549  1.0020
  225MPD1    H2 3421   2.375   0.728  11.762 -1.3094 -1.7285 -2.4370
  225MPD1    H3 3422   2.225   0.538  11.793  0.0353  0.1344  0.8611
  225MPD1     N 3423   1.860   0.764  11.875 -0.2758  0.6122 -0.1710
  225MPD1    H5 3424   1.813   0.675  11.883 -1.3189  1.1290 -0.5854
  225MPD1    N1 3425   2.292   0.979  11.789  0.2679 -0.5143 -0.1519
  225MPD1    H6 3426   2.243   1.068  11.776 -0.3245 -0.7053  0.7624
  225MPD1    H7 3427   2.379   0.977  11.737  0.0889 -0.8338 -0.4370
  226MPD1     C 3428   4.698   4.420   9.272 -0.4730  0.4948  0.2414
  226MPD1    C1 3429   0.102   4.379   9.236 -0.0565 -0.0415 -0.1462
  226MPD1    C2 3430   0.179   4.473   9.171 -0.1431  0.4837 -0.4269
  226MPD1    C3 3431   0.141   4.609   9.168 -0.2620 -0.0554  0.5094
  226MPD1    C4 3432   0.017   4.643   9.216  0.1914 -0.2802  0.2482
  226MPD1    C5 3433   4.662   4.548   9.263 -0.1477  0.0732 -0.2193
  226MPD1     H 3434   0.277   4.449   9.132  0.0498 -1.0609  0.9609
  226MPD1    H1 3435   4.697   0.023   9.214  0.3960 -0.2355 -1.6969
  226MPD1    H2 3436   4.627   4.342   9.296  0.8758 -0.9563 -0.4675
  226MPD1    H3 3437   4.562   4.576   9.294 -1.4822 -1.7804 -2.8538
  226MPD1     N 3438   0.233   4.702   9.119  0.0614  0.9416  0.4421
  226MPD1    H5 3439   0.322   4.672   9.082  0.2197  0.7854  0.9530
  226MPD1    N1 3440   0.130   4.239   9.221 -0.2220 -0.0598  0.5089
  226MPD1    H6 3441   0.228   4.221   9.237  0.0277  1.6418  0.8525
  226MPD1    H7 3442   0.082   4.192   9.298  0.8422  0.6307  1.5773
  227MPD1     C 3443   0.520   1.042   8.959  0.2771  0.5212 -0.6973
  227MPD1    C1 3444   0.605   0.991   9.049  0.6208  0.5286 -0.0673
  227MPD1    C2 3445   0.584   0.860   9.086  0.2468  0.0987 -0.4337
  227MPD1    C3 3446   0.482   0.779   9.038 -0.2024  0.9527  0.1401
  227MPD1    C4 3447   0.380   0.841   8.973 -0.4592  0.7883  0.0319
  227MPD1    C5 3448   0.404   0.976   8.936 -0.5023  0.1316 -0.1713
  227MPD1     H 3449   0.660   0.805   9.140  0.5462  0.1096 -0.8407
  227MPD1    H1 3450   0.297   0.785   8.931 -0.0339  0.7591 -0.7714
  227MPD1    H2 3451   0.539   1.139   8.914 -1.8288  0.3334 -1.9504
  227MPD1    H3 3452   0.320   1.022   8.885 -1.4109 -2.2959 -0.8494
  227MPD1     N 3453   0.472   0.641   9.071  0.1051  0.8113 -0.0761
  227MPD1    H5 3454   0.549   0.609   9.129 -0.3985  0.0624  0.1850
  227MPD1    N1 3455   0.729   1.051   9.063  0.2029 -0.3773  0.1720
  227MPD1    H6 3456   0.782   1.018   9.143 -0.2444  0.2757  0.7366
  227MPD1    H7 3457   0.713   1.151   9.075  0.8905 -0.0426 -1.7060
  228MPD1     C 3458   3.890   3.648  12.447 -0.2341  0.8934 -0.0845
  228MPD1    C1 3459   3.780   3.729  12.442 -0.5254  1.0634 -0.5990
  228MPD1    C2 3460   3.661   3.684  12.498 -0.2599 -0.5187  0.2218
  228MPD1    C3 3461   3.656   3.567  12.569  0.9254 -0.2970  0.0120
  228MPD1    C4 3462   3.768   3.488  12.574 -0.2119  0.0606 -0.3210
  228MPD1    C5 3463   3.885   3.527  12.510 -0.2881  0.1412 -0.0475
  228MPD1     H 3464   3.570   3.739  12.476 -0.5896 -0.7484  1.0352
  228MPD1    H1 3465   3.764   3.389  12.619  2.1223  1.0106  1.9074
  228MPD1    H2 3466   3.978   3.669  12.387 -0.2106  0.8157 -0.0769
  228MPD1    H3 3467   3.970   3.460  12.513 -0.6398 -0.2891  0.3010
  228MPD1     N 3468   3.529   3.533  12.621  0.2384 -0.6304 -0.2512
  228MPD1    H5 3469   3.446   3.589  12.603  1.8833  2.0517  0.6072
  228MPD1    N1 3470   3.782   3.831  12.344 -0.5819 -0.2241  0.0326
  228MPD1    H6 3471   3.731   3.917  12.364  2.2673  1.0289  1.9236
  228MPD1    H7 3472   3.877   3.867  12.335 -0.0519 -1.7525 -0.5587
  229MPD1     C 3473   2.808   2.172  14.770  1.0263  0.1402  0.5356
  229MPD1    C1 3474   2.877   2.098  14.671 -0.0428  0.5211  0.0912
  229MPD1    C2 3475   2.981   2.009  14.706 -0.4485  0.2606  0.6228
  229MPD1    C3 3476   3.004   1.971  14.839  0.2869 -0.0208 -0.2408
  229MPD1    C4 3477   2.913   2.030  14.933  0.8235  0.4289  0.9192
  229MPD1    C5 3478   2.822   2.124  14.898 -0.6588 -0.1489 -0.0670
  229MPD1     H 3479   3.045   1.976  14.625 -0.5298  0.4514  0.4818
  229MPD1    H1 3480   2.916   2.002  15.038  4.3538  0.7250  0.9145
  229MPD1    H2 3481   2.734   2.248  14.752  0.5310 -0.1316  1.4314
  229MPD1    H3 3482   2.744   2.156  14.967  0.5374  0.7856  0.8434
  229MPD1     N 3483   3.108   1.888  14.885  0.3054  0.2967 -0.4419
  229MPD1    H5 3484   3.100   1.871  14.985 -1.8020 -1.5583 -0.9539
  229MPD1    N1 3485   2.857   2.131  14.536  0.1700  0.0307 -0.6541
  229MPD1    H6 3486   2.898   2.062  14.474 -0.8485 -1.2042  0.0433
  229MPD1    H7 3487   2.760   2.110  14.515 -0.6603  3.1238  0.1113
  230MPD1     C 3488   3.895   1.746  15.446  0.6707 -0.0475 -0.8071
  230MPD1    C1 3489   3.881   1.612  15.408  0.1829  0.9086  0.3516
  230MPD1    C2 3490   3.760   1.582  15.347  1.3156  0.4746  0.4234
  230MPD1    C3 3491   3.661   1.672  15.327 -0.7019  0.0985  0.0277
  230MPD1    C4 3492   3.677   1.805  15.375  0.2163  0.1629 -0.2768
  230MPD1    C5 3493   3.793   1.835  15.437  0.8091  0.4514  0.0802
  230MPD1     H 3494   3.755   1.484  15.301 -2.3977  1.2842 -0.8680
  230MPD1    H1 3495   3.601   1.878  15.352 -0.4598 -0.7375 -0.8941
  230MPD1    H2 3496   3.989   1.783  15.483  0.2032 -1.0589  1.4236
  230MPD1    H3 3497   3.806   1.937  15.470 -0.7200  0.6783 -0.0224
  230MPD1     N 3498   3.564   1.639  15.233 -0.3885 -0.5258 -0.0203
  230MPD1    H5 3499   3.570   1.545  15.194 -3.8193 -0.6330 -0.2628
  230MPD1    N1 3500   3.996   1.533  15.421  0.0554 -0.3404  0.1370
  230MPD1    H6 3501   4.053   1.555  15.502 -1.0272  2.8124  0.0241
  230MPD1    H7 3502   3.982   1.433  15.405 -1.9343  0.0820 -0.7503
  231MPD1     C 3503   0.750   3.458  15.540  0.0988 -0.6548  0.5064
  231MPD1    C1 3504   0.746   3.530  15.426  0.1111  0.3128 -0.3636
  231MPD1    C2 3505   0.844   3.624  15.403 -0.7804  0.2058  0.3080
  231MPD1    C3 3506   0.943   3.653  15.498  0.5398 -1.0583  0.3627
  231MPD1    C4 3507   0.946   3.579  15.616  0.0527  0.8815 -0.6661
  231MPD1    C5 3508   0.842   3.487  15.636  0.7036  0.1148  0.0605
  231MPD1     H 3509   0.846   3.681  15.311 -2.5795 -1.2133 -0.5930
  231MPD1    H1 3510   1.019   3.585  15.697 -2.7818  0.7001  1.9224
  231MPD1    H2 3511   0.685   3.372  15.555  1.6198 -1.7710  0.7355
  231MPD1    H3 3512   0.839   3.435  15.731  0.6081 -1.0062 -0.5589
  231MPD1     N 3513   1.041   3.747  15.458  0.1514  0.0345 -0.1803
  231MPD1    H5 3514   1.024   3.793  15.369  2.6597 -1.0093 -1.1853
  231MPD1    N1 3515   0.652   3.497  15.323  0.5952  0.1494 -0.1909
  231MPD1    H6 3516   0.639   3.582  15.269  0.0950 -0.3744 -0.8908
  231MPD1    H7 3517   0.566   3.472  15.372 -0.7857 -0.1406 -2.7544
  232MPD1     C 3518   2.866   4.287   1.104 -0.2445  0.1139 -0.5811
  232MPD1    C1 3519   2.765   4.354   1.045  0.0845 -0.2582 -0.3914
  232MPD1    C2 3520   2.750   4.341   0.911  0.6683  0.7811 -0.4692
  232MPD1    C3 3521   2.821   4.248   0.834 -0.1553 -0.4998 -1.0222
  232MPD1    C4 3522   2.918   4.167   0.895 -0.7414  0.1152  0.0574
  232MPD1    C5 3523   2.929   4.189   1.029  0.2669  0.1663  0.6503
  232MPD1     H 3524   2.680   4.402   0.855 -0.2696  1.5430  1.5184
  232MPD1    H1 3525   2.972   4.090   0.841  2.9854  2.7026  0.0964
  232MPD1    H2 3526   2.893   4.293   1.209 -0.1644  0.1648 -0.6051
  232MPD1    H3 3527   2.990   4.122   1.088  0.6954 -1.0758 -1.2251
  232MPD1     N 3528   2.803   4.253   0.693 -0.3077 -0.7383  0.3574
  232MPD1    H5 3529   2.740   4.326   0.662  1.2117  0.3354 -0.1778
  232MPD1    N1 3530   2.688   4.444   1.122 -0.3527 -0.1363  0.4584
  232MPD1    H6 3531   2.597   4.456   1.078  0.1365  0.7154 -0.3145
  232MPD1    H7 3532   2.669   4.401   1.213  0.0458 -2.2219 -0.4533
  233MPD1     C 3533   1.499   0.179   2.257 -0.0957  0.4895 -0.9002
  233MPD1    C1 3534   1.587   0.078   2.265  0.0678  0.7386  0.8081
  233MPD1    C2 3535   1.563   4.684   2.190  0.4154  0.0972  0.3350
  233MPD1    C3 3536   1.449   4.671   2.116  1.3672 -0.3434  0.1896
  233MPD1    C4 3537   1.363   0.061   2.107  0.7651  0.2526 -0.0947
  233MPD1    C5 3538   1.385   0.170   2.180 -0.6414  0.0539 -0.4186
  233MPD1     H 3539   1.634   4.603   2.183  1.2591  0.8068  0.6202
  233MPD1    H1 3540   1.269   0.061   2.053 -1.1329 -0.9410  3.2191
  233MPD1    H2 3541   1.508   0.272   2.313 -1.0352 -0.6504  1.1264
  233MPD1    H3 3542   1.316   0.253   2.179  0.1234  0.7097  0.6403
  233MPD1     N 3543   1.415   4.564   2.034 -0.0341  0.1884  0.1443
  233MPD1    H5 3544   1.333   4.573   1.974 -0.9411  1.9577  1.6640
  233MPD1    N1 3545   1.708   0.093   2.330 -0.1228 -0.0484  0.0179
  233MPD1    H6 3546   1.741   0.006   2.372  0.1862  0.7229  1.3879
  233MPD1    H7 3547   1.706   0.161   2.406 -0.2516 -0.3420  0.2761
  234MPD1     C 3548   1.456   2.689  10.448  0.3971  0.2298  0.2827
  234MPD1    C1 3549   1.479   2.820  10.424  0.4156 -0.3716  0.6416
  234MPD1    C2 3550   1.449   2.876  10.302 -0.2130 -0.3317  0.6018
  234MPD1    C3 3551   1.426   2.795  10.190 -0.0699 -0.1614  1.1491
  234MPD1    C4 3552   1.428   2.659  10.210  0.9291  0.9999 -0.1295
  234MPD1    C5 3553   1.443   2.611  10.341  0.3063 -1.0608 -0.7398
  234MPD1     H 3554   1.451   2.985  10.298 -1.6470 -0.3542 -0.5019
  234MPD1    H1 3555   1.391   2.591  10.135  1.8056  0.3820 -0.0035
  234MPD1    H2 3556   1.461   2.636  10.542  1.9738  1.3831  0.8690
  234MPD1    H3 3557   1.423   2.506  10.359 -1.9966 -0.5044 -0.0741
  234MPD1     N 3558   1.400   2.857  10.065  0.1271 -0.3841  0.2641
  234MPD1    H5 3559   1.389   2.958  10.073 -2.8671 -0.6219 -0.7704
  234MPD1    N1 3560   1.495   2.907  10.533  0.4574  0.1725 -0.2646
  234MPD1    H6 3561   1.540   2.874  10.618  0.2184  1.0824  0.2156
  234MPD1    H7 3562   1.536   2.995  10.502  3.7335 -0.6111  1.8322
  235MPD1     C 3563   1.508   2.782   8.607  0.3157  0.1425 -0.7978
  235MPD1    C1 3564   1.429   2.678   8.650 -0.3770  0.5632 -0.2729
  235MPD1    C2 3565   1.479   2.561   8.694 -0.0302 -0.1182 -0.2476
  235MPD1    C3 3566   1.613   2.543   8.687  0.2169  0.3815  0.8603
  235MPD1    C4 3567   1.693   2.655   8.660  0.2210  0.3071  0.2315
  235MPD1    C5 3568   1.644   2.776   8.620 -0.7776  0.0080  0.2680
  235MPD1     H 3569   1.409   2.482   8.720  0.0379 -0.1027 -0.0167
  235MPD1    H1 3570   1.801   2.652   8.656  0.2485  2.4363 -0.3050
  235MPD1    H2 3571   1.460   2.865   8.556  2.5331 -0.1345 -3.3464
  235MPD1    H3 3572   1.715   2.849   8.584 -0.0272 -0.2344  1.2568
  235MPD1     N 3573   1.662   2.418   8.719  0.4986 -0.6747 -0.3837
  235MPD1    H5 3574   1.593   2.343   8.724 -0.4945  0.1538 -1.6854
  235MPD1    N1 3575   1.290   2.690   8.630 -0.6060 -0.5304 -0.1986
  235MPD1    H6 3576   1.239   2.643   8.705 -0.2540 -1.2384 -0.4122
  235MPD1    H7 3577   1.268   2.789   8.637  0.6858 -0.1437 -1.5121
  236MPD1     C 3578   1.562   1.734   9.244 -0.7437  0.4536  0.1527
  236MPD1    C1 3579   1.552   1.671   9.361  0.3167  0.4297  0.1738
  236MPD1    C2 3580   1.664   1.666   9.443  0.3669  0.8226  0.1681
  236MPD1    C3 3581   1.787   1.723   9.413  0.2437 -0.2375  0.1702
  236MPD1    C4 3582   1.789   1.779   9.291 -1.0779  0.3325 -0.1204
  236MPD1    C5 3583   1.683   1.781   9.205 -0.1334 -0.3762 -0.7312
  236MPD1     H 3584   1.671   1.622   9.542 -0.6993  1.0479  0.3461
  236MPD1    H1 3585   1.875   1.837   9.258  0.7746 -2.4766 -0.2166
  236MPD1    H2 3586   1.481   1.744   9.172 -1.9889 -0.8699  1.3763
  236MPD1    H3 3587   1.691   1.839   9.114  0.6578  0.1810 -0.3102
  236MPD1     N 3588   1.906   1.722   9.493  0.9425  0.3198 -1.0033
  236MPD1    H5 3589   1.982   1.775   9.453  1.3314 -0.0173 -0.7171
  236MPD1    N1 3590   1.424   1.614   9.395  0.4727 -0.0274  0.6654
  236MPD1    H6 3591   1.343   1.639   9.340 -0.4903  1.4132  2.7497
  236MPD1    H7 3592   1.403   1.564   9.482 -0.0840 -1.1547 -0.1164
  237MPD1     C 3593   1.886   4.647  15.646 -0.8659 -0.6149 -0.3663
  237MPD1    C1 3594   1.770   4.602  15.705  0.5406 -0.6165  0.4371
  237MPD1    C2 3595   1.655   4.613  15.632  0.3102 -0.4649 -0.4611
  237MPD1    C3 3596   1.657   4.656  15.501 -0.2004 -0.3972 -0.0284
  237MPD1    C4 3597   1.772   4.701  15.440 -0.5981  0.4294 -0.1689
  237MPD1    C5 3598   1.889   4.690  15.514 -0.3752  0.1425  0.4206
  237MPD1     H 3599   1.560   4.590  15.679  0.8035  0.3053  0.8893
  237MPD1    H1 3600   1.774   0.023  15.341 -2.2140  0.4280 -0.1935
  237MPD1    H2 3601   1.981   4.641  15.699 -0.7562  1.0931 -0.3531
  237MPD1    H3 3602   1.983   0.001  15.470 -0.2500 -0.1373  0.4825
  237MPD1     N 3603   1.537   4.664  15.423  0.0253  0.2367  0.1383
  237MPD1    H5 3604   1.540   4.685  15.323  2.2721 -1.0209 -0.0472
  237MPD1    N1 3605   1.767   4.553  15.836  0.9262 -0.2517  0.0069
  237MPD1    H6 3606   1.687   4.491  15.851 -0.2117  0.6977 -2.0905
  237MPD1    H7 3607   1.856   4.520  15.871  0.5221 -0.1210  1.1455
  238MPD1     C 3608   3.575   3.018  14.965  0.3471 -0.9960  0.2567
  238MPD1    C1 3609   3.634   3.141  14.979  0.2874 -0.7557 -0.4242
  238MPD1    C2 3610   3.560   3.259  14.972 -0.4880 -0.4285  0.9131
  238MPD1    C3 3611   3.425   3.247  14.943  0.7157  0.1877 -0.1393
  238MPD1    C4 3612   3.364   3.125  14.939 -0.1970  0.5597  0.4100
  238MPD1    C5 3613   3.441   3.010  14.956  0.8012 -0.6143 -1.0007
  238MPD1     H 3614   3.602   3.359  14.978 -0.4151 -0.3309 -1.1028
  238MPD1    H1 3615   3.257   3.116  14.929 -0.3422  1.0906  1.5215
  238MPD1    H2 3616   3.627   2.924  14.949 -0.3483 -1.6041  1.5888
  238MPD1    H3 3617   3.395   2.912  14.956 -1.0480  0.2348  2.4018
  238MPD1     N 3618   3.340   3.354  14.921 -0.1288  0.0703  0.3366
  238MPD1    H5 3619   3.244   3.328  14.901 -0.5406  2.2631 -0.4860
  238MPD1    N1 3620   3.773   3.146  14.997  0.0960 -0.3649 -0.4045
  238MPD1    H6 3621   3.817   3.058  15.023 -1.9793 -1.3367 -0.2301
  238MPD1    H7 3622   3.809   3.213  15.065 -0.3497  0.1184 -0.6524
  239MPD1     C 3623   3.418   4.263  14.342 -0.0124 -0.0969  0.3553
  239MPD1    C1 3624   3.368   4.345  14.435 -0.1087 -0.8374  0.2176
  239MPD1    C2 3625   3.305   4.464  14.395 -0.4506 -0.3898 -0.5000
  239MPD1    C3 3626   3.290   4.490  14.255 -0.0426  0.1649 -1.0060
  239MPD1    C4 3627   3.344   4.406  14.162  0.0719  0.4551 -0.8225
  239MPD1    C5 3628   3.406   4.287  14.205  0.1113  0.7225 -0.2385
  239MPD1     H 3629   3.284   4.532  14.477 -0.7926 -0.1314 -0.8049
  239MPD1    H1 3630   3.337   4.426  14.056 -0.4576  0.8740 -0.7087
  239MPD1    H2 3631   3.475   4.175  14.367 -0.3425 -0.2929  0.4169
  239MPD1    H3 3632   3.452   4.228  14.127  0.7321  0.0597  0.6229
  239MPD1     N 3633   3.224   4.606  14.211  0.4773 -0.2194 -0.0732
  239MPD1    H5 3634   3.219   4.624  14.111 -0.0437  2.6437  0.4816
  239MPD1    N1 3635   3.384   4.311  14.570  0.1026  0.0466 -0.2571
  239MPD1    H6 3636   3.312   4.353  14.628  0.2443 -1.6723  1.1477
  239MPD1    H7 3637   3.393   4.211  14.588 -1.2182  0.1570  1.0031
  240MPD1     C 3638   2.637   4.234  13.769 -0.1322  0.2039 -0.1921
  240MPD1    C1 3639   2.683   4.109  13.801 -0.1405  0.6276  0.3081
  240MPD1    C2 3640   2.681   4.071  13.933  0.4620 -0.2921 -1.0113
  240MPD1    C3 3641   2.640   4.156  14.035  0.1781  0.3204  0.0659
  240MPD1    C4 3642   2.583   4.274  14.003 -0.7301 -0.1489 -0.6256
  240MPD1    C5 3643   2.587   4.310  13.871 -0.3296  0.0189  0.9481
  240MPD1     H 3644   2.711   3.972  13.965  1.4541  0.7945  1.4013
  240MPD1    H1 3645   2.552   4.356  14.066 -1.0862  0.3511 -1.4498
  240MPD1    H2 3646   2.634   4.278  13.670 -1.9356  0.9302  0.1729
  240MPD1    H3 3647   2.541   4.405  13.844 -0.5353 -0.1994  0.5406
  240MPD1     N 3648   2.634   4.118  14.177  0.0736 -0.0289  0.9272
  240MPD1    H5 3649   2.660   4.023  14.202 -1.8635 -0.6485  0.6182
  240MPD1    N1 3650   2.699   4.023  13.696  0.2909 -0.8026  0.1142
  240MPD1    H6 3651   2.758   3.949  13.732  0.0106 -1.3190 -0.4921
  240MPD1    H7 3652   2.765   4.066  13.631  0.9447  0.0226  1.3252
  241MPD1     C 3653   2.752   4.640  15.049  0.9772  0.8983 -0.4539
  241MPD1    C1 3654   2.716   4.521  15.090  0.0088  0.1018  0.2692
  241MPD1    C2 3655   2.676   4.426  14.993 -0.2395 -0.0558 -0.6928
  241MPD1    C3 3656   2.683   4.450  14.856  0.1010 -0.2512  0.1401
  241MPD1    C4 3657   2.741   4.574  14.825 -0.3760 -0.0790 -0.7597
  241MPD1    C5 3658   2.768   4.666  14.920 -0.2558  0.5489  0.1811
  241MPD1     H 3659   2.610   4.348  15.030 -0.7484  1.2558  1.1557
  241MPD1    H1 3660   2.766   4.601  14.723  0.2558  1.0503 -0.3134
  241MPD1    H2 3661   2.776   4.720  15.117 -0.6689 -0.3244  1.5349
  241MPD1    H3 3662   2.804   0.043  14.890 -1.4829 -0.2578 -3.9233
  241MPD1     N 3663   2.644   4.362  14.754  0.2358 -0.4927  0.7268
  241MPD1    H5 3664   2.657   4.389  14.657 -2.9180  0.5548  0.5661
  241MPD1    N1 3665   2.688   4.496  15.223 -0.1883 -0.3569  0.5691
  241MPD1    H6 3666   2.701   4.397  15.243 -2.9897 -0.5789  1.2483
  241MPD1    H7 3667   2.742   4.549  15.292 -0.3129 -0.9814  1.1480
  242MPD1     C 3668   2.873   3.157  16.096 -0.0143 -0.2589  0.5716
  242MPD1    C1 3669   2.759   3.184  16.025 -0.3582 -0.6489 -0.4642
  242MPD1    C2 3670   2.745   3.122  15.903 -0.5192 -0.6565 -0.0259
  242MPD1    C3 3671   2.847   3.046  15.838 -0.2404  0.4426  0.0137
  242MPD1    C4 3672   2.959   3.027  15.907  0.4750 -0.5016 -0.3121
  242MPD1    C5 3673   2.968   3.075  16.039 -0.5839  0.0717  0.4135
  242MPD1     H 3674   2.650   3.147  15.856  0.7759  0.9686 -1.7782
  242MPD1    H1 3675   3.043   2.971  15.868  2.0126  1.3296  0.3342
  242MPD1    H2 3676   2.896   3.186  16.198  0.1410  0.5161  0.3149
  242MPD1    H3 3677   3.055   3.061  16.102 -0.2287  0.6484  0.0523
  242MPD1     N 3678   2.836   2.997  15.704 -0.5950 -0.2020 -0.4999
  242MPD1    H5 3679   2.913   2.939  15.671 -0.8290 -0.9953  0.3342
  242MPD1    N1 3680   2.669   3.285  16.067 -0.2859 -0.4239 -0.2111
  242MPD1    H6 3681   2.570   3.276  16.047 -0.5066 -0.6519  0.9908
  242MPD1    H7 3682   2.666   3.291  16.169 -1.2228 -0.3829 -0.2408
  243MPD1     C 3683   4.385   1.319   0.040  1.2675 -0.1118 -0.2569
  243MPD1    C1 3684   4.500   1.399   0.032  0.0602  0.4927  0.3489
  243MPD1    C2 3685   4.554   1.428  17.594  0.0584 -0.4636  0.6435
  243MPD1    C3 3686   4.518   1.361  17.482 -0.5009  0.5176 -0.2420
  243MPD1    C4 3687   4.429   1.252  17.500 -0.1150 -0.5471  0.6138
  243MPD1    C5 3688   4.351   1.248  17.613  0.3587  0.3802 -0.1718
  243MPD1     H 3689   4.637   1.498  17.591 -0.4471  0.1763  1.5286
  243MPD1    H1 3690   4.408   1.192  17.413  0.7050  2.2498 -1.5096
  243MPD1    H2 3691   4.318   1.318   0.125  1.2768  0.1586 -0.2469
  243MPD1    H3 3692   4.265   1.182  17.610  0.3334  0.3843  0.3901
  243MPD1     N 3693   4.586   1.387  17.362 -0.3022 -0.0505 -0.8788
  243MPD1    H5 3694   4.665   1.449  17.378 -0.1530 -0.5008  0.0823
  243MPD1    N1 3695   4.521   1.488   0.138  0.3287  0.2266  0.0162
  243MPD1    H6 3696   4.494   1.470   0.234  0.4011  0.5802  0.1035
  243MPD1    H7 3697   4.614   1.529   0.143  0.1589  0.4473  1.3609
  244MPD1     C 3698   0.651   1.320  17.605 -0.0235 -0.0977  0.5454
  244MPD1    C1 3699   0.551   1.228  17.627 -0.0800 -0.2545 -0.0850
  244MPD1    C2 3700   0.445   1.215  17.539 -0.1585  0.1332  0.3920
  244MPD1    C3 3701   0.452   1.285  17.422 -0.0216  0.3204 -0.8578
  244MPD1    C4 3702   0.560   1.365  17.394 -0.5597 -0.0156  0.4334
  244MPD1    C5 3703   0.656   1.389  17.485 -0.2140  0.5447 -0.4468
  244MPD1     H 3704   0.370   1.142  17.566  0.0358  0.7122  2.5134
  244MPD1    H1 3705   0.576   1.423  17.304  0.4774 -1.2886 -0.2022
  244MPD1    H2 3706   0.725   1.336  17.683  1.5319  0.4724 -1.0430
  244MPD1    H3 3707   0.736   1.455  17.456  0.5833  0.1874  0.8974
  244MPD1     N 3708   0.346   1.282  17.335  0.2107  0.3727  0.0637
  244MPD1    H5 3709   0.271   1.217  17.355  0.6908 -1.1317 -2.9809
  244MPD1    N1 3710   0.551   1.171   0.071 -0.0535 -0.1526 -0.3778
  244MPD1    H6 3711   0.643   1.151   0.109 -0.2753 -0.8239 -0.2004
  244MPD1    H7 3712   0.509   1.078   0.074  0.3354 -0.3213 -0.1748
  245MPD1     C 3713   1.000   2.090  12.705 -0.1400  0.8757  0.2335
  245MPD1    C1 3714   0.985   2.045  12.836  0.7848 -0.7325 -0.0325
  245MPD1    C2 3715   1.067   2.100  12.933  0.1334 -0.2417 -0.4560
  245MPD1    C3 3716   1.160   2.192  12.907  0.0458 -0.1067 -0.6300
  245MPD1    C4 3717   1.179   2.236  12.776  0.3688  0.2732 -0.1825
  245MPD1    C5 3718   1.101   2.178  12.679 -0.1680  0.2013 -0.4474
  245MPD1     H 3719   1.060   2.062  13.034 -0.1246 -1.9162 -1.0943
  245MPD1    H1 3720   1.239   2.323  12.752  0.5337  0.8602  2.3245
  245MPD1    H2 3721   0.933   2.052  12.629 -1.1817  1.1938  0.9903
  245MPD1    H3 3722   1.126   2.209  12.578 -0.5681  2.9560  0.2893
  245MPD1     N 3723   1.239   2.237  13.016 -0.9254  0.1867 -0.2002
  245MPD1    H5 3724   1.204   2.206  13.107  0.7899  0.0980  0.4186
  245MPD1    N1 3725   0.901   1.927  12.860  0.7452 -0.6579 -0.1576
  245MPD1    H6 3726   0.817   1.922  12.803  0.4868  3.5967 -0.1302
  245MPD1    H7 3727   0.893   1.906  12.960 -1.7357 -0.0905 -0.2460
  246MPD1     C 3728   1.186   4.253   8.845  0.3033 -0.5743  0.4329
  246MPD1    C1 3729   1.314   4.257   8.900 -0.2129  0.4151 -0.7638
  246MPD1    C2 3730   1.392   4.147   8.908  0.1906 -0.2532  0.1948
  246MPD1    C3 3731   1.353   4.036   8.835  0.0829 -0.4867 -0.0522
  246MPD1    C4 3732   1.226   4.031   8.773 -0.0136  0.5964  0.8529
  246MPD1    C5 3733   1.143   4.138   8.786 -0.0915 -0.6006 -0.6163
  246MPD1     H 3734   1.485   4.152   8.965  0.5559  1.7305 -0.6009
  246MPD1    H1 3735   1.194   3.949   8.710 -3.5669  1.1322  1.9866
  246MPD1    H2 3736   1.122   4.339   8.855  1.5293  0.3469  0.3330
  246MPD1    H3 3737   1.046   4.145   8.738  0.9763 -1.2413 -2.8732
  246MPD1     N 3738   1.443   3.928   8.841  0.2929 -0.1939  0.3426
  246MPD1    H5 3739   1.529   3.952   8.890 -0.3359 -0.6551  1.6917
  246MPD1    N1 3740   1.339   4.378   8.974 -0.2946 -1.0044  0.0074
  246MPD1    H6 3741   1.304   4.463   8.930  1.8640 -0.3551 -0.4679
  246MPD1    H7 3742   1.440   4.390   8.979 -0.3407 -1.2723  1.6078
  247MPD1     C 3743   0.381   1.714  16.079  1.2266  1.2440  0.7668
  247MPD1    C1 3744   0.348   1.668  15.959 -0.6549  0.6229 -0.4053
  247MPD1    C2 3745   0.417   1.563  15.912  0.4982 -0.4788  0.3435
  247MPD1    C3 3746   0.523   1.507  15.992  0.4862  0.3756 -0.6860
  247MPD1    C4 3747   0.542   1.549  16.120 -0.2044 -0.5838  0.1447
  247MPD1    C5 3748   0.476   1.656  16.162 -0.4190  0.3168  0.0375
  247MPD1     H 3749   0.398   1.541  15.808 -0.7896 -4.8946  1.5100
  247MPD1    H1 3750   0.625   1.512  16.179  0.3678 -2.3794 -1.7747
  247MPD1    H2 3751   0.340   1.803  16.126  0.8163  1.8026 -0.6353
  247MPD1    H3 3752   0.499   1.702  16.258  1.5867  1.6792 -1.0896
  247MPD1     N 3753   0.608   1.406  15.946  0.1565 -0.0507  0.1710
  247MPD1    H5 3754   0.669   1.373  16.020 -0.4990  1.1997  1.2855
  247MPD1    N1 3755   0.268   1.747  15.873  0.3309 -0.3788  0.0398
  247MPD1    H6 3756   0.208   1.815  15.920  0.5548  0.0904 -0.3583
  247MPD1    H7 3757   0.216   1.683  15.813  1.8546 -0.9648 -0.6434
  248MPD1     C 3758   2.423   2.537  17.680 -0.4706  0.6428 -0.3405
  248MPD1    C1 3759   2.493   2.596   0.097  0.4081  0.0911 -0.3055
  248MPD1    C2 3760   2.421   2.650   0.201 -0.2129 -0.2392  0.2679
  248MPD1    C3 3761   2.292   2.606   0.226  0.3602 -0.8547  0.1169
  248MPD1    C4 3762   2.227   2.532   0.126  0.5560 -0.0123  0.5735
  248MPD1    C5 3763   2.288   2.505   0.003 -0.4529 -0.0630 -0.2531
  248MPD1     H 3764   2.468   2.709   0.278 -0.3167  0.9646 -0.5797
  248MPD1    H1 3765   2.121   2.507   0.126  1.0802 -2.2056 -1.0745
  248MPD1    H2 3766   2.484   2.519  17.592 -0.7191 -2.8670  0.2357
  248MPD1    H3 3767   2.230   2.475  17.602 -1.0080 -0.6823  0.3296
  248MPD1     N 3768   2.230   2.645   0.341 -0.4387 -0.1453  0.0483
  248MPD1    H5 3769   2.282   2.695   0.413  0.4958  0.4089 -1.0188
  248MPD1    N1 3770   2.624   2.640   0.071 -0.2894  0.1788  0.1800
  248MPD1    H6 3771   2.687   2.635   0.151 -0.7799  1.1075  0.6275
  248MPD1    H7 3772   2.676   2.598  17.680 -1.3116 -1.0608  0.1654
  249MPD1     C 3773   3.014   4.350   9.427 -0.6741 -0.0479  0.2190
  249MPD1    C1 3774   2.909   4.415   9.490 -0.5769  0.0196 -0.7204
  249MPD1    C2 3775   2.944   4.516   9.582  0.0172  0.4778 -0.8186
  249MPD1    C3 3776   3.074   4.533   9.622 -0.1324 -0.0327  0.6399
  249MPD1    C4 3777   3.172   4.446   9.579 -0.6069  0.3605 -0.1479
  249MPD1    C5 3778   3.148   4.364   9.471 -0.2266  0.0421  0.4114
  249MPD1     H 3779   2.871   4.585   9.624 -1.0377 -0.9797 -0.2788
  249MPD1    H1 3780   3.277   4.453   9.605 -0.1517 -4.0137 -0.7919
  249MPD1    H2 3781   3.006   4.276   9.348  2.1785  0.9703 -1.0466
  249MPD1    H3 3782   3.230   4.308   9.427  1.0483  0.2955  2.5088
  249MPD1     N 3783   3.097   4.638   9.714  0.1904  0.1109 -0.3474
  249MPD1    H5 3784   3.014   4.690   9.740 -1.0989 -1.1301 -1.9932
  249MPD1    N1 3785   2.781   4.411   9.431  0.1146  0.4229  0.3537
  249MPD1    H6 3786   2.761   4.322   9.388 -2.3246  0.3930  1.5303
  249MPD1    H7 3787   2.707   4.436   9.497  1.7229  0.7416  2.0463
  250MPD2     C 3788   3.787   0.523  13.178 -0.1111  0.1845  0.0127
  250MPD2    C1 3789   3.756   0.577  13.051  0.6835  0.1955  0.2259
  250MPD2    C2 3790   3.651   0.523  12.974  0.0004 -0.2122  0.6644
  250MPD2    C3 3791   3.575   0.421  13.023 -0.0600  0.2347  0.2115
  250MPD2    C4 3792   3.607   0.371  13.146 -0.0600  1.1609  0.6200
  250MPD2    C5 3793   3.705   0.425  13.224 -0.0462 -0.2958 -0.3143
  250MPD2     H 3794   3.633   0.571  12.879 -0.5289 -0.6879  0.5295
  250MPD2    H1 3795   3.544   0.293  13.188  1.0881  0.5854  1.2619
  250MPD2    H2 3796   3.871   0.555  13.239  0.7717 -0.9443 -0.6180
  250MPD2    H3 3797   3.714   0.392  13.327  1.7385  1.1411 -0.0142
  250MPD2     N 3798   3.466   0.357  12.960 -0.4783 -0.5293  0.0866
  250MPD2    H5 3799   3.436   0.269  13.002  1.8472 -2.2879 -1.9159
  250MPD2    N1 3800   3.838   0.685  13.000 -0.3125  0.0286 -0.0777
  250MPD2    H7 3801   3.903   0.731  13.062  2.7154 -0.3232 -2.9606
  251TMC3    C1 3802   3.925   0.847  12.854 -0.9848  0.2077  0.6894
  251TMC3    C2 3803   3.871   0.959  12.915 -0.5033  0.4870  0.3877
  251TMC3    C3 3804   3.945   1.072  12.892 -0.9805 -0.6315  0.5613
  251TMC3    C4 3805   4.037   0.854  12.768 -0.0517 -0.1053  0.0545
  251TMC3    C5 3806   4.083   0.976  12.727 -0.0943  0.7848  0.3569
  251TMC3    C6 3807   4.045   1.084  12.801  0.1730 -0.3314  0.6358
  251TMC3     C 3808   3.843   0.729  12.870  0.1171  0.0091 -0.5173
  251TMC3     O 3809   3.799   0.672  12.771  0.3771  0.1318 -0.4543
  251TMC3     H 3810   3.794   0.950  12.990 -0.6966  1.8858  0.3566
  251TMC3    H1 3811   4.072   0.767  12.715  0.9860  0.7243 -0.6196
  251TMC3    H2 3812   4.101   1.176  12.791 -0.3987 -0.0381  0.1018
  251TMC3    C7 3813   4.222   0.987  12.703  0.5060 -0.4751 -0.2023
  251TMC3    C8 3814   3.918   1.176  12.989  0.4054 -0.7346 -0.2206
  251TMC3    O1 3815   4.294   0.889  12.736 -0.0616 -0.3018 -0.3058
  251TMC3    O2 3816   3.960   1.288  12.958  0.3833 -0.4814  0.3294
  252TMC3    C1 3817   0.470   1.606   9.347 -0.2551  0.1072 -0.0790
  252TMC3    C2 3818   0.558   1.538   9.416  0.4745  0.2090  0.0563
  252TMC3    C3 3819   0.564   1.404   9.409 -0.4988  0.9893  1.2795
  252TMC3    C4 3820   0.381   1.538   9.260 -0.0813  0.0549  0.4877
  252TMC3    C5 3821   0.391   1.406   9.244  0.0281  0.0244 -0.1668
  252TMC3    C6 3822   0.481   1.336   9.320  0.1549  0.0511  0.4134
  252TMC3     C 3823   0.492   1.750   9.322 -0.2555  0.1511 -0.7274
  252TMC3     O 3824   0.399   1.816   9.274  0.3988  0.3649 -0.3098
  252TMC3     H 3825   0.614   1.588   9.494  0.5374  0.6660 -0.2844
  252TMC3    H1 3826   0.300   1.590   9.210  1.3077  0.4753 -1.3439
  252TMC3    H2 3827   0.497   1.228   9.320 -0.3294 -0.0079 -1.6861
  252TMC3    C7 3828   0.275   1.348   9.183  0.1220  0.3048 -0.4571
  252TMC3    C8 3829   0.651   1.322   9.490 -0.5084 -0.6952  0.0540
  252TMC3    O1 3830   0.221   1.415   9.092 -1.3437 -0.0469  0.2718
  252TMC3    O2 3831   0.709   1.236   9.431  0.4899 -0.2747  0.6321
  253MPD2     C 3832   1.323   0.391  15.431 -0.9569  0.3414 -0.0982
  253MPD2    C1 3833   1.192   0.435  15.425  0.3077  0.1287  0.2359
  253MPD2    C2 3834   1.101   0.391  15.524 -0.3728  0.0140  0.6124
  253MPD2    C3 3835   1.133   0.284  15.605 -0.3173 -0.5350  0.1527
  253MPD2    C4 3836   1.263   0.234  15.606 -0.1678 -0.0932 -0.1292
  253MPD2    C5 3837   1.353   0.288  15.518  0.3272  0.4868  0.4366
  253MPD2     H 3838   0.997   0.422  15.522  0.6558  3.4021 -0.7983
  253MPD2    H1 3839   1.294   0.159  15.678 -1.5928  0.6839  1.3107
  253MPD2    H2 3840   1.398   0.424  15.360  0.0590 -0.2138  0.7158
  253MPD2    H3 3841   1.453   0.247  15.522 -0.0322 -0.4923 -0.6786
  253MPD2     N 3842   1.028   0.222  15.676 -0.1685 -0.3077 -0.4340
  253MPD2    H5 3843   1.048   0.130  15.713  1.2252  1.2129  2.5539
  253MPD2    N1 3844   1.138   0.519  15.320 -0.5449 -0.8518 -0.6068
  253MPD2    H7 3845   1.041   0.548  15.329  0.2630  1.4970  0.5176
  254TMC3    C1 3846   0.808   0.178  15.753 -0.0181 -0.4051  0.0706
  254TMC3    C2 3847   0.679   0.222  15.750 -0.2354  0.6180 -0.4046
  254TMC3    C3 3848   0.601   0.229  15.859 -0.5796  0.2671  0.1520
  254TMC3    C4 3849   0.858   0.112  15.867  0.0397 -0.1716  0.7697
  254TMC3    C5 3850   0.780   0.117  15.974  0.6535  0.3665 -0.1678
  254TMC3    C6 3851   0.654   0.177  15.976  0.0688 -0.7725 -0.0492
  254TMC3     C 3852   0.895   0.272  15.691  0.3107  0.1554 -0.0742
  254TMC3     O 3853   0.852   0.385  15.681 -0.2159 -0.7258  0.5398
  254TMC3     H 3854   0.639   0.278  15.666  0.6484  0.2479 -1.0746
  254TMC3    H1 3855   0.960   0.080  15.884  0.3545 -0.6251 -1.9720
  254TMC3    H2 3856   0.600   0.187  16.070 -0.1015 -2.0313 -0.0203
  254TMC3    C7 3857   0.828   0.062  16.098  0.7588 -0.3579  0.4106
  254TMC3    C8 3858   0.510   0.335  15.885  0.0258 -0.6254  0.1760
  254TMC3    O1 3859   0.769   0.105  16.200  0.5771 -0.0198 -0.1210
  254TMC3    O2 3860   0.477   0.358  16.000  0.0900 -0.4489  0.0549
  255MPD2     C 3861   4.212   3.297  10.694 -0.5129  0.4667 -0.4656
  255MPD2    C1 3862   4.214   3.355  10.574  0.2610  0.6983  0.7970
  255MPD2    C2 3863   4.297   3.311  10.477  0.3197  0.7518  0.3477
  255MPD2    C3 3864   4.375   3.200  10.497  0.3119 -0.8959 -0.0014
  255MPD2    C4 3865   4.374   3.143  10.623  0.6594  0.3013 -0.4949
  255MPD2    C5 3866   4.288   3.192  10.720 -0.0344 -0.1899 -0.1566
  255MPD2     H 3867   4.301   3.341  10.373 -0.7636 -1.6902 -0.4059
  255MPD2    H1 3868   4.438   3.059  10.644 -1.0998 -1.0149 -0.4456
  255MPD2    H2 3869   4.147   3.333  10.772  0.4740  0.1248  0.5103
  255MPD2    H3 3870   4.278   3.147  10.818  1.1974  0.7659  0.4160
  255MPD2     N 3871   4.459   3.162  10.394 -0.6899  0.1122  0.3157
  255MPD2    H5 3872   4.449   3.205  10.303  0.1392 -1.3359 -0.4719
  255MPD2    N1 3873   4.123   3.462  10.549 -0.5003 -0.3429 -0.3379
  255MPD2    H7 3874   4.040   3.478  10.606  0.7266 -1.3767  1.7183
  256TMC3    C1 3875   4.058   3.658  10.416 -0.1211  0.0714  0.0558
  256TMC3    C2 3876   4.114   3.772  10.359 -0.0916  0.0061  0.0184
  256TMC3    C3 3877   4.038   3.847  10.274 -0.0003 -0.0308  0.4847
  256TMC3    C4 3878   3.933   3.617  10.376 -0.7326 -0.0165 -1.0685
  256TMC3    C5 3879   3.854   3.695  10.295  0.1742 -0.4055 -0.1950
  256TMC3    C6 3880   3.907   3.808  10.239 -0.1731  0.4573 -0.0184
  256TMC3     C 3881   4.157   3.554  10.451  0.3225 -0.2261 -0.5427
  256TMC3     O 3882   4.268   3.579  10.409  0.7109 -0.6403  0.3768
  256TMC3     H 3883   4.209   3.817  10.383 -0.9313  2.8134 -1.9718
  256TMC3    H1 3884   3.891   3.526  10.416 -0.9386  1.1121  1.3232
  256TMC3    H2 3885   3.859   3.860  10.157 -2.8145 -2.4504 -0.3040
  256TMC3    C7 3886   3.775   3.621  10.199  0.1642 -0.2533  1.1076
  256TMC3    C8 3887   4.124   3.900  10.165 -0.1387 -0.2430 -0.3039
  256TMC3    O1 3888   3.810   3.627  10.085  0.0136 -0.1527 -0.4379
  256TMC3    O2 3889   4.229   3.954  10.189 -0.3332 -0.0770  0.0710
  257MPD2     C 3890   3.141   1.050  13.083 -0.1568  0.4360 -0.1850
  257MPD2    C1 3891   3.057   0.982  12.995 -0.1356  0.1755 -0.8101
  257MPD2    C2 3892   2.979   0.876  13.041 -0.3567 -0.3734  0.5362
  257MPD2    C3 3893   2.989   0.846  13.182 -0.1474 -0.4382 -0.2898
  257MPD2    C4 3894   3.073   0.919  13.270  0.2849  0.1841  0.3061
  257MPD2    C5 3895   3.144   1.025  13.221 -0.7307  0.6291  0.2277
  257MPD2     H 3896   2.917   0.820  12.972 -0.0971 -0.2237  0.1835
  257MPD2    H1 3897   3.088   0.883  13.371 -1.5362 -0.3177  0.4082
  257MPD2    H2 3898   3.199   1.136  13.052 -0.2778  0.0789 -1.4281
  257MPD2    H3 3899   3.211   1.080  13.286 -0.3733 -0.4706  0.7936
  257MPD2     N 3900   2.916   0.733  13.215 -0.3034 -0.3448 -0.5685
  257MPD2    H5 3901   2.869   0.681  13.142 -0.2372 -1.7538  0.3779
  257MPD2    N1 3902   3.059   1.021  12.860  0.4865 -0.2160  0.2434
  257MPD2    H7 3903   3.111   1.107  12.843  0.4031  0.2335  2.2998
  258TMC3    C1 3904   2.828   0.549  13.338  0.4300  0.9301  1.0214
  258TMC3    C2 3905   2.698   0.542  13.292 -0.4376 -0.0993  0.2128
  258TMC3    C3 3906   2.636   0.417  13.266 -0.0728  0.6713 -0.1144
  258TMC3    C4 3907   2.898   0.432  13.362 -0.1912 -0.1592 -0.5791
  258TMC3    C5 3908   2.837   0.312  13.330  1.0192  0.0692 -0.5694
  258TMC3    C6 3909   2.707   0.300  13.276  0.5198  0.4868 -0.5598
  258TMC3     C 3910   2.900   0.674  13.345  0.3667 -0.2030 -0.3778
  258TMC3     O 3911   2.943   0.720  13.455  0.1146  0.7251 -0.1024
  258TMC3     H 3912   2.645   0.634  13.271 -1.2796 -0.6932 -0.2653
  258TMC3    H1 3913   3.000   0.437  13.399 -0.3715 -0.6460 -0.0031
  258TMC3    H2 3914   2.667   0.202  13.254  0.2010  0.9803 -2.1575
  258TMC3    C7 3915   2.908   0.189  13.336  0.3515 -0.7131 -0.5701
  258TMC3    C8 3916   2.510   0.411  13.204 -0.0373 -1.0227 -0.1751
  258TMC3    O1 3917   2.882   0.113  13.244 -0.4567 -0.2808 -0.2346
  258TMC3    O2 3918   2.457   0.520  13.196 -0.6626 -0.0040  0.4516
  259MPD2     C 3919   3.081   0.708   0.798 -0.3785 -0.4337  0.0967
  259MPD2    C1 3920   2.971   0.789   0.772  0.1787  0.9296  0.1802
  259MPD2    C2 3921   2.903   0.780   0.654  0.6490 -0.0046 -0.3013
  259MPD2    C3 3922   2.932   0.676   0.561 -0.3537  0.2489 -0.0721
  259MPD2    C4 3923   3.041   0.593   0.584  0.7122 -0.0698  0.0576
  259MPD2    C5 3924   3.112   0.613   0.704  0.5083 -0.1976  0.2105
  259MPD2     H 3925   2.815   0.841   0.637 -0.3320 -0.5235  2.8781
  259MPD2    H1 3926   3.070   0.513   0.517 -1.5150 -1.1517  0.3608
  259MPD2    H2 3927   3.140   0.714   0.889 -1.9088 -0.8185  1.1275
  259MPD2    H3 3928   3.203   0.560   0.728 -0.7743 -2.7888 -0.6593
  259MPD2     N 3929   2.855   0.668   0.444 -0.3632 -0.7635  0.8083
  259MPD2    H5 3930   2.791   0.744   0.423 -1.1672 -1.5485  0.3779
  259MPD2    N1 3931   2.953   0.890   0.870 -0.1394 -0.4816  0.7215
  259MPD2    H7 3932   3.018   0.904   0.947 -0.3686 -1.3283  1.0628
  260TMC3    C1 3933   2.761   0.558   0.247 -0.1588  0.5557  0.0760
  260TMC3    C2 3934   2.747   0.447   0.163  0.0176 -1.1541 -0.2469
  260TMC3    C3 3935   2.657   0.461   0.061  1.1138 -0.4928  0.3491
  260TMC3    C4 3936   2.702   0.680   0.212  0.4638  0.0200 -0.4319
  260TMC3    C5 3937   2.619   0.685   0.103  0.6949  0.7804  0.6484
  260TMC3    C6 3938   2.597   0.577   0.029 -0.1217 -0.0975 -0.5098
  260TMC3     C 3939   2.848   0.553   0.366 -0.7469 -0.0077 -0.5818
  260TMC3     O 3940   2.901   0.447   0.383 -0.0967  0.4492  0.0706
  260TMC3     H 3941   2.803   0.355   0.175  2.1860  0.2895  0.7044
  260TMC3    H1 3942   2.718   0.771   0.268  1.0921 -1.2875  1.5046
  260TMC3    H2 3943   2.532   0.591  17.630  1.7421  1.1823 -1.7318
  260TMC3    C7 3944   2.608   0.813   0.024 -0.2108 -0.3554  1.0490
  260TMC3    C8 3945   2.624   0.346  17.663 -0.4819  0.7259 -0.6045
  260TMC3    O1 3946   2.606   0.792  17.592  0.1823 -0.2656 -0.3637
  260TMC3    O2 3947   2.563   0.361  17.554  0.7964  0.4310  0.0551
  261MPD2     C 3948   3.224   0.480  12.170  0.1209 -0.3053  0.4852
  261MPD2    C1 3949   3.327   0.488  12.267  0.2927 -0.1917  0.2335
  261MPD2    C2 3950   3.439   0.573  12.258 -0.2491 -0.2183 -0.3306
  261MPD2    C3 3951   3.444   0.671  12.160  0.4377  0.2652  0.0188
  261MPD2    C4 3952   3.334   0.678  12.073 -0.2659  0.0174  0.1760
  261MPD2    C5 3953   3.235   0.576  12.075  0.0100  0.1227  0.3871
  261MPD2     H 3954   3.515   0.561  12.335  0.2228  0.9155 -0.6055
  261MPD2    H1 3955   3.320   0.754  11.997 -1.3598  0.3377  0.7040
  261MPD2    H2 3956   3.143   0.409  12.176 -1.1522  1.0839 -0.2002
  261MPD2    H3 3957   3.158   0.570  11.999  0.5582 -1.1526 -0.0657
  261MPD2     N 3958   3.556   0.758  12.155  0.4933 -0.2279  0.3830
  261MPD2    H5 3959   3.632   0.737  12.220  1.4112 -0.7903 -0.8659
  261MPD2    N1 3960   3.313   0.413  12.392  0.2081  0.1640 -0.6832
  261MPD2    H7 3961   3.394   0.416  12.453  0.6448 -1.0740 -1.2175
  262TMC3    C1 3962   3.686   0.942  12.085 -0.0097 -0.2814 -0.3119
  262TMC3    C2 3963   3.682   1.073  12.059  0.1891 -0.0155 -0.3600
  262TMC3    C3 3964   3.796   1.141  12.040 -0.4252 -0.6159 -0.2079
  262TMC3    C4 3965   3.805   0.872  12.085  0.3770 -0.2545 -0.4725
  262TMC3    C5 3966   3.922   0.943  12.058 -0.1852 -0.1993 -0.4367
  262TMC3    C6 3967   3.917   1.081  12.043  0.3749 -1.3603 -0.4516
  262TMC3     C 3968   3.563   0.871  12.078 -0.1593  0.1450  0.0090
  262TMC3     O 3969   3.486   0.906  11.984  0.3320 -0.5166  0.2645
  262TMC3     H 3970   3.582   1.114  12.049  0.6186  1.3713  1.0408
  262TMC3    H1 3971   3.806   0.766  12.108  2.5963  0.4572  2.6429
  262TMC3    H2 3972   4.009   1.138  12.048  0.2448 -1.2340  0.6081
  262TMC3    C7 3973   4.012   0.874  11.972  0.0458 -0.4280 -0.9602
  262TMC3    C8 3974   3.790   1.270  11.972  0.1324  0.5093  0.7472
  262TMC3    O1 3975   4.009   0.750  11.981  0.3538  0.9392 -0.0656
  262TMC3    O2 3976   3.896   1.330  11.957 -0.2374  0.0998  0.2223
  263MPD2     C 3977   0.456   4.279  11.146  0.1871 -0.0784  0.6647
  263MPD2    C1 3978   0.573   4.336  11.108 -0.0253  0.1248  0.2982
  263MPD2    C2 3979   0.572   4.444  11.017  0.6121  0.5256 -0.1233
  263MPD2    C3 3980   0.455   4.495  10.974 -0.6289  0.3159 -0.1415
  263MPD2    C4 3981   0.333   4.435  11.010 -0.1505 -0.3651 -0.0335
  263MPD2    C5 3982   0.334   4.321  11.089 -0.0113 -0.3758  0.1446
  263MPD2     H 3983   0.667   4.490  10.989  1.7334 -2.0913 -0.6348
  263MPD2    H1 3984   0.236   4.465  10.973 -1.1413 -1.0097  2.0250
  263MPD2    H2 3985   0.456   4.197  11.217 -0.3810 -2.3566 -1.9659
  263MPD2    H3 3986   0.247   4.260  11.112 -0.3072  0.6033  1.6142
  263MPD2     N 3987   0.465   4.597  10.880 -0.8718 -0.4304 -0.3475
  263MPD2    H5 3988   0.561   4.618  10.854 -0.9167  0.9672  0.5927
  263MPD2    N1 3989   0.700   4.296  11.151  0.1577  0.0356  0.7175
  263MPD2    H7 3990   0.783   4.353  11.136 -0.3450 -0.1302 -2.5599
  264TMC3    C1 3991   0.371   0.030  10.707  0.0025  0.1190 -0.1594
  264TMC3    C2 3992   0.277   0.130  10.693 -0.4770 -0.6546  0.7639
  264TMC3    C3 3993   0.292   0.222  10.594  0.4395  0.3585 -0.8194
  264TMC3    C4 3994   0.480   0.014  10.622 -0.3688 -0.6437 -0.6416
  264TMC3    C5 3995   0.490   0.113  10.528  0.6807  0.0664 -0.6249
  264TMC3    C6 3996   0.399   0.211  10.503 -0.0933 -0.2775 -0.1767
  264TMC3     C 3997   0.353   4.665  10.823 -1.1492  0.2548 -0.3050
  264TMC3     O 3998   0.236   4.661  10.860  0.0984  0.5456  0.4919
  264TMC3     H 3999   0.197   0.142  10.764 -1.0284  2.4215 -0.3763
  264TMC3    H1 4000   0.563   4.669  10.644  1.2773  1.3620 -0.8232
  264TMC3    H2 4001   0.397   0.277  10.418  0.8624  0.2957  0.2460
  264TMC3    C7 4002   0.610   0.124  10.456  0.7748 -0.2275  0.8572
  264TMC3    C8 4003   0.246   0.360  10.611  0.2407  0.0095  0.4068
  264TMC3    O1 4004   0.674   0.019  10.436 -0.1780 -0.1076  0.1392
  264TMC3    O2 4005   0.294   0.444  10.533 -0.2707 -0.5323  0.3691
  265MPD2     C 4006   2.228   0.237  15.588  0.0292 -0.7436  0.6229
  265MPD2    C1 4007   2.207   0.322  15.485 -0.1264  0.3806  0.0969
  265MPD2    C2 4008   2.224   0.275  15.351  0.3526 -0.5405 -0.1048
  265MPD2    C3 4009   2.261   0.143  15.327  0.1492 -0.4747  0.0322
  265MPD2    C4 4010   2.281   0.061  15.437 -0.1674  0.3261 -0.3136
  265MPD2    C5 4011   2.262   0.109  15.560  0.1193  1.2619  0.0871
  265MPD2     H 4012   2.207   0.350  15.275 -0.1897 -2.2158 -1.6165
  265MPD2    H1 4013   2.312   4.679  15.423 -0.7766  0.1844 -0.6467
  265MPD2    H2 4014   2.204   0.274  15.687 -3.0452 -1.2061  0.0596
  265MPD2    H3 4015   2.283   0.039  15.640 -0.3231  1.7598  0.6367
  265MPD2     N 4016   2.279   0.082  15.201  0.0002  0.1137 -0.2931
  265MPD2    H5 4017   2.310   4.707  15.197  0.2048  0.2095 -0.9997
  265MPD2    N1 4018   2.176   0.450  15.533 -0.3044  0.0171  0.2706
  265MPD2    H7 4019   2.195   0.456  15.632 -1.7822  1.3640  0.4587
  266TMC3    C1 4020   2.091   0.664  15.533 -0.5095  0.4414  0.1922
  266TMC3    C2 4021   2.164   0.690  15.640  0.1194  0.2440 -0.3700
  266TMC3    C3 4022   2.150   0.805  15.709 -0.5196 -0.4863 -0.0086
  266TMC3    C4 4023   2.000   0.755  15.485  0.3511  0.3314  1.1612
  266TMC3    C5 4024   1.973   0.859  15.573 -0.2118  0.4615  0.2846
  266TMC3    C6 4025   2.053   0.898  15.672 -0.1096 -0.6178 -1.1361
  266TMC3     C 4026   2.120   0.547  15.453  0.7558 -0.4379 -1.0624
  266TMC3     O 4027   2.071   0.542  15.340 -0.3134  0.3294 -0.0472
  266TMC3     H 4028   2.240   0.619  15.671 -0.1952 -0.0042 -0.1658
  266TMC3    H1 4029   1.941   0.728  15.398  2.2625  0.9000 -0.3203
  266TMC3    H2 4030   2.035   0.987  15.731  1.8093 -1.8838  1.3630
  266TMC3    C7 4031   1.837   0.912  15.562  0.0423  0.0284 -0.2775
  266TMC3    C8 4032   2.252   0.846  15.811  0.1353 -1.4239  0.1533
  266TMC3    O1 4033   1.781   0.899  15.452  0.4638 -0.0292 -0.1866
  266TMC3    O2 4034   2.350   0.770  15.818  0.2023 -0.1299 -0.1449
  267MPD2     C 4035   0.139   1.318   0.951  0.5340  0.1452  0.1588
  267MPD2    C1 4036   0.073   1.435   0.922 -0.3346 -0.4548 -0.0943
  267MPD2    C2 4037   4.654   1.432   0.903 -0.8008  0.6890 -0.1528
  267MPD2    C3 4038   4.591   1.309   0.904 -0.2328  0.1236 -0.6647
  267MPD2    C4 4039   4.658   1.188   0.929 -0.1639  0.5309  0.1446
  267MPD2    C5 4040   0.072   1.202   0.949 -0.0918 -0.4691  0.3192
  267MPD2     H 4041   4.588   1.518   0.892 -2.5739 -0.7993 -1.1183
  267MPD2    H1 4042   4.613   1.090   0.932 -0.2161  0.5601  0.3099
  267MPD2    H2 4043   0.245   1.313   0.976  1.0335 -0.7492 -2.0939
  267MPD2    H3 4044   0.131   1.113   0.970 -0.0773  0.1316  2.7701
  267MPD2     N 4045   4.455   1.291   0.869  0.0968 -0.3074  0.3433
  267MPD2    H5 4046   4.425   1.195   0.857 -0.8241  0.3295 -2.5552
  267MPD2    N1 4047   0.153   1.549   0.924 -0.3448 -0.4516 -0.1912
  267MPD2    H7 4048   0.250   1.537   0.952 -0.7940 -2.8926  0.3399
  268TMC3    C1 4049   0.226   1.765   0.864 -0.3728  0.1759 -0.2572
  268TMC3    C2 4050   0.206   1.863   0.769 -0.3321 -0.6303 -0.4763
  268TMC3    C3 4051   0.306   1.946   0.745 -0.7549 -0.4170 -0.1625
  268TMC3    C4 4052   0.336   1.756   0.939  0.6205  0.5498  0.1023
  268TMC3    C5 4053   0.439   1.846   0.903  0.4149 -0.1941  0.0718
  268TMC3    C6 4054   0.426   1.941   0.811  0.5786 -0.3975 -0.3336
  268TMC3     C 4055   0.116   1.672   0.888  0.3683 -0.0660  0.2486
  268TMC3     O 4056   0.000   1.711   0.854 -0.3231 -0.4368 -0.0062
  268TMC3     H 4057   0.112   1.869   0.716 -1.2842 -0.6770  1.2360
  268TMC3    H1 4058   0.345   1.685   1.021  2.4219  0.6648 -0.0098
  268TMC3    H2 4059   0.506   2.003   0.772 -0.6670  1.0011 -0.6639
  268TMC3    C7 4060   0.566   1.830   0.973 -0.4713  0.5839  1.0061
  268TMC3    C8 4061   0.283   2.038   0.639 -0.7567 -0.0772  0.7381
  268TMC3    O1 4062   0.577   1.745   1.059 -0.0732 -0.7576  0.3169
  268TMC3    O2 4063   0.355   2.138   0.629  0.4622  0.7764  0.7744
  269MPD2     C 4064   0.214   0.718  15.225 -0.0845  0.0796 -0.3342
  269MPD2    C1 4065   0.094   0.771  15.248 -0.0455  0.1413  0.0472
  269MPD2    C2 4066   0.074   0.908  15.238 -0.9503 -0.6379  0.8025
  269MPD2    C3 4067   0.172   0.993  15.202  0.5438 -0.5866 -1.0074
  269MPD2    C4 4068   0.302   0.940  15.188  0.7095  0.1878 -0.0372
  269MPD2    C5 4069   0.325   0.804  15.195 -0.0289  0.2620  0.1440
  269MPD2     H 4070   4.696   0.951  15.256  0.1482  2.4714 -0.5397
  269MPD2    H1 4071   0.387   1.002  15.162 -0.2172  1.3660 -0.2364
  269MPD2    H2 4072   0.236   0.617  15.259 -2.8210 -1.3515 -2.8499
  269MPD2    H3 4073   0.427   0.769  15.195 -0.5441 -1.2310 -0.0916
  269MPD2     N 4074   0.141   1.126  15.180 -1.2439  0.4241  0.5068
  269MPD2    H5 4075   0.041   1.147  15.175 -1.5629 -1.3778 -0.4735
  269MPD2    N1 4076   4.710   0.689  15.288  0.1099  0.5911  0.3528
  269MPD2    H7 4077   0.009   0.591  15.305  1.6552  0.8859  0.2435
  270TMC3    C1 4078   4.478   0.630  15.369 -0.7109  0.3726 -0.7049
  270TMC3    C2 4079   4.345   0.629  15.326  0.5699 -1.0167  0.3453
  270TMC3    C3 4080   4.259   0.578  15.419 -0.3862  0.4077 -0.6803
  270TMC3    C4 4081   4.523   0.579  15.483  0.0775 -1.2153  0.4358
  270TMC3    C5 4082   4.434   0.532  15.573  0.2044 -0.8626 -0.5444
  270TMC3    C6 4083   4.300   0.528  15.546 -0.8175 -0.0107 -0.3198
  270TMC3     C 4084   4.570   0.717  15.294  0.1635 -0.6015 -0.2052
  270TMC3     O 4085   4.509   0.806  15.237  0.7207 -0.1490 -0.5312
  270TMC3     H 4086   4.315   0.666  15.229  3.7116 -0.8029 -0.5476
  270TMC3    H1 4087   4.630   0.580  15.502  0.0147  1.6120  0.6481
  270TMC3    H2 4088   4.226   0.476  15.605 -0.4233 -1.7093 -1.3493
  270TMC3    C7 4089   4.487   0.435  15.662 -0.0891 -0.2167 -0.0396
  270TMC3    C8 4090   4.137   0.513  15.367 -0.6024  0.2573  0.1845
  270TMC3    O1 4091   4.606   0.407  15.647 -0.6583  0.2368 -0.0978
  270TMC3    O2 4092   4.033   0.503  15.435  0.1060 -0.3601 -0.3312
  271MPD2     C 4093   3.827   0.776  13.893 -0.1229  0.1661  0.5294
  271MPD2    C1 4094   3.729   0.769  13.995 -0.5971 -0.2404  0.4703
  271MPD2    C2 4095   3.623   0.863  13.998 -0.3343  0.6992  0.4683
  271MPD2    C3 4096   3.618   0.970  13.902 -0.2370  0.2548  0.5635
  271MPD2    C4 4097   3.703   0.958  13.796 -0.2755 -0.4183 -0.3328
  271MPD2    C5 4098   3.814   0.875  13.800  0.6296 -0.0432 -0.5836
  271MPD2     H 4099   3.547   0.861  14.076  0.4160  0.2062  1.1936
  271MPD2    H1 4100   3.692   1.026  13.712 -0.5219 -1.3817 -1.0887
  271MPD2    H2 4101   3.910   0.706  13.887  0.7800  1.2088  1.0366
  271MPD2    H3 4102   3.885   0.873  13.718  0.1488  0.3778 -1.0081
  271MPD2     N 4103   3.517   1.072  13.889  0.3603 -0.8150 -0.4783
  271MPD2    H5 4104   3.523   1.144  13.817 -2.7018 -1.2429 -1.1719
  271MPD2    N1 4105   3.729   0.676  14.099 -0.1197  0.3477  0.0139
  271MPD2    H7 4106   3.655   0.681  14.168 -0.4598  0.9546 -0.3915
  272TMC3    C1 4107   3.781   0.481  14.222 -0.7093  0.2856 -0.3686
  272TMC3    C2 4108   3.838   0.356  14.221  0.2331 -0.6230  0.3840
  272TMC3    C3 4109   3.847   0.283  14.336  0.0356  0.4293 -0.7321
  272TMC3    C4 4110   3.730   0.526  14.344  0.6345  0.5696 -0.2894
  272TMC3    C5 4111   3.737   0.448  14.458  0.5976  0.2583 -0.2433
  272TMC3    C6 4112   3.802   0.329  14.457 -0.2267 -0.9784  0.5870
  272TMC3     C 4113   3.807   0.564  14.105 -0.2207  0.5511 -0.4781
  272TMC3     O 4114   3.885   0.513  14.029  0.0154 -0.2492 -0.5101
  272TMC3     H 4115   3.882   0.314  14.131  1.1164 -0.7125  0.8684
  272TMC3    H1 4116   3.679   0.621  14.355 -1.4623 -0.4835 -0.8252
  272TMC3    H2 4117   3.799   0.259  14.540  1.0767 -2.4424 -0.6109
  272TMC3    C7 4118   3.762   0.541  14.575  0.3616 -0.0326 -0.4139
  272TMC3    C8 4119   3.872   0.140  14.307 -0.8884  0.0373  0.4677
  272TMC3    O1 4120   3.687   0.638  14.586  0.1064  0.6267  0.4653
  272TMC3    O2 4121   3.855   0.101  14.192 -0.2640  0.5241  1.0549
  273MPD2     C 4122   0.999   3.602  11.439 -0.3357  0.0693  0.0032
  273MPD2    C1 4123   1.131   3.557  11.423 -0.2828  0.0280 -0.0120
  273MPD2    C2 4124   1.162   3.493  11.307  0.5557  0.3403 -0.6694
  273MPD2    C3 4125   1.063   3.474  11.213 -0.0337  0.3391 -0.6396
  273MPD2    C4 4126   0.933   3.493  11.243  0.0422 -0.2265 -0.7275
  273MPD2    C5 4127   0.902   3.559  11.352 -0.0801 -0.0451 -0.0099
  273MPD2     H 4128   1.265   3.478  11.276  0.7657 -1.6863  0.9621
  273MPD2    H1 4129   0.855   3.463  11.174  0.9487 -0.0955 -1.8257
  273MPD2    H2 4130   0.961   3.661  11.522  1.4939 -1.5037  1.9379
  273MPD2    H3 4131   0.799   3.586  11.371 -0.6034 -1.8286 -0.3544
  273MPD2     N 4132   1.109   3.425  11.085  0.0395 -0.2030 -0.1774
  273MPD2    H5 4133   1.209   3.439  11.073 -0.0126  0.4197  0.1150
  273MPD2    N1 4134   1.222   3.596  11.528 -0.4324  0.4315 -0.1343
  273MPD2    H7 4135   1.176   3.650  11.601 -0.1370  1.4434 -0.6948
  274TMC3    C1 4136   1.111   3.402  10.858 -0.3933  0.7185 -0.2491
  274TMC3    C2 4137   1.036   3.451  10.756  0.6249  0.2216 -0.0459
  274TMC3    C3 4138   1.085   3.565  10.699  0.1397  0.6715 -0.7467
  274TMC3    C4 4139   1.240   3.444  10.889  0.1221 -0.8240  0.4126
  274TMC3    C5 4140   1.279   3.557  10.824 -0.5840 -0.2859 -0.1435
  274TMC3    C6 4141   1.198   3.629  10.741  0.0710 -0.0731 -0.0820
  274TMC3     C 4142   1.025   3.397  10.973  0.7769  0.5747 -0.5497
  274TMC3     O 4143   0.905   3.417  10.960  0.0940 -0.2264  0.1572
  274TMC3     H 4144   0.935   3.416  10.739  0.2907  0.1352  2.1462
  274TMC3    H1 4145   1.313   3.403  10.957 -0.4458 -0.2360  1.3846
  274TMC3    H2 4146   1.243   3.712  10.687 -0.4947 -0.3705 -1.0087
  274TMC3    C7 4147   1.361   3.637  10.908 -0.3347  0.1019  1.1040
  274TMC3    C8 4148   1.000   3.621  10.595  0.0274 -0.7505  0.2275
  274TMC3    O1 4149   1.371   3.609  11.023 -0.2670  0.1483  0.2823
  274TMC3    O2 4150   0.886   3.571  10.582  0.3139  0.5120 -0.0202
  275MPD2     C 4151   0.612   1.638  14.231  0.3346 -0.3612 -0.5072
  275MPD2    C1 4152   0.630   1.510  14.189 -0.4902  0.0086  0.5906
  275MPD2    C2 4153   0.519   1.428  14.184  0.2909 -0.1255 -0.4180
  275MPD2    C3 4154   0.394   1.470  14.226 -0.3630  0.2166  0.1450
  275MPD2    C4 4155   0.391   1.588  14.294  0.1421  0.7140 -0.1345
  275MPD2    C5 4156   0.497   1.668  14.289 -0.0876  0.0327  0.3355
  275MPD2     H 4157   0.546   1.343  14.123 -0.1172 -0.5288 -0.0301
  275MPD2    H1 4158   0.299   1.628  14.336  0.7747  3.0003 -0.9281
  275MPD2    H2 4159   0.686   1.718  14.229  1.2957 -1.2499 -0.6858
  275MPD2    H3 4160   0.480   1.765  14.336  2.5507  1.2284 -1.1414
  275MPD2     N 4161   0.268   1.392  14.215  0.3133  0.5067  0.3198
  275MPD2    H5 4162   0.183   1.444  14.237  0.5753  0.4190  1.5133
  275MPD2    N1 4163   0.751   1.455  14.142  0.2572  0.1937  0.0270
  275MPD2    H7 4164   0.758   1.353  14.138 -1.3288  0.1530 -1.8743
  276TMC3    C1 4165   0.971   1.420  14.128 -0.9016 -0.3958 -0.6436
  276TMC3    C2 4166   0.934   1.288  14.115 -0.6505 -0.7812 -0.0416
  276TMC3    C3 4167   0.990   1.193  14.199  0.3483  0.1593 -0.0277
  276TMC3    C4 4168   1.078   1.454  14.194 -0.1024 -0.4621  0.2021
  276TMC3    C5 4169   1.153   1.350  14.247 -0.5391  0.7777 -0.4896
  276TMC3    C6 4170   1.103   1.223  14.267 -0.2670  0.0219  0.8337
  276TMC3     C 4171   0.868   1.517  14.122  0.2946  0.5424  0.1982
  276TMC3     O 4172   0.902   1.634  14.138 -0.4708 -0.2949  0.2876
  276TMC3     H 4173   0.851   1.260  14.051 -0.3593 -1.2905 -0.1981
  276TMC3    H1 4174   1.119   1.555  14.199 -1.5659  0.1298  0.1372
  276TMC3    H2 4175   1.160   1.151  14.325  1.2589  0.4940 -0.0910
  276TMC3    C7 4176   1.238   1.392  14.358  0.8362 -0.0152  0.5930
  276TMC3    C8 4177   0.883   1.132  14.281  0.1686  0.2760  0.3421
  276TMC3    O1 4178   1.214   1.330  14.463 -0.3153 -0.0013 -0.5963
  276TMC3    O2 4179   0.773   1.172  14.249  0.3554 -0.2912  0.7531
  277MPD2     C 4180   2.555   0.911  13.289 -0.1429  0.1252  0.1404
  277MPD2    C1 4181   2.423   0.876  13.282 -0.0992  0.5953 -0.0888
  277MPD2    C2 4182   2.365   0.811  13.389 -0.3634  0.5958  0.6324
  277MPD2    C3 4183   2.439   0.787  13.508  0.2451 -0.2091 -0.0277
  277MPD2    C4 4184   2.565   0.834  13.519 -0.1722 -0.1494 -0.1837
  277MPD2    C5 4185   2.626   0.890  13.408 -0.1609 -0.2016  0.1203
  277MPD2     H 4186   2.264   0.773  13.385  0.1099 -0.6096 -0.1027
  277MPD2    H1 4187   2.630   0.822  13.605 -0.5020 -0.2132  0.0546
  277MPD2    H2 4188   2.612   0.957  13.209 -4.4921  0.8078 -2.5362
  277MPD2    H3 4189   2.733   0.908  13.410  0.0487 -0.9825 -3.1291
  277MPD2     N 4190   2.375   0.729  13.623 -0.2719 -0.4183 -0.4315
  277MPD2    H5 4191   2.275   0.715  13.618  0.1809 -2.9817 -2.6599
  277MPD2    N1 4192   2.362   0.897  13.147 -0.0560  0.2211  0.4415
  277MPD2    H7 4193   2.417   0.952  13.082  2.0598 -2.8293 -0.3730
  278TMC3    C1 4194   2.320   0.664  13.843 -0.0383  0.0715  0.4296
  278TMC3    C2 4195   2.352   0.555  13.920  0.3688 -0.2448 -0.9015
  278TMC3    C3 4196   2.256   0.465  13.943  0.1251  0.4990  0.0687
  278TMC3    C4 4197   2.196   0.692  13.811 -0.4566 -0.5191  0.3632
  278TMC3    C5 4198   2.094   0.602  13.841 -0.4919  0.1249  0.2661
  278TMC3    C6 4199   2.130   0.484  13.896  0.4052  0.0317  0.7241
  278TMC3     C 4200   2.431   0.698  13.750 -0.1772  0.2722 -0.0306
  278TMC3     O 4201   2.543   0.690  13.795  0.2405 -0.1313  0.3758
  278TMC3     H 4202   2.458   0.531  13.932  0.4935  0.2003 -1.1334
  278TMC3    H1 4203   2.166   0.777  13.751  1.9518 -0.5279 -0.8459
  278TMC3    H2 4204   2.055   0.410  13.920  1.6864 -1.1283  1.1457
  278TMC3    C7 4205   1.979   0.611  13.758  0.0607 -0.5326  0.3014
  278TMC3    C8 4206   2.302   0.330  13.931 -0.4858  0.4981 -0.3796
  278TMC3    O1 4207   1.988   0.678  13.660 -0.4085  0.4156  0.5939
  278TMC3    O2 4208   2.393   0.285  13.994  0.1664 -0.1264  0.3250
  279MPD2     C 4209   2.201   1.093   0.079  0.1187  0.7172 -0.2247
  279MPD2    C1 4210   2.063   1.066   0.064 -0.0256 -0.0764 -0.3938
  279MPD2    C2 4211   2.008   1.062  17.623 -0.3212  0.2783  0.5794
  279MPD2    C3 4212   2.084   1.073  17.512 -0.0004  0.2637 -0.2849
  279MPD2    C4 4213   2.219   1.106  17.523 -0.0038 -0.3136  0.1070
  279MPD2    C5 4214   2.276   1.117  17.651 -0.3532 -0.5432  0.8362
  279MPD2     H 4215   1.909   1.023  17.605  0.2885 -0.1386 -1.9442
  279MPD2    H1 4216   2.275   1.121  17.432 -2.3178  0.6236 -1.1515
  279MPD2    H2 4217   2.250   1.105   0.175 -2.2630 -0.7553  1.1683
  279MPD2    H3 4218   2.383   1.135  17.658 -0.1026 -1.4273 -0.6571
  279MPD2     N 4219   2.035   1.045  17.377  0.3299  0.0188 -0.0537
  279MPD2    H5 4220   2.101   1.071  17.304  0.3566  2.7416  0.9266
  279MPD2    N1 4221   1.991   1.035   0.182  0.4942 -0.3951  0.1806
  279MPD2    H7 4222   2.035   1.034   0.273  1.2101 -1.3557 -0.1754
  280TMC3    C1 4223   1.823   0.932   0.317  0.4610 -0.5037  0.1845
  280TMC3    C2 4224   1.889   0.815   0.344 -0.0190 -0.5118 -0.2155
  280TMC3    C3 4225   1.814   0.711   0.389 -0.3630 -0.4964 -0.0145
  280TMC3    C4 4226   1.688   0.941   0.327  0.0682 -0.3249  0.5222
  280TMC3    C5 4227   1.621   0.835   0.379  0.1870  0.5053 -0.4743
  280TMC3    C6 4228   1.682   0.720   0.420  0.5259  0.3847  0.2082
  280TMC3     C 4229   1.857   0.995   0.188 -0.4850 -0.3663 -0.0021
  280TMC3     O 4230   1.776   0.993   0.098  0.2087 -0.2494 -0.1599
  280TMC3     H 4231   1.993   0.801   0.318 -0.0686  1.8150 -1.6512
  280TMC3    H1 4232   1.647   1.039   0.305 -1.4912 -0.5243  2.6261
  280TMC3    H2 4233   1.623   0.640   0.464  1.4097 -0.2877  0.1819
  280TMC3    C7 4234   1.482   0.848   0.425 -0.1388 -0.2973 -0.1150
  280TMC3    C8 4235   1.864   0.580   0.361 -0.4062 -0.3655 -1.1343
  280TMC3    O1 4236   1.437   0.778   0.513  0.2318 -0.4753 -0.5215
  280TMC3    O2 4237   1.973   0.559   0.408 -0.1750  0.2366 -0.3322
  281TMC3    C1 4238   0.386   1.060  12.882 -0.6784 -0.0433 -0.4405
  281TMC3    C2 4239   0.261   1.082  12.835 -0.0658 -0.0487  0.0041
  281TMC3    C3 4240   0.167   0.992  12.860 -0.7185 -0.2528 -0.8158
  281TMC3    C4 4241   0.429   0.950  12.958  0.2453 -0.0965 -0.3834
  281TMC3    C5 4242   0.323   0.865  12.989 -0.4275 -0.2795 -1.0812
  281TMC3    C6 4243   0.198   0.879  12.930  0.4919 -0.7164  0.4222
  281TMC3     C 4244   0.489   1.163  12.863  0.0333 -0.5183  0.1636
  281TMC3     O 4245   0.607   1.133  12.849  0.1863 -0.4308  0.4385
  281TMC3     H 4246   0.243   1.174  12.780 -0.5231 -0.4763 -0.5646
  281TMC3    H1 4247   0.532   0.941  12.989  0.3797  1.9188 -0.2421
  281TMC3    H2 4248   0.123   0.806  12.958 -0.4592  0.1539  0.1400
  281TMC3    C7 4249   0.360   0.730  13.040 -0.6046  0.0783  0.0947
  281TMC3    C8 4250   0.022   1.010  12.810  0.3862 -0.4564  0.0916
  281TMC3    O1 4251   0.468   0.687  13.000 -0.2454  0.3125 -0.0235
  281TMC3    O2 4252   4.654   0.935  12.846  0.2168  0.5095  0.0066
  282MPD2     C 4253   2.009   2.063  14.894 -0.1794 -0.8276 -0.4522
  282MPD2    C1 4254   1.881   2.080  14.928  0.7234  0.5896  0.4384
  282MPD2    C2 4255   1.781   2.086  14.835 -0.0186 -0.4805  0.3938
  282MPD2    C3 4256   1.802   2.080  14.704  0.2573  0.4756  0.1703
  282MPD2    C4 4257   1.931   2.048  14.664 -0.3703 -0.6737 -0.0870
  282MPD2    C5 4258   2.030   2.035  14.761 -0.6786 -0.2294  0.2866
  282MPD2     H 4259   1.675   2.090  14.857 -0.1088  2.0180 -0.5660
  282MPD2    H1 4260   1.970   2.050  14.563 -2.7211  0.7944 -0.9455
  282MPD2    H2 4261   2.093   2.076  14.961  0.0672 -1.7345 -0.5936
  282MPD2    H3 4262   2.134   2.033  14.732 -0.4791 -0.2513  0.9823
  282MPD2     N 4263   1.694   2.107  14.608 -0.2451  0.4196 -0.3137
  282MPD2    H5 4264   1.604   2.136  14.645  0.1503 -0.7931  1.6088
  282MPD2    N1 4265   1.836   2.100  15.064  0.4543  0.2687  0.3487
  282MPD2    H7 4266   1.737   2.114  15.076  0.5853 -0.9496  2.8821
  283TMC3    C1 4267   1.836   2.089  15.295 -0.1970 -0.1377  0.8149
  283TMC3    C2 4268   1.834   2.208  15.362 -0.1403 -0.3733  0.2273
  283TMC3    C3 4269   1.828   2.196  15.499 -0.2084  0.6631 -0.2071
  283TMC3    C4 4270   1.826   1.965  15.349 -0.0522  0.0746  0.1641
  283TMC3    C5 4271   1.824   1.965  15.492 -0.0926 -0.3592  0.3753
  283TMC3    C6 4272   1.827   2.078  15.566  1.0862 -0.0827  0.5667
  283TMC3     C 4273   1.917   2.094  15.173 -0.0423  0.1822 -0.0148
  283TMC3     O 4274   2.036   2.062  15.188 -0.0070  0.2760 -0.0665
  283TMC3     H 4275   1.837   2.294  15.297 -1.5518  0.4831  1.3126
  283TMC3    H1 4276   1.827   1.878  15.284  0.8875  0.0566  0.1934
  283TMC3    H2 4277   1.826   2.075  15.675 -1.1875 -1.9732  0.4720
  283TMC3    C7 4278   1.793   1.845  15.562 -0.0924 -0.2988  0.1231
  283TMC3    C8 4279   1.869   2.310  15.579 -0.3194 -0.1999  0.1462
  283TMC3    O1 4280   1.737   1.855  15.669 -0.1474  0.1608 -0.7558
  283TMC3    O2 4281   1.932   2.278  15.677  0.2090  0.2025 -0.0678
  284MPD2     C 4282   0.232   0.970  11.985  0.4411 -0.0307  0.3625
  284MPD2    C1 4283   0.302   0.938  11.876 -0.7203  0.0217  0.3428
  284MPD2    C2 4284   0.288   0.816  11.814  0.7308  0.6217 -0.0673
  284MPD2    C3 4285   0.199   0.720  11.863 -0.0508 -0.0106  0.0735
  284MPD2    C4 4286   0.138   0.745  11.986 -0.3196  0.1014 -0.6408
  284MPD2    C5 4287   0.150   0.873  12.038  0.0387 -0.1304  0.3456
  284MPD2     H 4288   0.357   0.792  11.734  1.9352  1.6525  0.6684
  284MPD2    H1 4289   0.076   0.672  12.037  0.8407 -1.3302 -1.2879
  284MPD2    H2 4290   0.241   1.063  12.039 -3.0197  1.5732 -1.8011
  284MPD2    H3 4291   0.091   0.900  12.125 -0.9138  0.4563 -0.4912
  284MPD2     N 4292   0.185   0.599  11.800  0.0060 -0.6317 -0.2432
  284MPD2    H5 4293   0.150   0.522  11.858 -0.7962 -0.0166  0.0928
  284MPD2    N1 4294   0.408   1.028  11.831 -0.7126  0.3132 -0.2239
  284MPD2    H7 4295   0.458   1.013  11.744  0.1252  2.6922 -0.1667
  285TMC3    C1 4296   0.562   1.209  11.840 -0.8849 -0.4543  0.3196
  285TMC3    C2 4297   0.601   1.198  11.712  0.2933 -0.0637  0.1595
  285TMC3    C3 4298   0.712   1.255  11.665 -0.1120 -0.1999 -0.3231
  285TMC3    C4 4299   0.633   1.295  11.920  0.4525  0.4008 -0.0600
  285TMC3    C5 4300   0.743   1.357  11.874  0.8316  0.6522  0.3136
  285TMC3    C6 4301   0.786   1.342  11.748 -0.0742 -0.3579  0.2097
  285TMC3     C 4302   0.451   1.135  11.900  0.4409  0.0461  0.8544
  285TMC3     O 4303   0.431   1.174  12.016  0.1024  0.4070  0.0925
  285TMC3     H 4304   0.554   1.136  11.637  0.4535  0.5689 -0.4638
  285TMC3    H1 4305   0.614   1.311  12.025 -0.8109  0.4221 -0.2850
  285TMC3    H2 4306   0.861   1.403  11.697 -0.0856  0.1257  0.7700
  285TMC3    C7 4307   0.750   1.499  11.913 -0.0694  0.0650  0.3276
  285TMC3    C8 4308   0.776   1.211  11.541 -0.2447  0.1667 -0.1584
  285TMC3    O1 4309   0.649   1.566  11.919  0.1735  1.1286 -0.0842
  285TMC3    O2 4310   0.719   1.119  11.478  0.5836 -0.0212  0.1693
  286MPD2     C 4311   1.218   0.621   1.287 -0.1578 -0.0077  0.7880
  286MPD2    C1 4312   1.144   0.544   1.199 -0.4838 -1.0134 -0.2653
  286MPD2    C2 4313   1.168   0.404   1.197  0.0056 -0.1608  0.7763
  286MPD2    C3 4314   1.272   0.344   1.270  0.2159 -0.4841  0.3203
  286MPD2    C4 4315   1.332   0.424   1.367  0.3061 -0.3822  0.0243
  286MPD2    C5 4316   1.308   0.560   1.372 -0.0587  0.0848  0.3067
  286MPD2     H 4317   1.113   0.346   1.124  0.2068  0.2968  0.2662
  286MPD2    H1 4318   1.421   0.395   1.421 -0.3960 -1.6836  0.4824
  286MPD2    H2 4319   1.185   0.724   1.294  0.4146  0.2524 -0.4237
  286MPD2    H3 4320   1.362   0.614   1.449  1.0764  0.1219 -0.5275
  286MPD2     N 4321   1.322   0.213   1.249 -0.5461  0.2328  0.1432
  286MPD2    H5 4322   1.391   0.177   1.314 -0.3641 -1.2792 -0.8776
  286MPD2    N1 4323   1.047   0.603   1.111 -0.2940  0.0846  0.0850
  286MPD2    H7 4324   0.974   0.541   1.077  0.0646 -0.4335  0.2778
  287TMC3    C1 4325   1.371   0.001   1.137 -0.2539 -0.4889 -0.3938
  287TMC3    C2 4326   1.366   4.660   1.016 -0.5176  0.1376 -0.2875
  287TMC3    C3 4327   1.422   4.536   1.016 -0.0620  0.5236 -0.2775
  287TMC3    C4 4328   1.414   4.663   1.253  0.6256  0.4994 -0.4207
  287TMC3    C5 4329   1.472   4.540   1.244 -0.0482 -0.4984 -0.8218
  287TMC3    C6 4330   1.481   4.478   1.125  0.6858  0.4893  0.2634
  287TMC3     C 4331   1.288   0.123   1.145 -0.2971 -0.4804  0.2756
  287TMC3     O 4332   1.228   0.150   1.044 -0.5763  0.5886 -0.0385
  287TMC3     H 4333   1.332   4.712   0.927 -0.6057  1.7089  0.6808
  287TMC3    H1 4334   1.381   4.713   1.343  1.1478 -0.9146  0.5611
  287TMC3    H2 4335   1.521   4.378   1.109 -0.4019 -0.2094  1.8957
  287TMC3    C7 4336   1.540   4.479   1.355  0.2464 -0.0779 -0.4099
  287TMC3    C8 4337   1.394   4.443   0.903  0.1872 -0.1212 -0.2960
  287TMC3    O1 4338   1.608   4.379   1.333 -0.6414 -0.1915 -0.3339
  287TMC3    O2 4339   1.375   4.322   0.930 -0.0799 -0.6674  0.0846
  288TMC3    C1 4340   1.990   4.441  14.642 -0.6707 -0.0758  0.1823
  288TMC3    C2 4341   1.966   4.418  14.777  0.3557  0.2206 -0.0346
  288TMC3    C3 4342   1.958   4.530  14.860 -0.5327  0.3894  0.1135
  288TMC3    C4 4343   2.013   4.564  14.586 -0.4409  0.0051 -1.2612
  288TMC3    C5 4344   2.006   4.670  14.680 -0.6325 -0.1493 -0.2326
  288TMC3    C6 4345   1.988   4.655  14.814 -0.1595  1.0009  0.2971
  288TMC3     C 4346   2.001   4.335  14.547 -0.0497  0.6485  0.5154
  288TMC3     O 4347   1.994   4.225  14.601 -0.1031 -0.3609 -0.1013
  288TMC3     H 4348   1.957   4.315  14.811 -2.4601  0.9509  1.4195
  288TMC3    H1 4349   2.051   4.585  14.487 -0.7690  1.3113 -1.1175
  288TMC3    H2 4350   1.986   0.018  14.882 -0.5245  3.1207 -2.3669
  288TMC3    C7 4351   2.058   0.079  14.632  0.8061 -0.1436 -0.7174
  288TMC3    C8 4352   1.929   4.515  15.002 -0.0547  0.0690 -0.0603
  288TMC3    O1 4353   2.096   0.160  14.712  0.9440  0.3247  0.3146
  288TMC3    O2 4354   1.948   4.612  15.071  0.2158  0.0530  0.5019
  289MPD2     C 4355   2.309   3.618  14.807 -0.2121 -0.3636 -0.5512
  289MPD2    C1 4356   2.290   3.712  14.708 -0.0263  0.6976 -0.9775
  289MPD2    C2 4357   2.162   3.724  14.652 -0.2317 -0.5951 -0.0570
  289MPD2    C3 4358   2.064   3.635  14.695 -0.1721 -0.4447  0.3828
  289MPD2    C4 4359   2.091   3.537  14.781  0.4658 -0.0266  0.3965
  289MPD2    C5 4360   2.209   3.533  14.843  0.1560 -0.2622 -0.5216
  289MPD2     H 4361   2.138   3.808  14.589  0.7154 -0.1725  0.1501
  289MPD2    H1 4362   2.010   3.480  14.825  0.9077 -1.4190 -0.6145
  289MPD2    H2 4363   2.403   3.612  14.862  0.6191  2.3230 -1.6911
  289MPD2    H3 4364   2.223   3.464  14.926  0.0095 -1.4712 -1.5028
  289MPD2     N 4365   1.932   3.662  14.656 -0.2649 -0.1788  0.1035
  289MPD2    H5 4366   1.864   3.598  14.698 -0.2746 -0.8076 -0.8858
  289MPD2    N1 4367   2.395   3.800  14.658 -0.4484  0.3905 -0.1101
  289MPD2    H7 4368   2.480   3.805  14.712 -1.1341  2.5904  0.7559
  290TMC3    C1 4369   1.729   3.765  14.588  0.6124  0.1497  0.1742
  290TMC3    C2 4370   1.671   3.886  14.550 -0.7123  0.0988 -0.0042
  290TMC3    C3 4371   1.534   3.884  14.534 -0.4827 -0.6578 -0.6439
  290TMC3    C4 4372   1.649   3.666  14.645  0.5530 -0.4201 -0.1602
  290TMC3    C5 4373   1.515   3.678  14.621  0.2176 -0.0907  1.0484
  290TMC3    C6 4374   1.452   3.787  14.564 -0.4529 -0.6447  0.6711
  290TMC3     C 4375   1.879   3.755  14.570  0.0049 -0.9596  0.1551
  290TMC3     O 4376   1.932   3.840  14.500 -0.3348  0.6000 -0.2254
  290TMC3     H 4377   1.735   3.967  14.519 -1.0796 -0.7402 -2.9651
  290TMC3    H1 4378   1.691   3.582  14.699  3.7328  1.5777  0.4821
  290TMC3    H2 4379   1.347   3.781  14.538 -0.4641 -0.0486  0.5827
  290TMC3    C7 4380   1.419   3.569  14.651  0.3607 -0.0687 -0.1805
  290TMC3    C8 4381   1.472   3.994  14.464 -0.2262 -0.5191 -0.5791
  290TMC3    O1 4382   1.315   3.595  14.710  0.2469  0.2440  0.0641
  290TMC3    O2 4383   1.384   3.984  14.384 -0.2658  0.0326 -0.1090
  291MPD2     C 4384   1.399   3.646   0.234  0.6327  0.6726 -0.3301
  291MPD2    C1 4385   1.500   3.554   0.215 -0.6415 -0.5301  0.1474
  291MPD2    C2 4386   1.632   3.589   0.214 -0.2422  0.0742 -0.0559
  291MPD2    C3 4387   1.658   3.723   0.233  0.0879 -0.0374 -0.0486
  291MPD2    C4 4388   1.562   3.820   0.240  0.3600 -0.1454 -1.3283
  291MPD2    C5 4389   1.435   3.776   0.258 -0.2739 -0.2782 -0.4572
  291MPD2     H 4390   1.708   3.514   0.193  1.3583  1.4434  0.8248
  291MPD2    H1 4391   1.578   3.927   0.234  0.6143 -0.0935  0.1595
  291MPD2    H2 4392   1.295   3.618   0.243  0.7958  0.7320  1.8901
  291MPD2    H3 4393   1.351   3.843   0.272  0.7922  0.8240  0.7193
  291MPD2     N 4394   1.793   3.761   0.238 -0.3920  0.5111 -0.3476
  291MPD2    H5 4395   1.815   3.856   0.267 -0.8032  0.6376 -0.4529
  291MPD2    N1 4396   1.463   3.421   0.200 -0.2534  0.6144 -0.9358
  291MPD2    H7 4397   1.543   3.358   0.198  0.1855  1.1612 -0.7914
  292TMC3    C1 4398   1.339   3.221   0.218  0.3042 -0.1421 -0.6781
  292TMC3    C2 4399   1.448   3.178   0.296  0.7134  0.1388  0.2689
  292TMC3    C3 4400   1.456   3.041   0.304  0.4122 -0.5020  0.0627
  292TMC3    C4 4401   1.245   3.138   0.160  0.5368  0.0841 -0.9830
  292TMC3    C5 4402   1.257   3.001   0.185 -0.1308 -0.6032 -0.0455
  292TMC3    C6 4403   1.372   2.952   0.250  0.1443  0.1367 -0.5514
  292TMC3     C 4404   1.331   3.366   0.196 -1.1102  0.1655  0.2994
  292TMC3     O 4405   1.226   3.412   0.157 -0.0787  0.2884  0.1413
  292TMC3     H 4406   1.522   3.243   0.342  0.9037 -0.3116  0.6003
  292TMC3    H1 4407   1.175   3.182   0.090  0.3304 -1.4934 -1.7705
  292TMC3    H2 4408   1.391   2.845   0.251 -1.4508 -0.1407  1.2757
  292TMC3    C7 4409   1.168   2.918   0.107 -0.9833 -0.7180 -0.4954
  292TMC3    C8 4410   1.581   2.986   0.349  0.3934  0.0391  0.6622
  292TMC3    O1 4411   1.055   2.966   0.098 -0.1435 -0.0180 -0.1106
  292TMC3    O2 4412   1.624   2.879   0.310 -0.0613 -0.9618  0.1456
  293MPD2     C 4413   3.366   0.926  12.419  0.7116 -0.7009 -0.0425
  293MPD2    C1 4414   3.264   0.846  12.481  0.1716  0.6909  0.3534
  293MPD2    C2 4415   3.283   0.808  12.616  0.5303  0.1163 -0.3766
  293MPD2    C3 4416   3.383   0.861  12.691 -0.7728  0.1157 -0.3494
  293MPD2    C4 4417   3.489   0.925  12.628 -0.0689  0.8403 -0.2087
  293MPD2    C5 4418   3.476   0.958  12.495  0.1942  0.2799  0.0999
  293MPD2     H 4419   3.221   0.734  12.666 -0.7948  0.8955 -0.8859
  293MPD2    H1 4420   3.576   0.961  12.681 -0.7270 -1.9371  2.7606
  293MPD2    H2 4421   3.354   0.955  12.315  1.8446 -0.4731 -0.1065
  293MPD2    H3 4422   3.560   1.015  12.457  0.8517  0.3539  1.6738
  293MPD2     N 4423   3.393   0.826  12.834 -0.3335  0.3837  0.5934
  293MPD2    H5 4424   3.330   0.747  12.848 -0.5496  0.5555  0.6052
  293MPD2    N1 4425   3.154   0.805  12.400  0.6292  0.2705  0.5197
  293MPD2    H7 4426   3.168   0.833  12.304 -0.5091  0.7482  0.4948
  294TMC3    C1 4427   2.945   0.696  12.351  0.4587 -0.0215  0.0590
  294TMC3    C2 4428   2.899   0.568  12.335  0.2376 -0.6787 -0.5646
  294TMC3    C3 4429   2.865   0.535  12.209  0.2286 -0.3158 -0.0763
  294TMC3    C4 4430   2.934   0.792  12.255 -0.2965  0.8233  0.0681
  294TMC3    C5 4431   2.891   0.753  12.129  0.1588  0.7307  0.2509
  294TMC3    C6 4432   2.860   0.620  12.104  0.0792 -0.0538 -0.4810
  294TMC3     C 4433   3.057   0.715  12.443 -0.1097  0.0323  0.0401
  294TMC3     O 4434   3.055   0.653  12.550  0.3606  0.6111 -0.0197
  294TMC3     H 4435   2.931   0.487  12.399 -0.0890 -0.3121  0.0544
  294TMC3    H1 4436   2.944   0.898  12.279  0.2758  1.2082 -1.8603
  294TMC3    H2 4437   2.824   0.592  12.006  0.1187 -2.2765  0.1475
  294TMC3    C7 4438   2.840   0.850  12.041 -0.4680  0.5186 -0.1667
  294TMC3    C8 4439   2.837   0.393  12.178  0.4634  0.1563 -0.0639
  294TMC3    O1 4440   2.803   0.952  12.087 -0.0164 -0.1667 -0.6992
  294TMC3    O2 4441   2.880   0.336  12.079  0.1021 -0.1509  0.6884
  295MPD2     C 4442   3.709   3.091   0.563 -0.0985 -0.3175 -0.4040
  295MPD2    C1 4443   3.827   3.124   0.495  0.5495 -0.4908  0.0060
  295MPD2    C2 4444   3.938   3.163   0.578 -0.0453  0.5919  0.0839
  295MPD2    C3 4445   3.926   3.171   0.711 -0.1963  0.1851 -0.1724
  295MPD2    C4 4446   3.805   3.140   0.774  0.2071  0.5216 -0.1673
  295MPD2    C5 4447   3.698   3.099   0.695 -0.0026 -0.2957  0.6719
  295MPD2     H 4448   4.038   3.172   0.535  1.1356  0.7257  2.8279
  295MPD2    H1 4449   3.792   3.145   0.881  0.1777 -2.4760 -0.0436
  295MPD2    H2 4450   3.637   3.039   0.501 -0.4266  0.1171 -0.3864
  295MPD2    H3 4451   3.604   3.085   0.747  0.3782 -1.8330  0.9436
  295MPD2     N 4452   4.040   3.212   0.789  0.0941 -0.3648 -0.4140
  295MPD2    H5 4453   4.015   3.231   0.886 -0.3264  0.8147 -0.7538
  295MPD2    N1 4454   3.848   3.121   0.354  0.2106 -0.5476 -0.3535
  295MPD2    H7 4455   3.943   3.134   0.322  1.0221 -4.9090  0.2853
  296TMC3    C1 4456   4.240   3.294   0.848  0.4227 -0.7733  0.0082
  296TMC3    C2 4457   4.167   3.411   0.890  0.0874  0.1669 -0.5788
  296TMC3    C3 4458   4.218   3.468   1.007 -0.0296  0.3845  0.1697
  296TMC3    C4 4459   4.349   3.237   0.912 -0.0148 -0.9643  0.7715
  296TMC3    C5 4460   4.382   3.298   1.028  0.3594  0.7668 -0.3709
  296TMC3    C6 4461   4.325   3.415   1.072 -0.5620 -0.5216  0.2113
  296TMC3     C 4462   4.171   3.215   0.752  1.0945  0.1970 -0.5127
  296TMC3     O 4463   4.232   3.156   0.660 -0.4331 -0.2055  0.1767
  296TMC3     H 4464   4.096   3.454   0.820 -1.4039 -0.9138  0.2763
  296TMC3    H1 4465   4.407   3.158   0.864 -1.4246 -0.6276 -1.4935
  296TMC3    H2 4466   4.374   3.456   1.160 -1.5513  0.8293  0.1359
  296TMC3    C7 4467   4.513   3.263   1.081  0.4149 -0.2764 -0.2252
  296TMC3    C8 4468   4.182   3.602   1.036  0.0977 -0.1022 -0.3026
  296TMC3    O1 4469   4.598   3.351   1.086  0.7195  0.7095  0.2898
  296TMC3    O2 4470   4.111   3.665   0.956  0.0335  0.5624  0.4957
  297MPD2     C 4471   1.294   0.738  16.378  0.5441  0.1278  0.6195
  297MPD2    C1 4472   1.235   0.791  16.267  0.3157  0.2218  0.4150
  297MPD2    C2 4473   1.306   0.871  16.186  0.5165  0.0382 -0.2715
  297MPD2    C3 4474   1.426   0.925  16.234 -0.0063  0.9437 -0.9404
  297MPD2    C4 4475   1.490   0.866  16.336  0.4551  0.7119  0.2068
  297MPD2    C5 4476   1.421   0.774  16.411  0.4062  0.0891  0.5129
  297MPD2     H 4477   1.263   0.901  16.092 -0.2806  0.8923  0.3682
  297MPD2    H1 4478   1.591   0.891  16.365  0.0967 -0.2500  2.2875
  297MPD2    H2 4479   1.239   0.664  16.435  2.3420 -3.0721 -1.7928
  297MPD2    H3 4480   1.466   0.742  16.505 -2.2809  0.7688  2.0087
  297MPD2     N 4481   1.483   1.030  16.157  0.3880 -0.4027 -0.3732
  297MPD2    H5 4482   1.428   1.065  16.079  1.2000 -0.5132 -1.0002
  297MPD2    N1 4483   1.105   0.762  16.233  0.2132  0.7063 -0.4550
  297MPD2    H7 4484   1.075   0.816  16.152  1.3901 -0.8075 -1.9036
  298TMC3    C1 4485   0.883   0.681  16.231  0.0257  0.0710 -0.3210
  298TMC3    C2 4486   0.893   0.648  16.096  0.4861 -0.5080 -0.1623
  298TMC3    C3 4487   0.783   0.671  16.016  0.1675 -0.3938 -0.1133
  298TMC3    C4 4488   0.781   0.752  16.278  0.3215 -0.2545  0.8201
  298TMC3    C5 4489   0.688   0.794  16.187 -0.0105  0.2304  0.0525
  298TMC3    C6 4490   0.682   0.750  16.060 -0.2971 -0.3834  0.8353
  298TMC3     C 4491   1.012   0.692  16.310 -0.1701  0.6983 -0.1513
  298TMC3     O 4492   1.010   0.659  16.429 -0.0199  0.6335 -0.1933
  298TMC3     H 4493   0.970   0.578  16.064  0.8699 -0.1386 -0.0456
  298TMC3    H1 4494   0.782   0.792  16.379 -3.5444 -0.9556  1.1352
  298TMC3    H2 4495   0.590   0.761  16.002  0.2859 -2.5678 -0.5139
  298TMC3    C7 4496   0.617   0.911  16.223 -0.3071  0.8768  0.5795
  298TMC3    C8 4497   0.813   0.697  15.873 -0.1653  0.1433  0.7295
  298TMC3    O1 4498   0.635   0.958  16.338  0.1972  0.1197  0.3208
  298TMC3    O2 4499   0.714   0.726  15.809 -0.2283  0.3487 -0.0252
  299MPD2     C 4500   2.184   0.848  10.157  0.1375 -0.4565  0.1438
  299MPD2    C1 4501   2.145   0.768  10.262  0.1489  0.1674 -0.0727
  299MPD2    C2 4502   2.040   0.684  10.236  0.5140  0.0800 -0.3660
  299MPD2    C3 4503   1.971   0.694  10.114  0.6626  0.0685  0.3718
  299MPD2    C4 4504   2.010   0.776  10.020 -0.4783 -0.3389  0.4795
  299MPD2    C5 4505   2.121   0.850  10.040 -0.1229 -0.2216  0.5170
  299MPD2     H 4506   2.009   0.616  10.315 -0.0891  0.9587  0.1556
  299MPD2    H1 4507   1.960   0.781   9.924  0.4180  1.3703  0.0981
  299MPD2    H2 4508   2.266   0.917  10.172 -0.3459  0.4557 -1.4680
  299MPD2    H3 4509   2.154   0.915   9.960  1.9218 -0.3465  1.2629
  299MPD2     N 4510   1.860   0.615  10.077  0.1028  0.7611 -0.0462
  299MPD2    H5 4511   1.826   0.644   9.985  1.4760  0.2083 -0.7284
  299MPD2    N1 4512   2.227   0.771  10.374 -0.3920 -0.1080 -0.0694
  299MPD2    H7 4513   2.310   0.829  10.375  0.8026 -1.7748 -3.5444
  300TMC3    C1 4514   1.673   0.468  10.094  0.2069  0.4295  0.3658
  300TMC3    C2 4515   1.602   0.560  10.016  0.5358 -0.4243 -0.5793
  300TMC3    C3 4516   1.475   0.594  10.045 -0.8158 -0.9750  0.0273
  300TMC3    C4 4517   1.606   0.408  10.196 -0.3997  0.3799  0.4285
  300TMC3    C5 4518   1.475   0.438  10.221 -0.7567 -0.5190 -0.0795
  300TMC3    C6 4519   1.406   0.524  10.145 -0.7232 -0.4034 -1.0955
  300TMC3     C 4520   1.797   0.516  10.152 -1.1248 -0.3126 -0.3890
  300TMC3     O 4521   1.816   0.484  10.269  0.2485  0.6568 -0.1490
  300TMC3     H 4522   1.648   0.622   9.940  2.3594 -1.0423  0.0136
  300TMC3    H1 4523   1.650   0.331  10.258  1.0659  1.9796  1.4073
  300TMC3    H2 4524   1.298   0.528  10.150 -0.6051  3.3345 -0.9517
  300TMC3    C7 4525   1.409   0.371  10.327 -0.3996  0.2632 -0.7766
  300TMC3    C8 4526   1.404   0.709   9.989 -0.0989 -0.4859 -0.1492
  300TMC3    O1 4527   1.448   0.265  10.370 -0.4833 -0.4212  0.0456
  300TMC3    O2 4528   1.387   0.720   9.866 -0.0755  0.1693  0.0900
  301MPD2     C 4529   0.020   1.535   1.294  0.1697 -0.1503  0.3704
  301MPD2    C1 4530   4.609   1.520   1.248 -0.2823 -0.6002 -0.0881
  301MPD2    C2 4531   4.556   1.396   1.266 -0.1213  0.6363  0.8423
  301MPD2    C3 4532   4.628   1.286   1.309 -0.8288 -0.2115 -0.5246
  301MPD2    C4 4533   0.032   1.304   1.356 -0.4776 -0.2308 -0.2761
  301MPD2    C5 4534   0.088   1.424   1.346 -0.0824  0.3995  0.1188
  301MPD2     H 4535   4.464   1.377   1.212  1.4694  3.3838 -2.7791
  301MPD2    H1 4536   0.097   1.227   1.397  0.5564  1.3324  1.0321
  301MPD2    H2 4537   0.061   1.633   1.315 -1.6603  0.8344 -0.6749
  301MPD2    H3 4538   0.181   1.444   1.398 -0.5236  1.4436  0.5024
  301MPD2     N 4539   4.578   1.156   1.319 -0.5305  0.6914  0.0858
  301MPD2    H5 4540   4.650   1.085   1.328  0.4494  1.7291  0.5113
  301MPD2    N1 4541   4.537   1.618   1.184 -1.1490 -0.6812 -0.1255
  301MPD2    H7 4542   4.447   1.603   1.138 -1.0520 -3.1808  0.5431
  302TMC3    C1 4543   4.426   0.973   1.314 -0.1734  0.6042  0.7007
  302TMC3    C2 4544   4.512   0.902   1.397  0.2334 -0.7572 -0.3089
  302TMC3    C3 4545   4.469   0.777   1.440  0.3710  0.5382  0.3276
  302TMC3    C4 4546   4.292   0.941   1.296  0.0250  0.4639 -0.2835
  302TMC3    C5 4547   4.248   0.824   1.351 -0.0474 -0.5906 -0.3380
  302TMC3    C6 4548   4.340   0.738   1.419 -0.1755 -0.2548 -0.1207
  302TMC3     C 4549   4.449   1.119   1.289 -0.0558 -0.3571 -0.3868
  302TMC3     O 4550   4.356   1.194   1.272  0.0350 -0.3723  0.8145
  302TMC3     H 4551   4.608   0.940   1.430 -0.6031  0.9909  0.0955
  302TMC3    H1 4552   4.222   0.996   1.234  0.1216 -0.5641 -1.3014
  302TMC3    H2 4553   4.308   0.637   1.444  1.1509 -0.7181 -0.3155
  302TMC3    C7 4554   4.124   0.760   1.303  1.2426 -0.3288  0.4252
  302TMC3    C8 4555   4.570   0.675   1.438  0.3109  0.0765 -0.8979
  302TMC3    O1 4556   4.124   0.637   1.290 -0.5184 -0.4672 -0.0147
  302TMC3    O2 4557   4.672   0.698   1.372 -0.6714 -0.4600 -0.7077
  303MPD2     C 4558   4.222   0.299  10.263  0.6336 -0.3475  0.1851
  303MPD2    C1 4559   4.199   0.170  10.315  1.4224  0.0484  0.0868
  303MPD2    C2 4560   4.205   0.062  10.235 -0.3305  0.4226 -0.0945
  303MPD2    C3 4561   4.237   0.088  10.102  0.2564 -0.0359 -0.5576
  303MPD2    C4 4562   4.274   0.212  10.054 -0.0999 -0.5086  0.2014
  303MPD2    C5 4563   4.267   0.318  10.141 -0.4637 -0.9510  0.3421
  303MPD2     H 4564   4.173   4.686  10.270  2.0557  0.0961  1.1770
  303MPD2    H1 4565   4.294   0.221   9.948  4.7560  3.4140  1.5082
  303MPD2    H2 4566   4.229   0.381  10.334  0.2773  0.5857 -0.8627
  303MPD2    H3 4567   4.297   0.414  10.100 -0.2256 -1.5832 -0.9572
  303MPD2     N 4568   4.226   4.705  10.007 -0.1024  0.6963 -0.1354
  303MPD2    H5 4569   4.248   0.005   9.910 -3.1695 -0.6726 -1.1284
  303MPD2    N1 4570   4.175   0.159  10.452  0.2028 -0.4021  0.3067
  303MPD2    H7 4571   4.150   0.241  10.506  0.4726  0.2239 -0.5164
  304TMC3    C1 4572   4.148   0.056  10.661 -0.1992 -0.6644  0.3809
  304TMC3    C2 4573   4.043   0.146  10.685  0.4947  0.5171 -0.5652
  304TMC3    C3 4574   3.951   0.113  10.784  0.1371 -0.4079  0.8754
  304TMC3    C4 4575   4.167   4.659  10.725  0.2479  0.4473  0.1806
  304TMC3    C5 4576   4.068   4.631  10.815 -0.1636  0.1142  0.7310
  304TMC3    C6 4577   3.967   4.715  10.849 -0.1941 -0.6272  0.6663
  304TMC3     C 4578   4.187   0.038  10.521  0.5072  0.3076  0.2124
  304TMC3     O 4579   4.231   4.645  10.492  0.7660 -0.3480  0.6250
  304TMC3     H 4580   4.027   0.231  10.619 -1.3032 -0.0800 -0.8868
  304TMC3    H1 4581   4.260   4.605  10.714 -0.9006 -1.6841  0.8134
  304TMC3    H2 4582   3.893   4.701  10.927  0.2579 -0.3216  1.1480
  304TMC3    C7 4583   4.010   4.497  10.822 -0.8378  0.8064  0.3716
  304TMC3    C8 4584   3.815   0.114  10.722 -0.1958 -0.4390  0.0408
  304TMC3    O1 4585   3.889   4.490  10.842  0.4020 -0.2134 -0.3294
  304TMC3    O2 4586   3.782   0.216  10.661 -0.3449  0.7259  0.3629
  305MPD2     C 4587   2.586   2.760  14.252  0.4373 -0.1224 -0.1710
  305MPD2    C1 4588   2.504   2.650  14.232 -0.1433  0.0884  0.6670
  305MPD2    C2 4589   2.433   2.642  14.109 -0.5914  0.9951  0.6550
  305MPD2    C3 4590   2.441   2.746  14.017  1.1067  0.1579  0.4680
  305MPD2    C4 4591   2.530   2.845  14.036 -0.3241  0.1870  1.0514
  305MPD2    C5 4592   2.600   2.855  14.151  1.2413  0.2287 -0.2180
  305MPD2     H 4593   2.383   2.550  14.081 -1.5846  2.0407 -1.0025
  305MPD2    H1 4594   2.532   2.927  13.965 -0.3453 -2.6072 -2.1714
  305MPD2    H2 4595   2.644   2.783  14.341  1.9797  2.1520 -1.7637
  305MPD2    H3 4596   2.669   2.937  14.167  2.9967 -1.0879 -1.0554
  305MPD2     N 4597   2.374   2.742  13.892 -0.1083 -0.1561 -0.1357
  305MPD2    H5 4598   2.399   2.815  13.827  3.5145 -2.2299 -1.0786
  305MPD2    N1 4599   2.489   2.551  14.330 -0.0042 -0.0105 -0.1386
  305MPD2    H7 4600   2.438   2.469  14.297  1.2341 -0.6487 -0.4890
  306TMC3    C1 4601   2.486   2.453  14.535 -0.7677  0.2539 -0.4734
  306TMC3    C2 4602   2.506   2.323  14.499  0.6124 -0.1117 -1.0376
  306TMC3    C3 4603   2.429   2.233  14.565  0.3921 -0.7244  0.5050
  306TMC3    C4 4604   2.389   2.493  14.627  0.1720  0.0442 -0.6798
  306TMC3    C5 4605   2.324   2.398  14.697 -0.5960 -0.4266  0.2306
  306TMC3    C6 4606   2.328   2.264  14.657 -0.2217  0.5032  0.1362
  306TMC3     C 4607   2.548   2.560  14.459  0.5215  0.3796 -0.2517
  306TMC3     O 4608   2.583   2.658  14.524 -0.4995 -0.2466 -0.3257
  306TMC3     H 4609   2.585   2.292  14.432 -1.7512 -0.5149 -3.6592
  306TMC3    H1 4610   2.377   2.595  14.660 -2.1696 -0.1298 -0.9705
  306TMC3    H2 4611   2.251   2.208  14.707  1.2621 -2.4511 -0.9019
  306TMC3    C7 4612   2.238   2.435  14.810  0.2473  0.3096  0.2610
  306TMC3    C8 4613   2.487   2.100  14.566 -0.9716 -0.4268  0.5402
  306TMC3    O1 4614   2.134   2.382  14.829 -0.2645 -0.0494 -0.0040
  306TMC3    O2 4615   2.566   2.070  14.480 -0.2775 -0.3266  0.0699
  307MPD2     C 4616   4.240   4.540   1.315 -0.0082  0.3891  0.0000
  307MPD2    C1 4617   4.360   4.591   1.289 -0.4996  0.3489 -0.3925
  307MPD2    C2 4618   4.368   4.716   1.230  0.0303  1.1625 -0.2540
  307MPD2    C3 4619   4.264   0.071   1.188 -0.5082 -0.3752  0.6023
  307MPD2    C4 4620   4.140   0.013   1.207 -0.9549  0.2060  0.3560
  307MPD2    C5 4621   4.137   4.605   1.266  0.6619 -0.2961  0.3804
  307MPD2     H 4622   4.466   0.040   1.220  0.2568  0.7595  0.1752
  307MPD2    H1 4623   4.049   0.048   1.160 -1.7862 -2.4826 -0.0199
  307MPD2    H2 4624   4.237   4.440   1.358  2.3871  0.6678  0.7858
  307MPD2    H3 4625   4.045   4.549   1.275  0.3089  0.4259  1.2318
  307MPD2     N 4626   4.288   0.202   1.144 -0.3508  0.2204 -0.0318
  307MPD2    H5 4627   4.380   0.210   1.102  0.5942 -0.2311  1.9784
  307MPD2    N1 4628   4.484   4.520   1.322 -0.8239  0.2121  0.2345
  307MPD2    H7 4629   4.572   4.562   1.293 -1.4314  0.4587 -1.2563
  308TMC3    C1 4630   4.145   0.604   0.929  0.7176 -0.0436 -0.7885
  308TMC3    C2 4631   4.256   0.673   0.958 -0.0158 -0.3209 -0.5882
  308TMC3    C3 4632   4.351   0.608   1.025 -0.3550  0.6971 -0.0229
  308TMC3    C4 4633   4.130   0.479   0.980 -0.6721  0.2146 -0.3952
  308TMC3    C5 4634   4.223   0.417   1.052 -0.4339 -0.3956 -0.3084
  308TMC3    C6 4635   4.342   0.484   1.075 -0.2317 -0.2848  0.0946
  308TMC3     C 4636   4.044   0.665   0.845 -0.1697 -0.2905  0.1556
  308TMC3     O 4637   4.064   0.789   0.842  0.1496  0.1280  0.6547
  308TMC3     H 4638   4.275   0.771   0.915 -0.1617  0.1638  0.4694
  308TMC3    H1 4639   4.038   0.424   0.963  0.2331 -0.9168 -1.6227
  308TMC3    H2 4640   4.423   0.447   1.137 -1.5503 -1.6582  1.0049
  308TMC3    C7 4641   4.184   0.289   1.108 -0.1863 -0.2817 -0.1940
  308TMC3    C8 4642   4.478   0.675   1.016 -0.1418  0.5963  0.0189
  308TMC3    O1 4643   4.066   0.290   1.140 -0.1275 -0.3119  0.2378
  308TMC3    O2 4644   4.484   0.795   1.038 -0.0974  0.4235 -0.0679
  309MPD2     C 4645   4.050   0.426  16.910  0.2663  0.1683  0.4453
  309MPD2    C1 4646   3.992   0.484  16.800  0.0810 -0.4480  1.3620
  309MPD2    C2 4647   3.860   0.523  16.803  0.4058 -0.2113  0.5655
  309MPD2    C3 4648   3.790   0.530  16.923  0.4286 -0.2014 -0.1785
  309MPD2    C4 4649   3.848   0.475  17.034  0.6225  0.6593 -0.3280
  309MPD2    C5 4650   3.977   0.422  17.031  0.3120 -0.4730 -0.0409
  309MPD2     H 4651   3.812   0.551  16.710  0.9621 -0.0237  0.3348
  309MPD2    H1 4652   3.793   0.473  17.127  2.5686 -0.4139  0.8088
  309MPD2    H2 4653   4.151   0.389  16.918 -0.0534 -0.4145  1.9004
  309MPD2    H3 4654   4.020   0.383  17.123 -0.9715 -4.4798 -1.1835
  309MPD2     N 4655   3.657   0.580  16.940 -0.0908 -0.6447 -0.0529
  309MPD2    H5 4656   3.614   0.576  17.033  0.2565  1.4240  0.1932
  309MPD2    N1 4657   4.058   0.488  16.677 -0.4395  0.3455  0.4807
  309MPD2    H7 4658   4.005   0.525  16.598 -2.9800 -1.4490  1.3456
  310TMC3    C1 4659   4.229   0.468  16.518 -0.0391 -0.0932 -0.0251
  310TMC3    C2 4660   4.143   0.531  16.427  0.3751  0.5254  0.0950
  310TMC3    C3 4661   4.189   0.545  16.301 -0.0674  0.3765  0.0301
  310TMC3    C4 4662   4.352   0.425  16.483  0.6659  0.7014  0.0809
  310TMC3    C5 4663   4.385   0.428  16.349 -0.2808 -0.2765  0.3966
  310TMC3    C6 4664   4.302   0.485  16.256 -0.0763 -0.7907 -0.4530
  310TMC3     C 4665   4.192   0.451  16.660  0.2582  0.1865 -0.2927
  310TMC3     O 4666   4.276   0.404  16.735  0.3277  0.1215  0.0459
  310TMC3     H 4667   4.048   0.579  16.447 -0.7369 -1.0361 -1.3967
  310TMC3    H1 4668   4.423   0.381  16.552 -1.0472 -2.3633 -0.1671
  310TMC3    H2 4669   4.324   0.463  16.152 -0.4182 -1.0289 -0.4752
  310TMC3    C7 4670   4.499   0.343  16.309  0.2864  0.0281 -0.8811
  310TMC3    C8 4671   4.103   0.601  16.195 -0.1642 -0.5156 -0.1121
  310TMC3    O1 4672   4.539   0.259  16.387 -0.2807 -0.6974  0.2870
  310TMC3    O2 4673   4.160   0.667  16.108 -0.6593  0.4694  0.2299
  311MPD2     C 4674   1.462   2.798  12.040  0.3044  0.2215 -0.3157
  311MPD2    C1 4675   1.485   2.762  12.171  0.4411  0.8103 -0.3792
  311MPD2    C2 4676   1.386   2.704  12.239 -0.0939  0.4285  0.1578
  311MPD2    C3 4677   1.260   2.690  12.183 -0.0171 -0.2682  0.3768
  311MPD2    C4 4678   1.239   2.729  12.056  0.6153  0.4743  0.4315
  311MPD2    C5 4679   1.339   2.786  11.985  0.4918  0.6097  0.8917
  311MPD2     H 4680   1.394   2.676  12.344 -1.0842  0.5527  0.2654
  311MPD2    H1 4681   1.142   2.711  12.012  1.2680  0.2364 -0.8900
  311MPD2    H2 4682   1.538   2.852  11.984 -0.2885  1.3077 -0.0803
  311MPD2    H3 4683   1.328   2.823  11.883 -1.4428 -0.1702  0.8082
  311MPD2     N 4684   1.151   2.640  12.259 -0.4751  0.3949 -0.0479
  311MPD2    H5 4685   1.173   2.604  12.352 -0.8937  0.3550  0.0377
  311MPD2    N1 4686   1.606   2.777  12.236 -0.1231  0.1056  0.4569
  311MPD2    H7 4687   1.616   2.736  12.329  2.9212 -0.3152 -0.0718
  312TMC3    C1 4688   0.936   2.605  12.351 -0.3074  0.0374 -0.1146
  312TMC3    C2 4689   0.800   2.590  12.344 -0.9104 -0.0046 -0.8457
  312TMC3    C3 4690   0.732   2.545  12.455  0.7324 -0.0081  0.3435
  312TMC3    C4 4691   1.002   2.578  12.472  0.5159 -0.5186 -0.1367
  312TMC3    C5 4692   0.932   2.539  12.576  0.1196  0.3478 -0.6386
  312TMC3    C6 4693   0.800   2.513  12.568  0.1554  0.2882  1.1236
  312TMC3     C 4694   1.017   2.650  12.235  0.3657  0.5554  0.5493
  312TMC3     O 4695   0.956   2.719  12.155 -0.0125  0.2213  0.3452
  312TMC3     H 4696   0.751   2.606  12.248 -1.2847  2.2227 -0.2805
  312TMC3    H1 4697   1.107   2.588  12.495  0.2259  1.3939  0.3209
  312TMC3    H2 4698   0.748   2.489  12.661 -0.8666 -1.3161  0.1434
  312TMC3    C7 4699   1.007   2.527  12.703 -0.5568  1.1696  0.0346
  312TMC3    C8 4700   0.593   2.511  12.443  0.2240 -0.1298 -0.4263
  312TMC3    O1 4701   1.115   2.587  12.711  0.5294  0.0875 -0.1765
  312TMC3    O2 4702   0.554   2.424  12.517 -0.4986  0.6338  0.5986
  313MPD2     C 4703   0.806   1.463  11.109 -0.2048 -0.1342 -0.2575
  313MPD2    C1 4704   0.672   1.459  11.127 -0.8382  0.1255  0.1734
  313MPD2    C2 4705   0.602   1.392  11.028 -0.2431  0.1712 -0.4320
  313MPD2    C3 4706   0.653   1.346  10.909 -0.5587  0.1861 -0.2258
  313MPD2    C4 4707   0.790   1.361  10.897 -0.2042 -0.4274  0.4620
  313MPD2    C5 4708   0.864   1.418  10.998 -0.3226 -0.1365 -0.6796
  313MPD2     H 4709   0.499   1.366  11.050  0.5573 -1.7896  0.9384
  313MPD2    H1 4710   0.857   1.321  10.822  1.4917  0.1160  1.6930
  313MPD2    H2 4711   0.874   1.506  11.181 -0.8141 -0.3558  0.4547
  313MPD2    H3 4712   0.972   1.424  10.997 -0.3867  0.8673 -1.1137
  313MPD2     N 4713   0.567   1.300  10.801 -0.4651  0.1422  0.2339
  313MPD2    H5 4714   0.467   1.303  10.819  0.1459  1.5115  3.3853
  313MPD2    N1 4715   0.603   1.526  11.235 -0.1921 -0.4537 -0.1641
  313MPD2    H7 4716   0.501   1.525  11.234 -0.1979 -1.0794  0.6113
  314TMC3    C1 4717   0.592   1.687  11.400  0.4408 -0.4333  0.4152
  314TMC3    C2 4718   0.669   1.782  11.464 -0.1000  0.2533  0.3773
  314TMC3    C3 4719   0.641   1.916  11.456  0.0914  0.1874 -0.1767
  314TMC3    C4 4720   0.490   1.730  11.329 -0.1587  0.3383 -0.3041
  314TMC3    C5 4721   0.451   1.860  11.326  0.6421 -0.1508 -1.0534
  314TMC3    C6 4722   0.535   1.953  11.383  0.3053 -0.4287  0.3032
  314TMC3     C 4723   0.669   1.578  11.349  0.2912  0.1667 -0.1236
  314TMC3     O 4724   0.787   1.577  11.381  0.4092  0.0206  0.4627
  314TMC3     H 4725   0.754   1.747  11.520  1.3912 -1.7346 -3.1121
  314TMC3    H1 4726   0.415   1.666  11.284  0.3192 -0.2683 -0.2336
  314TMC3    H2 4727   0.526   2.058  11.355  0.8321  0.0211  1.8131
  314TMC3    C7 4728   0.397   1.912  11.206  0.1552  1.1468  1.0142
  314TMC3    C8 4729   0.754   2.000  11.448  0.5566 -0.4766  0.7114
  314TMC3    O1 4730   0.328   2.015  11.212 -0.0641 -0.3622 -0.7492
  314TMC3    O2 4731   0.762   2.095  11.367  1.3235  0.2668  0.0029
  315MPD2     C 4732   0.499   0.381  17.373 -0.1129  0.3419 -0.1203
  315MPD2    C1 4733   0.562   0.413  17.493  0.0474 -0.2049  0.6905
  315MPD2    C2 4734   0.602   0.546  17.515 -0.3802 -1.3318 -0.0727
  315MPD2    C3 4735   0.581   0.640  17.420  0.2412 -0.2125 -0.3142
  315MPD2    C4 4736   0.509   0.609  17.311  0.3706  0.3455 -0.0474
  315MPD2    C5 4737   0.462   0.482  17.286 -0.0335  0.0558 -0.4122
  315MPD2     H 4738   0.646   0.582  17.608 -2.2000  2.9422 -0.8665
  315MPD2    H1 4739   0.485   0.679  17.233 -1.9092  1.2903  1.4988
  315MPD2    H2 4740   0.467   0.280  17.349 -0.6441  0.1028  1.5825
  315MPD2    H3 4741   0.395   0.470  17.201 -0.5677  2.7011 -0.3798
  315MPD2     N 4742   0.646   0.766  17.439  0.0687 -0.1284 -0.0568
  315MPD2    H5 4743   0.708   0.768  17.519 -0.0195  0.6286 -0.0010
  315MPD2    N1 4744   0.588   0.311  17.584 -0.2539  0.1429 -0.0462
  315MPD2    H7 4745   0.580   0.214  17.556 -0.1387  0.7556 -2.1807
  316TMC3    C1 4746   0.720   0.975  17.413  0.6055 -0.9391  0.7686
  316TMC3    C2 4747   0.744   0.975  17.548 -0.2928 -1.1984 -0.2401
  316TMC3    C3 4748   0.862   1.024  17.589 -0.1503  0.1424  0.2593
  316TMC3    C4 4749   0.812   1.028  17.322 -0.2723 -0.4577  0.2196
  316TMC3    C5 4750   0.929   1.083  17.365  0.6198 -1.1014 -0.5724
  316TMC3    C6 4751   0.960   1.080  17.504  0.8529  0.8009 -0.0892
  316TMC3     C 4752   0.634   0.873  17.357  0.1278  0.6252  0.9574
  316TMC3     O 4753   0.596   0.877  17.238  0.5774  0.3007  0.8617
  316TMC3     H 4754   0.674   0.939  17.622  1.1525 -3.8156 -0.1066
  316TMC3    H1 4755   0.796   1.013  17.216 -1.2734  0.1393  0.2940
  316TMC3    H2 4756   1.030   1.148  17.550  1.5296  0.7822 -1.0998
  316TMC3    C7 4757   0.951   1.215  17.315  0.4378 -0.3540 -0.1936
  316TMC3    C8 4758   0.889   1.020   0.050  0.0897 -0.0601 -0.6999
  316TMC3    O1 4759   1.015   1.292  17.388 -0.6015 -0.0775 -0.2147
  316TMC3    O2 4760   0.789   1.014   0.121  0.0107 -0.5498 -0.0002
  317MPD2     C 4761   2.544   4.235  13.111  0.0990 -0.1396  0.4587
  317MPD2    C1 4762   2.626   4.155  13.038  0.1693 -0.0833  0.3855
  317MPD2    C2 4763   2.722   4.074  13.098  0.5691  0.0211 -0.1907
  317MPD2    C3 4764   2.744   4.083  13.234  0.1009 -0.5955  0.1372
  317MPD2    C4 4765   2.671   4.179  13.301  0.3944  0.0651  0.4560
  317MPD2    C5 4766   2.576   4.252  13.242  0.4015  0.0478 -0.5088
  317MPD2     H 4767   2.767   3.993  13.043  1.3198  1.1195 -1.1946
  317MPD2    H1 4768   2.700   4.199  13.404 -0.5860  3.1521  0.1333
  317MPD2    H2 4769   2.456   4.274  13.061 -0.7317 -1.9056  0.5803
  317MPD2    H3 4770   2.525   4.334  13.291  0.9280  0.5856 -0.8644
  317MPD2     N 4771   2.850   4.012  13.296 -0.6026 -0.3314 -0.3235
  317MPD2    H5 4772   2.892   3.938  13.241  0.0630  1.5861 -2.4172
  317MPD2    N1 4773   2.610   4.134  12.893  0.2305 -0.1728  1.2434
  317MPD2    H7 4774   2.666   4.064  12.845 -0.3560 -0.6419  1.2541
  318TMC3    C1 4775   2.984   3.888  13.453 -0.2525  0.7412 -0.1074
  318TMC3    C2 4776   2.936   3.771  13.395  0.3243  0.2709  0.0582
  318TMC3    C3 4777   3.019   3.665  13.383 -0.1761 -0.6224  0.6348
  318TMC3    C4 4778   3.111   3.904  13.495 -0.1607  0.2045  0.1250
  318TMC3    C5 4779   3.196   3.792  13.485  0.0368  0.4278  0.0385
  318TMC3    C6 4780   3.152   3.675  13.426 -0.7693 -0.1997  0.1010
  318TMC3     C 4781   2.898   4.012  13.426 -0.5288  0.1030 -0.3672
  318TMC3     O 4782   2.886   4.093  13.516  0.0333  0.2876 -0.1587
  318TMC3     H 4783   2.828   3.761  13.392  0.5766 -2.9676  1.8853
  318TMC3    H1 4784   3.142   3.996  13.542  2.0521 -1.4298  1.8901
  318TMC3    H2 4785   3.227   3.598  13.410 -0.3647 -0.0574  1.3006
  318TMC3    C7 4786   3.339   3.807  13.517 -0.0952  0.3697 -0.3324
  318TMC3    C8 4787   2.984   3.554  13.293 -0.0929 -0.2189 -0.8706
  318TMC3    O1 4788   3.387   3.916  13.533 -0.2736  0.1340 -0.7367
  318TMC3    O2 4789   3.073   3.476  13.273 -0.2609 -0.2131 -0.4543
  319MPD2     C 4790   3.587   0.246  16.364 -0.1644  0.2690 -0.6170
  319MPD2    C1 4791   3.475   0.239  16.443 -0.0598  0.1545 -0.0009
  319MPD2    C2 4792   3.351   0.223  16.385  0.5834  0.1489 -0.0144
  319MPD2    C3 4793   3.336   0.236  16.247 -1.0344 -0.0738  0.2162
  319MPD2    C4 4794   3.450   0.247  16.170  0.2832 -0.0429 -0.4040
  319MPD2    C5 4795   3.576   0.238  16.229  0.4340  0.3168  0.9653
  319MPD2     H 4796   3.266   0.189  16.443  1.7852 -2.3100  0.3048
  319MPD2    H1 4797   3.452   0.235  16.062  1.6831 -0.6275 -0.3178
  319MPD2    H2 4798   3.689   0.237  16.400  0.0637  2.1218 -0.8223
  319MPD2    H3 4799   3.660   0.230  16.162  0.9357  0.5667  1.5656
  319MPD2     N 4800   3.218   0.218  16.176  0.8296 -0.5961 -0.0540
  319MPD2    H5 4801   3.222   0.225  16.074  1.6493 -1.1226 -0.0585
  319MPD2    N1 4802   3.479   0.226  16.585 -0.3659 -0.1924 -0.7003
  319MPD2    H7 4803   3.396   0.195  16.634  0.3370  0.9143  1.1947
  320TMC3    C1 4804   2.981   0.186  16.152 -0.5552 -0.0638 -0.5016
  320TMC3    C2 4805   2.987   0.229  16.019  0.8072 -0.0156  0.7399
  320TMC3    C3 4806   2.905   0.179  15.913  0.3450  0.3673  0.5752
  320TMC3    C4 4807   2.883   0.094  16.182  0.7092 -0.0056 -0.4122
  320TMC3    C5 4808   2.804   0.048  16.081  0.0641  0.0810  0.4803
  320TMC3    C6 4809   2.806   0.095  15.951  0.5209  0.6734  0.4098
  320TMC3     C 4810   3.096   0.202  16.238  0.1307  0.2805  0.5318
  320TMC3     O 4811   3.065   0.177  16.353 -0.3467 -0.5100 -0.1583
  320TMC3     H 4812   3.058   0.308  15.996  0.6313 -0.0686  0.0090
  320TMC3    H1 4813   2.876   0.061  16.284 -1.0246  2.1480  0.1531
  320TMC3    H2 4814   2.741   0.055  15.874 -1.3279  2.8229  0.8369
  320TMC3    C7 4815   2.738   4.641  16.097  0.2038  0.2728 -0.1750
  320TMC3    C8 4816   2.866   0.282  15.818  0.7589 -0.8409 -0.1772
  320TMC3    O1 4817   2.708   4.573  16.000  0.0005 -0.1124  0.2289
  320TMC3    O2 4818   2.879   0.394  15.868 -0.6994 -0.2225  0.0768
  321TMC3    C1 4819   3.587   0.210  16.793  0.2343 -0.2739 -0.0898
  321TMC3    C2 4820   3.475   0.154  16.846  0.1215 -0.3200  0.3299
  321TMC3    C3 4821   3.484   0.137  16.985  0.1027  0.4482  0.4513
  321TMC3    C4 4822   3.702   0.223  16.856 -0.5105 -0.4877 -0.5161
  321TMC3    C5 4823   3.709   0.192  16.986  0.3061  0.4372  0.4813
  321TMC3    C6 4824   3.598   0.153  17.057 -0.4294  0.6876  1.0058
  321TMC3     C 4825   3.591   0.255  16.662  0.0207 -0.0381 -0.0549
  321TMC3     O 4826   3.689   0.312  16.616  0.1781  0.5585  0.4171
  321TMC3     H 4827   3.381   0.137  16.795  0.8264  0.9659 -1.3863
  321TMC3    H1 4828   3.791   0.262  16.808 -0.7893  1.0968  0.2427
  321TMC3    H2 4829   3.599   0.165  17.165  1.4732  1.8388  0.8649
  321TMC3    C7 4830   3.818   0.102  17.022  0.5580 -0.3450  0.4038
  321TMC3    C8 4831   3.422   0.006  17.026 -0.5068 -0.0651  1.2049
  321TMC3    O1 4832   3.786   0.031  17.118 -0.7715 -0.0199 -0.2234
  321TMC3    O2 4833   3.314   4.695  16.969  0.2404  0.8622  0.0488
  322MPD2     C 4834   1.808   1.781  13.442 -0.4238  0.7936 -0.9093
  322MPD2    C1 4835   1.836   1.722  13.560 -0.6855  0.0705 -0.4095
  322MPD2    C2 4836   1.884   1.595  13.556 -0.3745  0.0209 -0.0201
  322MPD2    C3 4837   1.889   1.516  13.439 -0.6416  0.4816  0.0356
  322MPD2    C4 4838   1.845   1.575  13.328 -0.1821  0.1179  0.3473
  322MPD2    C5 4839   1.798   1.705  13.333  0.2144  0.3611  0.1313
  322MPD2     H 4840   1.930   1.555  13.646  0.1818  0.5643 -0.0695
  322MPD2    H1 4841   1.853   1.522  13.234 -2.3782 -0.5029  0.5116
  322MPD2    H2 4842   1.784   1.887  13.437  1.3923  1.2236 -0.4596
  322MPD2    H3 4843   1.785   1.754  13.237  0.1575  0.1452  0.0285
  322MPD2     N 4844   1.945   1.389  13.439 -0.0074  0.2647 -0.5420
  322MPD2    H5 4845   1.990   1.358  13.525 -0.3881 -2.0457 -1.1963
  322MPD2    N1 4846   1.852   1.795  13.678 -0.3356  0.3704 -0.2339
  322MPD2    H7 4847   1.847   1.896  13.670 -0.1882  0.5739  2.1694
  323TMC3    C1 4848   1.852   1.830  13.914  0.0370 -0.7438  0.5050
  323TMC3    C2 4849   1.920   1.945  13.897  0.6838  0.0094 -0.5384
  323TMC3    C3 4850   1.965   2.015  14.009 -0.5934 -0.3000 -0.1894
  323TMC3    C4 4851   1.817   1.794  14.038 -0.0799 -0.2321 -0.3163
  323TMC3    C5 4852   1.862   1.857  14.149  0.5541  0.9187 -0.4793
  323TMC3    C6 4853   1.934   1.978  14.135  0.6788 -0.4582 -0.3107
  323TMC3     C 4854   1.811   1.742  13.801  0.1039 -0.6180  0.5692
  323TMC3     O 4855   1.757   1.638  13.821  0.7231  0.3715 -0.4015
  323TMC3     H 4856   1.964   1.974  13.802  0.0867 -0.8903 -1.0925
  323TMC3    H1 4857   1.760   1.704  14.058 -0.9678  0.3751 -0.1397
  323TMC3    H2 4858   1.960   2.040  14.219  1.0361  0.2491 -0.9431
  323TMC3    C7 4859   1.914   1.771  14.251  0.1725 -1.1465  0.2081
  323TMC3    C8 4860   2.086   2.096  14.004 -0.7566  0.4369 -0.4036
  323TMC3    O1 4861   1.875   1.656  14.259  0.0486  0.2304  0.1928
  323TMC3    O2 4862   2.156   2.107  14.103 -0.5780 -0.0482 -0.4869
  324MPD2     C 4863   3.825   2.920  14.173 -0.2486 -0.4526 -0.0668
  324MPD2    C1 4864   3.836   3.009  14.069 -0.1881 -0.0186 -0.1482
  324MPD2    C2 4865   3.723   3.062  14.008 -0.1108 -0.1443 -0.4581
  324MPD2    C3 4866   3.592   3.004  14.035  0.0215  0.3891  0.4024
  324MPD2    C4 4867   3.582   2.903  14.126  0.7394  0.5687 -0.0672
  324MPD2    C5 4868   3.701   2.871  14.191 -0.0446 -0.4392  0.3169
  324MPD2     H 4869   3.727   3.145  13.938  2.7530 -1.8167 -2.2478
  324MPD2    H1 4870   3.495   2.842  14.149  1.3479 -0.3888 -0.2898
  324MPD2    H2 4871   3.905   2.879  14.234  0.7382  1.1392 -0.2918
  324MPD2    H3 4872   3.684   2.798  14.270 -0.9513 -1.1218 -0.4973
  324MPD2     N 4873   3.473   3.053  13.982  0.5124 -0.2168 -0.4975
  324MPD2    H5 4874   3.390   2.998  14.005  1.8061 -1.8589  0.2397
  324MPD2    N1 4875   3.963   3.051  14.026  0.2151  0.3014 -0.8847
  324MPD2    H7 4876   3.974   3.132  13.967 -1.4126  0.9622 -0.2775
  325TMC3    C1 4877   3.324   3.197  13.908  0.7631  0.1374  0.5348
  325TMC3    C2 4878   3.261   3.102  13.833 -0.3341  0.3696  0.3306
  325TMC3    C3 4879   3.128   3.083  13.857 -0.1629 -0.4093  0.1966
  325TMC3    C4 4880   3.256   3.277  14.007 -0.6078  0.1764  0.2440
  325TMC3    C5 4881   3.123   3.256  14.015  0.6598 -0.1600 -0.0163
  325TMC3    C6 4882   3.055   3.161  13.943  0.2207  0.0604 -0.1361
  325TMC3     C 4883   3.462   3.172  13.918 -0.3414  0.3039 -0.2389
  325TMC3     O 4884   3.541   3.261  13.910 -0.0284  0.0641 -0.5472
  325TMC3     H 4885   3.314   3.041  13.761 -1.4166 -1.1175  0.8047
  325TMC3    H1 4886   3.319   3.353  14.051  0.6981 -0.0270 -1.2610
  325TMC3    H2 4887   2.947   3.157  13.954  0.3201 -0.6225  0.5689
  325TMC3    C7 4888   3.051   3.330  14.119  0.0879  0.4957  0.1225
  325TMC3    C8 4889   3.068   2.990  13.761 -0.1249 -0.4411 -0.6764
  325TMC3    O1 4890   2.934   3.351  14.101 -0.0686  0.1145  0.4124
  325TMC3    O2 4891   3.143   2.962  13.663 -0.0557  0.5166  0.0182
  326MPD2     C 4892   0.486   3.600  10.697 -0.1410  0.2570  0.7517
  326MPD2    C1 4893   0.491   3.732  10.677 -0.2428  0.7124 -0.1252
  326MPD2    C2 4894   0.593   3.815  10.730 -0.3093 -0.3506 -0.0656
  326MPD2    C3 4895   0.705   3.758  10.793 -0.5320 -0.4737 -0.8212
  326MPD2    C4 4896   0.696   3.620  10.809 -1.0232 -0.4601  0.2554
  326MPD2    C5 4897   0.590   3.545  10.761  0.6170  0.4325 -0.3384
  326MPD2     H 4898   0.590   3.920  10.705  0.1925 -0.0051  1.3139
  326MPD2    H1 4899   0.767   3.563  10.867 -1.4142 -0.5811  0.6118
  326MPD2    H2 4900   0.399   3.544  10.663 -0.7984  0.6258  1.7995
  326MPD2    H3 4901   0.589   3.438  10.782 -1.5019  0.1986 -1.6952
  326MPD2     N 4902   0.820   3.828  10.827 -0.2184  0.5339  0.0973
  326MPD2    H5 4903   0.901   3.785  10.870 -0.8595 -1.5341 -0.7955
  326MPD2    N1 4904   0.396   3.799  10.600 -0.1389 -0.0935  1.4056
  326MPD2    H7 4905   0.415   3.899  10.589 -0.0666 -0.3934 -1.3281
  327TMC3    C1 4906   0.259   3.836  10.422  0.2004  0.1026  0.5371
  327TMC3    C2 4907   0.173   3.940  10.449 -0.0700 -0.4031 -0.0117
  327TMC3    C3 4908   0.206   4.057  10.380 -0.7273  0.2128  0.2480
  327TMC3    C4 4909   0.385   3.855  10.364  0.2414 -0.1263 -0.1802
  327TMC3    C5 4910   0.417   3.982  10.326 -0.3206 -0.4966  0.1087
  327TMC3    C6 4911   0.326   4.072  10.314  0.3076  0.1074 -1.0664
  327TMC3     C 4912   0.285   3.750  10.532 -0.1192 -0.2119  0.0816
  327TMC3     O 4913   0.222   3.647  10.548  0.4571 -0.0824  0.1424
  327TMC3     H 4914   0.078   3.930  10.501 -0.0571 -1.4494 -0.1836
  327TMC3    H1 4915   0.449   3.768  10.355 -0.4037 -0.5860 -0.2977
  327TMC3    H2 4916   0.354   4.171  10.280 -1.6312  1.2043  0.5017
  327TMC3    C7 4917   0.555   4.015  10.298  0.3720  0.4243 -0.0902
  327TMC3    C8 4918   0.102   4.161  10.344 -0.6758 -0.0801  0.7241
  327TMC3    O1 4919   0.578   4.130  10.255  0.0730  0.5918 -0.3496
  327TMC3    O2 4920   0.133   4.271  10.305 -0.5959  0.4863 -0.1531
  328MPD2     C 4921   2.509   3.767  16.939 -0.4211  0.8489 -0.1235
  328MPD2    C1 4922   2.461   3.634  16.935  0.2284 -0.6967 -0.5758
  328MPD2    C2 4923   2.364   3.602  16.838  0.0245  0.2711  0.1295
  328MPD2    C3 4924   2.308   3.699  16.758  0.1140  0.2539  0.5269
  328MPD2    C4 4925   2.361   3.825  16.763  0.0174  0.4289 -0.5657
  328MPD2    C5 4926   2.455   3.862  16.855 -0.2520  0.6620  0.8481
  328MPD2     H 4927   2.342   3.498  16.819 -0.5451  0.3894  0.1510
  328MPD2    H1 4928   2.313   3.906  16.708  1.3170  0.4806 -1.6314
  328MPD2    H2 4929   2.596   3.798  16.996  0.8172 -0.1473 -1.4780
  328MPD2    H3 4930   2.484   3.965  16.865 -0.4184  1.0725 -3.1269
  328MPD2     N 4931   2.211   3.679  16.665 -0.2631 -0.5103  0.6592
  328MPD2    H5 4932   2.182   3.761  16.612  1.7129 -1.0240 -1.2222
  328MPD2    N1 4933   2.502   3.529  17.023 -0.1711  0.1616  0.3522
  328MPD2    H7 4934   2.456   3.440  17.006  0.5668  0.1345 -1.4902
  329TMC3    C1 4935   2.654   3.428  17.180 -0.2225  0.7956 -0.2279
  329TMC3    C2 4936   2.686   3.439  17.309 -0.6144 -0.3100 -0.3916
  329TMC3    C3 4937   2.729   3.333  17.382 -1.2272 -0.6870 -0.0970
  329TMC3    C4 4938   2.649   3.309  17.119  0.1061  0.3370  0.1889
  329TMC3    C5 4939   2.688   3.198  17.194 -0.3780  1.0821 -0.0571
  329TMC3    C6 4940   2.731   3.210  17.324  0.1223  0.5044 -0.0043
  329TMC3     C 4941   2.604   3.549  17.116 -0.2671 -0.4359  0.4456
  329TMC3     O 4942   2.670   3.650  17.154 -0.0164 -0.3354 -0.0789
  329TMC3     H 4943   2.701   3.541  17.343  0.7046 -0.9424  0.9038
  329TMC3    H1 4944   2.623   3.302  17.014 -0.7130  2.4010  0.2698
  329TMC3    H2 4945   2.756   3.120  17.380  2.7159  0.0955 -1.7914
  329TMC3    C7 4946   2.662   3.067  17.140  0.1173 -0.2639  0.2430
  329TMC3    C8 4947   2.726   3.338  17.528  0.1682  1.3453 -0.0091
  329TMC3    O1 4948   2.698   2.966  17.198 -0.4947  0.0019  0.5655
  329TMC3    O2 4949   2.747   3.232  17.589 -0.5258  0.1283  0.1649
  330TMC3    C1 4950   0.536   3.043   9.798  0.0318 -0.0323 -0.1334
  330TMC3    C2 4951   0.455   2.959   9.723  0.6280 -0.8784 -0.4367
  330TMC3    C3 4952   0.497   2.829   9.702 -1.0938 -0.6354  0.2879
  330TMC3    C4 4953   0.658   2.990   9.843 -0.5667  0.1979 -0.5390
  330TMC3    C5 4954   0.689   2.863   9.812  0.3955  0.2595 -0.2754
  330TMC3    C6 4955   0.610   2.775   9.744 -0.0905  0.1985  0.3530
  330TMC3     C 4956   0.514   3.187   9.807 -0.3272  0.4387 -0.7384
  330TMC3     O 4957   0.599   3.261   9.850  0.0075  0.5879  0.0895
  330TMC3     H 4958   0.364   2.994   9.676  0.4637 -1.3692 -0.4816
  330TMC3    H1 4959   0.732   3.045   9.899 -2.0415  0.2630  1.3362
  330TMC3    H2 4960   0.632   2.671   9.723 -2.4314 -0.3260  0.4865
  330TMC3    C7 4961   0.806   2.803   9.883  0.2584 -1.0106  0.5088
  330TMC3    C8 4962   0.414   2.750   9.609 -0.3396  1.0354  0.2798
  330TMC3    O1 4963   0.895   2.880   9.921  0.3140 -0.1540  0.2899
  330TMC3    O2 4964   0.367   2.816   9.519  0.0363  0.8006  0.4932
  331MPD2     C 4965   3.208   2.626  12.255 -0.6484 -0.0719  0.8107
  331MPD2    C1 4966   3.344   2.632  12.288 -0.1823  0.2036 -0.0542
  331MPD2    C2 4967   3.417   2.515  12.300 -0.0207  0.6315 -0.3823
  331MPD2    C3 4968   3.358   2.391  12.280 -0.1244  0.4323 -0.0161
  331MPD2    C4 4969   3.221   2.386  12.262 -0.3345  0.1380  0.1539
  331MPD2    C5 4970   3.146   2.504  12.253 -0.0282 -0.3672  0.2207
  331MPD2     H 4971   3.525   2.517  12.309  0.2587 -2.7794 -2.8524
  331MPD2    H1 4972   3.171   2.290  12.261  0.5650 -0.3256 -0.2564
  331MPD2    H2 4973   3.163   2.714  12.209  1.0889 -0.7702 -2.2150
  331MPD2    H3 4974   3.045   2.497  12.215  1.2393  3.3305 -3.8466
  331MPD2     N 4975   3.440   2.275  12.279 -0.3813  0.3015 -0.0179
  331MPD2    H5 4976   3.537   2.303  12.292 -0.4329 -0.0865  1.2096
  331MPD2    N1 4977   3.419   2.753  12.284 -0.1990  0.0277 -0.4725
  331MPD2    H7 4978   3.373   2.823  12.227 -0.5756 -1.2536 -1.7483
  332TMC3    C1 4979   3.514   2.068  12.196  0.4290 -0.0625  0.2618
  332TMC3    C2 4980   3.596   2.126  12.098 -0.3144  0.3525  0.0246
  332TMC3    C3 4981   3.713   2.064  12.087 -0.2868 -0.5238 -0.4245
  332TMC3    C4 4982   3.545   1.965  12.279  0.1311 -0.6741 -0.0091
  332TMC3    C5 4983   3.674   1.919  12.262 -0.8906 -0.4329  0.2548
  332TMC3    C6 4984   3.759   1.966  12.164  0.0883  0.3778  0.2260
  332TMC3     C 4985   3.404   2.152  12.232 -0.5841 -0.1515  0.1130
  332TMC3     O 4986   3.299   2.091  12.241 -0.5642  0.3782 -0.9792
  332TMC3     H 4987   3.556   2.209  12.041 -1.0121 -0.5972 -0.8441
  332TMC3    H1 4988   3.482   1.926  12.359  0.0353  1.4759  0.9515
  332TMC3    H2 4989   3.857   1.930  12.136  0.6939  0.1948  2.5545
  332TMC3    C7 4990   3.742   1.857  12.371 -0.2720  0.2705 -0.9862
  332TMC3    C8 4991   3.796   2.103  11.976  1.1887  0.6827 -0.2773
  332TMC3    O1 4992   3.670   1.805  12.454 -0.5993  0.1573 -0.1073
  332TMC3    O2 4993   3.915   2.076  11.973  0.0096  0.0065  0.2199
  333MPD2     C 4994   3.644   2.414  11.178  1.0180  0.2577  0.2473
  333MPD2    C1 4995   3.723   2.338  11.099  0.1423  0.3517  0.4111
  333MPD2    C2 4996   3.683   2.207  11.105  0.6643 -0.8275  0.7423
  333MPD2    C3 4997   3.580   2.146  11.172 -0.1444  0.5098 -0.0166
  333MPD2    C4 4998   3.500   2.234  11.239  0.0280  0.1500 -0.4436
  333MPD2    C5 4999   3.529   2.371  11.239 -0.9573 -0.1324  0.3234
  333MPD2     H 5000   3.762   2.148  11.060  0.4022 -0.3376 -0.3555
  333MPD2    H1 5001   3.418   2.208  11.305 -1.9790  0.4085 -2.8480
  333MPD2    H2 5002   3.655   2.522  11.173  0.1010  0.3634  0.4722
  333MPD2    H3 5003   3.466   2.448  11.282  0.2558  0.4026  1.1458
  333MPD2     N 5004   3.575   2.007  11.189  0.0282  0.0665 -0.0987
  333MPD2    H5 5005   3.633   1.954  11.124 -1.4471  1.5884 -2.6929
  333MPD2    N1 5006   3.831   2.398  11.042  0.2289  0.7285 -0.6666
  333MPD2    H7 5007   3.851   2.492  11.077  0.9608  0.9093 -1.5377
  334TMC3    C1 5008   4.005   2.432  10.886  0.4608 -0.1370 -0.0252
  334TMC3    C2 5009   4.064   2.396  10.764 -0.4170  0.9283 -0.7794
  334TMC3    C3 5010   4.181   2.453  10.727 -0.5354  0.3013  0.1863
  334TMC3    C4 5011   4.052   2.544  10.960  0.5340 -0.0504 -0.2638
  334TMC3    C5 5012   4.174   2.601  10.913 -0.3056 -0.1526 -0.1154
  334TMC3    C6 5013   4.240   2.550  10.806 -0.7245  0.0091 -0.2047
  334TMC3     C 5014   3.910   2.337  10.945  0.6772  0.6016 -0.1581
  334TMC3     O 5015   3.896   2.234  10.884 -0.0273  0.5299 -0.5998
  334TMC3     H 5016   4.030   2.311  10.706 -1.2780  1.8255 -1.5945
  334TMC3    H1 5017   4.010   2.581  11.053  1.2322 -1.3224  0.5631
  334TMC3    H2 5018   4.320   2.603  10.756 -0.9738 -0.2191 -0.8363
  334TMC3    C7 5019   4.221   2.712  10.989  0.0751 -0.5045 -0.1389
  334TMC3    C8 5020   4.254   2.400  10.606  0.1492 -0.6185  0.0952
  334TMC3    O1 5021   4.149   2.754  11.079 -0.3881  0.0383 -0.1611
  334TMC3    O2 5022   4.186   2.370  10.509 -0.0907 -0.3495  0.2619
  335TMC3    C1 5023   3.282   3.524  17.419  0.1832 -0.0205  0.4091
  335TMC3    C2 5024   3.180   3.491  17.327 -0.1010  0.3560  0.2601
  335TMC3    C3 5025   3.212   3.515  17.199 -0.5761 -0.1096  0.4057
  335TMC3    C4 5026   3.403   3.575  17.387 -0.2646 -0.2871  0.6658
  335TMC3    C5 5027   3.417   3.602  17.255  0.1578 -0.1555  0.2310
  335TMC3    C6 5028   3.323   3.577  17.155  0.3726 -0.5380 -0.4100
  335TMC3     C 5029   3.260   3.518  17.560 -0.1926 -0.3499 -0.8428
  335TMC3     O 5030   3.352   3.465  17.626  0.0120 -0.1505  0.2247
  335TMC3     H 5031   3.088   3.443  17.357 -0.1839  0.0607 -0.4776
  335TMC3    H1 5032   3.475   3.610  17.459  1.3388 -0.2175 -0.9714
  335TMC3    H2 5033   3.341   3.585  17.049  0.6227 -2.2085 -0.4940
  335TMC3    C7 5034   3.528   3.677  17.203 -0.2407  0.4210 -0.3344
  335TMC3    C8 5035   3.130   3.448  17.102  0.5955 -0.1328  0.5789
  335TMC3    O1 5036   3.510   3.786  17.156  0.0045  0.6413  0.1503
  335TMC3    O2 5037   3.121   3.494  16.992  0.0228 -0.1257  0.1356
  336MPD2     C 5038   3.253   1.409  15.921  0.6128 -1.1646 -0.3741
  336MPD2    C1 5039   3.178   1.364  15.815  0.1338 -0.3715  0.3176
  336MPD2    C2 5040   3.192   1.231  15.783  0.0394 -0.1260 -0.3083
  336MPD2    C3 5041   3.273   1.148  15.862  0.1454 -0.4292  0.1805
  336MPD2    C4 5042   3.336   1.198  15.970  0.2613 -0.5340 -0.4046
  336MPD2    C5 5043   3.331   1.330  15.991 -0.4922  0.6936  0.2535
  336MPD2     H 5044   3.135   1.197  15.697 -0.0113 -0.2698 -0.2189
  336MPD2    H1 5045   3.405   1.136  16.024  1.9246  2.3524  0.7967
  336MPD2    H2 5046   3.249   1.509  15.963  1.7364 -1.6293  0.8139
  336MPD2    H3 5047   3.377   1.367  16.082  0.1812 -2.4610  1.1873
  336MPD2     N 5048   3.292   1.009  15.829  0.1708 -0.6898  0.4776
  336MPD2    H5 5049   3.331   0.943  15.896  2.4018 -0.1966 -0.3347
  336MPD2    N1 5050   3.097   1.443  15.734 -0.1056 -0.3433 -0.3211
  336MPD2    H7 5051   3.054   1.403  15.650  1.4222 -0.1407 -1.1951
  337TMC3    C1 5052   3.003   1.635  15.634 -0.0659  0.3513  0.2446
  337TMC3    C2 5053   2.893   1.563  15.604 -0.9841  0.0119  0.6097
  337TMC3    C3 5054   2.796   1.640  15.539  0.3642  0.5338  0.1724
  337TMC3    C4 5055   3.013   1.772  15.628  0.1265 -0.6277  0.2867
  337TMC3    C5 5056   2.912   1.838  15.566 -0.0460  0.3142  0.4655
  337TMC3    C6 5057   2.801   1.776  15.526  0.3612  0.6729 -0.1299
  337TMC3     C 5058   3.098   1.574  15.725  0.0739 -0.3452 -0.2560
  337TMC3     O 5059   3.176   1.655  15.779  1.0026 -0.2944 -0.5192
  337TMC3     H 5060   2.867   1.461  15.631 -0.7238 -0.5730 -1.3513
  337TMC3    H1 5061   3.107   1.823  15.646  0.6840 -1.2255 -0.8871
  337TMC3    H2 5062   2.740   1.829  15.454 -0.8455  1.1320  1.2321
  337TMC3    C7 5063   2.944   1.975  15.532  0.1750 -0.7363 -0.2159
  337TMC3    C8 5064   2.687   1.566  15.469 -0.7346  0.1841  0.2265
  337TMC3    O1 5065   2.887   2.022  15.435  0.0035  0.1616 -0.3865
  337TMC3    O2 5066   2.707   1.448  15.448 -0.4325  0.0565  0.5566
  338MPD2     C 5067   3.989   4.605   0.210  0.0449 -0.1285  0.0572
  338MPD2    C1 5068   3.852   4.588   0.224  0.3264 -0.4833 -0.3865
  338MPD2    C2 5069   3.811   4.466   0.256 -0.0887  1.0735 -0.7438
  338MPD2    C3 5070   3.904   4.363   0.284 -0.1798 -0.4197 -0.0139
  338MPD2    C4 5071   4.038   4.388   0.276  0.2850  0.6882  0.1555
  338MPD2    C5 5072   4.080   4.512   0.241  0.3734  0.1634  0.1833
  338MPD2     H 5073   3.705   4.450   0.273 -0.0573  1.3074 -0.3198
  338MPD2    H1 5074   4.110   4.309   0.293  0.1990  0.4074 -0.7864
  338MPD2    H2 5075   4.040   4.695   0.177 -0.7602  1.1656  2.3018
  338MPD2    H3 5076   4.185   4.534   0.223  0.4131  0.7173  1.0986
  338MPD2     N 5077   3.853   4.239   0.323 -0.5003  0.2446 -0.2341
  338MPD2    H5 5078   3.754   4.221   0.310 -0.3747  0.9112 -2.0927
  338MPD2    N1 5079   3.762   4.685   0.186 -0.3421  0.0029  0.6938
  338MPD2    H7 5080   3.662   4.669   0.181 -0.4456  1.8540 -3.3589
  339TMC3    C1 5081   3.849   4.037   0.440  0.4274 -0.8596  0.5135
  339TMC3    C2 5082   3.890   3.983   0.560 -0.3632  0.3881 -0.3424
  339TMC3    C3 5083   3.798   3.905   0.617  0.4316  0.3610  1.0190
  339TMC3    C4 5084   3.745   3.985   0.370 -0.0235 -0.0280 -0.5717
  339TMC3    C5 5085   3.672   3.880   0.420  0.2425  0.4073  0.2422
  339TMC3    C6 5086   3.693   3.850   0.551  0.0403 -0.0927  0.0605
  339TMC3     C 5087   3.929   4.148   0.391 -0.1602 -0.1963 -0.8716
  339TMC3     O 5088   4.040   4.159   0.443  0.0402  0.3729  0.0594
  339TMC3     H 5089   3.982   4.014   0.607  0.7176 -1.7220 -1.0650
  339TMC3    H1 5090   3.728   4.033   0.274  0.9864 -0.5072 -0.9778
  339TMC3    H2 5091   3.626   3.776   0.595 -0.9045 -0.6466 -2.3169
  339TMC3    C7 5092   3.545   3.843   0.371  0.6242 -0.1431  0.5469
  339TMC3    C8 5093   3.825   3.860   0.753 -0.5516  0.1133  0.1363
  339TMC3    O1 5094   3.461   3.806   0.449 -0.0646 -0.3298  0.0295
  339TMC3    O2 5095   3.942   3.858   0.798 -0.8041  0.4923  0.4569
  340MPD2     C 5096   3.327   3.376  10.099 -0.1332  0.6049  0.1673
  340MPD2    C1 5097   3.426   3.413  10.011  0.6132  0.1332  0.0280
  340MPD2    C2 5098   3.538   3.480  10.060 -0.4233 -0.1481  0.7449
  340MPD2    C3 5099   3.550   3.508  10.196 -0.0803 -0.7141 -0.2646
  340MPD2    C4 5100   3.454   3.463  10.285  0.5113  0.4267  0.7418
  340MPD2    C5 5101   3.345   3.404  10.235  0.3302  0.6174  0.3298
  340MPD2     H 5102   3.615   3.514   9.991 -1.0281 -1.0024 -0.3536
  340MPD2    H1 5103   3.463   3.469  10.393  2.1049  0.3695  0.6115
  340MPD2    H2 5104   3.238   3.327  10.063  0.9482  0.4295 -2.2793
  340MPD2    H3 5105   3.271   3.370  10.305 -1.5182  0.5296 -1.6791
  340MPD2     N 5106   3.660   3.578  10.258 -0.3344  0.7006  0.1490
  340MPD2    H5 5107   3.652   3.580  10.359  2.0913  1.2766  0.3343
  340MPD2    N1 5108   3.405   3.373   9.877  0.3895  0.0532  0.1850
  340MPD2    H7 5109   3.314   3.344   9.844  1.3544 -2.0205 -0.6125
  341TMC3    C1 5110   3.474   3.303   9.664 -0.1445 -0.3069 -0.3075
  341TMC3    C2 5111   3.343   3.291   9.625 -0.3029 -0.7824 -0.2575
  341TMC3    C3 5112   3.325   3.230   9.503 -0.3291  0.7792 -0.3548
  341TMC3    C4 5113   3.577   3.254   9.589 -0.0060  0.5404 -0.3846
  341TMC3    C5 5114   3.557   3.212   9.463  0.2041 -0.5745  0.6760
  341TMC3    C6 5115   3.425   3.203   9.412  0.3859  0.1603  0.3496
  341TMC3     C 5116   3.513   3.344   9.796 -0.1558  0.7774  0.0637
  341TMC3     O 5117   3.630   3.357   9.822 -0.2149  0.2503 -0.2937
  341TMC3     H 5118   3.267   3.340   9.685  1.1708  0.4170  0.6468
  341TMC3    H1 5119   3.678   3.264   9.627  0.3195  0.8207 -1.3033
  341TMC3    H2 5120   3.419   3.135   9.328  0.9527  1.6749 -0.9283
  341TMC3    C7 5121   3.666   3.142   9.403  1.3536  0.7157 -0.2111
  341TMC3    C8 5122   3.192   3.192   9.460  0.2830 -0.8025 -0.1760
  341TMC3    O1 5123   3.747   3.102   9.483  0.2513  0.3249  0.4796
  341TMC3    O2 5124   3.182   3.113   9.364 -0.4818 -0.4782  0.8679
  342MPD2     C 5125   1.303   1.885  16.601 -0.2439 -0.6781 -0.3523
  342MPD2    C1 5126   1.367   1.811  16.699 -1.0382 -0.2059  0.0615
  342MPD2    C2 5127   1.413   1.881  16.811  0.7374  0.5006  0.2439
  342MPD2    C3 5128   1.386   2.018  16.820 -0.1270  0.3142  0.8763
  342MPD2    C4 5129   1.318   2.088  16.730 -0.0540 -0.5181  0.4959
  342MPD2    C5 5130   1.282   2.023  16.618  0.0246  0.4937 -0.0402
  342MPD2     H 5131   1.460   1.827  16.892  0.5217 -0.7188 -0.4369
  342MPD2    H1 5132   1.308   2.195  16.747  0.7087 -0.5222  0.9526
  342MPD2    H2 5133   1.280   1.845  16.503 -4.2031  0.0386  0.2529
  342MPD2    H3 5134   1.225   2.080  16.545 -1.7841 -0.3199  0.7175
  342MPD2     N 5135   1.418   2.096  16.934  0.1136  0.3587  0.1816
  342MPD2    H5 5136   1.383   2.191  16.937  0.1285  0.4268 -1.9811
  342MPD2    N1 5137   1.398   1.672  16.690 -0.6712 -0.8122 -0.1702
  342MPD2    H7 5138   1.450   1.634  16.768 -0.5737 -0.4935 -0.0791
  343TMC3    C1 5139   1.398   1.450  16.602  0.1005 -0.1466  0.1693
  343TMC3    C2 5140   1.486   1.414  16.505  0.0558  0.7971 -0.1392
  343TMC3    C3 5141   1.581   1.319  16.543  0.3562  0.1065 -0.9084
  343TMC3    C4 5142   1.395   1.390  16.725 -0.0111 -0.4692 -0.3827
  343TMC3    C5 5143   1.475   1.281  16.739  0.4162 -0.1474 -0.1331
  343TMC3    C6 5144   1.571   1.244  16.653 -0.5039  0.7791  0.0887
  343TMC3     C 5145   1.361   1.589  16.589  0.4756 -0.6005  0.6899
  343TMC3     O 5146   1.311   1.620  16.483  0.5713  0.1983 -0.3943
  343TMC3     H 5147   1.496   1.477  16.417  1.7259 -2.3631 -2.1796
  343TMC3    H1 5148   1.338   1.438  16.803  0.6845  1.1204 -0.8514
  343TMC3    H2 5149   1.636   1.159  16.664 -0.3701  0.7607 -0.8058
  343TMC3    C7 5150   1.482   1.231  16.872  0.3504  0.5732  0.2749
  343TMC3    C8 5151   1.695   1.303  16.454  0.7411 -0.4820 -0.2180
  343TMC3    O1 5152   1.591   1.183  16.901 -0.1466 -0.1759 -0.1872
  343TMC3    O2 5153   1.692   1.380  16.359  0.6968  0.3462 -0.6247
  344MPD2     C 5154   2.734   1.204  10.661  0.3873  0.0896  0.5816
  344MPD2    C1 5155   2.633   1.161  10.577 -0.3837 -0.7198  0.0334
  344MPD2    C2 5156   2.623   1.213  10.446  0.3625  0.1719  0.5000
  344MPD2    C3 5157   2.703   1.318  10.413  0.0674 -0.6895  0.2808
  344MPD2    C4 5158   2.800   1.357  10.496 -0.0381  0.1109 -0.0583
  344MPD2    C5 5159   2.815   1.302  10.618 -0.4159 -0.0641 -0.5473
  344MPD2     H 5160   2.543   1.169  10.386  0.7515 -0.1843  0.2427
  344MPD2    H1 5161   2.872   1.434  10.471 -0.0637  0.1670  0.0406
  344MPD2    H2 5162   2.757   1.160  10.757 -1.1073 -0.6350  0.5988
  344MPD2    H3 5163   2.908   1.314  10.672 -0.2710  0.9806 -1.0261
  344MPD2     N 5164   2.691   1.392  10.299  0.0675 -0.8073 -0.0495
  344MPD2    H5 5165   2.752   1.473  10.296 -0.1633 -0.6581 -0.8278
  344MPD2    N1 5166   2.537   1.053  10.599  0.5266  0.8253 -0.0473
  344MPD2    H7 5167   2.479   1.037  10.518  2.9918 -0.8615 -1.4954
  345TMC3    C1 5168   2.627   1.470  10.096  0.2452 -0.5266 -0.7571
  345TMC3    C2 5169   2.680   1.590  10.137  0.0661 -0.1006  0.5116
  345TMC3    C3 5170   2.724   1.671  10.037 -0.1567  1.2262  0.1309
  345TMC3    C4 5171   2.613   1.439   9.963  0.4357  0.2606 -0.1859
  345TMC3    C5 5172   2.649   1.526   9.871  0.7002 -0.6243  0.2795
  345TMC3    C6 5173   2.713   1.640   9.903 -0.4044  0.5919 -0.3991
  345TMC3     C 5174   2.608   1.369  10.193  0.1848 -0.2704 -0.5414
  345TMC3     O 5175   2.542   1.270  10.177 -0.1874  0.5214 -0.2734
  345TMC3     H 5176   2.685   1.611  10.244  0.7690  0.8170  0.3026
  345TMC3    H1 5177   2.583   1.338   9.939 -0.2690  0.5619 -0.5650
  345TMC3    H2 5178   2.739   1.708   9.823 -1.1094 -1.5478 -2.4157
  345TMC3    C7 5179   2.598   1.516   9.732  0.3959 -0.3396 -0.2694
  345TMC3    C8 5180   2.769   1.800  10.062  0.1270  0.0160 -0.0973
  345TMC3    O1 5181   2.663   1.579   9.650 -0.6903  0.1560  0.8981
  345TMC3    O2 5182   2.743   1.890   9.984  0.2045  0.3962 -0.0659
  346MPD2     C 5183   2.316   3.082  14.015 -0.1624 -0.0237 -0.2086
  346MPD2    C1 5184   2.412   3.179  14.015 -0.5682  0.4714  0.7669
  346MPD2    C2 5185   2.433   3.251  14.133 -0.7550 -0.3227  0.4128
  346MPD2    C3 5186   2.344   3.226  14.243 -0.5069 -0.2929 -0.1755
  346MPD2    C4 5187   2.250   3.129  14.234 -0.9998  0.0281  0.6841
  346MPD2    C5 5188   2.238   3.052  14.123  0.4635  0.0513  0.4060
  346MPD2     H 5189   2.502   3.335  14.128  1.4394 -2.1420  0.3687
  346MPD2    H1 5190   2.187   3.100  14.318 -4.4694  0.3015 -1.8250
  346MPD2    H2 5191   2.306   3.013  13.932 -0.1022  0.0832 -0.3045
  346MPD2    H3 5192   2.177   2.963  14.119  0.1613  0.1994  1.7929
  346MPD2     N 5193   2.373   3.307  14.357  0.2806 -0.4222 -0.0512
  346MPD2    H5 5194   2.451   3.372  14.347 -0.4016  0.5444  0.8765
  346MPD2    N1 5195   2.494   3.204  13.906 -0.6152  0.4063 -0.6657
  346MPD2    H7 5196   2.554   3.286  13.908 -0.1379  0.0837 -1.5169
  347TMC3    C1 5197   2.373   3.381  14.587 -0.1237 -0.1907 -0.5301
  347TMC3    C2 5198   2.465   3.473  14.539 -0.1837 -0.6256 -1.2095
  347TMC3    C3 5199   2.585   3.476  14.604  0.1747 -0.6685 -0.3028
  347TMC3    C4 5200   2.396   3.299  14.695 -0.2187  0.3324  0.2283
  347TMC3    C5 5201   2.520   3.298  14.754  0.2764 -0.1893 -0.1037
  347TMC3    C6 5202   2.613   3.389  14.711 -0.1325 -0.2491  0.4179
  347TMC3     C 5203   2.304   3.299  14.482  0.3108 -0.3880 -0.2257
  347TMC3     O 5204   2.205   3.235  14.513  0.0066 -0.3737  0.4010
  347TMC3     H 5205   2.428   3.546  14.467 -0.5353 -0.5468 -0.9433
  347TMC3    H1 5206   2.335   3.210  14.707 -1.5895  1.7251  3.5843
  347TMC3    H2 5207   2.712   3.391  14.757 -0.3066  0.2301  0.7821
  347TMC3    C7 5208   2.555   3.171  14.821 -0.1109 -0.5361 -0.2276
  347TMC3    C8 5209   2.685   3.485  14.505  0.1357 -0.2488 -0.4087
  347TMC3    O1 5210   2.456   3.100  14.838 -0.1155  0.1211 -0.0442
  347TMC3    O2 5211   2.658   3.462  14.389  0.7629 -0.3250 -0.3859
  348MPD2     C 5212   1.978   2.942  11.734  0.8851 -0.3672  0.0626
  348MPD2    C1 5213   1.881   2.856  11.687  0.3272  0.4774 -0.5153
  348MPD2    C2 5214   1.824   2.895  11.565  0.0809 -0.5797 -0.2538
  348MPD2    C3 5215   1.863   3.007  11.494 -0.1419 -0.1028 -0.4265
  348MPD2    C4 5216   1.953   3.095  11.551 -0.6860  0.1883 -0.3550
  348MPD2    C5 5217   2.006   3.064  11.672 -0.0519  0.1869  0.2972
  348MPD2     H 5218   1.748   2.829  11.526  1.1584 -2.3422  0.6539
  348MPD2    H1 5219   1.975   3.194  11.514  1.4789  0.7555  2.4709
  348MPD2    H2 5220   2.006   2.932  11.838  0.4992 -1.4502  0.0570
  348MPD2    H3 5221   2.071   3.140  11.713  0.4289 -0.2704  0.3944
  348MPD2     N 5222   1.797   3.026  11.366 -0.5715  0.2315 -0.4476
  348MPD2    H5 5223   1.733   2.953  11.336  0.8238 -0.1312 -2.4755
  348MPD2    N1 5224   1.837   2.738  11.750  0.0862  0.0120  0.0791
  348MPD2    H7 5225   1.783   2.681  11.685  2.6860 -0.6234 -1.5346
  349TMC3    C1 5226   1.783   2.593  11.931  0.1615  0.2248  0.0341
  349TMC3    C2 5227   1.820   2.528  12.044 -0.1292 -0.4755  0.5639
  349TMC3    C3 5228   1.728   2.443  12.093  0.1801  0.4945 -0.1994
  349TMC3    C4 5229   1.661   2.570  11.874  0.6370 -0.5493 -1.3169
  349TMC3    C5 5230   1.577   2.478  11.926  0.0712  0.1094  0.5741
  349TMC3    C6 5231   1.607   2.409  12.042  0.2504  0.1534 -0.4289
  349TMC3     C 5232   1.870   2.685  11.873 -0.4179 -0.1394  0.1098
  349TMC3     O 5233   1.970   2.709  11.935 -0.0821  0.5689 -0.1873
  349TMC3     H 5234   1.910   2.560  12.095  0.1606 -0.9165  0.3208
  349TMC3    H1 5235   1.622   2.639  11.800  1.0949 -0.0360 -1.0795
  349TMC3    H2 5236   1.540   2.343  12.097  0.4367  0.7302  0.5012
  349TMC3    C7 5237   1.449   2.459  11.876  0.7073 -0.9660 -0.8460
  349TMC3    C8 5238   1.747   2.404  12.230 -0.3995  0.2417 -0.5921
  349TMC3    O1 5239   1.364   2.415  11.952  0.5976 -0.5169 -0.1047
  349TMC3    O2 5240   1.654   2.351  12.289  0.3599  0.3774  0.5962
  350MPD2     C 5241   0.774   0.662   9.964 -0.0432  0.0538  0.3278
  350MPD2    C1 5242   0.704   0.587  10.057  0.4196 -0.2856  0.5850
  350MPD2    C2 5243   0.646   0.660  10.159 -0.3762  0.0408 -0.2782
  350MPD2    C3 5244   0.646   0.800  10.158 -0.5457  0.0090  0.2340
  350MPD2    C4 5245   0.716   0.864  10.061 -0.5878 -0.6205  0.6613
  350MPD2    C5 5246   0.787   0.797   9.967 -0.0788 -0.5302  0.4572
  350MPD2     H 5247   0.600   0.606  10.242 -0.1009 -0.6028 -0.5438
  350MPD2    H1 5248   0.735   0.971  10.061  0.2433 -0.7772  2.1745
  350MPD2    H2 5249   0.820   0.612   9.879 -0.0164 -0.0451  0.4006
  350MPD2    H3 5250   0.855   0.850   9.901 -1.0156  0.5972  0.4014
  350MPD2     N 5251   0.578   0.866  10.262 -0.2996 -0.3414 -0.2002
  350MPD2    H5 5252   0.518   0.811  10.323  0.5883 -0.6334  0.4063
  350MPD2    N1 5253   0.669   0.452  10.046  0.2909  0.1151 -0.1295
  350MPD2    H7 5254   0.586   0.418  10.093 -0.5985  0.5575 -1.3840
  351TMC3    C1 5255   0.661   0.244   9.930  0.6131 -0.5814 -0.0311
  351TMC3    C2 5256   0.738   0.141   9.886  0.2355 -0.4766  0.5703
  351TMC3    C3 5257   0.675   0.047   9.806  0.1354  0.2475 -0.2630
  351TMC3    C4 5258   0.530   0.264   9.902 -0.9167  0.1470  0.0826
  351TMC3    C5 5259   0.470   0.175   9.811  0.3925  0.2163  0.2378
  351TMC3    C6 5260   0.539   0.059   9.777 -0.2196  0.3287 -0.0474
  351TMC3     C 5261   0.728   0.367   9.954 -0.3285 -0.3751 -0.8769
  351TMC3     O 5262   0.850   0.375   9.931  0.2632 -0.0875 -0.4157
  351TMC3     H 5263   0.845   0.140   9.901  0.5989 -2.4214 -2.0025
  351TMC3    H1 5264   0.475   0.357   9.909  0.8958  1.1465  0.9723
  351TMC3    H2 5265   0.483   4.711   9.714  0.7794 -0.8405  0.3407
  351TMC3    C7 5266   0.323   0.155   9.821  0.5892  0.1827  0.0311
  351TMC3    C8 5267   0.740   4.643   9.783 -0.0746  0.4985  0.1796
  351TMC3    O1 5268   0.276   0.045   9.792 -0.5730 -0.3059  0.5810
  351TMC3    O2 5269   0.676   4.543   9.760 -0.1458 -0.0518  0.0029
  352MPD2     C 5270   4.605   2.622   1.041  0.2300  0.9904 -0.1775
  352MPD2    C1 5271   4.473   2.586   1.034 -0.5526  1.0727  0.4582
  352MPD2    C2 5272   4.434   2.468   1.086  0.7654 -0.5572 -0.2082
  352MPD2    C3 5273   4.529   2.376   1.134 -0.5350 -0.3820  0.4165
  352MPD2    C4 5274   4.657   2.419   1.145  0.8644 -0.3609  0.0162
  352MPD2    C5 5275   4.694   2.540   1.097  0.7572 -0.1139 -0.9699
  352MPD2     H 5276   4.329   2.445   1.083  0.1588  2.2425 -0.5333
  352MPD2    H1 5277   0.012   2.372   1.205  1.7071 -2.6732 -2.8719
  352MPD2    H2 5278   4.642   2.717   1.006  1.3364  0.4529 -0.4959
  352MPD2    H3 5279   0.077   2.567   1.111  0.4206  1.2263 -1.1239
  352MPD2     N 5280   4.497   2.240   1.152 -0.3282  0.2163  0.1289
  352MPD2    H5 5281   4.572   2.172   1.162 -1.7205 -1.1789  1.0904
  352MPD2    N1 5282   4.375   2.664   0.972 -0.3189 -0.2926  0.1946
  352MPD2    H7 5283   4.281   2.635   0.997 -1.9884  3.2805 -1.9126
  353TMC3    C1 5284   4.361   2.042   1.143 -0.1127  0.6760  1.6079
  353TMC3    C2 5285   4.477   1.965   1.158  0.7213  0.4186  0.3679
  353TMC3    C3 5286   4.469   1.827   1.131 -0.1722 -0.8235 -0.6803
  353TMC3    C4 5287   4.243   1.981   1.121  0.3818  0.4857  0.7726
  353TMC3    C5 5288   4.234   1.845   1.098 -0.6775 -0.3575 -0.1871
  353TMC3    C6 5289   4.349   1.764   1.102 -0.2729 -0.6286  0.3072
  353TMC3     C 5290   4.369   2.189   1.132 -0.3629  0.3716  0.3305
  353TMC3     O 5291   4.261   2.236   1.102  0.0269 -0.1679 -0.1010
  353TMC3     H 5292   4.576   2.003   1.178 -0.7949  4.3597  0.4967
  353TMC3    H1 5293   4.153   2.042   1.124 -0.4410 -0.6738 -0.4791
  353TMC3    H2 5294   4.346   1.665   1.057 -1.9264 -1.0355  1.3425
  353TMC3    C7 5295   4.107   1.773   1.081 -0.9788  0.2831  0.0985
  353TMC3    C8 5296   4.578   1.747   1.171  0.3853 -0.3342  0.2821
  353TMC3    O1 5297   4.123   1.656   1.048  0.4781 -0.6420 -0.0717
  353TMC3    O2 5298   4.682   1.804   1.204 -0.1440 -0.1393  0.2433
  354TMC3    C1 5299   0.536   4.296  13.267 -0.3874 -0.5406  0.0664
  354TMC3    C2 5300   0.535   4.384  13.169  0.2065 -0.3940 -0.6797
  354TMC3    C3 5301   0.616   4.365  13.067 -0.5937  0.3457 -0.0139
  354TMC3    C4 5302   0.626   4.200  13.282 -0.4164 -0.1263  0.1618
  354TMC3    C5 5303   0.716   4.198  13.183  1.0275  0.4033  0.3039
  354TMC3    C6 5304   0.716   4.274  13.070 -0.4108  0.4359  0.0328
  354TMC3     C 5305   0.451   4.325  13.376  0.4009  0.1770 -0.4248
  354TMC3     O 5306   0.428   4.444  13.392 -0.5815 -0.3221 -0.6782
  354TMC3     H 5307   0.454   4.457  13.174 -0.4638 -1.3309  1.9704
  354TMC3    H1 5308   0.635   4.159  13.381  2.8840  0.6366  0.1783
  354TMC3    H2 5309   0.786   4.272  12.988 -0.4382 -3.0090  0.0875
  354TMC3    C7 5310   0.819   4.101  13.194 -0.2619 -0.5729 -0.2421
  354TMC3    C8 5311   0.617   4.445  12.942  0.3709  0.1605  0.1878
  354TMC3    O1 5312   0.795   4.008  13.267 -0.4903 -0.5050 -0.7000
  354TMC3    O2 5313   0.669   4.408  12.841 -0.3455 -0.4199  0.0663
  355MPD2     C 5314   0.354   4.538  11.475 -0.1683 -0.3349 -0.2319
  355MPD2    C1 5315   0.389   4.615  11.368 -0.0644 -0.3033 -0.7002
  355MPD2    C2 5316   0.532   4.635  11.345 -0.3318  0.1823  0.0377
  355MPD2    C3 5317   0.626   4.587  11.435  0.7452 -0.0937  0.0857
  355MPD2    C4 5318   0.583   4.523  11.544 -0.6050  0.0656  0.2259
  355MPD2    C5 5319   0.451   4.507  11.561  0.4017  0.0505  0.1001
  355MPD2     H 5320   0.567   4.682  11.253 -0.0904  2.2168  1.1519
  355MPD2    H1 5321   0.653   4.491  11.620  0.9378 -0.5481 -1.4579
  355MPD2    H2 5322   0.252   4.515  11.503 -0.2194 -1.8830 -1.7558
  355MPD2    H3 5323   0.425   4.440  11.642 -0.6654 -1.3204 -1.3633
  355MPD2     N 5324   0.767   4.603  11.417 -0.3964 -0.2503 -0.7771
  355MPD2    H5 5325   0.821   4.550  11.484  0.3463  2.0189  0.4272
  355MPD2    N1 5326   0.278   4.664  11.288  0.6692 -0.1141  0.2699
  355MPD2    H7 5327   0.192   4.613  11.304 -0.1910  0.8847 -1.1757
  356TMC3    C1 5328   0.975   4.661  11.325 -0.2236 -0.2115 -0.2860
  356TMC3    C2 5329   1.047   4.714  11.214 -0.6359  0.2784 -0.0913
  356TMC3    C3 5330   1.156   0.072  11.235  0.2644  0.0414  0.3679
  356TMC3    C4 5331   1.023   4.685  11.452  0.5337 -0.1276 -0.7186
  356TMC3    C5 5332   1.132   0.043  11.474  0.2786  0.4965  0.1900
  356TMC3    C6 5333   1.206   0.092  11.365  0.1103 -0.0709 -0.3522
  356TMC3     C 5334   0.832   4.660  11.307 -1.1762  0.4460 -0.1806
  356TMC3     O 5335   0.788   0.015  11.220  0.1879  0.2730  0.1050
  356TMC3     H 5336   0.995   4.690  11.122 -0.0846 -0.6455 -0.1597
  356TMC3    H1 5337   0.972   4.657  11.544 -0.2635 -0.3299 -1.2239
  356TMC3    H2 5338   1.289   0.159  11.382  2.2744 -2.5676 -1.1269
  356TMC3    C7 5339   1.174   0.057  11.609 -0.2902 -0.0225 -0.5924
  356TMC3    C8 5340   1.189   0.160  11.131 -0.8209  0.1726  0.0618
  356TMC3    O1 5341   1.138   4.690  11.685 -0.1833  0.0820 -0.1833
  356TMC3    O2 5342   1.120   0.165  11.033 -0.1776 -0.6730  0.4436
  357MPD2     C 5343   1.038   0.060   1.369 -0.3621  1.1698 -0.4968
  357MPD2    C1 5344   1.049   4.653   1.321 -0.3041  0.0652  0.4810
  357MPD2    C2 5345   1.107   4.563   1.406  0.1385  0.8418 -0.6010
  357MPD2    C3 5346   1.152   4.607   1.530 -0.3922  0.2102  0.2957
  357MPD2    C4 5347   1.156   0.019   1.567  0.1603 -0.2094 -0.0418
  357MPD2    C5 5348   1.101   0.107   1.485 -0.4113 -0.5857  0.4365
  357MPD2     H 5349   1.112   4.458   1.379 -1.1667  1.0098 -1.4784
  357MPD2    H1 5350   1.199   0.053   1.661  0.2207  1.3168 -0.6235
  357MPD2    H2 5351   1.008   0.140   1.303 -0.5997  0.2976 -1.4503
  357MPD2    H3 5352   1.091   0.211   1.511  2.9908  0.1918 -1.4522
  357MPD2     N 5353   1.209   4.516   1.628 -0.5368 -0.0018 -0.4348
  357MPD2    H5 5354   1.210   4.549   1.724  0.4829 -0.4920 -0.2793
  357MPD2    N1 5355   1.009   4.623   1.190 -0.0933 -0.0134  0.0762
  357MPD2    H7 5356   0.963   4.701   1.144 -0.2911  0.6054  1.3244
  358TMC3    C1 5357   1.015   4.539   0.973 -1.0885  0.1885  0.1652
  358TMC3    C2 5358   0.989   4.434   0.900 -0.2926 -0.2793 -0.2039
  358TMC3    C3 5359   0.970   4.447   0.760 -0.5892 -0.3588  0.3196
  358TMC3    C4 5360   1.015   4.670   0.917 -0.1636 -0.3583  0.3176
  358TMC3    C5 5361   0.992   4.670   0.777  0.5859  0.0809 -0.0034
  358TMC3    C6 5362   0.967   4.564   0.700  0.3728 -0.1520 -0.1493
  358TMC3     C 5363   1.060   4.523   1.116 -0.0190 -0.1461  0.2543
  358TMC3     O 5364   1.139   4.433   1.146  0.3070 -0.2679  0.0141
  358TMC3     H 5365   0.987   4.343   0.959  1.6059  1.2450  2.1750
  358TMC3    H1 5366   1.049   0.035   0.974 -1.9549  0.1616  0.6196
  358TMC3    H2 5367   0.967   4.583   0.594 -1.2221 -2.1837 -0.5083
  358TMC3    C7 5368   1.021   0.074   0.710  0.2324  0.2309 -0.3997
  358TMC3    C8 5369   0.927   4.330   0.683  0.2077  0.2928 -0.3158
  358TMC3    O1 5370   1.013   0.081   0.587 -0.4474  0.4887  0.4603
  358TMC3    O2 5371   0.910   4.354   0.564 -0.6665  0.3634 -0.7760
  359MPD2     C 5372   1.149   3.861  12.170  0.3598  0.6923  0.1695
  359MPD2    C1 5373   1.166   3.741  12.105  0.0857  0.0284 -0.0250
  359MPD2    C2 5374   1.095   3.631  12.154  0.0829  0.7069  0.1198
  359MPD2    C3 5375   0.987   3.639  12.241 -0.9096  0.3650 -0.2427
  359MPD2    C4 5376   0.962   3.767  12.295 -0.6888  0.1474  0.2529
  359MPD2    C5 5377   1.045   3.871  12.268  0.7699  0.0167 -0.5686
  359MPD2     H 5378   1.116   3.539  12.100  1.8670  1.3024 -0.1899
  359MPD2    H1 5379   0.890   3.784  12.374 -1.2518 -3.7503  0.6268
  359MPD2    H2 5380   1.217   3.944  12.156  2.2045 -1.3285 -2.8910
  359MPD2    H3 5381   1.032   3.965  12.321  1.4850 -1.5712  2.4851
  359MPD2     N 5382   0.907   3.533  12.291 -0.4774 -0.5101  0.0883
  359MPD2    H5 5383   0.821   3.560  12.340 -1.2598 -1.7312 -0.6240
  359MPD2    N1 5384   1.257   3.720  12.002  0.1127 -0.0623  0.4235
  359MPD2    H7 5385   1.269   3.626  11.964  1.6380 -0.8095  2.7195
  360TMC3    C1 5386   1.413   3.762  11.834 -0.1254  0.8381  0.3765
  360TMC3    C2 5387   1.535   3.807  11.811  0.4573  0.6072 -0.8488
  360TMC3    C3 5388   1.607   3.730  11.718 -0.0441 -0.3211 -0.8083
  360TMC3    C4 5389   1.342   3.669  11.751 -0.5508  0.6744  0.1981
  360TMC3    C5 5390   1.421   3.602  11.659  0.6321  0.7028 -0.2438
  360TMC3    C6 5391   1.548   3.635  11.636 -0.8139 -0.1170  0.6820
  360TMC3     C 5392   1.345   3.819  11.948 -0.6408  0.1737  0.0678
  360TMC3     O 5393   1.371   3.932  11.980 -0.0020  0.1846 -0.0861
  360TMC3     H 5394   1.590   3.869  11.881  0.7568 -3.4952  2.5604
  360TMC3    H1 5395   1.241   3.638  11.774 -0.3564 -0.9792 -1.1376
  360TMC3    H2 5396   1.601   3.594  11.551  2.2520  1.5165  1.7963
  360TMC3    C7 5397   1.346   3.544  11.544  0.3912  0.4911  0.0887
  360TMC3    C8 5398   1.725   3.801  11.666 -0.2183  0.6510  0.2333
  360TMC3    O1 5399   1.407   3.475  11.463  0.0904  0.1057  0.2641
  360TMC3    O2 5400   1.762   3.898  11.730  0.8131  0.2339  0.4397
  361MPD2     C 5401   2.668   2.104  16.407  1.0442 -0.1999 -0.6843
  361MPD2    C1 5402   2.600   2.100  16.531  0.0065  0.4244  0.3733
  361MPD2    C2 5403   2.678   2.063  16.646 -0.0402 -0.6104  0.1156
  361MPD2    C3 5404   2.814   2.045  16.644  0.4652 -0.0779  0.9725
  361MPD2    C4 5405   2.876   2.055  16.518 -0.5151  0.5417 -0.6558
  361MPD2    C5 5406   2.803   2.082  16.402  0.6109  0.0921 -0.2042
  361MPD2     H 5407   2.630   2.048  16.742  0.9638 -1.0626  0.5472
  361MPD2    H1 5408   2.979   2.024  16.503 -1.4124 -1.6583 -2.1348
  361MPD2    H2 5409   2.612   2.129  16.318  0.6629  1.6453  0.0887
  361MPD2    H3 5410   2.856   2.090  16.308  2.4186 -0.4655  0.7827
  361MPD2     N 5411   2.888   1.979  16.743 -0.3305 -0.0246  0.8763
  361MPD2    H5 5412   2.982   1.950  16.720 -0.2563  0.3978  0.6390
  361MPD2    N1 5413   2.460   2.102  16.551  0.6240 -0.1017 -0.0123
  361MPD2    H7 5414   2.425   2.097  16.647  2.0240 -0.8565  0.4642
  362TMC3    C1 5415   2.227   2.141  16.507  0.6887  0.2287  0.7217
  362TMC3    C2 5416   2.200   2.171  16.639  0.1544 -0.4804 -0.0657
  362TMC3    C3 5417   2.076   2.220  16.668  0.0939 -0.4297 -0.1422
  362TMC3    C4 5418   2.133   2.144  16.404 -0.3224  0.5235 -0.1839
  362TMC3    C5 5419   2.006   2.189  16.445 -0.9563 -0.0644 -0.6355
  362TMC3    C6 5420   1.976   2.230  16.571 -0.1111 -0.3325  0.4852
  362TMC3     C 5421   2.364   2.123  16.453 -0.0331  0.5268  0.2210
  362TMC3     O 5422   2.377   2.126  16.333 -0.2563 -0.3067  0.2990
  362TMC3     H 5423   2.277   2.173  16.716  0.5610  2.6134 -0.5574
  362TMC3    H1 5424   2.157   2.111  16.303 -0.2908  2.9915 -0.9859
  362TMC3    H2 5425   1.872   2.256  16.588  0.4473  1.6439  0.8506
  362TMC3    C7 5426   1.906   2.224  16.341 -0.0633 -0.3928  0.1528
  362TMC3    C8 5427   2.072   2.278  16.801 -0.0269 -0.4705 -0.1376
  362TMC3    O1 5428   1.838   2.323  16.357  0.3816  0.9790  0.3781
  362TMC3    O2 5429   2.168   2.275  16.877 -0.1543 -0.1310  0.0265
  363TMC3    C1 5430   0.928   3.971   8.975 -0.0373  0.7073  0.1682
  363TMC3    C2 5431   1.044   3.927   9.036 -0.6335 -0.3335 -0.6308
  363TMC3    C3 5432   1.093   3.996   9.143 -0.3193  0.3300  0.1510
  363TMC3    C4 5433   0.867   4.090   9.016 -0.0900  0.0107  0.3404
  363TMC3    C5 5434   0.929   4.155   9.124 -0.7592  0.2326  0.6661
  363TMC3    C6 5435   1.037   4.113   9.187  0.4204 -0.3222 -0.3000
  363TMC3     C 5436   0.874   3.899   8.867 -0.3566 -0.5436 -0.3968
  363TMC3     O 5437   0.810   3.964   8.785  0.4408  0.1115 -0.1023
  363TMC3     H 5438   1.104   3.850   8.991 -1.2411 -0.0134 -2.0006
  363TMC3    H1 5439   0.779   4.120   8.961  0.3493 -1.7756 -1.3140
  363TMC3    H2 5440   1.077   4.173   9.267  0.7027  0.2368 -0.8529
  363TMC3    C7 5441   0.887   4.292   9.131 -0.4835 -0.5973 -0.2313
  363TMC3    C8 5442   1.230   3.958   9.190 -0.9319 -0.1091  0.3248
  363TMC3    O1 5443   0.767   4.313   9.103  0.3975  0.0023 -0.4598
  363TMC3    O2 5444   1.299   4.041   9.251  0.3789 -0.0249 -0.1460
  364MPD2     C 5445   4.350   4.347  10.398  0.9566  0.1504 -0.3624
  364MPD2    C1 5446   4.464   4.406  10.363  0.3423  0.1989  0.4477
  364MPD2    C2 5447   4.583   4.328  10.352 -0.4363  0.4167 -0.9384
  364MPD2    C3 5448   4.579   4.187  10.360 -0.2201 -0.0586  0.3392
  364MPD2    C4 5449   4.458   4.133  10.371 -0.2839 -0.1646 -0.0764
  364MPD2    C5 5450   4.341   4.212  10.399  0.4390  0.7344  0.3689
  364MPD2     H 5451   4.676   4.378  10.329 -0.1588 -0.3080 -1.3930
  364MPD2    H1 5452   4.454   4.026  10.381  0.9900 -0.0437  1.7067
  364MPD2    H2 5453   4.261   4.408  10.409 -0.7276 -2.9114  2.8457
  364MPD2    H3 5454   4.244   4.175  10.431  0.8992 -0.2641  0.6115
  364MPD2     N 5455   4.694   4.109  10.358 -0.9824 -0.0882  0.2315
  364MPD2    H5 5456   4.679   4.011  10.379 -1.0552 -0.1824 -0.2454
  364MPD2    N1 5457   4.468   4.549  10.356 -0.4235 -0.6596  0.8515
  364MPD2    H7 5458   4.389   4.601  10.392 -0.9268  0.6354 -2.1250
  365TMC3    C1 5459   4.547   0.045  10.288 -0.2104  0.2227 -0.2022
  365TMC3    C2 5460   4.636   0.106  10.199  0.0655  0.1285 -0.3975
  365TMC3    C3 5461   4.702   0.213  10.236 -0.0804 -0.0918  0.0769
  365TMC3    C4 5462   4.528   0.102  10.410  0.2787  0.1154  0.1458
  365TMC3    C5 5463   4.575   0.228  10.437  0.2200  0.7001 -0.4210
  365TMC3    C6 5464   4.670   0.289  10.350 -0.7442 -0.0330  0.7285
  365TMC3     C 5465   4.558   4.622  10.274 -0.1101  0.3541 -0.4002
  365TMC3     O 5466   4.638   4.588  10.189  0.0541  0.2183  0.4171
  365TMC3     H 5467   4.635   0.072  10.096  1.9970 -0.5471 -0.1806
  365TMC3    H1 5468   4.483   0.041  10.487  1.2793  0.4686  1.0122
  365TMC3    H2 5469   0.001   0.381  10.372 -1.2500  0.5494 -0.5425
  365TMC3    C7 5470   4.500   0.317  10.516  0.3574  0.3496 -0.8612
  365TMC3    C8 5471   0.123   0.196  10.220  0.4084  0.2671  0.4491
  365TMC3    O1 5472   4.476   0.426  10.472  0.0188  0.3444  0.5316
  365TMC3    O2 5473   0.197   0.291  10.234 -0.0021  0.4354  0.1529
  366MPD2     C 5474   2.617   0.416  15.045  0.3219 -0.3500  0.0691
  366MPD2    C1 5475   2.688   0.538  15.031 -0.4603  0.5771  0.1124
  366MPD2    C2 5476   2.787   0.552  14.934 -0.0242 -0.5371 -0.3428
  366MPD2    C3 5477   2.820   0.445  14.853  0.1828  0.4941 -0.7553
  366MPD2    C4 5478   2.759   0.327  14.876  0.1092  0.1882 -0.4831
  366MPD2    C5 5479   2.663   0.310  14.976 -0.3461  0.1897  0.1024
  366MPD2     H 5480   2.841   0.645  14.925  1.9951 -1.6537  0.3000
  366MPD2    H1 5481   2.782   0.243  14.810 -0.1724  0.1029 -0.4722
  366MPD2    H2 5482   2.542   0.391  15.119  1.2625 -0.9048  0.8337
  366MPD2    H3 5483   2.636   0.207  14.994 -0.9716  0.9202  3.4350
  366MPD2     N 5484   2.920   0.467  14.762 -0.1130  0.1629  0.0214
  366MPD2    H5 5485   2.944   0.565  14.752  1.9036 -0.3049  0.3647
  366MPD2    N1 5486   2.665   0.643  15.126  0.3251 -0.2378  0.3497
  366MPD2    H7 5487   2.593   0.624  15.194 -0.5341 -1.1229 -0.8181
  367TMC3    C1 5488   2.699   0.851  15.247 -0.3312  0.4990  0.8000
  367TMC3    C2 5489   2.801   0.921  15.305 -0.2289  0.1008 -0.2000
  367TMC3    C3 5490   2.816   1.061  15.293  0.3068  0.7142 -0.0945
  367TMC3    C4 5491   2.607   0.920  15.174  0.2284  0.2536 -0.7049
  367TMC3    C5 5492   2.609   1.057  15.183 -0.3241 -0.0554  0.0910
  367TMC3    C6 5493   2.716   1.131  15.235 -0.0379  0.4767  0.1928
  367TMC3     C 5494   2.755   0.750  15.157  0.3738 -0.5459  0.1012
  367TMC3     O 5495   2.874   0.763  15.127  0.1672 -0.5138  0.0002
  367TMC3     H 5496   2.876   0.855  15.348 -0.6499  0.8526  1.6947
  367TMC3    H1 5497   2.538   0.859  15.117  0.5902  0.7724 -1.7033
  367TMC3    H2 5498   2.720   1.239  15.239 -0.8066  0.5229 -0.2928
  367TMC3    C7 5499   2.503   1.132  15.129 -0.1008  0.3317 -0.2340
  367TMC3    C8 5500   2.937   1.111  15.348 -0.8086  0.4541 -0.5127
  367TMC3    O1 5501   2.524   1.251  15.128 -0.4914 -0.3351  0.2105
  367TMC3    O2 5502   2.992   1.032  15.423 -0.3309 -0.3927 -0.6319
  368MPD2     C 5503   4.094   2.343  12.616  0.1158 -0.8911 -0.1280
  368MPD2    C1 5504   4.088   2.474  12.574  0.0120  0.7614 -0.4826
  368MPD2    C2 5505   4.208   2.535  12.545 -0.3011  0.0863  0.0957
  368MPD2    C3 5506   4.329   2.480  12.574 -0.1064  0.2292 -0.7223
  368MPD2    C4 5507   4.331   2.354  12.632  0.4356 -0.2585  0.0674
  368MPD2    C5 5508   4.217   2.290  12.641 -0.4301 -0.1332  0.4819
  368MPD2     H 5509   4.214   2.638  12.512  4.3074 -0.1370  0.2044
  368MPD2    H1 5510   4.420   2.299  12.661 -0.5141 -0.9621  1.6796
  368MPD2    H2 5511   4.015   2.278  12.651 -1.6544  0.6127 -1.3091
  368MPD2    H3 5512   4.221   2.194  12.691 -0.0219 -0.0344  0.6430
  368MPD2     N 5513   4.445   2.556  12.562  0.4793  0.3109  0.1970
  368MPD2    H5 5514   4.428   2.647  12.520  1.0051 -0.9381 -2.7210
  368MPD2    N1 5515   3.960   2.532  12.558  0.0585 -0.8614 -0.4819
  368MPD2    H7 5516   3.891   2.476  12.606  1.1963  0.1715  2.3500
  369TMC3    C1 5517   3.842   2.723  12.642  0.0481  0.4214 -0.4330
  369TMC3    C2 5518   3.905   2.811  12.733 -0.2305 -0.4875 -0.6749
  369TMC3    C3 5519   3.853   2.816  12.858  0.3502 -0.1222 -0.2845
  369TMC3    C4 5520   3.733   2.639  12.671  0.2432  0.1320  0.6536
  369TMC3    C5 5521   3.679   2.667  12.796  0.0835  0.6804  0.1562
  369TMC3    C6 5522   3.736   2.754  12.891  0.3685  0.8294  0.6671
  369TMC3     C 5523   3.940   2.666  12.547  0.3668 -0.0451  0.4898
  369TMC3     O 5524   4.021   2.748  12.498  0.2937 -0.5500  0.9382
  369TMC3     H 5525   3.999   2.859  12.711 -0.3279 -0.4343 -0.9751
  369TMC3    H1 5526   3.693   2.568  12.600 -1.4929  0.1490  1.6054
  369TMC3    H2 5527   3.695   2.764  12.991 -1.1122  1.3359  0.0130
  369TMC3    C7 5528   3.563   2.595  12.834 -0.0990 -0.4011 -0.3560
  369TMC3    C8 5529   3.944   2.855  12.959 -0.5059  0.0710 -0.1764
  369TMC3    O1 5530   3.542   2.581  12.956  0.0648 -0.1711  0.5909
  369TMC3    O2 5531   4.015   2.956  12.940  0.0643  0.1055 -0.6476
  370TMC3    C1 5532   3.461   3.038  16.150 -0.4649 -0.5936  0.0764
  370TMC3    C2 5533   3.426   2.960  16.260  0.4440  0.3989 -0.4059
  370TMC3    C3 5534   3.355   2.846  16.236 -0.5702 -0.1947  0.8743
  370TMC3    C4 5535   3.436   3.008  16.016  0.5369 -0.6066  0.3824
  370TMC3    C5 5536   3.379   2.884  16.002 -0.4234  0.2739 -0.4445
  370TMC3    C6 5537   3.336   2.808  16.108  0.4187  0.2539 -0.1054
  370TMC3     C 5538   3.553   3.151  16.179 -0.7353 -0.4129 -0.5794
  370TMC3     O 5539   3.618   3.156  16.284  0.2855 -0.3487 -0.5838
  370TMC3     H 5540   3.464   2.989  16.357 -0.0437  2.8820 -0.9551
  370TMC3    H1 5541   3.482   3.065  15.936  0.2487 -0.1148  0.5708
  370TMC3    H2 5542   3.278   2.717  16.103  0.4818  0.1694  0.7199
  370TMC3    C7 5543   3.396   2.822  15.872 -0.0133 -0.6440 -0.2343
  370TMC3    C8 5544   3.311   2.769  16.353 -0.0287  0.7093 -0.6930
  370TMC3    O1 5545   3.388   2.897  15.772 -0.0053  0.2584 -0.2784
  370TMC3    O2 5546   3.290   2.645  16.343  0.1695 -0.3474 -0.0654
  371TMC3    C1 5547   0.160   1.367  15.205 -0.1051 -0.3587 -0.5091
  371TMC3    C2 5548   0.070   1.368  15.308 -1.0974  0.1368 -0.9702
  371TMC3    C3 5549   0.021   1.492  15.350 -0.1849  0.7571  0.0039
  371TMC3    C4 5550   0.209   1.484  15.146  0.4893  0.8353 -0.6105
  371TMC3    C5 5551   0.163   1.607  15.196  0.1578  0.5236 -0.5285
  371TMC3    C6 5552   0.072   1.611  15.295  0.2670 -0.0862 -0.2707
  371TMC3     C 5553   0.223   1.239  15.176 -0.7821  0.0354 -0.4091
  371TMC3     O 5554   0.339   1.246  15.142 -0.2500  0.4258 -0.1815
  371TMC3     H 5555   0.047   1.279  15.366  0.0618  1.2850  1.2695
  371TMC3    H1 5556   0.274   1.472  15.060  0.2710  0.2294 -0.6913
  371TMC3    H2 5557   0.021   1.703  15.320 -1.4190 -1.0206 -0.2917
  371TMC3    C7 5558   0.203   1.736  15.133  0.7699 -0.0245 -0.2075
  371TMC3    C8 5559   4.649   1.495  15.461 -0.8535  0.2606  0.4228
  371TMC3    O1 5560   0.178   1.834  15.199  0.4696 -0.1332 -0.3442
  371TMC3    O2 5561   4.616   1.385  15.488 -0.2759 -0.5027 -0.3124
  372MPD2     C 5562   3.900   2.394  12.997 -0.2243  0.2406  0.5647
  372MPD2    C1 5563   4.021   2.390  13.075  0.0726 -0.5942 -0.0744
  372MPD2    C2 5564   4.023   2.295  13.174 -0.0341  0.0326  0.1993
  372MPD2    C3 5565   3.923   2.203  13.186 -0.1561  0.0767  0.6350
  372MPD2    C4 5566   3.823   2.192  13.099 -0.3614 -0.3589 -0.2061
  372MPD2    C5 5567   3.811   2.294  13.004  0.0928  0.2126 -0.2726
  372MPD2     H 5568   4.105   2.283  13.245  1.3009  1.7316 -1.0712
  372MPD2    H1 5569   3.758   2.106  13.096 -0.6360 -0.1789  0.7682
  372MPD2    H2 5570   3.885   2.469  12.921  2.9819  0.0735 -0.2321
  372MPD2    H3 5571   3.730   2.294  12.931  1.2374  0.3115 -1.5471
  372MPD2     N 5572   3.926   2.111  13.297 -0.2530 -0.8891  0.0799
  372MPD2    H5 5573   4.008   2.111  13.357 -1.0559 -2.0045  1.1988
  372MPD2    N1 5574   4.130   2.466  13.050 -0.0866  0.5398 -0.2003
  372MPD2    H7 5575   4.210   2.463  13.112 -0.3471  0.1848  0.1193
  373TMC3    C1 5576   3.852   1.966  13.459 -0.8981 -0.4641 -0.0435
  373TMC3    C2 5577   3.817   2.051  13.558 -0.2833  0.4056  0.6301
  373TMC3    C3 5578   3.896   2.060  13.670 -0.7800  0.7416  0.3801
  373TMC3    C4 5579   3.957   1.879  13.474 -0.6840  0.2921 -0.2121
  373TMC3    C5 5580   4.036   1.886  13.585  0.2214  0.5445  1.4213
  373TMC3    C6 5581   4.000   1.979  13.682 -0.2532 -0.7628 -0.1070
  373TMC3     C 5582   3.823   2.031  13.334  1.0479  0.3660  0.1816
  373TMC3     O 5583   3.708   2.052  13.312  0.3659 -0.0515 -0.2856
  373TMC3     H 5584   3.738   2.123  13.539  0.7936  1.3138 -0.3570
  373TMC3    H1 5585   3.968   1.794  13.408 -0.1955 -1.3000  1.9070
  373TMC3    H2 5586   4.069   2.008  13.760 -1.0426 -0.2790  0.4204
  373TMC3    C7 5587   4.178   1.864  13.559 -0.3146 -0.5873 -0.1088
  373TMC3    C8 5588   3.945   2.191  13.705  0.6770  0.2627  0.8770
  373TMC3    O1 5589   4.212   1.887  13.443  0.1141  0.7215 -0.1173
  373TMC3    O2 5590   4.060   2.217  13.686  0.4903 -0.4099  0.2045
  374TMC3    C1 5591   0.073   2.354   9.823 -0.1876  0.0400  0.0003
  374TMC3    C2 5592   0.141   2.463   9.878 -0.6460  0.3956 -0.6856
  374TMC3    C3 5593   0.129   2.585   9.814 -0.2808  0.5998 -1.4484
  374TMC3    C4 5594   4.718   2.365   9.709 -0.1981 -0.2940  0.4267
  374TMC3    C5 5595   4.702   2.491   9.654  0.0502  0.1102  0.1497
  374TMC3    C6 5596   0.060   2.602   9.700  0.5510 -0.6441  0.0085
  374TMC3     C 5597   0.099   2.214   9.858  0.4638  0.7374 -0.0141
  374TMC3     O 5598   0.032   2.132   9.799 -0.9780  0.7705  0.0863
  374TMC3     H 5599   0.205   2.455   9.965  0.7475  0.2678 -1.7359
  374TMC3    H1 5600   4.657   2.285   9.669 -1.8631  0.3732  1.6178
  374TMC3    H2 5601   0.050   2.701   9.655  0.5546 -0.3305  0.6923
  374TMC3    C7 5602   4.646   2.490   9.513  0.1711  0.6754  0.1724
  374TMC3    C8 5603   0.177   2.709   9.870 -0.0530 -0.2469  0.1633
  374TMC3    O1 5604   4.604   2.378   9.483  0.7024  0.7489 -0.1730
  374TMC3    O2 5605   0.119   2.811   9.835  0.0423 -0.4293  0.0952
  375MPD2     C 5606   0.114   3.177  17.041 -0.0311  0.9486  0.1762
  375MPD2    C1 5607   4.715   3.141  16.987  0.2313 -0.5944 -0.2994
  375MPD2    C2 5608   4.711   3.059  16.882 -0.4606 -0.2661 -0.2223
  375MPD2    C3 5609   0.110   3.022  16.810  0.1023 -0.3633 -0.3667
  375MPD2    C4 5610   0.229   3.060  16.859 -0.5988  0.3372  0.1589
  375MPD2    C5 5611   0.227   3.131  16.973 -0.4262 -0.2315  0.1967
  375MPD2     H 5612   4.613   3.026  16.850  0.7776 -3.0712 -1.1627
  375MPD2    H1 5613   0.322   3.044  16.806 -0.5581 -1.9009  0.9127
  375MPD2    H2 5614   0.120   3.233  17.134 -1.5973  0.2129  0.7234
  375MPD2    H3 5615   0.321   3.164  17.016  0.2332 -1.9497  0.0382
  375MPD2     N 5616   0.109   2.971  16.682  0.2644  0.2676  0.5995
  375MPD2    H5 5617   0.186   2.992  16.619  0.5353 -2.3389  0.0680
  375MPD2    N1 5618   4.598   3.197  17.054 -0.8190  0.1050  0.0915
  375MPD2    H7 5619   4.514   3.139  17.045 -0.6469 -0.1969  0.4380
  376TMC3    C1 5620   0.038   2.876  16.487  0.0571 -0.1560  0.0137
  376TMC3    C2 5621   0.166   2.841  16.475  0.7239 -0.4218  0.7010
  376TMC3    C3 5622   0.214   2.849  16.348 -0.3943  0.1430  0.0215
  376TMC3    C4 5623   4.674   2.919  16.394  0.3681  0.2990 -0.3983
  376TMC3    C5 5624   0.007   2.921  16.271 -0.3795 -0.0638  0.6984
  376TMC3    C6 5625   0.137   2.882  16.246 -1.2791  0.0712  0.1291
  376TMC3     C 5626   0.004   2.904  16.626 -0.6073  0.0325  0.0726
  376TMC3     O 5627   4.611   2.877  16.667 -0.4178 -0.5350  0.3162
  376TMC3     H 5628   0.215   2.794  16.560  2.5521  1.2087  0.5576
  376TMC3    H1 5629   4.572   2.951  16.411  0.2149  0.7207 -2.1291
  376TMC3    H2 5630   0.175   2.870  16.146  2.1245 -2.7403  1.7854
  376TMC3    C7 5631   4.666   3.001  16.176  1.1208  0.7620  0.9938
  376TMC3    C8 5632   0.353   2.868  16.329  0.9494  0.0640  0.8894
  376TMC3    O1 5633   4.584   3.086  16.203  0.3329 -0.4943 -0.3981
  376TMC3    O2 5634   0.384   2.954  16.247  0.3723 -0.5712  0.4050
  377MPD2     C 5635   2.814   3.312  11.960 -0.1164  1.0385 -0.2114
  377MPD2    C1 5636   2.870   3.279  12.086 -0.0247  0.1100  0.2680
  377MPD2    C2 5637   2.785   3.210  12.175 -0.7439  0.3952 -0.2833
  377MPD2    C3 5638   2.650   3.190  12.147  0.0526  0.7493 -0.5166
  377MPD2    C4 5639   2.608   3.222  12.023 -0.2501 -0.1582 -0.3187
  377MPD2    C5 5640   2.687   3.280  11.932  0.3774 -0.3037 -0.2438
  377MPD2     H 5641   2.817   3.179  12.274 -2.9058  0.5840  0.4713
  377MPD2    H1 5642   2.505   3.211  11.989 -0.4317  1.4911 -0.3404
  377MPD2    H2 5643   2.868   3.369  11.885  1.2839 -0.2502 -0.1813
  377MPD2    H3 5644   2.655   3.295  11.829  1.2523 -1.6734 -0.7137
  377MPD2     N 5645   2.555   3.150  12.245  0.1081 -0.1465 -0.5400
  377MPD2    H5 5646   2.456   3.145  12.221 -0.2673 -4.5717  1.8863
  377MPD2    N1 5647   3.006   3.315  12.105  0.6919  0.3659 -0.3381
  377MPD2    H7 5648   3.055   3.366  12.032 -0.3780  2.1104  0.1569
  378TMC3    C1 5649   3.327   3.551  12.193 -0.2210  0.2298 -0.2080
  378TMC3    C2 5650   3.206   3.492  12.177 -0.9020  0.4822 -0.8831
  378TMC3    C3 5651   3.193   3.365  12.223 -0.3783  0.4855 -0.1783
  378TMC3    C4 5652   3.432   3.494  12.274  0.2177  0.3679  0.3077
  378TMC3    C5 5653   3.403   3.361  12.306 -0.8529  0.1543  0.4715
  378TMC3    C6 5654   3.288   3.295  12.282 -1.0867  0.5549 -0.0808
  378TMC3     C 5655   3.340   3.690  12.158 -0.1403 -0.5902 -0.5299
  378TMC3     O 5656   3.407   3.764  12.226  0.1448  0.6825  0.4630
  378TMC3     H 5657   3.112   3.541  12.150 -0.7112  1.6853  0.6301
  378TMC3    H1 5658   3.533   3.532  12.263  0.1919  0.6581  1.1189
  378TMC3    H2 5659   3.271   3.193  12.315 -0.3701  0.1570 -0.9223
  378TMC3    C7 5660   3.499   3.280  12.367 -0.4175 -0.8814 -0.1847
  378TMC3    C8 5661   3.066   3.303  12.224  0.0941  0.6814  0.1082
  378TMC3    O1 5662   3.457   3.202  12.449 -0.4854 -0.0103  0.4134
  378TMC3    O2 5663   3.030   3.255  12.328  0.3331 -0.4621 -0.6119
  379MPD2     C 5664   3.671   0.637  15.922  0.5669 -0.1682  0.8161
  379MPD2    C1 5665   3.787   0.709  15.910 -0.1579 -0.0508 -0.1859
  379MPD2    C2 5666   3.892   0.682  16.000  0.1773 -0.2427  0.0658
  379MPD2    C3 5667   3.878   0.577  16.094 -0.2183  0.0036  0.5237
  379MPD2    C4 5668   3.761   0.503  16.099  0.3438  0.1453  0.1608
  379MPD2    C5 5669   3.658   0.536  16.013 -0.2845 -0.2950  0.1499
  379MPD2     H 5670   3.986   0.737  15.997 -0.2198  0.3895 -1.0343
  379MPD2    H1 5671   3.741   0.429  16.175 -2.0885 -1.3390 -1.9317
  379MPD2    H2 5672   3.581   0.632  15.861  0.0151  0.5327  1.5700
  379MPD2    H3 5673   3.559   0.491  16.020 -0.0460 -0.7717  0.4435
  379MPD2     N 5674   3.980   0.541  16.186 -0.0980  0.4282  0.7053
  379MPD2    H5 5675   3.960   0.472  16.258 -0.3457  0.0438  0.2725
  379MPD2    N1 5676   3.795   0.821  15.822  0.3871  0.5593 -0.0808
  379MPD2    H7 5677   3.882   0.873  15.812  0.8287 -0.3823 -1.1250
  380TMC3    C1 5678   3.717   1.013  15.711 -0.1089  0.6677  0.3705
  380TMC3    C2 5679   3.836   1.041  15.647 -0.7788  0.2652  0.0350
  380TMC3    C3 5680   3.850   1.163  15.584  0.2589  0.0788  0.7072
  380TMC3    C4 5681   3.608   1.095  15.699 -0.3960 -0.3587 -0.1140
  380TMC3    C5 5682   3.623   1.213  15.621  0.5618  0.4258  0.1479
  380TMC3    C6 5683   3.746   1.252  15.567  0.8294  0.6585  0.6556
  380TMC3     C 5684   3.685   0.886  15.775 -0.3489 -0.0637  0.1878
  380TMC3     O 5685   3.563   0.857  15.781  0.5862  0.2261 -0.2902
  380TMC3     H 5686   3.912   0.965  15.644 -0.2857  0.8363 -2.4001
  380TMC3    H1 5687   3.505   1.080  15.731 -0.9847  2.1202 -0.8852
  380TMC3    H2 5688   3.765   1.347  15.518 -2.4471  0.1066 -1.7306
  380TMC3    C7 5689   3.518   1.306  15.584 -0.1918 -0.1519  0.7708
  380TMC3    C8 5690   3.961   1.177  15.488  0.2996 -0.6241 -0.3082
  380TMC3    O1 5691   3.551   1.424  15.581  0.4121 -0.1084  0.0103
  380TMC3    O2 5692   3.942   1.247  15.392 -0.2660 -0.0283  0.2658
  381TMC3    C1 5693   3.405   2.136  16.079 -0.0071 -0.5671  0.4734
  381TMC3    C2 5694   3.420   2.277  16.082  0.1006 -0.1021  0.2018
  381TMC3    C3 5695   3.421   2.327  16.210 -0.7010 -0.1589 -0.3555
  381TMC3    C4 5696   3.374   2.063  16.195  0.8966  0.2383 -0.0613
  381TMC3    C5 5697   3.357   2.130  16.314  0.4333 -0.0129  0.0361
  381TMC3    C6 5698   3.394   2.256  16.327 -0.2083 -0.3394  0.2351
  381TMC3     C 5699   3.414   2.069  15.953  0.0099 -0.1007  0.1148
  381TMC3     O 5700   3.389   1.949  15.948  0.3232  0.4385  0.3268
  381TMC3     H 5701   3.467   2.332  16.001  0.2273 -0.9068 -0.2719
  381TMC3    H1 5702   3.360   1.956  16.195  0.1497  0.3434 -1.2494
  381TMC3    H2 5703   3.375   2.316  16.415 -0.3847 -2.0692  1.3622
  381TMC3    C7 5704   3.302   2.060  16.429  0.4108  0.4563  0.0721
  381TMC3    C8 5705   3.480   2.457  16.207 -0.4666 -0.1976 -0.3831
  381TMC3    O1 5706   3.271   1.941  16.430 -0.4345  0.2835  0.3192
  381TMC3    O2 5707   3.470   2.521  16.104 -0.1068 -0.1655  0.3406
  382MPD2     C 5708   1.839   0.016  17.300  0.1949  0.3809 -0.9397
  382MPD2    C1 5709   1.970   0.023  17.265  0.0692  0.1163 -0.9845
  382MPD2    C2 5710   2.034   4.632  17.221  0.4834  0.1202  0.4199
  382MPD2    C3 5711   1.976   4.506  17.238 -0.0762  0.1843  0.9216
  382MPD2    C4 5712   1.853   4.500  17.295 -0.9544 -0.1838  1.0327
  382MPD2    C5 5713   1.784   4.615  17.324  0.4211  0.3770  0.0229
  382MPD2     H 5714   2.137   4.641  17.187 -0.3837 -0.3528 -2.3768
  382MPD2    H1 5715   1.821   4.398  17.312 -0.4990 -0.2732  1.3658
  382MPD2    H2 5716   1.766   0.094  17.323  0.4702 -0.0986  1.5059
  382MPD2    H3 5717   1.684   4.614  17.367  0.7697  0.1751  0.8211
  382MPD2     N 5718   2.029   4.384  17.189  0.1134 -0.6018 -0.0408
  382MPD2    H5 5719   1.974   4.300  17.204  1.0766 -0.9671  1.4687
  382MPD2    N1 5720   2.044   0.139  17.248 -0.6059 -0.3653 -0.0712
  382MPD2    H7 5721   2.145   0.127  17.243 -0.8338 -2.2461 -0.0583
  383TMC3    C1 5722   2.185   4.226  17.110 -0.6978  0.1021  0.1820
  383TMC3    C2 5723   2.084   4.129  17.095 -0.1597 -0.2447 -0.6046
  383TMC3    C3 5724   2.123   3.996  17.098  0.3303 -0.2411  0.3027
  383TMC3    C4 5725   2.320   4.189  17.131  0.0727  0.2267 -0.0243
  383TMC3    C5 5726   2.351   4.056  17.133  0.4791  0.0055 -0.9406
  383TMC3    C6 5727   2.257   3.956  17.121 -0.6806 -0.0925  0.4108
  383TMC3     C 5728   2.161   4.366  17.146 -0.3646 -0.5645 -0.9565
  383TMC3     O 5729   2.249   4.447  17.135 -0.3580 -0.1041 -0.1743
  383TMC3     H 5730   1.983   4.156  17.065 -1.5083 -3.3152  1.2485
  383TMC3    H1 5731   2.392   4.266  17.158  0.8095 -0.5675  0.2579
  383TMC3    H2 5732   2.294   3.854  17.126 -1.3227 -0.4844 -2.7520
  383TMC3    C7 5733   2.466   4.019  17.212 -0.6876 -0.1599  0.1166
  383TMC3    C8 5734   2.031   3.905  17.044 -0.0265 -0.3207  0.2345
  383TMC3    O1 5735   2.561   4.097  17.214 -0.1899  0.6501  0.0752
  383TMC3    O2 5736   1.921   3.950  17.019 -0.2075  0.1857 -0.3086
  384MPD2     C 5737   4.249   1.561  11.837 -0.3584  0.2135  0.2552
  384MPD2    C1 5738   4.215   1.491  11.947  0.5561 -0.8650  0.1667
  384MPD2    C2 5739   4.281   1.372  11.985 -0.5889  0.3984  0.1652
  384MPD2    C3 5740   4.367   1.320  11.890 -0.4235  0.0774  0.6655
  384MPD2    C4 5741   4.410   1.401  11.781 -0.2596 -0.8426  0.0548
  384MPD2    C5 5742   4.353   1.523  11.763  0.2676 -0.2408 -0.1629
  384MPD2     H 5743   4.248   1.308  12.067  0.1643 -0.9071 -0.5433
  384MPD2    H1 5744   4.498   1.375  11.723  0.2660 -1.4410  1.1146
  384MPD2    H2 5745   4.189   1.649  11.815  0.2572  0.3167 -1.0475
  384MPD2    H3 5746   4.405   1.575  11.683 -1.3513 -0.5179 -1.3946
  384MPD2     N 5747   4.429   1.195  11.917 -0.1742  0.9914 -0.1368
  384MPD2    H5 5748   4.391   1.144  11.997  0.0564 -1.3544 -1.5253
  384MPD2    N1 5749   4.114   1.529  12.036  0.2841  0.2186 -0.1924
  384MPD2    H7 5750   4.116   1.465  12.114 -0.6897  1.8648  1.1774
  385TMC3    C1 5751   4.560   1.006  11.932 -0.4516 -0.2303 -0.0941
  385TMC3    C2 5752   4.542   0.895  11.860  0.9537 -0.3423 -0.3850
  385TMC3    C3 5753   4.459   0.804  11.917  0.0571 -0.7416  0.2635
  385TMC3    C4 5754   4.529   1.023  12.063  0.3437 -0.4946  0.0532
  385TMC3    C5 5755   4.431   0.932  12.112  0.0443  0.7909 -0.7821
  385TMC3    C6 5756   4.392   0.823  12.039  0.0900 -0.8633  0.1376
  385TMC3     C 5757   4.533   1.126  11.855  0.4143  0.6245 -0.6663
  385TMC3     O 5758   4.596   1.154  11.756 -0.1624 -0.1284  0.3662
  385TMC3     H 5759   4.568   0.890  11.754  3.2373  1.3338  0.0850
  385TMC3    H1 5760   4.558   1.105  12.127 -0.5292 -0.9266  0.9918
  385TMC3    H2 5761   4.311   0.753  12.059 -1.2179  0.6215  0.1040
  385TMC3    C7 5762   4.337   0.985  12.206 -0.2435  0.1753 -0.8229
  385TMC3    C8 5763   4.469   0.667  11.866 -0.0991 -0.9615 -0.2228
  385TMC3    O1 5764   4.355   1.104  12.227 -0.7279  0.0536  0.3003
  385TMC3    O2 5765   4.514   0.652  11.755  0.7748 -0.0571 -0.0114
  386TMC3    C1 5766   0.294   3.630  12.221 -0.6333  0.9677 -0.1529
  386TMC3    C2 5767   0.190   3.645  12.131 -0.5252 -0.0236 -0.2799
  386TMC3    C3 5768   0.067   3.616  12.185 -0.4104 -0.0961  0.8315
  386TMC3    C4 5769   0.285   3.580  12.344  0.1415 -0.1983 -0.6381
  386TMC3    C5 5770   0.161   3.524  12.377  0.0726 -0.2102 -0.2754
  386TMC3    C6 5771   0.051   3.547  12.304  0.1691  0.7051  0.4239
  386TMC3     C 5772   0.425   3.692  12.172 -0.9311  0.1182  0.2257
  386TMC3     O 5773   0.488   3.759  12.250  0.3269  0.3609 -0.2183
  386TMC3     H 5774   0.203   3.678  12.029 -1.1001 -0.7205 -0.5838
  386TMC3    H1 5775   0.372   3.580  12.409 -1.7299 -0.2782  1.8415
  386TMC3    H2 5776   4.680   3.499  12.336  1.9085 -1.9989  1.4018
  386TMC3    C7 5777   0.162   3.435  12.489 -0.3353 -0.7497 -0.4709
  386TMC3    C8 5778   4.678   3.592  12.091  0.6056 -0.1592 -0.3315
  386TMC3    O1 5779   0.061   3.440  12.560 -0.4900  0.2572  0.1163
  386TMC3    O2 5780   4.716   3.575  11.972 -0.3882  0.2403 -0.0195
  387MPD2     C 5781   2.004   2.790   9.502  0.1303  0.0111 -0.7791
  387MPD2    C1 5782   2.138   2.781   9.472 -0.6398 -0.9996 -0.2548
  387MPD2    C2 5783   2.186   2.664   9.409 -0.3793  0.0271 -0.4844
  387MPD2    C3 5784   2.104   2.556   9.384 -0.1334  0.1753  0.1841
  387MPD2    C4 5785   1.973   2.571   9.402  0.0927 -0.3179 -0.3368
  387MPD2    C5 5786   1.924   2.694   9.448  0.2218 -0.3059 -0.4808
  387MPD2     H 5787   2.289   2.659   9.378 -0.4208  1.1593 -0.8021
  387MPD2    H1 5788   1.908   2.490   9.370  1.0627 -1.0144 -0.5516
  387MPD2    H2 5789   1.961   2.873   9.557 -0.4234 -1.7639  1.4938
  387MPD2    H3 5790   1.820   2.707   9.477  0.1102  1.5820 -1.7563
  387MPD2     N 5791   2.169   2.435   9.356 -0.6288  0.1690  0.1458
  387MPD2    H5 5792   2.270   2.431   9.361 -0.4692  0.4492 -2.7270
  387MPD2    N1 5793   2.241   2.864   9.521  0.1299  0.5403  0.0366
  387MPD2    H7 5794   2.333   2.843   9.483 -0.3502  1.2011 -1.5130
  388TMC3    C1 5795   2.357   3.003   9.673 -0.6659 -0.3229  0.1475
  388TMC3    C2 5796   2.365   3.126   9.725 -0.3958  1.2367  0.5718
  388TMC3    C3 5797   2.472   3.157   9.795 -0.3840 -0.3817  0.1904
  388TMC3    C4 5798   2.448   2.908   9.706 -0.6679  0.0530  0.1508
  388TMC3    C5 5799   2.549   2.931   9.794 -0.0748  0.1129  0.0465
  388TMC3    C6 5800   2.564   3.062   9.827  0.3479 -0.6036  0.1933
  388TMC3     C 5801   2.229   2.955   9.626  0.8790  0.0221 -0.1684
  388TMC3     O 5802   2.133   3.013   9.668 -0.8680 -0.3943  0.3968
  388TMC3     H 5803   2.274   3.185   9.736 -2.0930 -1.4600  1.1429
  388TMC3    H1 5804   2.431   2.813   9.658  0.3779  0.4833 -1.0772
  388TMC3    H2 5805   2.650   3.092   9.885  1.3466 -2.3659 -0.3821
  388TMC3    C7 5806   2.664   2.840   9.769 -0.4869 -0.2548 -0.3641
  388TMC3    C8 5807   2.466   3.268   9.888 -0.0854  0.4524  0.1130
  388TMC3    O1 5808   2.782   2.873   9.789 -0.2946 -0.1780  0.0035
  388TMC3    O2 5809   2.557   3.279   9.968 -0.1196  0.0886  0.5898
  389MPD2     C 5810   1.680   1.332  11.033 -0.5720  0.2227  0.4657
  389MPD2    C1 5811   1.591   1.252  10.968  0.1763 -0.8338  0.4113
  389MPD2    C2 5812   1.519   1.163  11.046 -0.1547  0.3701  0.1282
  389MPD2    C3 5813   1.533   1.177  11.182 -0.0840 -0.2937  0.3523
  389MPD2    C4 5814   1.621   1.261  11.242  0.2716 -0.5547 -0.1324
  389MPD2    C5 5815   1.700   1.331  11.163 -0.3670 -1.0851 -0.5560
  389MPD2     H 5816   1.450   1.093  11.000  0.8638 -2.0959  2.3611
  389MPD2    H1 5817   1.651   1.275  11.345 -2.6340 -0.3046  0.6656
  389MPD2    H2 5818   1.741   1.401  10.975 -1.8976 -0.2215 -1.4658
  389MPD2    H3 5819   1.775   1.399  11.203  0.0062 -2.0689  0.4407
  389MPD2     N 5820   1.446   1.105  11.274  0.0177  0.0807 -0.3698
  389MPD2    H5 5821   1.433   1.145  11.366  0.6395 -0.9742  0.1839
  389MPD2    N1 5822   1.576   1.263  10.822  0.0081 -0.0067  0.1880
  389MPD2    H7 5823   1.651   1.313  10.775 -0.8091  0.5438 -0.5189
  390TMC3    C1 5824   1.280   0.963  11.344 -0.4084  0.3956  0.0313
  390TMC3    C2 5825   1.265   0.829  11.351 -0.5339  0.1746  0.0437
  390TMC3    C3 5826   1.226   0.772  11.471  0.5966 -0.4028  0.3955
  390TMC3    C4 5827   1.267   1.044  11.455 -0.5649 -0.3872  0.2164
  390TMC3    C5 5828   1.230   0.986  11.576 -0.5735  0.5439  0.4257
  390TMC3    C6 5829   1.215   0.851  11.585 -0.4200  0.9066  0.1047
  390TMC3     C 5830   1.362   1.007  11.236  0.9213  0.1735  0.3300
  390TMC3     O 5831   1.360   0.935  11.132 -0.4653 -0.4424  0.1893
  390TMC3     H 5832   1.275   0.764  11.265 -0.2670 -0.4777  0.5692
  390TMC3    H1 5833   1.259   1.150  11.437  0.1931 -0.1539  1.2648
  390TMC3    H2 5834   1.182   0.812  11.681  0.7631 -0.4276 -0.0372
  390TMC3    C7 5835   1.117   1.046  11.645 -0.2654  0.1542  0.3237
  390TMC3    C8 5836   1.143   0.654  11.458  0.4096  0.4732  0.3797
  390TMC3    O1 5837   1.123   1.147  11.718  0.1829  0.6305  0.2579
  390TMC3    O2 5838   1.111   0.619  11.349  0.1192 -0.0358  0.4748
  391MPD2     C 5839   1.295   2.748  11.059  0.4940 -0.2763  0.3649
  391MPD2    C1 5840   1.379   2.794  10.959 -0.1358  0.9084 -0.2759
  391MPD2    C2 5841   1.336   2.785  10.824 -0.0151  0.4388 -0.0479
  391MPD2    C3 5842   1.211   2.745  10.794  0.5395 -0.0160 -0.8148
  391MPD2    C4 5843   1.127   2.698  10.897  0.1535  0.2361  0.0048
  391MPD2    C5 5844   1.174   2.688  11.022  0.1559 -0.1128  0.1171
  391MPD2     H 5845   1.387   2.837  10.744 -0.9110 -0.0889 -0.9634
  391MPD2    H1 5846   1.023   2.674  10.878  0.2407  1.1444 -1.6402
  391MPD2    H2 5847   1.320   2.746  11.164  1.6154 -1.3293  0.0838
  391MPD2    H3 5848   1.111   2.650  11.102  2.6506 -0.8495  1.7382
  391MPD2     N 5849   1.164   2.755  10.661 -0.2974 -0.1515  0.1232
  391MPD2    H5 5850   1.234   2.789  10.596 -1.3099  2.0091  0.1625
  391MPD2    N1 5851   1.507   2.850  10.998 -0.2539 -0.1457  0.5630
  391MPD2    H7 5852   1.529   2.871  11.095  1.8255  0.0568  0.0455
  392TMC3    C1 5853   1.035   2.771  10.465 -0.2490 -0.3392 -0.4277
  392TMC3    C2 5854   0.922   2.723  10.407 -0.4701  0.3866 -0.4328
  392TMC3    C3 5855   0.867   2.794  10.305 -0.1629  0.1775 -0.1110
  392TMC3    C4 5856   1.103   2.880  10.418 -0.7283  0.8369  0.0317
  392TMC3    C5 5857   1.059   2.932  10.306  0.0383  0.4973  0.4543
  392TMC3    C6 5858   0.937   2.899  10.247 -0.6611  0.4949 -0.0574
  392TMC3     C 5859   1.039   2.739  10.613  0.2471 -0.0029 -0.1137
  392TMC3     O 5860   0.932   2.699  10.658  0.7648 -0.0792  0.1300
  392TMC3     H 5861   0.873   2.635  10.448  0.9700  0.3873  1.2927
  392TMC3    H1 5862   1.200   2.907  10.458  0.2956  0.1649 -2.0037
  392TMC3    H2 5863   0.907   2.922  10.146  2.1550  0.9264 -0.7944
  392TMC3    C7 5864   1.132   3.037  10.246 -0.6675 -1.1676  0.6346
  392TMC3    C8 5865   0.744   2.751  10.236 -0.5166 -0.3843 -0.8483
  392TMC3    O1 5866   1.228   3.085  10.307 -0.2537 -0.2863 -0.0879
  392TMC3    O2 5867   0.711   2.638  10.258  0.0436 -0.5714  0.0837
  393TMC3    C1 5868   4.214   0.682  10.366  0.5270  0.1316 -0.6330
  393TMC3    C2 5869   4.084   0.739  10.363 -0.9522  0.0174  0.0636
  393TMC3    C3 5870   4.034   0.792  10.478  0.5114  0.4975 -0.7766
  393TMC3    C4 5871   4.284   0.687  10.481  0.4121 -0.5682  0.3983
  393TMC3    C5 5872   4.230   0.746  10.589  0.4430 -0.0652  0.0621
  393TMC3    C6 5873   4.102   0.805  10.598  0.2757  1.3170 -0.7189
  393TMC3     C 5874   4.288   0.687  10.240 -0.6699 -0.8693 -0.2575
  393TMC3     O 5875   4.240   0.749  10.145 -0.2859  0.2289 -0.1872
  393TMC3     H 5876   4.021   0.732  10.274 -1.3589  2.6728  0.1271
  393TMC3    H1 5877   4.386   0.656  10.501  1.1032  1.2221 -0.3647
  393TMC3    H2 5878   4.061   0.868  10.676  3.4083  1.3811  0.8760
  393TMC3    C7 5879   4.316   0.780  10.694 -0.0564 -0.4909  0.5763
  393TMC3    C8 5880   3.941   0.904  10.452 -0.2306 -0.5444 -0.4047
  393TMC3    O1 5881   4.279   0.749  10.806  0.1675  0.2290 -0.2843
  393TMC3    O2 5882   3.962   0.966  10.349 -0.2351 -0.1388 -0.1415
  394TMC3    C1 5883   1.464   1.229  10.614  0.5876  0.3782 -1.1864
  394TMC3    C2 5884   1.343   1.257  10.553  0.1482  0.2373 -1.1766
  394TMC3    C3 5885   1.346   1.347  10.453  0.0074  0.3565  0.2290
  394TMC3    C4 5886   1.584   1.268  10.564  0.0501 -0.1290  0.5812
  394TMC3    C5 5887   1.581   1.350  10.451  0.5078  0.2424 -0.3433
  394TMC3    C6 5888   1.462   1.405  10.408 -0.3072  0.5473 -0.2015
  394TMC3     C 5889   1.460   1.212  10.759 -0.1052 -0.5175 -0.3737
  394TMC3     O 5890   1.353   1.182  10.805 -0.2722  0.5317 -0.3301
  394TMC3     H 5891   1.242   1.231  10.583  0.1309  0.6364 -0.8998
  394TMC3    H1 5892   1.680   1.230  10.598  0.7069  0.7698 -0.2713
  394TMC3    H2 5893   1.458   1.464  10.317 -0.4300  0.1824 -0.4361
  394TMC3    C7 5894   1.703   1.393  10.378 -0.0938  0.1675 -0.5256
  394TMC3    C8 5895   1.272   1.308  10.332  0.8395  0.2975  0.5192
  394TMC3    O1 5896   1.675   1.460  10.282  0.1684 -0.1459  0.1365
  394TMC3    O2 5897   1.245   1.396  10.251 -0.7667  0.0586  0.4820
  395TMC3    C1 5898   1.013   2.854  15.334 -0.2350 -0.0105 -0.2489
  395TMC3    C2 5899   1.023   2.740  15.259 -0.4078 -0.2078  0.1020
  395TMC3    C3 5900   1.017   2.757  15.119 -0.9476 -0.6911 -0.5698
  395TMC3    C4 5901   0.994   2.978  15.274 -0.3809 -0.0699 -0.4608
  395TMC3    C5 5902   0.994   2.989  15.139  0.3648 -0.8291  0.1265
  395TMC3    C6 5903   1.016   2.884  15.060 -0.2301 -0.8018 -0.7062
  395TMC3     C 5904   0.981   2.835  15.477  0.5488  0.0975  0.1939
  395TMC3     O 5905   1.019   2.732  15.535  0.1588 -0.8010  0.2819
  395TMC3     H 5906   1.021   2.643  15.307 -1.5010 -1.1789 -1.9046
  395TMC3    H1 5907   0.979   3.070  15.329  1.2841  0.8256 -1.5362
  395TMC3    H2 5908   1.018   2.890  14.952 -0.1012 -0.5018 -0.6889
  395TMC3    C7 5909   1.030   3.121  15.090 -0.3404  0.3539  0.2818
  395TMC3    C8 5910   1.002   2.631  15.044 -0.8149  0.1138  0.0348
  395TMC3    O1 5911   0.969   3.220  15.126 -0.8815 -0.2100  0.2941
  395TMC3    O2 5912   1.042   2.527  15.091  0.6704 -0.2751 -0.3764
  396MPD2     C 5913   1.111   4.314  17.364 -0.7353  0.3935  0.8456
  396MPD2    C1 5914   1.177   4.274  17.245 -0.3323  0.3582 -0.8721
  396MPD2    C2 5915   1.176   4.365  17.142 -0.1640  0.0695  0.4673
  396MPD2    C3 5916   1.136   4.498  17.173  0.6357  0.0219  0.0952
  396MPD2    C4 5917   1.089   4.537  17.296  1.2440  0.2089  0.2098
  396MPD2    C5 5918   1.073   4.441  17.394 -0.7360 -0.7416  1.0593
  396MPD2     H 5919   1.216   4.358  17.041  0.0347 -0.6775  0.5998
  396MPD2    H1 5920   1.077   4.643  17.314 -2.0447 -0.2524  0.7963
  396MPD2    H2 5921   1.119   4.239  17.442 -0.6937  0.7805  1.2135
  396MPD2    H3 5922   1.036   4.466  17.492 -0.8668 -0.5405  0.9592
  396MPD2     N 5923   1.152   4.596  17.071 -0.9478  0.1341  0.7453
  396MPD2    H5 5924   1.198   4.558  16.989  0.4416  1.7731  0.7592
  396MPD2    N1 5925   1.230   4.141  17.233  0.6001  0.5272  0.4834
  396MPD2    H7 5926   1.215   4.079  17.311  1.5292  1.0213  1.0590
  397TMC3    C1 5927   1.322   3.948  17.129 -0.2449  0.2454 -0.3174
  397TMC3    C2 5928   1.351   3.895  17.008  0.3195 -0.3889 -0.0629
  397TMC3    C3 5929   1.263   3.806  16.947  0.6153  0.0748  0.5631
  397TMC3    C4 5930   1.235   3.875  17.202  0.0031  0.6297 -0.4108
  397TMC3    C5 5931   1.172   3.765  17.154 -0.3584  0.3848  0.2241
  397TMC3    C6 5932   1.169   3.739  17.014  0.0405 -0.4725  0.0463
  397TMC3     C 5933   1.297   4.093  17.123 -0.0348  0.6165  0.5908
  397TMC3     O 5934   1.331   4.148  17.018 -0.3115  0.4480 -0.3038
  397TMC3     H 5935   1.423   3.962  16.962 -1.6085  1.6277 -0.1867
  397TMC3    H1 5936   1.232   3.896  17.308  1.9121 -1.7769  0.1227
  397TMC3    H2 5937   1.089   3.679  16.972 -0.0422  0.2503 -0.8295
  397TMC3    C7 5938   1.094   3.672  17.233 -0.1221 -0.0404  0.2533
  397TMC3    C8 5939   1.231   3.814  16.804 -0.5962  0.7621  0.0378
  397TMC3    O1 5940   1.040   3.581  17.175  0.0898 -0.2666  0.2995
  397TMC3    O2 5941   1.159   3.724  16.764  0.2131  0.0418  0.1173
  398MPD2     C 5942   0.653   4.510   0.328 -0.2672 -0.3695  0.7332
  398MPD2    C1 5943   0.613   4.462   0.450  0.1756 -0.0799 -0.3297
  398MPD2    C2 5944   0.635   4.536   0.557 -0.6718 -0.3101 -0.3395
  398MPD2    C3 5945   0.690   4.663   0.547  0.4253 -0.1854 -0.4413
  398MPD2    C4 5946   0.730   4.704   0.425 -0.2298  0.6435  0.7138
  398MPD2    C5 5947   0.712   4.634   0.313 -0.1256  0.0246 -0.1360
  398MPD2     H 5948   0.600   4.485   0.646 -0.0627  0.0720  0.1161
  398MPD2    H1 5949   0.775   0.082   0.419  1.7112 -0.3434 -0.8084
  398MPD2    H2 5950   0.644   4.446   0.241 -0.6917  1.4118 -0.5422
  398MPD2    H3 5951   0.736   4.672   0.214  0.2299  0.0472 -0.0384
  398MPD2     N 5952   0.663   0.033   0.657 -0.6924 -0.0750  0.1541
  398MPD2    H5 5953   0.644   4.715   0.749  1.2508 -3.1169 -0.7302
  398MPD2    N1 5954   0.538   4.346   0.472 -0.1543  0.0868 -0.0766
  398MPD2    H7 5955   0.500   4.327   0.564 -0.2986  1.4239  0.1439
  399TMC3    C1 5956   0.402   4.163   0.434  0.0441  0.0726  0.7751
  399TMC3    C2 5957   0.413   4.130   0.565  0.3103  0.0307 -0.0460
  399TMC3    C3 5958   0.316   4.051   0.623  0.0761  0.9348  0.0878
  399TMC3    C4 5959   0.298   4.120   0.362  0.2219 -0.2697 -0.0997
  399TMC3    C5 5960   0.195   4.057   0.421 -0.3257  0.1609 -0.8370
  399TMC3    C6 5961   0.205   4.013   0.546 -0.3070  0.0943 -0.2371
  399TMC3     C 5962   0.485   4.260   0.379 -1.0317  0.1777  0.0136
  399TMC3     O 5963   0.478   4.283   0.259 -0.6653  0.8944 -0.0849
  399TMC3     H 5964   0.496   4.165   0.626  1.0759 -1.2102 -0.3743
  399TMC3    H1 5965   0.295   4.163   0.262 -2.0554  1.3250  0.6543
  399TMC3    H2 5966   0.128   3.953   0.592 -0.3618 -0.4160 -1.0127
  399TMC3    C7 5967   0.067   4.060   0.358  0.1811 -0.8719  0.2580
  399TMC3    C8 5968   0.329   3.991   0.752  0.2605 -0.6522 -0.0944
  399TMC3    O1 5969   4.706   3.982   0.404 -0.2783 -0.1145  0.1607
  399TMC3    O2 5970   0.303   3.871   0.761  0.1087  0.3044  0.0400
  400TMC3    C1 5971   2.030   3.571  16.533 -0.0306 -0.2658 -0.7781
  400TMC3    C2 5972   1.946   3.463  16.510 -0.4349  0.4020  0.7362
  400TMC3    C3 5973   1.849   3.469  16.415 -0.5038 -0.2868  0.9361
  400TMC3    C4 5974   2.009   3.695  16.473  0.2556  0.2267  0.0250
  400TMC3    C5 5975   1.907   3.697  16.382  0.5786 -0.1430 -0.3077
  400TMC3    C6 5976   1.831   3.589  16.344  0.7145 -0.0869 -0.1948
  400TMC3     C 5977   2.142   3.563  16.630 -0.1244 -0.0883 -0.1499
  400TMC3     O 5978   2.153   3.450  16.673  0.0077 -0.3172 -0.8205
  400TMC3     H 5979   1.967   3.370  16.562  0.9386  0.7142  0.7514
  400TMC3    H1 5980   2.071   3.781  16.492  1.1522 -0.1408 -1.2177
  400TMC3    H2 5981   1.743   3.604  16.283  0.1337  1.6816  1.0734
  400TMC3    C7 5982   1.849   3.822  16.339 -0.3598  0.1418 -0.0137
  400TMC3    C8 5983   1.733   3.380  16.429 -0.6950  0.4095  1.2107
  400TMC3    O1 5984   1.803   3.823  16.224  0.2365 -0.1737  0.0147
  400TMC3    O2 5985   1.682   3.381  16.538  0.0003 -0.3283 -0.7645
  401MPD2     C 5986   1.634   3.126   1.480  0.2242 -0.0800  0.2521
  401MPD2    C1 5987   1.660   3.068   1.358 -0.4599  0.0478 -0.6005
  401MPD2    C2 5988   1.587   2.965   1.312 -0.4146 -0.2094 -0.1926
  401MPD2    C3 5989   1.484   2.912   1.391  0.1521  0.1283 -0.1589
  401MPD2    C4 5990   1.456   2.980   1.505 -0.1292 -0.8481  0.8328
  401MPD2    C5 5991   1.527   3.085   1.548 -0.1313 -0.4386 -0.3859
  401MPD2     H 5992   1.625   2.905   1.230  0.5033 -1.6094  1.2484
  401MPD2    H1 5993   1.372   2.955   1.569 -0.4416 -0.7076  0.4739
  401MPD2    H2 5994   1.686   3.214   1.516 -1.4101  0.8685  0.3165
  401MPD2    H3 5995   1.491   3.136   1.637 -1.3705 -1.3821 -0.3363
  401MPD2     N 5996   1.412   2.797   1.342  0.7110 -0.5063  0.3362
  401MPD2    H5 5997   1.426   2.744   1.257 -0.1570  2.3764 -1.5761
  401MPD2    N1 5998   1.773   3.104   1.286 -0.0844 -0.1319  0.0846
  401MPD2    H7 5999   1.775   3.063   1.194  1.3984 -1.1181  0.5526
  402TMC3    C1 6000   1.265   2.612   1.344  0.1712 -0.2063  0.3142
  402TMC3    C2 6001   1.226   2.498   1.416 -0.4757  0.1813  0.1822
  402TMC3    C3 6002   1.198   2.386   1.339 -0.2684  0.4787 -0.7139
  402TMC3    C4 6003   1.263   2.615   1.205 -0.3989 -0.0901  0.7227
  402TMC3    C5 6004   1.224   2.503   1.138  0.0705 -0.2600  0.2870
  402TMC3    C6 6005   1.197   2.390   1.203 -0.5316  1.0538 -0.1241
  402TMC3     C 6006   1.315   2.724   1.418 -0.1615 -0.4362 -0.3360
  402TMC3     O 6007   1.281   2.741   1.534 -0.1980 -0.4014  0.3586
  402TMC3     H 6008   1.231   2.493   1.524 -2.3691 -0.0545  0.2560
  402TMC3    H1 6009   1.308   2.697   1.150  0.5479  0.3872  2.2070
  402TMC3    H2 6010   1.158   2.306   1.147 -0.4559  0.8129  0.1899
  402TMC3    C7 6011   1.248   2.492   0.995 -0.8296  0.9173 -0.0052
  402TMC3    C8 6012   1.278   2.271   1.366  0.5335 -0.6643  0.3391
  402TMC3    O1 6013   1.167   2.428   0.927  0.1734  0.6859  0.6840
  402TMC3    O2 6014   1.324   2.211   1.267  0.0481 -0.2648  0.4205
  403MPD2     C 6015   3.710   0.594  13.590  1.2196  0.5439  0.8239
  403MPD2    C1 6016   3.750   0.696  13.514  0.5277  0.6564  0.6623
  403MPD2    C2 6017   3.884   0.718  13.495 -0.2908  0.5844  0.8170
  403MPD2    C3 6018   3.976   0.639  13.561  0.8126 -0.6398  0.1412
  403MPD2    C4 6019   3.936   0.536  13.641  0.0768 -0.0629  0.0969
  403MPD2    C5 6020   3.801   0.504  13.649  0.1915 -0.8788 -0.1644
  403MPD2     H 6021   3.918   0.792  13.424  0.0635 -0.4066 -0.0452
  403MPD2    H1 6022   4.004   0.485  13.707 -1.0125 -0.5517  0.8263
  403MPD2    H2 6023   3.605   0.574  13.607  1.7237  0.2286  3.5663
  403MPD2    H3 6024   3.774   0.425  13.718 -1.5052 -0.3204 -0.2054
  403MPD2     N 6025   4.113   0.678  13.553 -0.8600 -0.7587 -0.2465
  403MPD2    H5 6026   4.134   0.766  13.507  0.2344 -0.4176  0.9050
  403MPD2    N1 6027   3.647   0.777  13.462  0.8203 -0.8898  0.4765
  403MPD2    H7 6028   3.552   0.761  13.493  1.4892 -2.5586  1.6498
  404TMC3    C1 6029   3.535   0.860  13.279 -0.1644 -0.5989 -0.0543
  404TMC3    C2 6030   3.425   0.793  13.332 -0.2018  0.0511 -0.8329
  404TMC3    C3 6031   3.338   0.745  13.237  0.2738 -0.7156  0.1260
  404TMC3    C4 6032   3.560   0.880  13.143  0.0432 -0.1287 -0.3529
  404TMC3    C5 6033   3.468   0.833  13.053  0.4450  0.9665  0.4857
  404TMC3    C6 6034   3.353   0.765  13.097  0.3328  0.1138 -0.1851
  404TMC3     C 6035   3.659   0.855  13.349 -0.7912 -0.1602  0.2430
  404TMC3     O 6036   3.762   0.866  13.277 -0.1610  0.2219 -0.0439
  404TMC3     H 6037   3.413   0.773  13.438  0.7167  0.7715 -0.5934
  404TMC3    H1 6038   3.650   0.925  13.103  1.3276 -0.4775  2.1364
  404TMC3    H2 6039   3.282   0.724  13.026 -0.2748 -0.4095  0.7252
  404TMC3    C7 6040   3.478   0.888  12.918 -0.1100  0.2111  0.4502
  404TMC3    C8 6041   3.257   0.638  13.285  0.5250 -0.1426  0.5568
  404TMC3    O1 6042   3.553   0.982  12.892  0.7898  0.5092  0.3135
  404TMC3    O2 6043   3.273   0.546  13.208 -0.6752 -0.0996 -0.3401
  405MPD2     C 6044   4.281   1.450  14.270 -0.2930 -0.4425 -0.3017
  405MPD2    C1 6045   4.199   1.351  14.223 -0.0295  0.2792  0.1832
  405MPD2    C2 6046   4.114   1.383  14.121 -0.1532 -0.2193 -0.2945
  405MPD2    C3 6047   4.113   1.511  14.069 -0.1366 -0.0689 -0.3717
  405MPD2    C4 6048   4.202   1.605  14.106  0.4293  0.0794  0.0559
  405MPD2    C5 6049   4.286   1.572  14.212  0.1793 -0.1833  0.3455
  405MPD2     H 6050   4.041   1.314  14.079 -2.8594  2.2841  0.2639
  405MPD2    H1 6051   4.218   1.701  14.059  0.1653 -0.4656 -1.1385
  405MPD2    H2 6052   4.353   1.440  14.351  1.5995  0.6103 -1.8476
  405MPD2    H3 6053   4.343   1.650  14.261 -0.6036  0.4845  0.1956
  405MPD2     N 6054   4.015   1.539  13.975 -0.1533  0.0448  0.0521
  405MPD2    H5 6055   3.944   1.470  13.952 -0.1584  0.3446 -0.8411
  405MPD2    N1 6056   4.213   1.219  14.272 -0.4280 -0.0336  0.0892
  405MPD2    H7 6057   4.277   1.201  14.348  0.3783  0.4109 -0.4895
  406TMC3    C1 6058   3.665   1.777  13.861 -0.0135  0.2992  0.7491
  406TMC3    C2 6059   3.605   1.657  13.831  0.4608 -0.5742 -0.3344
  406TMC3    C3 6060   3.671   1.541  13.828 -0.2326 -0.5684 -0.0575
  406TMC3    C4 6061   3.801   1.785  13.860  0.2225 -0.2559 -0.1421
  406TMC3    C5 6062   3.873   1.665  13.841  0.6140  0.0895 -0.6910
  406TMC3    C6 6063   3.807   1.545  13.841  1.0965 -0.0496 -1.0887
  406TMC3     C 6064   3.596   1.877  13.944  0.1563  0.4796 -0.1416
  406TMC3     O 6065   3.649   1.983  13.956 -0.2615  0.0913  0.1592
  406TMC3     H 6066   3.502   1.652  13.799  0.4445  0.6711 -0.4809
  406TMC3    H1 6067   3.850   1.874  13.897  1.4104 -0.2235 -1.7818
  406TMC3    H2 6068   3.863   1.460  13.803 -0.7729  0.4100 -4.8211
  406TMC3    C7 6069   4.000   1.662  13.904 -0.1433  0.2978  0.0328
  406TMC3    C8 6070   3.605   1.446  13.917  0.3387 -0.3076  0.2912
  406TMC3    O1 6071   4.058   1.771  13.899  0.1804 -0.0110  0.2051
  406TMC3    O2 6072   3.507   1.499  13.969  0.3880 -0.2203 -0.0236
  407MPD2     C 6073   1.569   2.128   9.217  0.2011  0.5934 -0.0372
  407MPD2    C1 6074   1.686   2.177   9.273  0.3776  0.4467  0.3037
  407MPD2    C2 6075   1.740   2.125   9.392  0.2308 -0.1046 -0.4808
  407MPD2    C3 6076   1.656   2.041   9.468 -0.4181 -0.7737  0.3803
  407MPD2    C4 6077   1.536   2.006   9.414 -0.2476 -0.3776  0.5329
  407MPD2    C5 6078   1.497   2.041   9.292  0.2542  0.0349  0.4726
  407MPD2     H 6079   1.837   2.157   9.431  0.6815  0.0215 -1.7013
  407MPD2    H1 6080   1.467   1.941   9.467 -0.8650 -0.3541 -0.2465
  407MPD2    H2 6081   1.515   2.159   9.128  1.9223  2.1333 -0.5415
  407MPD2    H3 6082   1.406   2.000   9.250  1.5140  0.7862 -3.0072
  407MPD2     N 6083   1.679   2.007   9.601 -0.1929  0.0416  0.0530
  407MPD2    H5 6084   1.597   1.984   9.657 -0.8448 -1.9320 -1.7160
  407MPD2    N1 6085   1.738   2.296   9.224 -0.2836 -0.2966  0.0227
  407MPD2    H7 6086   1.825   2.333   9.261 -0.5024  0.8071 -0.5407
  408TMC3    C1 6087   1.767   2.479   9.086  0.3450  0.3422  0.1003
  408TMC3    C2 6088   1.904   2.464   9.063 -0.3032 -0.1378  0.9508
  408TMC3    C3 6089   1.970   2.575   9.016  0.4002  0.3237 -0.0872
  408TMC3    C4 6090   1.697   2.588   9.045 -0.0079 -0.0522 -0.2706
  408TMC3    C5 6091   1.771   2.701   9.006 -0.0687  0.0828 -0.0620
  408TMC3    C6 6092   1.906   2.697   8.990  0.3840  0.1807  0.0494
  408TMC3     C 6093   1.688   2.358   9.110  0.1161  0.3135 -0.2280
  408TMC3     O 6094   1.591   2.355   9.036 -0.8459 -0.1468 -0.3947
  408TMC3     H 6095   1.958   2.374   9.091  1.5268  0.1279 -1.7326
  408TMC3    H1 6096   1.589   2.586   9.044  0.0511 -3.0117 -0.3681
  408TMC3    H2 6097   1.957   2.778   8.939 -2.3922  1.9551  0.1050
  408TMC3    C7 6098   1.700   2.828   8.992  0.0520  0.0162 -0.9839
  408TMC3    C8 6099   2.119   2.572   9.012 -0.7967 -0.0384  0.3252
  408TMC3    O1 6100   1.775   2.923   8.980  0.1733  1.1152  0.0968
  408TMC3    O2 6101   2.175   2.470   8.972 -0.2025 -0.4592  0.1706
  409MPD2     C 6102   0.982   3.023  16.704 -0.4170  0.5933  0.5345
  409MPD2    C1 6103   1.115   3.038  16.749  0.3021  0.1325 -0.1639
  409MPD2    C2 6104   1.186   3.151  16.711 -0.4181 -0.3557 -0.5403
  409MPD2    C3 6105   1.131   3.242  16.626 -0.1380 -0.3518 -0.5641
  409MPD2    C4 6106   1.008   3.219  16.566 -0.7796  0.3995 -0.5619
  409MPD2    C5 6107   0.930   3.114  16.615  0.1148  0.1521  0.2974
  409MPD2     H 6108   1.288   3.161  16.747  0.5338 -1.3967 -2.8794
  409MPD2    H1 6109   0.954   3.289  16.502 -1.5597 -2.5566 -3.1254
  409MPD2    H2 6110   0.910   2.949  16.737 -1.2786  0.8820 -0.7091
  409MPD2    H3 6111   0.830   3.109  16.574  0.3926  1.6785 -0.5554
  409MPD2     N 6112   1.207   3.361  16.593 -0.2880 -0.0684  0.4362
  409MPD2    H5 6113   1.153   3.426  16.538  2.0147  1.5970  0.1850
  409MPD2    N1 6114   1.170   2.946  16.839 -0.8118  0.4500  0.0953
  409MPD2    H7 6115   1.261   2.974  16.874  0.0903 -1.4230 -0.7468
  410TMC3    C1 6116   1.393   3.513  16.590  0.5204 -0.2720 -0.2075
  410TMC3    C2 6117   1.477   3.584  16.674  0.4307  0.1664 -0.0053
  410TMC3    C3 6118   1.546   3.692  16.633 -0.0232 -0.4343  0.5438
  410TMC3    C4 6119   1.370   3.549  16.458  0.2634 -0.0906  1.0212
  410TMC3    C5 6120   1.442   3.661  16.419 -0.2942  0.1657 -0.3672
  410TMC3    C6 6121   1.519   3.736  16.500  0.5131  0.0661  0.3225
  410TMC3     C 6122   1.329   3.398  16.648  0.5372  0.4104  0.7609
  410TMC3     O 6123   1.377   3.365  16.754  0.2651 -0.0680  0.2148
  410TMC3     H 6124   1.487   3.561  16.779 -0.6901  0.2649  0.1196
  410TMC3    H1 6125   1.318   3.487  16.387 -0.0566  1.9322 -0.5145
  410TMC3    H2 6126   1.590   3.811  16.466 -1.1656  1.8314  0.7412
  410TMC3    C7 6127   1.434   3.688  16.277  0.6809 -0.6192  1.4119
  410TMC3    C8 6128   1.676   3.728  16.687  0.4099  0.1693 -0.1124
  410TMC3    O1 6129   1.404   3.587  16.210  0.4244 -0.3160 -0.3675
  410TMC3    O2 6130   1.704   3.845  16.714 -0.3850 -0.2389  0.4614
  411MPD2     C 6131   1.490   4.087  14.843 -0.0724 -0.9173 -0.1888
  411MPD2    C1 6132   1.371   4.138  14.808 -0.2686  0.8371  0.5316
  411MPD2    C2 6133   1.261   4.053  14.800  0.2517  0.3350 -0.8759
  411MPD2    C3 6134   1.271   3.923  14.858  0.0572 -0.6485 -1.0280
  411MPD2    C4 6135   1.399   3.877  14.893 -0.5665 -0.7718 -0.0430
  411MPD2    C5 6136   1.510   3.954  14.877  0.1816  0.3307  0.9249
  411MPD2     H 6137   1.167   4.091  14.761 -0.4312 -2.9803 -2.5221
  411MPD2    H1 6138   1.404   3.770  14.907  0.2160 -0.7318 -0.0240
  411MPD2    H2 6139   1.578   4.149  14.858 -0.6232 -0.2357  0.2273
  411MPD2    H3 6140   1.612   3.921  14.892 -0.0339 -1.2978 -1.1895
  411MPD2     N 6141   1.158   3.834  14.855 -0.4722  0.1494 -0.4918
  411MPD2    H5 6142   1.184   3.736  14.859  1.4294  0.5882 -1.8382
  411MPD2    N1 6143   1.375   4.269  14.760 -0.1124  0.2767 -0.6985
  411MPD2    H7 6144   1.454   4.329  14.783 -0.0061 -0.4108  0.6909
  412TMC3    C1 6145   0.941   3.752  14.774 -0.1301  0.4629  0.0905
  412TMC3    C2 6146   0.807   3.772  14.782 -0.0330  0.1207  1.1687
  412TMC3    C3 6147   0.720   3.698  14.707 -0.0508 -0.2685 -0.2686
  412TMC3    C4 6148   0.999   3.668  14.683  0.2763  0.0860  0.1655
  412TMC3    C5 6149   0.909   3.600  14.606  0.3487  0.4121 -0.1826
  412TMC3    C6 6150   0.772   3.613  14.614 -0.9395 -0.1005 -0.8854
  412TMC3     C 6151   1.029   3.865  14.811 -0.1368  0.4321 -0.3386
  412TMC3     O 6152   0.976   3.979  14.819 -0.6986 -0.2174 -0.0352
  412TMC3     H 6153   0.763   3.845  14.849  0.4488 -1.1686  2.8738
  412TMC3    H1 6154   1.105   3.665  14.663  0.3503  0.9846  0.4019
  412TMC3    H2 6155   0.707   3.567  14.540 -1.3041 -1.0660  0.0327
  412TMC3    C7 6156   0.934   3.605  14.464  0.0861  0.3342 -0.3370
  412TMC3    C8 6157   0.614   3.776  14.660 -0.2494  0.7058  0.5526
  412TMC3    O1 6158   0.841   3.640  14.394  0.2452 -0.2309 -0.5001
  412TMC3    O2 6159   0.545   3.834  14.745  0.3282  0.2875 -0.1143
  413MPD2     C 6160   3.324   2.811  15.272  0.3035  0.0335 -0.2260
  413MPD2    C1 6161   3.229   2.721  15.224  0.1318  1.0482 -0.6242
  413MPD2    C2 6162   3.274   2.608  15.158  0.1607  0.5575  0.3290
  413MPD2    C3 6163   3.411   2.571  15.149  0.2771 -0.0326 -0.0643
  413MPD2    C4 6164   3.504   2.655  15.208  0.1679  0.0053 -0.0367
  413MPD2    C5 6165   3.454   2.773  15.270  0.6183  0.0090  0.1521
  413MPD2     H 6166   3.206   2.537  15.112 -0.8163  2.3561 -1.0347
  413MPD2    H1 6167   3.611   2.643  15.215  0.1658 -0.2332 -0.4400
  413MPD2    H2 6168   3.295   2.904  15.319  0.8187 -0.0386  0.2374
  413MPD2    H3 6169   3.517   2.841  15.325 -1.4283  2.1386 -0.1445
  413MPD2     N 6170   3.444   2.441  15.098 -0.7237  0.3322 -1.0964
  413MPD2    H5 6171   3.368   2.387  15.057  0.5922 -2.0372 -0.4523
  413MPD2    N1 6172   3.092   2.726  15.255 -0.5897  0.0119 -0.3537
  413MPD2    H7 6173   3.042   2.638  15.247 -2.7877  1.3581 -1.2867
  414TMC3    C1 6174   3.578   2.253  15.050 -0.0169 -0.0307  0.7392
  414TMC3    C2 6175   3.663   2.166  15.108 -0.6647 -0.2055  0.3584
  414TMC3    C3 6176   3.671   2.047  15.050 -0.3566 -0.5565 -0.1133
  414TMC3    C4 6177   3.499   2.221  14.941 -0.2952 -0.3966 -0.6144
  414TMC3    C5 6178   3.503   2.094  14.894  0.0337  0.6158  1.2343
  414TMC3    C6 6179   3.582   2.004  14.957  0.1924  0.4575  0.7743
  414TMC3     C 6180   3.565   2.377  15.117  0.5831  0.9393  0.5957
  414TMC3     O 6181   3.662   2.417  15.178  0.3472  0.2111 -0.5334
  414TMC3     H 6182   3.747   2.208  15.162 -1.6306  1.8588  0.2770
  414TMC3    H1 6183   3.458   2.308  14.891  0.0838  0.2076  0.1262
  414TMC3    H2 6184   3.599   1.906  14.914  1.4680  1.8671 -1.9359
  414TMC3    C7 6185   3.427   2.082  14.767 -0.5410 -0.7101  0.5516
  414TMC3    C8 6186   3.796   1.969  15.069  0.1095 -0.7300  0.0490
  414TMC3    O1 6187   3.319   2.149  14.766  0.1904 -0.1948 -0.1425
  414TMC3    O2 6188   3.825   1.879  14.992 -0.0201  0.1371 -0.0871
  415TMC3    C1 6189   4.148   4.508   9.904  0.1325  0.4211 -0.2418
  415TMC3    C2 6190   4.248   4.504   9.818  0.5323 -0.1200  0.3342
  415TMC3    C3 6191   4.254   4.401   9.729 -0.5001 -0.0829  0.7247
  415TMC3    C4 6192   4.043   4.418   9.914 -0.1430 -0.1737 -0.5937
  415TMC3    C5 6193   4.051   4.313   9.823 -0.6018  0.4647 -0.4728
  415TMC3    C6 6194   4.158   4.305   9.733 -0.3545  0.0492 -0.9999
  415TMC3     C 6195   4.163   4.581  10.028 -0.1760 -0.0197  0.6553
  415TMC3     O 6196   4.102   4.540  10.127  0.0882  0.2285 -0.1763
  415TMC3     H 6197   4.330   4.576   9.818 -0.0303  0.5401 -1.6211
  415TMC3    H1 6198   3.962   4.409   9.986  0.2928 -0.6591 -0.1582
  415TMC3    H2 6199   4.152   4.225   9.660  0.6962  1.0558 -2.2077
  415TMC3    C7 6200   3.957   4.204   9.821 -0.4709  0.7173  0.4979
  415TMC3    C8 6201   4.268   4.450   9.591  0.8624 -0.8302  0.2012
  415TMC3    O1 6202   3.964   4.123   9.730 -0.0503 -0.0713 -0.4899
  415TMC3    O2 6203   4.175   4.426   9.512  0.5016  0.3972 -0.2835
  416MPD2     C 6204   1.409   4.121  11.067 -0.6651  0.3608 -0.7310
  416MPD2    C1 6205   1.338   4.016  11.125  0.8411 -0.0667  0.8245
  416MPD2    C2 6206   1.343   3.894  11.061  0.4521 -0.1809 -0.2748
  416MPD2    C3 6207   1.411   3.881  10.941 -0.7500 -0.2763 -0.4227
  416MPD2    C4 6208   1.479   3.989  10.880  0.0590 -0.8657  0.1150
  416MPD2    C5 6209   1.482   4.104  10.956  0.5849  0.3727  0.2539
  416MPD2     H 6210   1.284   3.816  11.108 -1.6745  1.3321 -0.4351
  416MPD2    H1 6211   1.500   3.999  10.774  0.5342  1.9083  0.4508
  416MPD2    H2 6212   1.401   4.224  11.098  1.3733  0.8352 -1.7585
  416MPD2    H3 6213   1.519   4.200  10.922  1.7970 -0.2573 -0.1713
  416MPD2     N 6214   1.394   3.765  10.865  0.5099 -0.0525 -0.2629
  416MPD2    H5 6215   1.399   3.778  10.764  2.1674  1.1243 -0.0113
  416MPD2    N1 6216   1.248   4.048  11.227 -0.0549  0.2881 -0.0266
  416MPD2    H7 6217   1.251   4.142  11.264 -2.6373 -0.7162  2.7397
  417TMC3    C1 6218   1.052   4.061  11.339 -0.1309 -0.0390 -0.3628
  417TMC3    C2 6219   1.105   4.170  11.396  0.0287  0.6236 -0.2896
  417TMC3    C3 6220   1.028   4.286  11.401  0.2769  0.4530 -0.4869
  417TMC3    C4 6221   0.924   4.056  11.282 -0.5787 -0.0711 -0.0907
  417TMC3    C5 6222   0.858   4.176  11.279 -0.1149 -0.0106  0.0496
  417TMC3    C6 6223   0.909   4.290  11.330 -0.3084  0.4687  0.2858
  417TMC3     C 6224   1.136   3.981  11.254  0.0436  0.0487 -0.3213
  417TMC3     O 6225   1.083   3.895  11.178  0.2233 -0.3546  0.2031
  417TMC3     H 6226   1.204   4.162  11.441 -1.3112  0.3548  2.6245
  417TMC3    H1 6227   0.879   3.964  11.248 -2.4003  1.2676 -1.2932
  417TMC3    H2 6228   0.851   4.381  11.346 -1.2902 -0.1375  0.1661
  417TMC3    C7 6229   0.725   4.184  11.225 -0.0742  0.2005 -0.6281
  417TMC3    C8 6230   1.000   4.329  11.537 -0.3894 -0.4468 -0.4266
  417TMC3    O1 6231   0.654   4.082  11.231  0.5002 -0.2357 -0.1709
  417TMC3    O2 6232   0.914   4.412  11.551  0.0512  0.1817 -0.3912
  418TMC3    C1 6233   0.605   0.169   0.976  0.1290 -0.1023 -0.0213
  418TMC3    C2 6234   0.679   0.171   0.866 -0.3166  0.0914  0.6255
  418TMC3    C3 6235   0.622   0.235   0.757  0.7297 -0.2567 -0.3501
  418TMC3    C4 6236   0.479   0.222   0.977 -0.5470 -0.0286  0.6246
  418TMC3    C5 6237   0.434   0.295   0.875 -0.8925 -0.6983  0.2628
  418TMC3    C6 6238   0.503   0.308   0.759 -0.0643 -0.2576 -0.1552
  418TMC3     C 6239   0.661   0.109   1.096 -0.5176  0.2232 -0.9166
  418TMC3     O 6240   0.775   0.091   1.109  0.3380 -0.2218 -0.1668
  418TMC3     H 6241   0.771   0.115   0.864  0.4319  1.3289  0.0436
  418TMC3    H1 6242   0.418   0.215   1.066 -2.8293 -0.8310 -0.9905
  418TMC3    H2 6243   0.469   0.370   0.677 -0.5289 -2.5586 -1.7010
  418TMC3    C7 6244   0.301   0.346   0.882  0.0148  0.4724  0.2656
  418TMC3    C8 6245   0.652   0.171   0.641  1.0350  0.0013 -0.7689
  418TMC3    O1 6246   0.218   0.278   0.941 -0.6276 -0.0265 -0.1496
  418TMC3    O2 6247   0.671   0.241   0.544  0.1961  0.3375 -0.0047
  419MPD2     C 6248   2.983   3.980  12.321 -0.7559 -1.1144  0.8757
  419MPD2    C1 6249   2.981   4.120  12.317  0.0765  0.0895  0.1668
  419MPD2    C2 6250   3.004   4.188  12.440  0.1321 -0.0889 -0.1133
  419MPD2    C3 6251   3.038   4.123  12.550 -0.2526  0.6389 -0.0620
  419MPD2    C4 6252   3.049   3.980  12.544 -0.1538 -0.1140 -0.7389
  419MPD2    C5 6253   3.034   3.913  12.429  0.7304  0.4463 -0.2679
  419MPD2     H 6254   2.993   4.296  12.448  1.2510  0.0654 -0.7461
  419MPD2    H1 6255   3.075   3.918  12.629 -0.4750  1.0187  0.1808
  419MPD2    H2 6256   2.967   3.920  12.232  1.2393 -0.1563 -0.1364
  419MPD2    H3 6257   3.056   3.807  12.424 -0.7238  0.1598 -0.6528
  419MPD2     N 6258   3.051   4.196  12.668 -0.4617  0.5202  0.1224
  419MPD2    H5 6259   3.049   4.297  12.654 -2.0743  0.3653 -0.6886
  419MPD2    N1 6260   2.952   4.200  12.204  0.3566  0.3862 -0.4813
  419MPD2    H7 6261   2.957   4.301  12.212  0.0034  0.5301 -2.0979
  420TMC3    C1 6262   2.986   4.270  12.868  0.7824  0.0508 -0.0676
  420TMC3    C2 6263   2.897   4.352  12.806 -0.1881  0.0989  0.1455
  420TMC3    C3 6264   2.845   4.466  12.867 -0.1815 -0.1035 -0.1995
  420TMC3    C4 6265   3.011   4.279  12.997  0.3709 -0.0968 -0.8306
  420TMC3    C5 6266   2.957   4.389  13.064 -0.4332 -0.0158  0.3807
  420TMC3    C6 6267   2.875   4.481  13.000  0.0489 -0.0472 -0.4019
  420TMC3     C 6268   3.043   4.158  12.795 -0.1828 -0.1051  0.1970
  420TMC3     O 6269   3.034   4.048  12.844 -0.3010 -0.3732 -0.0228
  420TMC3     H 6270   2.881   4.340  12.700  1.0179  0.4664 -0.0801
  420TMC3    H1 6271   3.084   4.210  13.037  0.6420 -0.2954 -1.6776
  420TMC3    H2 6272   2.846   4.567  13.060  0.2482 -0.5929  0.4752
  420TMC3    C7 6273   2.978   4.392  13.202  0.3538  0.5731 -0.8257
  420TMC3    C8 6274   2.752   4.541  12.787 -0.2708  0.4711  0.4028
  420TMC3    O1 6275   3.081   4.335  13.243 -0.7100  0.7754  0.6453
  420TMC3    O2 6276   2.718   4.491  12.678  0.4418 -0.2784  0.2311
  421TMC3    C1 6277   4.347   0.695  13.627  0.3672 -0.0924  0.1289
  421TMC3    C2 6278   4.329   0.830  13.644  0.5372  0.3864 -0.5794
  421TMC3    C3 6279   4.446   0.901  13.666 -0.2171  0.8873 -0.1874
  421TMC3    C4 6280   4.457   0.625  13.673 -0.1856  0.1502  0.0159
  421TMC3    C5 6281   4.560   0.700  13.726 -0.5202 -0.2992 -0.5361
  421TMC3    C6 6282   4.562   0.837  13.713 -0.5599  0.0245  0.2682
  421TMC3     C 6283   4.217   0.621  13.624  0.2911 -0.5522  0.3723
  421TMC3     O 6284   4.215   0.519  13.694 -0.1563  0.0692  0.3023
  421TMC3     H 6285   4.239   0.883  13.617  1.4404  1.3863 -1.6172
  421TMC3    H1 6286   4.466   0.517  13.669 -0.4929  0.0882  1.0715
  421TMC3    H2 6287   4.640   0.899  13.755  0.1955 -1.8789  1.6567
  421TMC3    C7 6288   4.632   0.646  13.842  0.5334 -0.2284 -0.1739
  421TMC3    C8 6289   4.421   1.038  13.712  0.4635  0.1598  0.5102
  421TMC3    O1 6290   0.016   0.704  13.871 -0.1499  0.3304 -0.8487
  421TMC3    O2 6291   4.316   1.056  13.773 -0.2825 -0.0757  0.3737
  422TMC3    C1 6292   2.069   2.816  12.291  0.0585 -0.0229  0.4236
  422TMC3    C2 6293   2.053   2.794  12.425  0.3402 -1.2787  0.1798
  422TMC3    C3 6294   1.928   2.813  12.478 -0.4035 -0.2816 -0.0044
  422TMC3    C4 6295   1.957   2.835  12.220 -0.2262 -0.1150  0.0311
  422TMC3    C5 6296   1.833   2.835  12.276 -0.0469  0.2574  0.2297
  422TMC3    C6 6297   1.815   2.822  12.404 -0.0982  0.2839  0.2133
  422TMC3     C 6298   2.205   2.821  12.229 -0.3539  0.4112 -0.2541
  422TMC3     O 6299   2.306   2.814  12.293  0.1940  0.5845  0.1739
  422TMC3     H 6300   2.137   2.782  12.492  0.0464 -0.2908  0.7273
  422TMC3    H1 6301   1.967   2.855  12.114 -1.4419 -2.0544 -0.4590
  422TMC3    H2 6302   1.718   2.818  12.452 -0.5124  0.4552 -0.6009
  422TMC3    C7 6303   1.721   2.835  12.186 -0.4683  0.0892  0.7439
  422TMC3    C8 6304   1.918   2.888  12.602  0.3776  0.1225  0.2334
  422TMC3    O1 6305   1.733   2.911  12.093  0.2668  0.7180  0.3372
  422TMC3    O2 6306   2.027   2.906  12.655  0.7150 -0.1145  0.4627
  423MPD2     C 6307   4.083   2.803   0.213  0.1470 -0.4412 -0.3133
  423MPD2    C1 6308   4.001   2.778   0.315 -0.0166 -0.5783 -0.8296
  423MPD2    C2 6309   3.883   2.701   0.290  0.0303  0.6824  0.3716
  423MPD2    C3 6310   3.834   2.691   0.163  0.1985 -0.0657 -0.4547
  423MPD2    C4 6311   3.912   2.733   0.059 -0.4662  0.3799  0.3369
  423MPD2    C5 6312   4.038   2.774   0.087 -0.5293 -0.8389 -0.4315
  423MPD2     H 6313   3.818   2.666   0.369  2.3715 -0.7415  1.6568
  423MPD2    H1 6314   3.869   2.719  17.646 -0.3312 -1.2532  0.5082
  423MPD2    H2 6315   4.178   2.853   0.222  0.7816 -1.7925  0.4493
  423MPD2    H3 6316   4.092   2.799  17.683 -1.8096  1.4478 -0.5715
  423MPD2     N 6317   3.712   2.641   0.124 -0.4282  0.0500 -0.5797
  423MPD2    H5 6318   3.684   2.646   0.027  0.3993  1.3346 -0.7562
  423MPD2    N1 6319   4.021   2.808   0.457  0.2872 -0.0108  0.0329
  423MPD2    H7 6320   3.942   2.785   0.516 -1.4125  2.3634 -1.3280
  424TMC3    C1 6321   4.144   2.856   0.650 -0.1999  0.4701 -0.1628
  424TMC3    C2 6322   4.271   2.846   0.702  0.1914 -0.5544  0.1934
  424TMC3    C3 6323   4.271   2.812   0.835 -0.5352 -0.1129 -0.8199
  424TMC3    C4 6324   4.025   2.865   0.716  0.5650  0.0298 -0.3839
  424TMC3    C5 6325   4.033   2.842   0.852  0.0702  0.2039  0.3036
  424TMC3    C6 6326   4.158   2.821   0.912 -0.7792 -0.2570  0.3969
  424TMC3     C 6327   4.139   2.862   0.503 -0.0058  0.1004 -0.9080
  424TMC3     O 6328   4.238   2.895   0.443  0.8797  0.2000  0.5677
  424TMC3     H 6329   4.356   2.832   0.637  1.2926 -0.3169  1.5881
  424TMC3    H1 6330   3.929   2.892   0.673 -0.6690 -3.9796 -0.1706
  424TMC3    H2 6331   4.162   2.808   1.020  2.1274  0.1167  0.3481
  424TMC3    C7 6332   3.913   2.816   0.920 -0.5864  0.5145  0.0471
  424TMC3    C8 6333   4.395   2.770   0.894  0.3579 -0.3478 -0.2065
  424TMC3    O1 6334   3.814   2.858   0.862  0.2226  0.1957  0.0676
  424TMC3    O2 6335   4.498   2.818   0.855 -0.5258  0.3018  0.0587
  425MPD2     C 6336   2.250   2.176  17.515  0.1162 -0.1576 -0.7089
  425MPD2    C1 6337   2.224   2.133  17.391 -0.5776  0.5516  0.1305
  425MPD2    C2 6338   2.087   2.141  17.352  0.1727  0.0672  0.8316
  425MPD2    C3 6339   1.981   2.186  17.427  0.2483 -0.1386  0.0136
  425MPD2    C4 6340   2.013   2.219  17.554  0.3916  0.0907 -0.0390
  425MPD2    C5 6341   2.144   2.209  17.597 -0.0886  0.0552 -0.2285
  425MPD2     H 6342   2.070   2.110  17.250  1.4659 -0.4821  0.7710
  425MPD2    H1 6343   1.942   2.264  17.622 -0.2843 -3.2419  1.4338
  425MPD2    H2 6344   2.352   2.171  17.551 -1.0320  1.2225  2.7129
  425MPD2    H3 6345   2.166   2.231   0.015  0.8291 -0.8123 -0.2333
  425MPD2     N 6346   1.856   2.197  17.354 -0.0254 -0.0989  0.6009
  425MPD2    H5 6347   1.857   2.158  17.260  1.8250  0.6281  0.3028
  425MPD2    N1 6348   2.318   2.071  17.302 -0.2683 -0.6387 -0.1076
  425MPD2    H7 6349   2.277   2.040  17.214 -2.6026 -2.1047  1.4888
  426TMC3    C1 6350   2.516   1.959  17.238  0.4180  0.0877  0.4425
  426TMC3    C2 6351   2.467   1.929  17.115  0.8321 -0.1500  0.4125
  426TMC3    C3 6352   2.521   1.825  17.045  0.1692  0.1926 -0.1175
  426TMC3    C4 6353   2.606   1.872  17.298 -0.4787  0.1310  0.5064
  426TMC3    C5 6354   2.651   1.766  17.224  0.8184  0.4697  0.3493
  426TMC3    C6 6355   2.614   1.741  17.093 -0.4274  0.8895  0.3710
  426TMC3     C 6356   2.447   2.036  17.335  1.0154 -0.0229 -0.2978
  426TMC3     O 6357   2.501   2.040  17.445  0.0109  0.3000 -0.5666
  426TMC3     H 6358   2.413   2.006  17.061 -1.4061 -1.1965  1.1515
  426TMC3    H1 6359   2.658   1.887  17.393 -0.0333 -2.2526  0.6446
  426TMC3    H2 6360   2.648   1.659  17.031  2.8707  1.6882  1.1013
  426TMC3    C7 6361   2.727   1.663  17.282  0.2069 -1.0609 -0.5769
  426TMC3    C8 6362   2.470   1.800  16.908  0.2726  0.3077  0.0207
  426TMC3    O1 6363   2.769   1.570  17.217  0.4669 -0.4043 -0.6229
  426TMC3    O2 6364   2.565   1.788  16.829 -0.4347  0.0284  0.2851
  427MPD2     C 6365   0.417   4.331  14.678 -0.2917 -1.0419 -0.5785
  427MPD2    C1 6366   0.368   4.314  14.805 -0.5067  0.7884 -0.7246
  427MPD2    C2 6367   0.239   4.345  14.846  0.1274 -0.2528  0.2166
  427MPD2    C3 6368   0.154   4.410  14.761  0.5054  0.2549  0.5815
  427MPD2    C4 6369   0.197   4.418  14.633  0.2542 -0.2094 -0.1283
  427MPD2    C5 6370   0.326   4.381  14.592  0.0067 -0.0149  0.0128
  427MPD2     H 6371   0.206   4.325  14.947 -2.2764 -0.8540 -0.6960
  427MPD2    H1 6372   0.138   4.475  14.562  0.8491  0.2545 -0.2554
  427MPD2    H2 6373   0.517   4.297  14.652  0.2628  0.2035 -0.1187
  427MPD2    H3 6374   0.355   4.391  14.488  1.6997  3.3323  0.8082
  427MPD2     N 6375   0.020   4.457  14.790  0.0685  0.1448  0.4836
  427MPD2    H5 6376   4.690   4.481  14.706  0.9864  0.0758 -0.0996
  427MPD2    N1 6377   0.449   4.261  14.914  0.0065  0.2956 -0.2917
  427MPD2    H7 6378   0.408   4.237  15.004  0.8390 -0.2859 -0.0647
  428TMC3    C1 6379   0.624   4.147  15.019  0.2865 -0.5505  0.3313
  428TMC3    C2 6380   0.544   4.042  15.045 -0.2255  0.6739  0.1281
  428TMC3    C3 6381   0.591   3.926  15.098 -0.6254  0.5468  0.7298
  428TMC3    C4 6382   0.761   4.138  15.034 -0.4423 -0.1051  0.2774
  428TMC3    C5 6383   0.809   4.022  15.093  0.4246  0.0527  0.3705
  428TMC3    C6 6384   0.728   3.917  15.123  0.3203 -0.4101  0.1790
  428TMC3     C 6385   0.582   4.235  14.916  0.3504  0.1204 -0.1804
  428TMC3     O 6386   0.667   4.263  14.833 -0.1544  0.2077 -0.1799
  428TMC3     H 6387   0.445   4.042  15.002 -0.4497  2.6502  0.6013
  428TMC3    H1 6388   0.814   4.230  15.012 -0.0373 -0.2122  0.8096
  428TMC3    H2 6389   0.769   3.834  15.179  1.4243 -0.1556 -0.2516
  428TMC3    C7 6390   0.939   4.031  15.155  0.4081  0.2355  0.0669
  428TMC3    C8 6391   0.500   3.836  15.173  0.4381 -0.3158 -0.4205
  428TMC3    O1 6392   0.965   3.950  15.245 -0.0591  0.6032  0.3560
  428TMC3    O2 6393   0.556   3.745  15.231 -0.5808 -0.1475  0.0674
  429MPD2     C 6394   1.463   4.131  17.548  0.2753 -0.2467  0.8818
  429MPD2    C1 6395   1.536   4.068  17.453 -0.4971  0.1181  0.2435
  429MPD2    C2 6396   1.583   4.137  17.340 -0.0602  0.0760 -0.1477
  429MPD2    C3 6397   1.552   4.265  17.315 -1.0804 -0.3497 -0.6459
  429MPD2    C4 6398   1.478   4.332  17.411 -0.1248  0.4962 -0.5153
  429MPD2    C5 6399   1.431   4.260  17.524  0.2824 -0.1990  0.3293
  429MPD2     H 6400   1.649   4.078  17.278  0.3749  0.0454  0.3436
  429MPD2    H1 6401   1.444   4.435  17.407  1.5447  1.0226 -0.9605
  429MPD2    H2 6402   1.436   4.091  17.645 -0.1633  0.6622  1.1366
  429MPD2    H3 6403   1.371   4.304  17.604  1.4230  0.7849  0.6440
  429MPD2     N 6404   1.598   4.324  17.187  0.4493  0.4642 -0.3042
  429MPD2    H5 6405   1.647   4.260  17.125  0.0758  0.0476 -0.1679
  429MPD2    N1 6406   1.584   3.932  17.478 -0.2755  0.0116  0.0200
  429MPD2    H7 6407   1.666   3.897  17.430 -1.5995 -1.2887 -1.2777
  430TMC3    C1 6408   1.653   4.482  17.025  0.2693  0.1000  0.5848
  430TMC3    C2 6409   1.649   4.607  16.972 -0.0556 -0.7546  0.3156
  430TMC3    C3 6410   1.740   4.635  16.877 -0.5888  0.7866  0.4175
  430TMC3    C4 6411   1.739   4.388  16.977  0.6758 -0.4194 -0.1743
  430TMC3    C5 6412   1.828   4.421  16.881  0.4827 -0.8448  0.0902
  430TMC3    C6 6413   1.827   4.542  16.834 -0.0234  0.5983  0.8256
  430TMC3     C 6414   1.566   4.442  17.131 -0.8331 -0.4052  0.7372
  430TMC3     O 6415   1.494   4.531  17.180  0.2678  0.1911  0.0212
  430TMC3     H 6416   1.577   4.680  17.007 -0.5853 -0.9789 -0.3001
  430TMC3    H1 6417   1.726   4.283  16.998 -2.7647  0.2361  1.0519
  430TMC3    H2 6418   1.914   4.577  16.779 -0.2065  0.2349  0.3065
  430TMC3    C7 6419   1.836   4.308  16.785  0.3267  0.7521 -0.9695
  430TMC3    C8 6420   1.686   4.685  16.752 -0.5158  0.2388  0.0861
  430TMC3    O1 6421   1.898   4.208  16.826  0.9170 -0.0305  0.3250
  430TMC3    O2 6422   1.729   4.634  16.649  0.6236  0.0633  0.1649
  431MPD2     C 6423   2.546   0.227  12.335  0.1673  0.4407  0.3212
  431MPD2    C1 6424   2.664   0.238  12.264  0.0903 -0.4310  0.1088
  431MPD2    C2 6425   2.705   0.129  12.185 -0.5962 -0.1991 -0.5246
  431MPD2    C3 6426   2.639   0.003  12.191 -0.2196  0.0150 -0.4110
  431MPD2    C4 6427   2.525   4.717  12.265  0.3240  0.1327 -0.5422
  431MPD2    C5 6428   2.479   0.104  12.332  0.0069  0.0709  0.6583
  431MPD2     H 6429   2.795   0.135  12.125 -0.7321 -4.2395 -1.1943
  431MPD2    H1 6430   2.454   4.636  12.267 -0.9564  1.1847 -2.8595
  431MPD2    H2 6431   2.506   0.309  12.394  1.3956  0.4497  1.1374
  431MPD2    H3 6432   2.388   0.086  12.387  0.5728  2.4826  2.3997
  431MPD2     N 6433   2.683   4.614  12.113  0.9512 -0.1347 -0.0466
  431MPD2    H5 6434   2.635   4.526  12.121  0.9988 -0.2443 -1.0494
  431MPD2    N1 6435   2.742   0.357  12.267  0.1100 -0.0072  0.2548
  431MPD2    H7 6436   2.704   0.432  12.323 -1.2833 -0.0580 -0.6109
  432TMC3    C1 6437   2.808   4.484  11.967 -0.3705  0.3254 -0.0895
  432TMC3    C2 6438   2.851   4.477  11.842 -0.8093 -0.3136 -0.2170
  432TMC3    C3 6439   2.902   4.362  11.790  0.3878  0.2756  0.0738
  432TMC3    C4 6440   2.822   4.379  12.050 -0.3215 -1.1735 -0.7934
  432TMC3    C5 6441   2.871   4.260  11.999  0.8008  0.5659  0.1078
  432TMC3    C6 6442   2.915   4.249  11.868 -0.4249 -0.3669 -0.4158
  432TMC3     C 6443   2.796   4.613  12.034 -0.3592 -0.7237  0.0828
  432TMC3     O 6444   2.844   4.705  11.974  0.4137  0.0574 -0.0198
  432TMC3     H 6445   2.832   4.569  11.788 -0.2387  0.5328  1.0095
  432TMC3    H1 6446   2.802   4.395  12.155  3.2558 -0.8874 -0.1454
  432TMC3    H2 6447   2.959   4.155  11.836  3.0295  1.9381 -2.4381
  432TMC3    C7 6448   2.902   4.154  12.082 -0.1700  0.0942 -0.3411
  432TMC3    C8 6449   2.946   4.348  11.646 -0.9665  0.1956  0.1437
  432TMC3    O1 6450   2.882   4.038  12.042  0.1163  0.3758 -0.3945
  432TMC3    O2 6451   2.975   4.237  11.601  0.0886  0.1875 -0.3614
  433MPD2     C 6452   1.748   3.065  10.385  0.3435 -0.0907 -0.3777
  433MPD2    C1 6453   1.833   3.007  10.480  0.5495 -0.5466  0.1476
  433MPD2    C2 6454   1.919   3.086  10.553  0.1352 -0.9541  0.7128
  433MPD2    C3 6455   1.905   3.222  10.555  0.4506 -0.8379 -0.3034
  433MPD2    C4 6456   1.819   3.280  10.464  0.0846 -0.2644 -0.0023
  433MPD2    C5 6457   1.746   3.201  10.378 -0.8865  0.5391  0.4898
  433MPD2     H 6458   1.986   3.045  10.628  2.1011  0.7706 -0.1115
  433MPD2    H1 6459   1.816   3.389  10.463  0.6414 -0.2376  0.7705
  433MPD2    H2 6460   1.691   3.002  10.317  0.7409  1.7616 -2.4098
  433MPD2    H3 6461   1.685   3.246  10.299  1.8078  0.0037 -1.8881
  433MPD2     N 6462   1.978   3.280  10.659 -0.5952 -1.2413  0.4286
  433MPD2    H5 6463   2.014   3.220  10.733  1.2958 -0.3820  0.1964
  433MPD2    N1 6464   1.832   2.865  10.486  0.0730 -0.2537 -0.4422
  433MPD2    H7 6465   1.771   2.817  10.421  0.0367  0.7342 -1.1290
  434TMC3    C1 6466   1.865   2.651  10.567 -0.0798  0.1105 -0.2696
  434TMC3    C2 6467   1.931   2.575  10.652  0.4938  0.4929 -0.3125
  434TMC3    C3 6468   1.972   2.453  10.622  0.5385 -0.5434  0.8706
  434TMC3    C4 6469   1.836   2.606  10.441  0.6922 -0.6497 -0.0200
  434TMC3    C5 6470   1.871   2.476  10.414 -0.3839  0.4548  0.2512
  434TMC3    C6 6471   1.940   2.397  10.500 -0.2814 -0.5906  0.2819
  434TMC3     C 6472   1.876   2.790  10.588  0.4578  0.2932 -0.4400
  434TMC3     O 6473   1.932   2.830  10.689  0.6156 -0.0911  0.1346
  434TMC3     H 6474   1.958   2.616  10.749  3.1663  0.2952 -0.9917
  434TMC3    H1 6475   1.797   2.669  10.362 -0.5217 -0.7382  0.5032
  434TMC3    H2 6476   1.986   2.303  10.472  0.9783 -0.5935  2.3441
  434TMC3    C7 6477   1.813   2.415  10.294 -0.6927 -0.0296  0.4326
  434TMC3    C8 6478   2.071   2.400  10.718  0.4146 -0.0290 -0.2631
  434TMC3    O1 6479   1.787   2.481  10.195  0.1388 -0.2297  0.1911
  434TMC3    O2 6480   2.065   2.439  10.833  0.1689 -0.0368  0.4298
  435MPD2     C 6481   3.580   3.101  15.374 -0.4263 -0.3710  0.5350
  435MPD2    C1 6482   3.537   3.060  15.502  0.4614 -1.3362 -0.2365
  435MPD2    C2 6483   3.628   2.991  15.575 -0.3612  0.0816  0.3617
  435MPD2    C3 6484   3.754   2.968  15.535 -0.2422  0.2509 -0.4010
  435MPD2    C4 6485   3.787   2.995  15.408 -0.7224 -0.1538 -0.6390
  435MPD2    C5 6486   3.702   3.059  15.326  0.0251  0.3161  0.2689
  435MPD2     H 6487   3.604   2.958  15.675 -1.5401 -0.1856 -0.0165
  435MPD2    H1 6488   3.882   2.965  15.365 -0.6305 -2.6045  1.2721
  435MPD2    H2 6489   3.506   3.146  15.310 -2.1989 -2.4950  1.0951
  435MPD2    H3 6490   3.730   3.092  15.226  0.0377  0.6796  0.3937
  435MPD2     N 6491   3.832   2.900  15.628 -0.2683 -0.4886  0.7399
  435MPD2    H5 6492   3.786   2.879  15.716  1.2724  1.9577  2.1360
  435MPD2    N1 6493   3.406   3.076  15.552  0.2796 -0.1121 -0.8187
  435MPD2    H7 6494   3.385   3.025  15.637  1.7214  0.4659 -0.1248
  436TMC3    C1 6495   3.188   3.327  15.780 -0.1442  0.5743 -0.3156
  436TMC3    C2 6496   3.251   3.227  15.704 -0.1156  0.5358 -0.7018
  436TMC3    C3 6497   3.204   3.184  15.585  0.1870 -1.0163 -0.1432
  436TMC3    C4 6498   3.065   3.376  15.744  0.5150  0.0804  0.6108
  436TMC3    C5 6499   3.031   3.341  15.618 -0.0274 -0.1887 -0.3131
  436TMC3    C6 6500   3.091   3.245  15.540  0.0144  0.3953 -0.6663
  436TMC3     C 6501   3.236   3.346  15.919  0.5447  0.7512  0.1962
  436TMC3     O 6502   3.338   3.285  15.951 -0.0519  0.3872 -0.4266
  436TMC3     H 6503   3.340   3.181  15.745 -0.4846  2.0759  1.8648
  436TMC3    H1 6504   3.014   3.456  15.796 -0.4857  0.7732 -1.4408
  436TMC3    H2 6505   3.054   3.214  15.443  1.2789  1.2369 -1.4264
  436TMC3    C7 6506   2.906   3.390  15.561  0.0679  0.1811 -0.0310
  436TMC3    C8 6507   3.306   3.144  15.491 -0.2501  0.2290 -0.1738
  436TMC3    O1 6508   2.901   3.376  15.437  0.5394  0.4548 -0.7522
  436TMC3    O2 6509   3.301   3.209  15.385  0.4117  0.5455 -0.0791
  437TMC3    C1 6510   2.002   0.864  12.284  0.9179 -0.1510  0.1076
  437TMC3    C2 6511   1.895   0.909  12.354 -0.4209 -0.0574 -0.0627
  437TMC3    C3 6512   1.859   1.037  12.333  0.5689  0.2172 -0.2624
  437TMC3    C4 6513   2.071   0.936  12.194  0.4439  0.2897  0.0802
  437TMC3    C5 6514   2.032   1.070  12.176 -0.8246  0.1808 -0.1888
  437TMC3    C6 6515   1.928   1.120  12.243 -0.1287 -0.0019  0.4302
  437TMC3     C 6516   2.003   0.720  12.262 -0.4573  0.2335 -0.4564
  437TMC3     O 6517   1.899   0.661  12.277  0.6840 -0.5624 -0.1824
  437TMC3     H 6518   1.839   0.839  12.416  1.3793  0.5495  2.2540
  437TMC3    H1 6519   2.152   0.888  12.140  1.0423  1.8346 -0.3981
  437TMC3    H2 6520   1.887   1.217  12.219 -2.7135 -1.2589 -0.1810
  437TMC3    C7 6521   2.134   1.150  12.109  0.1247  0.3907 -0.6697
  437TMC3    C8 6522   1.745   1.095  12.394 -0.4966 -0.8100  0.2890
  437TMC3    O1 6523   2.111   1.259  12.054  0.1085  0.2691 -0.0483
  437TMC3    O2 6524   1.753   1.210  12.430  1.3819 -0.3309 -0.1288
  438MPD2     C 6525   4.238   0.874  16.362  0.0222  0.6935  0.2353
  438MPD2    C1 6526   4.348   0.845  16.447 -0.0083  0.2919  0.0422
  438MPD2    C2 6527   4.321   0.818  16.578 -0.1491  0.0541  0.4706
  438MPD2    C3 6528   4.194   0.827  16.627 -0.0290  0.1541 -0.0512
  438MPD2    C4 6529   4.090   0.859  16.545 -0.3656  0.3669 -0.4904
  438MPD2    C5 6530   4.116   0.880  16.416 -0.4098  0.4275 -0.2805
  438MPD2     H 6531   4.401   0.784  16.643  0.4111 -1.8448 -1.2068
  438MPD2    H1 6532   3.986   0.845  16.573  0.2095 -1.6419  0.6177
  438MPD2    H2 6533   4.254   0.880  16.255 -4.4046  0.1895 -0.4476
  438MPD2    H3 6534   4.034   0.881  16.346 -1.1010 -1.1928  0.4991
  438MPD2     N 6535   4.163   0.807  16.764  0.1711  0.7202 -0.6953
  438MPD2    H5 6536   4.067   0.823  16.793  0.0511 -1.5648  0.1633
  438MPD2    N1 6537   4.490   0.842  16.413  0.1076 -0.3718 -0.7113
  438MPD2    H7 6538   4.555   0.798  16.477 -1.2204 -1.7104 -0.2675
  439TMC3    C1 6539   4.690   0.882  16.300  0.0923 -0.0489 -0.4659
  439TMC3    C2 6540   0.046   0.858  16.191  0.2687  0.7679 -0.1961
  439TMC3    C3 6541   0.184   0.849  16.206 -0.7595  0.5424  0.1477
  439TMC3    C4 6542   0.025   0.898  16.424 -0.6048 -0.3770  0.3489
  439TMC3    C5 6543   0.162   0.885  16.439  0.3932 -0.3678  0.3466
  439TMC3    C6 6544   0.241   0.849  16.328  0.0624  0.4221  0.5577
  439TMC3     C 6545   4.547   0.878  16.294 -0.5352  0.1928  0.1977
  439TMC3     O 6546   4.489   0.903  16.189  0.1303 -0.8685  0.5057
  439TMC3     H 6547   4.719   0.833  16.097  1.4647 -0.0474 -0.5790
  439TMC3    H1 6548   4.685   0.923  16.510  0.0482 -2.2802  1.3663
  439TMC3    H2 6549   0.348   0.843  16.341 -0.2840 -1.5091  2.5809
  439TMC3    C7 6550   0.233   0.890  16.566 -0.3214 -0.5051 -0.3468
  439TMC3    C8 6551   0.246   0.767  16.109 -0.4085  0.7583 -0.7719
  439TMC3    O1 6552   0.357   0.913  16.564  0.3682 -0.0559 -0.0993
  439TMC3    O2 6553   0.319   0.683  16.160  0.1630  0.1406 -0.6251
  440MPD2     C 6554   3.794   1.410  14.590 -0.5073  0.0210 -0.6151
  440MPD2    C1 6555   3.814   1.468  14.712 -0.9796 -0.4142  0.1759
  440MPD2    C2 6556   3.944   1.467  14.769  0.6438 -0.0691  0.3639
  440MPD2    C3 6557   4.052   1.409  14.705 -0.4323  0.0674  0.1242
  440MPD2    C4 6558   4.034   1.346  14.579 -0.0603 -0.5576 -0.3735
  440MPD2    C5 6559   3.906   1.352  14.524 -0.6687  0.1206 -0.2538
  440MPD2     H 6560   3.960   1.515  14.865  0.7287 -0.9827  0.7973
  440MPD2    H1 6561   4.113   1.311  14.514  0.6297 -0.9586  0.6764
  440MPD2    H2 6562   3.698   1.385  14.547 -1.3884  0.9445  0.8141
  440MPD2    H3 6563   3.887   1.297  14.432  0.1086 -0.1077 -0.2794
  440MPD2     N 6564   4.181   1.424  14.758 -0.3958 -0.5439 -0.5183
  440MPD2    H5 6565   4.255   1.363  14.726 -0.5365 -0.1793 -1.5363
  440MPD2    N1 6566   3.709   1.543  14.780 -0.8745  0.2678 -0.1055
  440MPD2    H7 6567   3.723   1.580  14.874 -1.6587 -0.3016  0.2395
  441TMC3    C1 6568   4.359   1.523  14.863  0.5736 -0.4939 -0.1899
  441TMC3    C2 6569   4.403   1.650  14.903 -0.6081  0.3487  0.8050
  441TMC3    C3 6570   4.476   1.642  15.021  0.1057  0.4559 -0.5706
  441TMC3    C4 6571   4.387   1.402  14.926 -0.2301  0.5345 -0.2522
  441TMC3    C5 6572   4.475   1.411  15.033  0.3750  0.0664 -0.2885
  441TMC3    C6 6573   4.520   1.526  15.080 -0.2758 -0.4251  0.0730
  441TMC3     C 6574   4.219   1.525  14.842  0.7085  0.1444 -0.2796
  441TMC3     O 6575   4.163   1.623  14.892  0.1358  0.3556 -0.2755
  441TMC3     H 6576   4.360   1.741  14.862 -0.8187  0.9040  2.2599
  441TMC3    H1 6577   4.334   1.312  14.897  0.0137 -0.2212  1.6506
  441TMC3    H2 6578   4.565   1.526  15.178  0.1043 -4.1117 -0.0940
  441TMC3    C7 6579   4.488   1.296  15.117 -0.2918 -0.1457 -0.5501
  441TMC3    C8 6580   4.429   1.748  15.110 -0.2572  0.6344  0.1302
  441TMC3    O1 6581   4.592   1.231  15.116  0.1947  0.0178 -0.3634
  441TMC3    O2 6582   4.509   1.779  15.197  0.3914 -0.3662  0.5840
  442MPD2     C 6583   1.637   1.957  16.387 -0.0332  0.0070 -0.8704
  442MPD2    C1 6584   1.551   1.953  16.286 -0.6890 -0.2301 -0.2472
  442MPD2    C2 6585   1.545   1.837  16.217 -0.1871 -0.2981  0.2889
  442MPD2    C3 6586   1.617   1.719  16.252 -0.2212  1.0209 -0.3870
  442MPD2    C4 6587   1.706   1.733  16.356 -0.1479  0.8165 -0.2478
  442MPD2    C5 6588   1.717   1.849  16.426  0.1016  0.0542  0.4748
  442MPD2     H 6589   1.468   1.835  16.141  0.1501  2.2481 -0.1059
  442MPD2    H1 6590   1.778   1.657  16.381 -0.5711  0.2966 -0.6058
  442MPD2    H2 6591   1.649   2.053  16.436  1.0069  1.3253 -3.7025
  442MPD2    H3 6592   1.789   1.854  16.507  0.2401 -0.1003  0.3602
  442MPD2     N 6593   1.608   1.593  16.191  0.8449  0.7357  0.0994
  442MPD2    H5 6594   1.667   1.520  16.231 -0.4674 -0.7212 -0.6811
  442MPD2    N1 6595   1.465   2.059  16.250  0.2874 -0.0183  0.4946
  442MPD2    H7 6596   1.407   2.041  16.168 -0.4547  0.3379  0.9365
  443TMC3    C1 6597   1.374   2.277  16.258  0.9048  0.5837  0.1583
  443TMC3    C2 6598   1.336   2.258  16.132  0.7440  0.2002  0.1704
  443TMC3    C3 6599   1.209   2.274  16.085  0.5710  0.0664 -0.3866
  443TMC3    C4 6600   1.276   2.316  16.347 -0.8693 -0.0305  0.8712
  443TMC3    C5 6601   1.154   2.334  16.299  0.4593 -0.1370  0.4760
  443TMC3    C6 6602   1.115   2.318  16.173 -0.5605  0.8119 -0.4646
  443TMC3     C 6603   1.446   2.174  16.323  0.4010  0.6963 -0.1418
  443TMC3     O 6604   1.492   2.205  16.435  0.7220 -0.1473 -0.6537
  443TMC3     H 6605   1.414   2.226  16.064 -0.4499  0.0266 -1.1213
  443TMC3    H1 6606   1.304   2.321  16.451  1.9902 -3.8648  0.3151
  443TMC3    H2 6607   1.014   2.326  16.136 -0.2603 -0.5664 -1.5908
  443TMC3    C7 6608   1.053   2.296  16.398  0.6791 -0.2977  0.2982
  443TMC3    C8 6609   1.178   2.151  16.012  0.4008 -0.7929  0.2746
  443TMC3    O1 6610   0.975   2.204  16.378  0.3887 -0.3157 -0.3975
  443TMC3    O2 6611   1.247   2.052  16.041  0.5079 -0.1147  0.3006
  444MPD2     C 6612   1.919   1.231  16.276 -0.3587  0.1844  0.0948
  444MPD2    C1 6613   1.906   1.191  16.410  0.6411  0.8070 -0.0207
  444MPD2    C2 6614   2.008   1.111  16.464 -0.2850 -0.0981 -0.1131
  444MPD2    C3 6615   2.127   1.085  16.400  0.1172 -0.2273  0.7145
  444MPD2    C4 6616   2.142   1.140  16.272  0.0458  0.6555 -0.2738
  444MPD2    C5 6617   2.030   1.190  16.209  0.0209  0.5056  0.3667
  444MPD2     H 6618   1.995   1.055  16.556 -4.1460  0.1241 -0.5557
  444MPD2    H1 6619   2.230   1.120  16.212  0.3467  0.6698  0.1620
  444MPD2    H2 6620   1.835   1.265  16.216  0.9291  2.3659 -0.4449
  444MPD2    H3 6621   2.027   1.224  16.106 -0.4278 -1.5598 -0.3076
  444MPD2     N 6622   2.230   1.010  16.461 -0.4092 -0.4283 -0.6648
  444MPD2    H5 6623   2.213   0.962  16.549  1.0375 -0.8886 -0.6292
  444MPD2    N1 6624   1.786   1.205  16.485  0.4545 -0.0664  1.0958
  444MPD2    H7 6625   1.793   1.160  16.576  1.1454  3.7489  2.9134
  445TMC3    C1 6626   2.444   0.915  16.477 -0.1618 -0.6711  0.5205
  445TMC3    C2 6627   2.396   0.817  16.559 -0.4989 -0.2240 -0.4249
  445TMC3    C3 6628   2.491   0.735  16.613 -0.2155 -0.0462 -0.2872
  445TMC3    C4 6629   2.579   0.928  16.457 -0.2309 -0.3530  0.3245
  445TMC3    C5 6630   2.670   0.842  16.502 -0.5385 -0.2305  0.1007
  445TMC3    C6 6631   2.623   0.732  16.574  0.2983  0.3144 -0.9542
  445TMC3     C 6632   2.360   1.012  16.411 -0.0095  0.0386  0.4884
  445TMC3     O 6633   2.411   1.101  16.341 -0.5108  0.3738 -0.3504
  445TMC3     H 6634   2.295   0.816  16.597 -0.0200 -0.4795  0.8335
  445TMC3    H1 6635   2.608   1.010  16.392 -0.0209 -0.1518  0.6762
  445TMC3    H2 6636   2.691   0.657  16.611 -1.3212 -0.1468  1.0863
  445TMC3    C7 6637   2.781   0.813  16.417 -0.2981 -0.2538  0.1863
  445TMC3    C8 6638   2.450   0.616  16.688 -0.0935 -0.4351 -0.2381
  445TMC3    O1 6639   2.776   0.857  16.301 -0.0469  0.0315 -0.9247
  445TMC3    O2 6640   2.541   0.560  16.750  0.2819  0.1616  0.1007
  446MPD2     C 6641   1.860   2.705  11.249  0.3806 -0.0093  0.3659
  446MPD2    C1 6642   1.815   2.667  11.122 -0.7251 -0.0393  0.8916
  446MPD2    C2 6643   1.898   2.698  11.008 -0.5162  0.8343  0.3137
  446MPD2    C3 6644   2.024   2.755  11.019  0.7011 -0.4787 -0.4191
  446MPD2    C4 6645   2.059   2.797  11.143 -0.0078 -0.2344 -0.1306
  446MPD2    C5 6646   1.978   2.776  11.249  0.2760 -0.0918 -0.1735
  446MPD2     H 6647   1.864   2.668  10.909  1.0742 -4.7295  1.4671
  446MPD2    H1 6648   2.148   2.857  11.162 -0.5541  0.2279  0.9770
  446MPD2    H2 6649   1.802   2.682  11.338 -0.5007 -0.2477 -0.2712
  446MPD2    H3 6650   2.024   2.795  11.346  0.3690  2.2901 -0.6936
  446MPD2     N 6651   2.095   2.774  10.901 -0.0262 -0.2597  0.1697
  446MPD2    H5 6652   2.046   2.761  10.813 -0.4471  0.2320  0.3362
  446MPD2    N1 6653   1.703   2.583  11.098 -0.2520 -0.2708 -0.0059
  446MPD2    H7 6654   1.696   2.546  11.004  2.8309 -0.0962 -0.3284
  447TMC3    C1 6655   2.293   2.804  10.756 -0.0580  0.2759  0.3219
  447TMC3    C2 6656   2.241   2.732  10.653  0.0318 -0.3124 -1.0553
  447TMC3    C3 6657   2.330   2.694  10.551  0.9928 -0.9143 -1.0846
  447TMC3    C4 6658   2.423   2.846  10.752  0.5910 -0.1630  0.2199
  447TMC3    C5 6659   2.505   2.807  10.649 -0.2674  0.6638 -0.5282
  447TMC3    C6 6660   2.464   2.722  10.552  0.6407  0.3658  0.1196
  447TMC3     C 6661   2.233   2.794  10.889  0.3508 -0.0766  0.1769
  447TMC3     O 6662   2.317   2.795  10.983  0.0421 -0.6109 -0.4385
  447TMC3     H 6663   2.136   2.708  10.636 -0.8342  2.2153  0.8231
  447TMC3    H1 6664   2.454   2.916  10.829  1.3921  0.6559 -0.8575
  447TMC3    H2 6665   2.532   2.699  10.471 -1.0670 -2.5422 -0.4879
  447TMC3    C7 6666   2.646   2.786  10.685  0.2071  0.6474 -0.5669
  447TMC3    C8 6667   2.283   2.593  10.454 -0.4355 -0.8641 -0.7846
  447TMC3    O1 6668   2.710   2.710  10.613  0.2354 -0.3530 -0.1378
  447TMC3    O2 6669   2.162   2.599  10.435 -0.2251 -0.0239 -0.0229
  448TMC3    C1 6670   4.413   1.757  17.603  0.1108  0.4079  0.5332
  448TMC3    C2 6671   4.428   1.720  17.471 -0.6076  0.1983  0.0996
  448TMC3    C3 6672   4.522   1.798  17.402 -1.0184 -0.5092  0.5488
  448TMC3    C4 6673   4.485   1.854  17.662  0.5631  0.0788  0.0925
  448TMC3    C5 6674   4.582   1.922  17.587 -0.2253 -0.4805 -0.2009
  448TMC3    C6 6675   4.599   1.893  17.458 -0.5234  0.5193 -0.6311
  448TMC3     C 6676   4.288   1.720  17.666 -0.1741  0.5446  0.3727
  448TMC3     O 6677   4.199   1.667  17.597 -0.4815  0.0420 -0.1667
  448TMC3     H 6678   4.355   1.658  17.420  1.1659 -1.6497 -0.1828
  448TMC3    H1 6679   4.471   1.899   0.075  0.6854  0.6736 -0.1617
  448TMC3    H2 6680   4.672   1.953  17.406 -0.5351  1.5308  0.5296
  448TMC3    C7 6681   4.677   2.016  17.656  0.5489 -0.2789  0.2107
  448TMC3    C8 6682   4.560   1.761  17.267  0.1118 -0.1912 -0.0645
  448TMC3    O1 6683   4.703   2.121  17.595  0.4480 -0.1206  0.0484
  448TMC3    O2 6684   4.668   1.801  17.230 -0.5606 -0.2335 -0.5726
  449MPD2     C 6685   1.455   1.055  13.534  0.5204 -0.3031  0.8682
  449MPD2    C1 6686   1.329   0.992  13.518  0.1685  0.4202 -0.2778
  449MPD2    C2 6687   1.275   0.919  13.622 -0.6189  0.0601 -0.6776
  449MPD2    C3 6688   1.348   0.900  13.739 -0.2962 -0.4467 -0.0584
  449MPD2    C4 6689   1.478   0.951  13.746 -0.7655  0.8047 -0.4745
  449MPD2    C5 6690   1.533   1.022  13.642  0.3570  0.1442  0.1083
  449MPD2     H 6691   1.175   0.878  13.619 -0.2646 -0.6403 -2.4520
  449MPD2    H1 6692   1.543   0.938  13.832 -0.6463 -2.4357 -1.0387
  449MPD2    H2 6693   1.493   1.131  13.467  1.3630 -0.6303  0.9705
  449MPD2    H3 6694   1.626   1.075  13.657 -0.6828  1.1046  3.0644
  449MPD2     N 6695   1.298   0.815  13.842  0.0702  0.0241 -0.3659
  449MPD2    H5 6696   1.206   0.780  13.818  0.8218 -2.3803  0.2619
  449MPD2    N1 6697   1.242   1.010  13.410 -1.0260  0.1764  0.2699
  449MPD2    H7 6698   1.154   0.962  13.425 -0.9441 -0.9992 -3.0906
  450TMC3    C1 6699   1.191   1.029  13.188  0.3175  0.7475 -0.1824
  450TMC3    C2 6700   1.251   0.947  13.096 -0.2315 -0.6963 -0.5782
  450TMC3    C3 6701   1.190   0.824  13.062  0.8801 -0.7360 -0.0279
  450TMC3    C4 6702   1.073   0.982  13.242 -0.0579 -0.2748  0.0222
  450TMC3    C5 6703   1.019   0.860  13.212 -0.0012 -0.3618  0.2488
  450TMC3    C6 6704   1.072   0.781  13.118 -0.1300 -0.1111  0.1706
  450TMC3     C 6705   1.287   1.065  13.294 -0.0224 -0.3510 -0.0251
  450TMC3     O 6706   1.404   1.090  13.267  0.1042  0.7207 -0.3488
  450TMC3     H 6707   1.347   0.982  13.062 -1.1706  2.0375 -0.3958
  450TMC3    H1 6708   1.020   1.048  13.309 -1.4170 -1.5211  0.1703
  450TMC3    H2 6709   1.052   0.675  13.103 -0.0036 -0.0998 -0.0698
  450TMC3    C7 6710   0.961   0.796  13.320 -0.2232 -0.2455 -0.0841
  450TMC3    C8 6711   1.259   0.738  12.967  0.6888  0.0206 -0.3028
  450TMC3    O1 6712   0.988   0.856  13.421 -0.2227  0.0258  0.2961
  450TMC3    O2 6713   1.194   0.653  12.908  0.0620 -0.1341  0.2394
  451MPD2     C 6714   2.919   3.526   1.328  0.2659  0.1230 -0.0513
  451MPD2    C1 6715   2.955   3.625   1.242  0.4087 -0.3429 -0.8864
  451MPD2    C2 6716   3.081   3.619   1.179  0.4390  0.2860 -0.5429
  451MPD2    C3 6717   3.174   3.527   1.211 -0.2191  0.0540  0.2584
  451MPD2    C4 6718   3.135   3.436   1.311 -0.0590 -0.1116  0.5355
  451MPD2    C5 6719   3.013   3.442   1.372  1.1963 -0.8827 -0.6719
  451MPD2     H 6720   3.105   3.691   1.102 -1.6181  0.5967 -0.8931
  451MPD2    H1 6721   3.208   3.364   1.347 -0.3564 -1.0062 -0.6199
  451MPD2    H2 6722   2.821   3.523   1.375 -0.3934 -0.6598 -1.4552
  451MPD2    H3 6723   2.986   3.369   1.447 -0.9901 -1.7496 -2.3281
  451MPD2     N 6724   3.297   3.499   1.154 -0.2547 -0.3079 -0.5150
  451MPD2    H5 6725   3.355   3.430   1.200 -0.4415  0.1811  0.4483
  451MPD2    N1 6726   2.847   3.713   1.205 -0.6083 -0.2638 -0.8874
  451MPD2    H7 6727   2.760   3.710   1.257 -0.8133 -2.3402 -1.3577
  452TMC3    C1 6728   3.477   3.517   1.005  0.5301  0.8783 -0.7862
  452TMC3    C2 6729   3.572   3.487   1.103 -0.5774  0.2379 -0.4967
  452TMC3    C3 6730   3.701   3.456   1.063 -0.1518  0.0523 -0.1267
  452TMC3    C4 6731   3.522   3.519   0.869 -0.0694  0.4248  0.2971
  452TMC3    C5 6732   3.654   3.476   0.843 -0.4604 -0.4885 -0.2693
  452TMC3    C6 6733   3.749   3.458   0.936  0.4649 -0.1200  0.0923
  452TMC3     C 6734   3.339   3.557   1.033  0.3359 -0.1618  0.4799
  452TMC3     O 6735   3.276   3.618   0.950 -0.2487  0.1701 -0.0051
  452TMC3     H 6736   3.536   3.493   1.205 -3.5015 -0.7052 -1.4932
  452TMC3    H1 6737   3.461   3.558   0.789 -0.0164  0.0221  0.0660
  452TMC3    H2 6738   3.855   3.463   0.913  0.9242 -1.2086  1.9717
  452TMC3    C7 6739   3.706   3.499   0.713  0.0726 -0.0872  0.4722
  452TMC3    C8 6740   3.798   3.429   1.169  0.4231  0.4832 -0.2262
  452TMC3    O1 6741   3.820   3.543   0.698 -0.0383  0.3573  0.9450
  452TMC3    O2 6742   3.915   3.427   1.133  0.3563 -0.0689 -0.4447
  453TMC3    C1 6743   4.113   1.991  11.598 -0.0661  0.2364  0.2430
  453TMC3    C2 6744   4.012   1.917  11.651 -0.0980  0.8883  0.2706
  453TMC3    C3 6745   3.899   1.907  11.571 -1.0870  0.4148 -0.5260
  453TMC3    C4 6746   4.107   2.042  11.471  0.2161 -0.1552 -0.4065
  453TMC3    C5 6747   3.995   2.030  11.395  0.5978 -0.2258  0.4617
  453TMC3    C6 6748   3.885   1.973  11.448  0.0137  0.1262 -0.4690
  453TMC3     C 6749   4.235   2.023  11.676 -0.5214 -0.5365  0.2843
  453TMC3     O 6750   4.318   2.099  11.619  0.3090 -0.0622  0.3059
  453TMC3     H 6751   4.016   1.881  11.752 -1.7849 -0.1180 -0.0096
  453TMC3    H1 6752   4.202   2.071  11.427 -0.0362  1.6195  0.2540
  453TMC3    H2 6753   3.799   1.967  11.384 -0.3896  0.2106  0.0629
  453TMC3    C7 6754   3.999   2.060  11.250  0.2559  0.5859  0.4051
  453TMC3    C8 6755   3.772   1.834  11.608 -0.1217  0.7388  0.1902
  453TMC3    O1 6756   3.923   2.003  11.176 -0.6512 -0.5594  0.6272
  453TMC3    O2 6757   3.667   1.860  11.550  0.0804 -0.5125  0.2680
  454MPD2     C 6758   2.867   1.252  15.931 -0.1248 -0.3548  0.4889
  454MPD2    C1 6759   2.775   1.307  15.847  0.9878  0.9682  0.3402
  454MPD2    C2 6760   2.738   1.439  15.874  0.3226  0.0111 -0.1087
  454MPD2    C3 6761   2.784   1.508  15.984  0.0503 -0.6619 -0.4726
  454MPD2    C4 6762   2.872   1.442  16.072  0.3058 -0.1536  1.1790
  454MPD2    C5 6763   2.923   1.321  16.040  0.0428 -0.4237 -0.0507
  454MPD2     H 6764   2.664   1.485  15.809  0.8145 -1.2752 -1.5817
  454MPD2    H1 6765   2.907   1.489  16.163  1.0119  1.3019  0.1520
  454MPD2    H2 6766   2.897   1.149  15.915  0.1881 -0.1594 -0.1680
  454MPD2    H3 6767   2.988   1.272  16.111  1.4973  1.5045 -0.0708
  454MPD2     N 6768   2.736   1.635  16.028 -0.2984  1.0471 -0.0530
  454MPD2    H5 6769   2.739   1.659  16.126 -0.5754 -1.4702  0.5614
  454MPD2    N1 6770   2.721   1.243  15.739  0.6858  0.0325  0.3709
  454MPD2    H7 6771   2.653   1.289  15.679  1.1917  0.0310 -0.2043
  455TMC3    C1 6772   2.521   1.727  16.011  0.8443  0.1655 -0.1223
  455TMC3    C2 6773   2.525   1.756  16.144 -0.8908 -0.1564 -0.1031
  455TMC3    C3 6774   2.419   1.720  16.212  0.6821 -1.0468 -0.3830
  455TMC3    C4 6775   2.418   1.646  15.957 -0.2210  0.2898 -0.2037
  455TMC3    C5 6776   2.312   1.612  16.034 -0.2434 -0.0101 -0.9298
  455TMC3    C6 6777   2.314   1.644  16.164  0.6386  0.1686  0.3315
  455TMC3     C 6778   2.650   1.710  15.948  0.3252 -0.4639  0.5325
  455TMC3     O 6779   2.635   1.704  15.823  0.1597  0.3077 -0.1593
  455TMC3     H 6780   2.610   1.814  16.179 -1.7294  0.6299  0.6468
  455TMC3    H1 6781   2.403   1.651  15.849  0.2480 -0.1060 -0.2860
  455TMC3    H2 6782   2.235   1.610  16.230  0.6509  0.5819  0.5578
  455TMC3    C7 6783   2.266   1.479  16.013 -0.5561  0.1022  0.1769
  455TMC3    C8 6784   2.408   1.756  16.350  0.0607 -0.2307 -0.3238
  455TMC3    O1 6785   2.163   1.448  16.071 -0.0557 -0.1148 -0.2727
  455TMC3    O2 6786   2.516   1.770  16.409  1.0552  0.6260 -0.8419
  456MPD2     C 6787   0.373   1.123  16.028 -0.2164 -0.0256  0.5178
  456MPD2    C1 6788   0.450   1.081  16.135 -0.2699  0.4327  0.0143
  456MPD2    C2 6789   0.448   1.151  16.248  0.3339 -1.0657 -0.7315
  456MPD2    C3 6790   0.368   1.264  16.263  0.0420 -0.3452 -0.6549
  456MPD2    C4 6791   0.293   1.303  16.157  0.4361  0.4002  0.7177
  456MPD2    C5 6792   0.297   1.240  16.039  0.5775  0.2866 -0.0621
  456MPD2     H 6793   0.498   1.118  16.338  0.3213  3.4918  0.9852
  456MPD2    H1 6794   0.227   1.389  16.165 -0.4552 -0.3834  1.8672
  456MPD2    H2 6795   0.390   1.076  15.932 -1.4761  0.4298  0.0781
  456MPD2    H3 6796   0.251   1.275  15.947 -1.0287 -2.3771 -0.2863
  456MPD2     N 6797   0.364   1.325  16.393 -0.7733  0.0384 -0.5615
  456MPD2    H5 6798   0.434   1.294  16.460 -1.6396 -1.4855 -0.3566
  456MPD2    N1 6799   0.535   0.966  16.123 -0.5448  0.6579  0.0122
  456MPD2    H7 6800   0.544   0.922  16.032 -1.0932 -0.9906  0.7498
  457TMC3    C1 6801   0.321   1.485  16.565  0.5659  0.5337  0.6423
  457TMC3    C2 6802   0.228   1.564  16.631 -0.2049  0.2270 -0.4335
  457TMC3    C3 6803   0.260   1.617  16.753 -0.7226  0.7758  0.5754
  457TMC3    C4 6804   0.445   1.468  16.622 -0.2249 -0.1406 -0.3136
  457TMC3    C5 6805   0.471   1.518  16.746  0.2665 -0.1932  0.1578
  457TMC3    C6 6806   0.378   1.585  16.819  0.0100 -0.2896  0.3333
  457TMC3     C 6807   0.289   1.439  16.433 -0.1814  0.0064  0.2450
  457TMC3     O 6808   0.201   1.491  16.371 -0.2014  0.0314  0.1264
  457TMC3     H 6809   0.135   1.585  16.580 -1.1521  1.7897  1.9373
  457TMC3    H1 6810   0.534   1.427  16.576  0.9984  0.1112  1.8409
  457TMC3    H2 6811   0.396   1.616  16.921 -2.6720  0.1207  0.6892
  457TMC3    C7 6812   0.599   1.477  16.806  0.4144  0.3907  0.3981
  457TMC3    C8 6813   0.154   1.630  16.848 -0.2116 -0.4618  1.3268
  457TMC3    O1 6814   0.648   1.377  16.763 -0.2606  0.5326  0.1289
  457TMC3    O2 6815   0.189   1.684  16.954  0.0598 -0.5250 -0.3046
  458MPD2     C 6816   2.632   1.279  12.098  0.3480 -0.0098  0.1068
  458MPD2    C1 6817   2.606   1.182  12.198  0.6139 -0.1804 -0.3311
  458MPD2    C2 6818   2.481   1.132  12.218 -0.3216 -0.1507  0.1963
  458MPD2    C3 6819   2.379   1.169  12.134  0.4790 -0.0358 -0.4806
  458MPD2    C4 6820   2.404   1.248  12.027 -0.7956 -0.4765 -0.4342
  458MPD2    C5 6821   2.533   1.296  12.012 -0.7306  0.0936 -0.2980
  458MPD2     H 6822   2.463   1.068  12.303 -1.2055  0.8930  0.7992
  458MPD2    H1 6823   2.327   1.276  11.957 -1.9329  1.2385  1.5283
  458MPD2    H2 6824   2.720   1.342  12.086  0.2701  0.1210  0.2328
  458MPD2    H3 6825   2.541   1.380  11.945  2.9869  1.5396  1.9339
  458MPD2     N 6826   2.256   1.113  12.167 -0.4817 -0.2005 -0.0872
  458MPD2    H5 6827   2.251   1.035  12.232  3.4531 -0.3385  0.0394
  458MPD2    N1 6828   2.711   1.165  12.289  0.0470 -0.5675 -0.1012
  458MPD2    H7 6829   2.795   1.221  12.282 -1.4106  1.6099 -0.3617
  459TMC3    C1 6830   2.862   1.099  12.439  0.4197  0.5801 -0.2298
  459TMC3    C2 6831   2.942   1.203  12.408  0.6387  0.0532  0.5582
  459TMC3    C3 6832   3.055   1.203  12.483 -0.0464 -0.3218 -0.5738
  459TMC3    C4 6833   2.883   1.013  12.545  0.0127  0.3184 -0.0892
  459TMC3    C5 6834   2.980   1.038  12.632  0.1768 -0.1915  0.0259
  459TMC3    C6 6835   3.074   1.134  12.598  0.1019  0.5309  0.2120
  459TMC3     C 6836   2.733   1.068  12.383 -0.1430  0.9831  0.0645
  459TMC3     O 6837   2.666   0.966  12.411 -0.3687  0.5346  0.3550
  459TMC3     H 6838   2.911   1.248  12.315 -2.4532 -0.0835  1.5299
  459TMC3    H1 6839   2.811   0.938  12.576  1.4463 -0.4064  1.4490
  459TMC3    H2 6840   3.162   1.154  12.658 -0.2926  1.8338  0.3526
  459TMC3    C7 6841   2.992   0.958  12.753  0.6563  0.2577 -0.1390
  459TMC3    C8 6842   3.141   1.318  12.447  0.4410  0.7624  0.4104
  459TMC3    O1 6843   2.912   0.865  12.758  0.3220  0.4938 -0.6343
  459TMC3    O2 6844   3.257   1.310  12.496  0.5347 -0.3678  0.6138
  460MPD2     C 6845   2.442   2.277  10.348 -0.6616 -0.1489  0.8390
  460MPD2    C1 6846   2.345   2.372  10.355 -0.0361  0.5147 -0.2976
  460MPD2    C2 6847   2.230   2.360  10.277 -0.3689 -0.3823  0.0478
  460MPD2    C3 6848   2.207   2.242  10.205 -0.2995 -0.5959  0.0996
  460MPD2    C4 6849   2.301   2.141  10.201  0.3733 -0.1325  0.1288
  460MPD2    C5 6850   2.418   2.162  10.271  0.2873 -0.5565 -0.8938
  460MPD2     H 6851   2.161   2.443  10.270  0.6735  0.5386  0.7976
  460MPD2    H1 6852   2.298   2.052  10.139 -0.9557  0.5783 -0.8304
  460MPD2    H2 6853   2.545   2.286  10.378 -0.3619  1.4240 -0.6968
  460MPD2    H3 6854   2.506   2.101  10.255 -1.0744 -2.5785 -0.7148
  460MPD2     N 6855   2.084   2.231  10.134 -0.2887  0.0093  0.4083
  460MPD2    H5 6856   2.011   2.299  10.151 -0.2486  0.4114 -1.0802
  460MPD2    N1 6857   2.375   2.486  10.431  0.1776  0.3020  0.0228
  460MPD2    H7 6858   2.461   2.486  10.485  0.1686 -0.6514  0.0319
  461TMC3    C1 6859   1.940   2.156   9.964  0.2739  0.1126  0.7201
  461TMC3    C2 6860   1.885   2.063   9.875 -0.7817  0.0258  0.2739
  461TMC3    C3 6861   1.773   2.079   9.796 -0.3893 -0.0415  0.2347
  461TMC3    C4 6862   1.889   2.290   9.951  0.0341  0.2054 -0.1754
  461TMC3    C5 6863   1.783   2.308   9.862  0.5630  0.1475  0.2908
  461TMC3    C6 6864   1.728   2.205   9.793  0.0488  0.4410 -0.0355
  461TMC3     C 6865   2.052   2.125  10.049  0.1525  0.4778 -0.2741
  461TMC3     O 6866   2.099   2.015  10.028  0.1856 -0.1339 -0.1963
  461TMC3     H 6867   1.925   1.963   9.887 -2.8662 -0.6345  1.5935
  461TMC3    H1 6868   1.938   2.376   9.996 -3.9234  2.1795  0.4126
  461TMC3    H2 6869   1.675   2.245   9.708  1.9544  2.7825 -0.1186
  461TMC3    C7 6870   1.750   2.445   9.816  0.6694 -0.6943 -0.3490
  461TMC3    C8 6871   1.793   2.036   9.663  0.5979  0.3225 -0.3347
  461TMC3    O1 6872   1.743   2.456   9.694 -0.1831 -0.2251  0.3499
  461TMC3    O2 6873   1.910   2.052   9.621 -0.1380  0.1142 -0.8109
  462TMC3    C1 6874   2.081   3.861   0.495 -1.1300 -0.3416  1.3656
  462TMC3    C2 6875   2.211   3.828   0.474 -0.0919 -0.2697 -0.0710
  462TMC3    C3 6876   2.239   3.752   0.363  0.0055  0.0190  0.1382
  462TMC3    C4 6877   1.980   3.813   0.416 -0.1355  0.7513 -0.2319
  462TMC3    C5 6878   2.016   3.733   0.307  0.0264 -0.5366 -1.0569
  462TMC3    C6 6879   2.141   3.703   0.282  0.1481  0.1269  0.6172
  462TMC3     C 6880   2.044   3.929   0.618 -0.7553 -0.7248  0.0973
  462TMC3     O 6881   1.930   3.974   0.635  0.2847  0.3378  0.0394
  462TMC3     H 6882   2.292   3.866   0.535 -0.0535 -0.4976  0.0196
  462TMC3    H1 6883   1.882   3.854   0.438 -0.1554  0.9478 -0.6740
  462TMC3    H2 6884   2.175   3.610   0.237  2.3434  1.1592  0.1076
  462TMC3    C7 6885   1.906   3.681   0.224  0.0372  0.6068 -0.1397
  462TMC3    C8 6886   2.374   3.712   0.353 -0.4944 -0.3375 -0.1069
  462TMC3    O1 6887   1.923   3.576   0.158  0.3605  0.3085  0.5146
  462TMC3    O2 6888   2.446   3.731   0.447 -0.0865  0.0766  0.4482
  463MPD2     C 6889   4.394   1.725   1.518 -0.3848 -0.6626  0.9510
  463MPD2    C1 6890   4.303   1.823   1.484  0.0792 -0.2662 -0.2594
  463MPD2    C2 6891   4.335   1.954   1.476  0.9492  0.0688 -0.2143
  463MPD2    C3 6892   4.464   1.988   1.509 -0.2061  0.3011  0.4956
  463MPD2    C4 6893   4.557   1.888   1.550  0.0899  0.3366  0.1546
  463MPD2    C5 6894   4.524   1.756   1.535  0.4058  0.1848 -0.1293
  463MPD2     H 6895   4.258   2.028   1.460 -1.0581 -1.9051  0.4168
  463MPD2    H1 6896   4.658   1.912   1.580  0.3724  1.6102 -1.7822
  463MPD2    H2 6897   4.377   1.618   1.517 -0.4120 -0.6574  0.6383
  463MPD2    H3 6898   4.602   1.688   1.568 -0.9449 -1.6066 -0.5689
  463MPD2     N 6899   4.502   2.124   1.519  0.4825 -0.3880  0.2586
  463MPD2    H5 6900   4.598   2.126   1.553  0.2824 -0.0880  0.8051
  463MPD2    N1 6901   4.168   1.793   1.464 -0.4583  0.3967  1.1016
  463MPD2    H7 6902   4.102   1.869   1.449  1.8981  2.2832  0.4559
  464TMC3    C1 6903   3.970   1.674   1.416  0.0644  0.1845  0.6557
  464TMC3    C2 6904   3.899   1.761   1.491  0.4762 -0.2444 -1.2914
  464TMC3    C3 6905   3.766   1.737   1.509  0.0932  0.5908  0.5502
  464TMC3    C4 6906   3.910   1.562   1.364 -0.5433 -0.7793 -0.0789
  464TMC3    C5 6907   3.777   1.540   1.392 -1.2404 -0.3864 -0.3388
  464TMC3    C6 6908   3.700   1.629   1.466 -0.2713  0.3102 -0.7679
  464TMC3     C 6909   4.115   1.675   1.420  0.1598 -0.8645 -0.4440
  464TMC3     O 6910   4.171   1.569   1.396  0.1846 -0.0634  0.3124
  464TMC3     H 6911   3.933   1.850   1.542  1.2421 -0.7360 -0.9450
  464TMC3    H1 6912   3.965   1.496   1.299  1.1089 -0.3746  0.9267
  464TMC3    H2 6913   3.592   1.622   1.470 -0.3029 -0.0436 -2.3235
  464TMC3    C7 6914   3.725   1.408   1.370  0.4960  0.1584  0.0733
  464TMC3    C8 6915   3.691   1.852   1.559  0.2482 -0.3990 -0.3365
  464TMC3    O1 6916   3.815   1.332   1.407 -0.6521 -0.2454  0.3016
  464TMC3    O2 6917   3.738   1.959   1.533  0.6241  0.1832  0.0776
  465MPD2     C 6918   0.039   1.215  16.519  0.1352 -0.4161 -0.5996
  465MPD2    C1 6919   4.660   1.221  16.618 -0.5409 -0.3021  0.3772
  465MPD2    C2 6920   4.529   1.218  16.574  0.1378  0.2401 -0.5538
  465MPD2    C3 6921   4.493   1.220  16.440 -0.5525  0.6849 -0.0808
  465MPD2    C4 6922   4.592   1.207  16.349 -0.3234  0.1411  0.3898
  465MPD2    C5 6923   0.000   1.207  16.388  0.7559 -0.1763 -0.3744
  465MPD2     H 6924   4.449   1.219  16.647 -0.8512  0.3678 -1.6321
  465MPD2    H1 6925   4.575   1.210  16.242  0.8062 -0.8164  0.1872
  465MPD2    H2 6926   0.147   1.218  16.534 -0.0109 -1.0260  0.5334
  465MPD2    H3 6927   0.078   1.213  16.314 -0.6261 -0.8016 -1.8688
  465MPD2     N 6928   4.358   1.239  16.409 -0.1718 -0.1206  0.9449
  465MPD2    H5 6929   4.297   1.238  16.491 -1.7287 -0.6274 -0.2288
  465MPD2    N1 6930   4.686   1.225  16.757 -0.2093 -0.0683 -0.1325
  465MPD2    H7 6931   4.605   1.218  16.818  0.3961  0.0503  0.6862
  466TMC3    C1 6932   3.963   1.252  16.403 -0.2477 -0.2305 -0.8099
  466TMC3    C2 6933   3.902   1.349  16.333 -0.1233 -0.5264  0.1392
  466TMC3    C3 6934   3.983   1.411  16.244 -0.4849 -0.2716  0.1998
  466TMC3    C4 6935   4.096   1.213  16.389  0.1630  1.2044  0.4145
  466TMC3    C5 6936   4.162   1.270  16.285  0.2217 -0.2533 -0.1489
  466TMC3    C6 6937   4.108   1.377  16.211 -0.5765 -0.1149  0.4258
  466TMC3     C 6938   3.902   1.200  16.518 -0.0982  0.2642  0.1981
  466TMC3     O 6939   3.975   1.176  16.614 -0.0090  0.7362  0.2128
  466TMC3     H 6940   3.798   1.378  16.347  0.7245  3.2518 -1.3587
  466TMC3    H1 6941   4.140   1.136  16.453 -0.7749  0.7671  0.5277
  466TMC3    H2 6942   4.166   1.437  16.142  0.2928 -2.5028 -0.9393
  466TMC3    C7 6943   4.307   1.266  16.283  0.7000 -0.2603  0.3485
  466TMC3    C8 6944   3.938   1.543  16.193  0.0706  0.0506  0.9128
  466TMC3    O1 6945   4.364   1.297  16.180  0.1303  0.2748  0.5637
  466TMC3    O2 6946   3.975   1.586  16.083  0.2669 -0.0909 -0.3860
  467TMC3    C1 6947   0.157   0.201  13.798  0.3060  0.3878 -0.5837
  467TMC3    C2 6948   0.139   0.323  13.737 -0.1760  0.0351 -0.3585
  467TMC3    C3 6949   0.024   0.346  13.666 -0.2272  0.2836  1.2748
  467TMC3    C4 6950   0.073   0.097  13.794  0.5100 -0.6617  0.0860
  467TMC3    C5 6951   4.681   0.118  13.721 -0.1583  0.4679 -0.3651
  467TMC3    C6 6952   4.662   0.240  13.653  0.2323 -0.2464  0.0415
  467TMC3     C 6953   0.293   0.179  13.821 -1.4175  0.3279 -0.4198
  467TMC3     O 6954   0.352   0.247  13.901  0.0739  0.2648 -0.2621
  467TMC3     H 6955   0.218   0.397  13.739  0.9002 -1.0938 -0.7372
  467TMC3    H1 6956   0.087   0.003  13.844  1.0343 -0.2031  0.7975
  467TMC3    H2 6957   4.584   0.239  13.578 -1.5568 -0.0694  1.8754
  467TMC3    C7 6958   4.591   0.010  13.705  0.1118  0.2340 -0.4190
  467TMC3    C8 6959   0.054   0.406  13.536  0.0852 -0.4703 -0.4198
  467TMC3    O1 6960   4.636   4.616  13.713 -0.2242 -0.2300 -0.4303
  467TMC3    O2 6961   4.717   0.509  13.505 -0.3454  0.1058  0.2390
  468MPD2     C 6962   4.548   3.064  11.115  0.3739  0.4048 -0.2464
  468MPD2    C1 6963   4.408   3.059  11.128 -0.0501 -0.6039 -0.6410
  468MPD2    C2 6964   4.340   2.964  11.062 -0.2398  1.1727 -0.7147
  468MPD2    C3 6965   4.405   2.864  10.994 -0.9173 -0.2777  0.1766
  468MPD2    C4 6966   4.536   2.867  10.980  0.8036  0.1064 -0.8026
  468MPD2    C5 6967   4.608   2.964  11.041 -0.5543  0.8175 -0.7346
  468MPD2     H 6968   4.233   2.978  11.064 -0.1054  2.2171 -1.3403
  468MPD2    H1 6969   4.587   2.787  10.928  1.5839  0.3172 -0.3442
  468MPD2    H2 6970   4.611   3.133  11.169 -1.0775 -1.1982  3.4972
  468MPD2    H3 6971   4.716   2.961  11.035 -0.4939  0.2060  0.7468
  468MPD2     N 6972   4.342   2.754  10.947  0.2585 -0.0429 -0.0607
  468MPD2    H5 6973   4.399   2.691  10.893  0.8326 -0.2268  0.7707
  468MPD2    N1 6974   4.346   3.160  11.201  0.0268 -0.0665 -0.1990
  468MPD2    H7 6975   4.245   3.173  11.193  0.2691  2.1742  0.4282
  469TMC3    C1 6976   4.317   3.327  11.365  0.3050  0.0253 -0.5732
  469TMC3    C2 6977   4.293   3.327  11.501  0.5258  0.0591 -0.6680
  469TMC3    C3 6978   4.191   3.402  11.540 -0.1265 -0.7574 -0.2278
  469TMC3    C4 6979   4.230   3.377  11.270  0.0552 -0.1429  0.6105
  469TMC3    C5 6980   4.129   3.456  11.313  0.3084 -0.1190  0.0309
  469TMC3    C6 6981   4.113   3.469  11.449  0.1930 -0.2705 -0.6633
  469TMC3     C 6982   4.404   3.227  11.303  0.5202  0.6301  0.1181
  469TMC3     O 6983   4.505   3.210  11.364  0.0947 -0.4002 -0.7717
  469TMC3     H 6984   4.360   3.276  11.569  0.9224 -2.0333 -2.6475
  469TMC3    H1 6985   4.250   3.369  11.163 -1.2210  0.7135  0.3162
  469TMC3    H2 6986   4.033   3.530  11.490  2.6376  2.0685  0.6312
  469TMC3    C7 6987   4.097   3.571  11.228  0.3605 -0.0852  0.3818
  469TMC3    C8 6988   4.183   3.442  11.675 -0.8008 -0.1986  0.0127
  469TMC3    O1 6989   3.983   3.613  11.222 -0.4443  0.4172 -0.1157
  469TMC3    O2 6990   4.073   3.477  11.709  0.4395  0.3280 -0.4276
  470TMC3    C1 6991   1.430   3.515   0.615 -0.2794  0.1530  0.1273
  470TMC3    C2 6992   1.411   3.652   0.609  0.1333 -0.5617  0.3924
  470TMC3    C3 6993   1.520   3.730   0.605  0.3105  0.3441  0.7072
  470TMC3    C4 6994   1.551   3.464   0.614 -0.0387  0.3265  0.4910
  470TMC3    C5 6995   1.657   3.543   0.601  0.8312 -0.3349 -0.4470
  470TMC3    C6 6996   1.648   3.681   0.607  0.3839  0.4169  0.6679
  470TMC3     C 6997   1.323   3.426   0.587  0.5064  0.3493  0.4415
  470TMC3     O 6998   1.226   3.470   0.532 -0.1818  0.1713  0.3788
  470TMC3     H 6999   1.309   3.688   0.603  0.0133 -0.5457  2.7765
  470TMC3    H1 7000   1.580   3.359   0.614 -2.3332 -0.3078 -1.6400
  470TMC3    H2 7001   1.736   3.738   0.580  0.2784 -0.9815 -2.5642
  470TMC3    C7 7002   1.769   3.478   0.538  0.1808  0.1462  0.1654
  470TMC3    C8 7003   1.494   3.872   0.605 -0.2392  0.0101 -0.0942
  470TMC3    O1 7004   1.739   3.390   0.463  0.1070 -0.2154 -0.9776
  470TMC3    O2 7005   1.387   3.905   0.553  0.4091  0.1956  0.1346
  471MPD2     C 7006   1.378   0.228  16.455 -0.3670  0.6315 -0.3140
  471MPD2    C1 7007   1.434   0.106  16.442  0.1796 -0.5374  0.5682
  471MPD2    C2 7008   1.503   0.053  16.541  0.0149  0.1196  0.0928
  471MPD2    C3 7009   1.527   0.127  16.658  0.1421 -0.2061 -0.0732
  471MPD2    C4 7010   1.468   0.254  16.673  0.4947  0.7501  0.2715
  471MPD2    C5 7011   1.393   0.300  16.572 -0.2876  0.1339  0.0194
  471MPD2     H 7012   1.540   4.673  16.529 -1.7812 -0.7491  1.9187
  471MPD2    H1 7013   1.467   0.302  16.770 -2.4337  1.7005 -0.2288
  471MPD2    H2 7014   1.302   0.260  16.383 -0.9163 -1.7158 -0.7634
  471MPD2    H3 7015   1.346   0.397  16.588  0.6652  0.6130 -0.0630
  471MPD2     N 7016   1.606   0.076  16.765  0.1308 -0.3021 -0.2219
  471MPD2    H5 7017   1.592   0.122  16.854  2.2957  2.5104 -1.3576
  471MPD2    N1 7018   1.413   0.020  16.331 -0.1117 -0.1377  0.5534
  471MPD2    H7 7019   1.440   4.645  16.352 -1.6100 -0.5467  0.6544
  472TMC3    C1 7020   1.400   4.678  16.095  0.0464  0.6710  0.0480
  472TMC3    C2 7021   1.341   4.711  15.974 -0.2671  0.0934 -0.0382
  472TMC3    C3 7022   1.319   4.605  15.890  0.1272 -0.0812  0.7126
  472TMC3    C4 7023   1.448   4.556  16.124 -0.6059 -0.1470 -0.3462
  472TMC3    C5 7024   1.439   4.458  16.027 -0.3200 -0.0520  0.0454
  472TMC3    C6 7025   1.377   4.481  15.906 -0.2203 -0.1405  0.1653
  472TMC3     C 7026   1.374   0.053  16.202 -0.0185 -0.6057 -0.0913
  472TMC3     O 7027   1.332   0.163  16.169 -0.0287  0.1503 -0.1095
  472TMC3     H 7028   1.274   0.075  15.967  0.5499  0.9325  2.6939
  472TMC3    H1 7029   1.502   4.531  16.215  0.2724  3.1920  0.0426
  472TMC3    H2 7030   1.363   4.407  15.828 -0.2267  2.8543 -2.6712
  472TMC3    C7 7031   1.433   4.319  16.084 -1.3585 -0.1669 -0.3664
  472TMC3    C8 7032   1.191   4.603  15.828  0.1505 -0.2276  1.4483
  472TMC3    O1 7033   1.442   4.309  16.207 -0.1326 -0.3900  0.0619
  472TMC3    O2 7034   1.137   4.710  15.800 -0.2083  0.1244  0.2037
  473MPD2     C 7035   1.213   2.421  13.753  0.3232  0.3895 -0.3344
  473MPD2    C1 7036   1.339   2.443  13.717  0.7112 -0.0416  0.1365
  473MPD2    C2 7037   1.434   2.486  13.810 -0.1405  0.2051  0.3882
  473MPD2    C3 7038   1.385   2.505  13.942  0.0831 -0.7382 -0.0851
  473MPD2    C4 7039   1.257   2.468  13.979 -0.1768  0.1663  0.4336
  473MPD2    C5 7040   1.174   2.422  13.885 -0.5851  0.4910 -0.3381
  473MPD2     H 7041   1.535   2.513  13.784  0.7832 -1.9543  1.7762
  473MPD2    H1 7042   1.220   2.475  14.080  0.6694 -1.1343  0.8207
  473MPD2    H2 7043   1.135   2.402  13.680  0.4219 -3.1040  0.4624
  473MPD2    H3 7044   1.073   2.396  13.916  0.1102 -0.9609  0.7192
  473MPD2     N 7045   1.457   2.555  14.048  0.6308 -0.2579  0.6406
  473MPD2    H5 7046   1.409   2.545  14.136 -0.6647  0.0750 -0.0259
  473MPD2    N1 7047   1.389   2.445  13.581 -0.1236 -0.1996  0.3379
  473MPD2    H7 7048   1.485   2.471  13.561 -0.0885 -0.4526  0.1714
  474TMC3    C1 7049   1.615   2.671  14.173  0.0806  0.0330  0.1981
  474TMC3    C2 7050   1.514   2.729  14.242 -0.8914 -0.4975  0.3950
  474TMC3    C3 7051   1.551   2.797  14.353  0.3489  0.6157  0.8869
  474TMC3    C4 7052   1.749   2.686  14.204  0.4782 -0.5137 -1.6286
  474TMC3    C5 7053   1.778   2.759  14.313  0.1908 -0.4160  0.0495
  474TMC3    C6 7054   1.681   2.813  14.398  0.1776  0.1934 -0.3327
  474TMC3     C 7055   1.584   2.599  14.052  0.5071  0.4148 -0.0996
  474TMC3     O 7056   1.666   2.591  13.959 -0.0018  0.4895  0.0861
  474TMC3     H 7057   1.407   2.730  14.221 -0.7864 -0.4454 -0.1314
  474TMC3    H1 7058   1.828   2.634  14.152  0.4843 -0.5722 -1.5616
  474TMC3    H2 7059   1.692   2.866  14.492  0.7958 -0.9197  0.2190
  474TMC3    C7 7060   1.923   2.773  14.347 -0.6185  0.0673 -0.0510
  474TMC3    C8 7061   1.445   2.886  14.395 -0.0915  0.8617 -0.0759
  474TMC3    O1 7062   2.006   2.739  14.261  0.5663  0.4098  0.5618
  474TMC3    O2 7063   1.327   2.849  14.389 -0.3231 -0.3630 -0.5312
  475MPD2     C 7064   0.016   1.020  10.888  1.4419  0.8531 -0.0305
  475MPD2    C1 7065   0.042   0.979  10.757  1.3596  0.1555 -0.5957
  475MPD2    C2 7066   4.656   0.920  10.685  0.0265  0.0009 -0.2499
  475MPD2    C3 7067   4.538   0.890  10.742  0.0011  0.5379  0.0842
  475MPD2    C4 7068   4.514   0.921  10.875 -0.6173  0.6034  0.0394
  475MPD2    C5 7069   4.617   0.978  10.940  0.3296  0.6194 -0.6948
  475MPD2     H 7070   4.665   0.883  10.583  1.3535 -3.2699  1.0527
  475MPD2    H1 7071   4.419   0.903  10.923  0.1795 -4.4546 -0.3155
  475MPD2    H2 7072   0.091   1.063  10.953  4.5688 -1.6079 -2.0409
  475MPD2    H3 7073   4.591   0.988  11.045  0.8719  3.0433 -0.7889
  475MPD2     N 7074   4.434   0.844  10.660 -0.0230  0.0684 -0.2967
  475MPD2    H5 7075   4.462   0.829  10.563  2.4719 -3.9771  1.0563
  475MPD2    N1 7076   0.168   1.007  10.707 -0.8102  0.4537 -0.6188
  475MPD2    H7 7077   0.227   1.075  10.755 -0.7374 -0.7722  1.0342
  476TMC3    C1 7078   0.346   1.031  10.555  0.0346  0.0235  0.0766
  476TMC3    C2 7079   0.410   0.976  10.447  0.1483 -0.0304  1.1222
  476TMC3    C3 7080   0.528   1.028  10.416  0.7057 -1.0912 -0.1904
  476TMC3    C4 7081   0.403   1.126  10.636 -0.0139 -0.2115 -0.0786
  476TMC3    C5 7082   0.528   1.180  10.592  0.6356 -0.2472 -0.2254
  476TMC3    C6 7083   0.590   1.129  10.479  0.0229  0.2045  0.4002
  476TMC3     C 7084   0.219   0.968  10.584  0.5315 -0.2064 -0.0245
  476TMC3     O 7085   0.175   0.883  10.506 -0.1205 -0.4604  0.0023
  476TMC3     H 7086   0.361   0.903  10.384 -1.8616  1.5081  0.9224
  476TMC3    H1 7087   0.365   1.154  10.733 -0.6154 -2.4004  0.3281
  476TMC3    H2 7088   0.690   1.163  10.455 -0.6808  1.4995 -0.7145
  476TMC3    C7 7089   0.618   1.261  10.677  0.3256  0.1664  0.5637
  476TMC3    C8 7090   0.582   1.001  10.283 -0.7201  0.7787  0.0231
  476TMC3    O1 7091   0.735   1.261  10.645  0.5494  0.3862  0.1047
  476TMC3    O2 7092   0.661   1.084  10.239  0.2592 -0.1282  0.4083
  477MPD2     C 7093   3.033   2.471  11.726  0.8587  0.0195 -0.1254
  477MPD2    C1 7094   2.952   2.395  11.647 -0.1168 -0.1663  0.6931
  477MPD2    C2 7095   2.897   2.278  11.699 -0.7470  0.2288  0.7633
  477MPD2    C3 7096   2.910   2.245  11.835 -0.0639  0.2961  0.7283
  477MPD2    C4 7097   2.981   2.338  11.904 -0.0682  0.7577 -0.1755
  477MPD2    C5 7098   3.044   2.452  11.859 -0.5513 -0.5189  0.1676
  477MPD2     H 7099   2.828   2.218  11.640  1.3615 -0.1340 -1.3467
  477MPD2    H1 7100   2.981   2.325  12.012 -0.3642 -0.2186 -0.2874
  477MPD2    H2 7101   3.094   2.553  11.688 -0.4111  0.7758 -0.5338
  477MPD2    H3 7102   3.104   2.519  11.919  2.2053  0.2319 -3.3929
  477MPD2     N 7103   2.859   2.121  11.879  0.5057 -0.3260  0.4781
  477MPD2    H5 7104   2.821   2.059  11.808  1.4794  0.3263 -0.6036
  477MPD2    N1 7105   2.945   2.436  11.509  0.0367  0.1657  0.1825
  477MPD2    H7 7106   3.005   2.513  11.481  0.7842 -0.7879 -0.8759
  478TMC3    C1 7107   2.841   2.464  11.286 -0.4742  0.2088  0.3733
  478TMC3    C2 7108   2.787   2.584  11.324  0.0364 -0.0673 -0.4903
  478TMC3    C3 7109   2.692   2.646  11.242 -0.2716  0.8945 -0.0248
  478TMC3    C4 7110   2.796   2.401  11.174 -0.6490  1.2380  0.0576
  478TMC3    C5 7111   2.695   2.459  11.099  0.6450 -0.1291  0.5759
  478TMC3    C6 7112   2.643   2.583  11.128 -0.2846 -0.1631  0.6732
  478TMC3     C 7113   2.874   2.378  11.405  0.5973 -0.1026  1.0793
  478TMC3     O 7114   2.817   2.271  11.410 -0.1956  0.6789  0.1246
  478TMC3     H 7115   2.813   2.631  11.418 -1.0386  2.3490 -1.3960
  478TMC3    H1 7116   2.825   2.300  11.149 -1.3688  0.8101  0.9719
  478TMC3    H2 7117   2.555   2.625  11.080 -0.3402 -0.8724  0.1546
  478TMC3    C7 7118   2.668   2.387  10.981  0.1562 -0.8328  0.0852
  478TMC3    C8 7119   2.619   2.759  11.302  1.0331  0.4191  0.6338
  478TMC3    O1 7120   2.763   2.318  10.941  0.1992 -0.3256  0.2519
  478TMC3    O2 7121   2.667   2.800  11.406 -0.2401 -0.0442  0.3948
  479MPD2     C 7122   1.222   4.258  15.082 -0.2344  0.5595 -0.3701
  479MPD2    C1 7123   1.137   4.176  15.154 -0.5218 -0.3996  0.3897
  479MPD2    C2 7124   1.158   4.174  15.294 -0.6595  0.7213 -1.1060
  479MPD2    C3 7125   1.252   4.255  15.354 -0.3554 -0.1775  0.1991
  479MPD2    C4 7126   1.346   4.322  15.276 -0.3055 -0.0865  0.3151
  479MPD2    C5 7127   1.334   4.326  15.138  0.7133  0.5508  0.1472
  479MPD2     H 7128   1.095   4.108  15.353  0.5204  2.9175  2.5684
  479MPD2    H1 7129   1.435   4.360  15.324  1.0026 -2.0951 -0.4867
  479MPD2    H2 7130   1.208   4.275  14.976  1.5088 -1.7111 -0.9772
  479MPD2    H3 7131   1.407   4.384  15.083  1.4888  1.1168  1.7780
  479MPD2     N 7132   1.287   4.268  15.492 -0.5197  0.2981  0.1276
  479MPD2    H5 7133   1.371   4.320  15.516  0.6931 -1.9492  0.7855
  479MPD2    N1 7134   1.025   4.119  15.096 -0.3176  0.5057 -0.1938
  479MPD2    H7 7135   1.009   4.153  15.001  0.4558  0.8851 -0.1910
  480TMC3    C1 7136   0.899   4.037  15.653  0.0469 -1.2875 -0.4981
  480TMC3    C2 7137   0.817   4.102  15.561 -0.4163  0.0861  0.3308
  480TMC3    C3 7138   0.862   4.216  15.503 -0.1184 -0.1080  0.1675
  480TMC3    C4 7139   1.032   4.078  15.675  0.5383  0.1984 -0.2542
  480TMC3    C5 7140   1.079   4.184  15.594  0.2749 -0.3479 -0.2888
  480TMC3    C6 7141   0.992   4.255  15.524 -0.3466  0.3286  0.9327
  480TMC3     C 7142   0.865   3.920  15.733 -0.1147  0.3411  0.3645
  480TMC3     O 7143   0.953   3.873  15.799  0.0688 -0.5211 -0.3648
  480TMC3     H 7144   0.713   4.078  15.542 -0.3918  1.5690 -1.7285
  480TMC3    H1 7145   1.104   4.041  15.747  0.0837 -1.2183 -0.5337
  480TMC3    H2 7146   1.023   4.354  15.494  0.5770 -0.6557 -1.3236
  480TMC3    C7 7147   1.215   4.224  15.601  0.1603 -0.2119  0.3140
  480TMC3    C8 7148   0.779   4.288  15.411  0.4385 -0.4152 -0.2895
  480TMC3    O1 7149   1.258   4.227  15.715  0.0845  0.4036  0.0530
  480TMC3    O2 7150   0.661   4.251  15.404  0.3752 -0.3827 -0.3439
  481MPD2     C 7151   3.003   4.293  14.511  0.0538  0.7018 -0.0249
  481MPD2    C1 7152   3.063   4.184  14.455  0.0616  0.1866 -0.5177
  481MPD2    C2 7153   3.100   4.086  14.552  0.1637 -0.4689  0.2380
  481MPD2    C3 7154   3.058   4.084  14.680 -0.5195 -0.4182 -0.7432
  481MPD2    C4 7155   2.998   4.198  14.729  0.5340  0.2032  0.9279
  481MPD2    C5 7156   2.968   4.298  14.643  0.4170  0.7931 -0.3157
  481MPD2     H 7157   3.153   4.000  14.513 -0.6463  0.4019 -2.8375
  481MPD2    H1 7158   2.971   4.212  14.834  2.1801 -2.3748  1.7012
  481MPD2    H2 7159   2.968   4.375  14.449 -0.9518  0.6872  0.5193
  481MPD2    H3 7160   2.933   4.387  14.693 -0.4450 -0.1754  0.8095
  481MPD2     N 7161   3.085   3.982  14.775 -0.2741  0.1835 -0.2136
  481MPD2    H5 7162   3.046   3.991  14.868  1.9382 -1.8540  0.9337
  481MPD2    N1 7163   3.072   4.186  14.312 -0.0646 -0.4233  0.6622
  481MPD2    H7 7164   3.023   4.257  14.259  2.2815  1.1880  0.7048
  482TMC3    C1 7165   3.123   4.104  14.100 -0.9119  0.4878  0.3498
  482TMC3    C2 7166   3.134   3.988  14.023  0.1332  0.4453  0.7036
  482TMC3    C3 7167   3.071   3.984  13.905 -0.8377  0.4090  0.1675
  482TMC3    C4 7168   3.063   4.220  14.051  0.3534  0.0211  0.5407
  482TMC3    C5 7169   3.016   4.208  13.921  0.0291 -0.0142 -0.4912
  482TMC3    C6 7170   3.016   4.097  13.846  0.5470  0.8417 -0.2025
  482TMC3     C 7171   3.140   4.088  14.244  0.4697 -0.5282  0.7243
  482TMC3     O 7172   3.213   3.998  14.289 -0.5756  0.1720  0.4991
  482TMC3     H 7173   3.163   3.895  14.072  0.6877 -0.1049 -0.6633
  482TMC3    H1 7174   3.056   4.315  14.103  0.6492 -0.5996  1.7221
  482TMC3    H2 7175   2.964   4.091  13.751  2.0878 -0.0944 -0.9788
  482TMC3    C7 7176   2.941   4.315  13.862  0.1052 -0.3704 -0.1765
  482TMC3    C8 7177   3.038   3.855  13.851 -0.5327 -0.8692  0.0020
  482TMC3    O1 7178   2.928   4.404  13.945 -0.2855 -0.2731 -0.4405
  482TMC3    O2 7179   2.933   3.848  13.784 -0.4268 -0.4476 -0.2673
  483TMC3    C1 7180   1.967   3.212   1.218 -0.7726 -0.1181 -0.1886
  483TMC3    C2 7181   1.913   3.204   1.095  0.6385 -1.1193  0.1949
  483TMC3    C3 7182   1.991   3.210   0.986  0.0258  0.2929 -0.3287
  483TMC3    C4 7183   2.099   3.229   1.239 -0.1017 -0.0890  0.2836
  483TMC3    C5 7184   2.175   3.223   1.123 -0.4784 -0.3620 -0.4266
  483TMC3    C6 7185   2.127   3.222   0.996  0.1042 -0.5794  0.3947
  483TMC3     C 7186   1.879   3.181   1.328  0.5550 -0.1277  0.2730
  483TMC3     O 7187   1.914   3.225   1.436 -0.1801 -0.2899 -0.1186
  483TMC3     H 7188   1.805   3.198   1.083  0.7420 -0.0871 -1.1656
  483TMC3    H1 7189   2.142   3.220   1.338 -0.7921 -0.2714  0.5656
  483TMC3    H2 7190   2.191   3.231   0.909  0.9637 -4.0424  0.6870
  483TMC3    C7 7191   2.322   3.201   1.141  0.1168  0.0132 -0.4414
  483TMC3    C8 7192   1.923   3.216   0.856  0.0780 -0.1395  0.4904
  483TMC3    O1 7193   2.365   3.133   1.051 -0.0115 -0.1196 -0.3648
  483TMC3    O2 7194   1.803   3.228   0.859  0.4595  1.2965 -0.2635
  484MPD2     C 7195   3.087   1.591  12.192 -0.2755  0.2994 -0.2042
  484MPD2    C1 7196   3.162   1.503  12.277 -0.1617  0.2057 -0.2367
  484MPD2    C2 7197   3.299   1.506  12.276 -1.0814 -0.5388  0.1308
  484MPD2    C3 7198   3.367   1.596  12.195  0.4484 -0.0573 -0.8928
  484MPD2    C4 7199   3.288   1.687  12.123  0.5240 -0.2847  0.1806
  484MPD2    C5 7200   3.151   1.690  12.128  0.0138  0.2623 -0.1869
  484MPD2     H 7201   3.360   1.440  12.337 -1.2785 -0.9371 -0.1083
  484MPD2    H1 7202   3.327   1.768  12.064 -0.3023 -0.4285 -0.5586
  484MPD2    H2 7203   2.979   1.585  12.189 -0.2649 -0.6687  1.2248
  484MPD2    H3 7204   3.105   1.768  12.069  0.7251  0.2139 -0.8067
  484MPD2     N 7205   3.505   1.603  12.182  0.1292  0.2882 -0.1572
  484MPD2    H5 7206   3.533   1.695  12.150 -0.3297  0.9399  1.3456
  484MPD2    N1 7207   3.091   1.402  12.346 -0.6045  0.4274  0.1891
  484MPD2    H7 7208   2.993   1.389  12.325 -0.6367 -0.2884  0.7751
  485TMC3    C1 7209   3.735   1.552  12.225  0.8503  0.0935 -0.4967
  485TMC3    C2 7210   3.804   1.498  12.327 -0.1193 -0.5629  0.3318
  485TMC3    C3 7211   3.940   1.512  12.338  0.0157 -0.2268  0.5338
  485TMC3    C4 7212   3.800   1.616  12.126  0.4883 -0.0623 -0.4303
  485TMC3    C5 7213   3.938   1.639  12.141  0.5730  0.4143 -0.3626
  485TMC3    C6 7214   4.009   1.595  12.251 -0.5678  0.3778  0.1409
  485TMC3     C 7215   3.595   1.509  12.215  0.2465 -0.5327 -0.7990
  485TMC3     O 7216   3.581   1.399  12.266  0.1220  0.0530  0.8476
  485TMC3     H 7217   3.754   1.444  12.407  1.1285 -0.4356  1.1875
  485TMC3    H1 7218   3.747   1.639  12.034  0.8312  0.9474 -0.3751
  485TMC3    H2 7219   4.115   1.614  12.266 -0.5352 -0.5083  1.0084
  485TMC3    C7 7220   4.016   1.622  12.017 -0.0739 -0.1816 -0.3320
  485TMC3    C8 7221   4.014   1.390  12.349  0.2943  0.3323  0.2114
  485TMC3    O1 7222   3.988   1.684  11.916  1.1016  0.2968  0.3722
  485TMC3    O2 7223   4.121   1.390  12.290 -0.0059  0.0103 -0.0964
  486MPD2     C 7224   1.288   0.286  13.182  0.2019  0.1063 -0.0552
  486MPD2    C1 7225   1.253   0.185  13.100  0.3290  0.1018 -0.6721
  486MPD2    C2 7226   1.125   0.177  13.045  1.1824  0.4857  0.1029
  486MPD2    C3 7227   1.034   0.278  13.066 -0.2481 -0.5869  0.3034
  486MPD2    C4 7228   1.061   0.368  13.164  0.3602 -1.0293  0.1485
  486MPD2    C5 7229   1.184   0.371  13.219 -0.7955  0.0228 -0.6065
  486MPD2     H 7230   1.105   0.108  12.964 -1.7879  0.7590  0.6215
  486MPD2    H1 7231   0.996   0.446  13.203  0.4886  0.5187 -2.7716
  486MPD2    H2 7232   1.386   0.289  13.227  0.8659 -0.7046 -1.4501
  486MPD2    H3 7233   1.196   0.458  13.282  3.0192  1.3688 -3.1546
  486MPD2     N 7234   0.920   0.290  12.984  0.0211 -0.4416  0.3525
  486MPD2    H5 7235   0.920   0.233  12.900  3.9733 -1.7497  1.2582
  486MPD2    N1 7236   1.353   0.096  13.054 -0.1349 -0.1083 -0.3205
  486MPD2    H7 7237   1.451   0.121  13.064  0.1040  0.0480 -3.1808
  487TMC3    C1 7238   1.439   4.606  13.003  0.2565  0.0102 -0.6564
  487TMC3    C2 7239   1.425   4.505  12.916 -0.3247 -0.1443 -0.0910
  487TMC3    C3 7240   1.469   4.381  12.954 -0.3753 -0.3588  0.1457
  487TMC3    C4 7241   1.471   4.574  13.135  0.2406  0.1668  0.0834
  487TMC3    C5 7242   1.506   4.450  13.173 -0.3986 -0.0570  0.6658
  487TMC3    C6 7243   1.519   4.354  13.079  0.2648  0.9885  0.3457
  487TMC3     C 7244   1.321   4.693  13.002  0.3641  0.3595  0.4693
  487TMC3     O 7245   1.216   4.643  12.959 -0.0949  0.5900 -0.5022
  487TMC3     H 7246   1.398   4.536  12.816 -0.7980 -1.8028 -0.4809
  487TMC3    H1 7247   1.452   4.644  13.216 -1.3994 -2.0530  1.6294
  487TMC3    H2 7248   1.523   4.252  13.115  1.9633  0.7738 -0.4547
  487TMC3    C7 7249   1.421   4.414  13.281 -0.1140  0.1660  0.3967
  487TMC3    C8 7250   1.364   4.280  12.917 -0.1968  0.2724  0.2122
  487TMC3    O1 7251   1.459   4.331  13.363 -0.4680  0.6189 -0.3089
  487TMC3    O2 7252   1.275   4.311  12.839  0.2484  0.4493  0.0858
  488MPD2     C 7253   1.188   1.187  16.304 -0.2512 -0.6217  0.1579
  488MPD2    C1 7254   1.145   1.313  16.275  0.7007 -0.2704 -0.8894
  488MPD2    C2 7255   1.095   1.392  16.371  0.1694 -0.1151 -0.3818
  488MPD2    C3 7256   1.088   1.346  16.497 -0.1672 -0.2759  0.1573
  488MPD2    C4 7257   1.127   1.216  16.527  0.6239  0.7866  0.0586
  488MPD2    C5 7258   1.186   1.139  16.428  0.3511 -0.4348 -0.5794
  488MPD2     H 7259   1.075   1.495  16.344  0.9995  0.6208  1.7851
  488MPD2    H1 7260   1.125   1.170  16.625  3.4921  1.3166  0.3591
  488MPD2    H2 7261   1.232   1.118  16.234 -2.5770 -1.8036 -0.1429
  488MPD2    H3 7262   1.226   1.045  16.462 -0.2180 -0.7140 -0.6717
  488MPD2     N 7263   1.053   1.439  16.599  0.3925 -0.3388 -0.3436
  488MPD2    H5 7264   1.046   1.533  16.560 -0.1385  0.0675  0.7182
  488MPD2    N1 7265   1.144   1.358  16.142 -0.0427 -0.3491 -0.0670
  488MPD2    H7 7266   1.094   1.445  16.123 -1.8779 -0.8716  2.3170
  489TMC3    C1 7267   1.042   1.543  16.808 -0.0130  0.3864 -0.5882
  489TMC3    C2 7268   0.981   1.651  16.752  0.2882  0.0042  0.8347
  489TMC3    C3 7269   0.994   1.776  16.810 -0.4548 -0.1661 -0.2681
  489TMC3    C4 7270   1.108   1.557  16.927 -0.2267  0.3385 -0.4818
  489TMC3    C5 7271   1.119   1.681  16.979 -0.3159 -0.4666  0.1378
  489TMC3    C6 7272   1.066   1.790  16.923  0.3975 -0.3518  0.1254
  489TMC3     C 7273   1.058   1.417  16.735 -0.0873 -0.1379 -0.1272
  489TMC3     O 7274   1.090   1.319  16.796 -0.1273 -0.0429 -0.4395
  489TMC3     H 7275   0.928   1.646  16.657 -0.1694 -1.2817  1.1636
  489TMC3    H1 7276   1.148   1.470  16.978  2.7768  1.2591 -1.2858
  489TMC3    H2 7277   1.087   1.891  16.959 -1.2080 -0.3634  1.1062
  489TMC3    C7 7278   1.200   1.695  17.100 -0.5581  0.0618  0.4307
  489TMC3    C8 7279   0.953   1.892  16.738 -0.2771  0.2052  0.0469
  489TMC3    O1 7280   1.277   1.608  17.124 -0.1521  0.0583  0.4945
  489TMC3    O2 7281   0.935   1.879  16.617 -0.9681 -0.1069 -0.2012
  490MPD2     C 7282   2.093   1.385  16.744 -0.8022  0.0106  0.2545
  490MPD2    C1 7283   2.124   1.337  16.868  0.4850  0.7249  0.7940
  490MPD2    C2 7284   2.245   1.376  16.924 -0.1669 -0.4586  0.2961
  490MPD2    C3 7285   2.348   1.437  16.853 -0.2643 -0.4532  0.0184
  490MPD2    C4 7286   2.312   1.481  16.725  0.6165 -0.1604 -0.4064
  490MPD2    C5 7287   2.187   1.454  16.674 -0.1939 -0.2159  0.2622
  490MPD2     H 7288   2.267   1.328  17.018 -0.4739  2.2399  1.7721
  490MPD2    H1 7289   2.391   1.535  16.674  2.2601 -0.0421  2.2679
  490MPD2    H2 7290   1.993   1.372  16.704 -0.8208 -0.5740  0.4996
  490MPD2    H3 7291   2.164   1.500  16.578  0.3732 -0.2248  0.1250
  490MPD2     N 7292   2.480   1.434  16.892  0.5077 -0.2386 -0.0490
  490MPD2    H5 7293   2.553   1.450  16.823  1.0387 -1.5105  0.2200
  490MPD2    N1 7294   2.040   1.250  16.942  0.3501 -0.7575  0.1122
  490MPD2    H7 7295   2.079   1.214  17.029 -0.2480 -1.7079 -0.0125
  491TMC3    C1 7296   1.893   1.079  16.985  0.4307 -0.0253 -0.0157
  491TMC3    C2 7297   1.936   1.078  17.115  0.0948 -0.9729  0.3390
  491TMC3    C3 7298   1.894   0.980  17.199 -0.1490  0.1367 -0.6290
  491TMC3    C4 7299   1.810   0.982  16.932 -0.2262  0.8139  0.3016
  491TMC3    C5 7300   1.760   0.894  17.023 -0.0734  0.3186  1.0762
  491TMC3    C6 7301   1.801   0.894  17.153  0.0556 -0.0199  0.7404
  491TMC3     C 7302   1.933   1.183  16.898  0.5275  0.1603  0.0311
  491TMC3     O 7303   1.880   1.195  16.787  0.0262  0.2853 -0.5222
  491TMC3     H 7304   1.990   1.161  17.160  1.3261 -1.1505 -0.8126
  491TMC3    H1 7305   1.783   0.990  16.827 -0.0455 -0.8503  0.1271
  491TMC3    H2 7306   1.760   0.823  17.223  1.2947 -1.0686  0.4141
  491TMC3    C7 7307   1.652   0.807  16.989 -0.4894 -0.1858 -1.1233
  491TMC3    C8 7308   1.924   0.979  17.340 -0.3738  0.3295 -0.0077
  491TMC3    O1 7309   1.655   0.699  17.046  0.1709  0.2987 -0.8352
  491TMC3    O2 7310   1.851   0.907  17.407  0.9492  0.2077  0.3881
  492MPD2     C 7311   2.236   0.883  11.287  0.1820 -0.1042 -0.3015
  492MPD2    C1 7312   2.190   0.787  11.199 -0.2360  0.1031 -0.2608
  492MPD2    C2 7313   2.080   0.708  11.231 -0.5314 -0.5981 -0.4080
  492MPD2    C3 7314   2.028   0.710  11.358  0.4650 -0.4968  0.3605
  492MPD2    C4 7315   2.073   0.806  11.444  0.2069  0.3535 -0.2514
  492MPD2    C5 7316   2.172   0.891  11.412  0.2786  0.6842  0.0430
  492MPD2     H 7317   2.046   0.633  11.161 -0.7958  0.2147 -1.1600
  492MPD2    H1 7318   2.029   0.818  11.542 -2.5468 -0.7490 -1.3291
  492MPD2    H2 7319   2.320   0.942  11.253 -0.5365  0.7715 -0.5687
  492MPD2    H3 7320   2.214   0.962  11.483  0.8807  0.6100 -0.2374
  492MPD2     N 7321   1.926   0.624  11.416 -0.8912  0.2228 -0.1346
  492MPD2    H5 7322   1.903   0.647  11.513  0.3268  1.0822 -0.0503
  492MPD2    N1 7323   2.256   0.783  11.074  0.0237  0.1600  0.5621
  492MPD2    H7 7324   2.330   0.853  11.064 -2.1498  2.5434  1.0428
  493TMC3    C1 7325   2.277   0.741  10.839 -0.4317 -0.0644 -0.2205
  493TMC3    C2 7326   2.383   0.833  10.841  0.1177 -0.4828 -0.4607
  493TMC3    C3 7327   2.430   0.875  10.713 -0.1260  0.7995  0.1753
  493TMC3    C4 7328   2.222   0.696  10.729  0.4590  0.0300  0.2029
  493TMC3    C5 7329   2.272   0.732  10.612 -0.4915 -0.1625  0.4833
  493TMC3    C6 7330   2.379   0.821  10.600 -0.7030  0.4571  0.7940
  493TMC3     C 7331   2.208   0.715  10.962  0.3155 -0.0073 -0.4293
  493TMC3     O 7332   2.107   0.650  10.949 -0.0552  0.0592 -0.4402
  493TMC3     H 7333   2.409   0.886  10.932 -0.1677 -1.8509  0.4357
  493TMC3    H1 7334   2.145   0.620  10.737 -0.2139  0.5205 -1.5539
  493TMC3    H2 7335   2.424   0.821  10.502  0.3943  2.0470  1.2919
  493TMC3    C7 7336   2.191   0.708  10.489 -0.4031  0.1080  0.4563
  493TMC3    C8 7337   2.529   0.980  10.714  1.1345  0.6767  0.3399
  493TMC3    O1 7338   2.083   0.656  10.514 -0.1463  0.4059 -0.2061
  493TMC3    O2 7339   2.582   0.997  10.824  0.6312 -0.5993  1.0616
  494TMC3    C1 7340   3.238   2.374   0.652  0.3566 -0.1506 -0.0608
  494TMC3    C2 7341   3.292   2.248   0.643  0.1428  0.6636  0.0437
  494TMC3    C3 7342   3.284   2.181   0.522  0.3677 -0.2033  0.5915
  494TMC3    C4 7343   3.166   2.421   0.543  0.3621  0.3100 -0.7555
  494TMC3    C5 7344   3.169   2.355   0.421 -0.4794 -0.7789  0.0488
  494TMC3    C6 7345   3.220   2.229   0.412 -0.3889  0.1005 -0.5253
  494TMC3     C 7346   3.218   2.426   0.787 -0.1853  0.5268  0.4279
  494TMC3     O 7347   3.230   2.342   0.873  0.7517  0.2375 -0.5479
  494TMC3     H 7348   3.351   2.208   0.724 -0.2060 -2.1942 -1.0887
  494TMC3    H1 7349   3.095   2.501   0.561 -0.9433 -0.8771 -0.6162
  494TMC3    H2 7350   3.210   2.169   0.322  0.5882 -0.1857 -0.4365
  494TMC3    C7 7351   3.109   2.404   0.296  0.6764 -0.2174 -0.1474
  494TMC3    C8 7352   3.315   2.033   0.528  0.3246 -0.0874 -0.6169
  494TMC3    O1 7353   3.113   2.337   0.195 -0.2167 -0.1113  0.4292
  494TMC3    O2 7354   3.312   1.987   0.639 -0.1121 -0.4467  0.5104
  495TMC3    C1 7355   1.290   4.464  14.667 -0.2059 -0.6777 -0.3769
  495TMC3    C2 7356   1.231   4.501  14.548  0.6081 -0.4230  0.4851
  495TMC3    C3 7357   1.111   4.558  14.542  0.0059 -0.6725  0.2081
  495TMC3    C4 7358   1.240   4.514  14.784 -0.1916 -0.0713  0.0899
  495TMC3    C5 7359   1.115   4.573  14.779 -0.2851 -0.5014  0.1787
  495TMC3    C6 7360   1.052   4.598  14.662 -0.1126 -0.0284  0.3005
  495TMC3     C 7361   1.282   4.324  14.671 -0.9656  1.0124  0.5072
  495TMC3     O 7362   1.205   4.271  14.593 -0.1852 -0.4228  0.3708
  495TMC3     H 7363   1.273   4.448  14.463  0.5588  1.4684 -0.7133
  495TMC3    H1 7364   1.262   4.463  14.877 -3.0842 -0.4903  0.5664
  495TMC3    H2 7365   0.955   4.645  14.663 -0.4818 -0.7539 -0.9220
  495TMC3    C7 7366   1.049   4.584  14.908 -0.5552  0.4505 -0.2640
  495TMC3    C8 7367   1.042   4.583  14.417  0.0526  0.2871  0.1040
  495TMC3    O1 7368   1.118   4.601  15.005  0.1470 -0.1835  0.4926
  495TMC3    O2 7369   0.929   4.626  14.421 -0.2800  0.1164 -0.3605
  496MPD2     C 7370   3.195   0.260  15.334  0.1752  0.9508  0.4110
  496MPD2    C1 7371   3.233   0.127  15.319 -0.2739  0.0788  0.0646
  496MPD2    C2 7372   3.240   0.049  15.430 -0.8883  0.3243 -0.3102
  496MPD2    C3 7373   3.224   0.103  15.561 -0.1454  0.0620 -0.0427
  496MPD2    C4 7374   3.171   0.234  15.567 -0.0968  0.1544  0.5969
  496MPD2    C5 7375   3.160   0.307  15.457  0.0171  0.5401 -0.8968
  496MPD2     H 7376   3.261   4.665  15.417  1.2652  0.6431  0.5770
  496MPD2    H1 7377   3.141   0.283  15.658 -2.2768  0.8623 -0.4980
  496MPD2    H2 7378   3.189   0.332  15.253 -0.7729  0.3834 -0.0230
  496MPD2    H3 7379   3.120   0.408  15.460  0.4163  0.6558  0.2749
  496MPD2     N 7380   3.244   0.016  15.668  0.1732 -0.6614 -0.3900
  496MPD2    H5 7381   3.247   4.640  15.638 -1.7339 -0.2621 -1.8711
  496MPD2    N1 7382   3.261   0.083  15.180 -0.3869  0.6718  0.1922
  496MPD2    H7 7383   3.265   0.153  15.106 -2.5172  0.7178  0.1043
  497TMC3    C1 7384   3.165   4.663  15.875  0.6802 -0.4620 -0.5891
  497TMC3    C2 7385   3.081   4.572  15.814  0.2010 -0.1067 -0.0803
  497TMC3    C3 7386   3.021   4.477  15.884  0.3812  0.5675 -0.0364
  497TMC3    C4 7387   3.197   4.650  16.005  0.4275 -0.0670  0.6995
  497TMC3    C5 7388   3.132   4.553  16.074  0.0572  0.7701 -0.0533
  497TMC3    C6 7389   3.036   4.472  16.021  0.6392  0.6524  0.0965
  497TMC3     C 7390   3.218   0.053  15.801  0.6828 -0.2013 -0.4193
  497TMC3     O 7391   3.228   0.163  15.855 -0.3650 -0.1254 -0.3627
  497TMC3     H 7392   3.049   4.589  15.712  2.7899  0.5856 -0.7733
  497TMC3    H1 7393   3.262   0.001  16.054  1.3373  0.1354 -0.8069
  497TMC3    H2 7394   2.987   4.397  16.082 -0.3228 -0.0367 -1.5581
  497TMC3    C7 7395   3.134   4.558  16.216 -0.3039 -0.0109 -0.2991
  497TMC3    C8 7396   2.949   4.377  15.814  0.5819 -0.5034 -0.3314
  497TMC3    O1 7397   3.032   4.525  16.279 -0.1676  0.4043 -0.6380
  497TMC3    O2 7398   2.991   4.357  15.702 -0.6387 -0.2528  0.0528
  498MPD2     C 7399   4.413   0.121   9.299  0.0982 -0.5890  0.5070
  498MPD2    C1 7400   4.504   0.105   9.405  0.2207  0.4472  0.6679
  498MPD2    C2 7401   4.495   4.720   9.495  0.4563  0.2862 -0.5975
  498MPD2    C3 7402   4.378   4.640   9.490  0.1852 -0.5530  0.5322
  498MPD2    C4 7403   4.288   4.656   9.385  0.1579 -0.2426  0.1168
  498MPD2    C5 7404   4.301   0.033   9.292  0.7749 -0.5315  0.1511
  498MPD2     H 7405   4.562   4.698   9.578 -1.2681  2.0304  1.2761
  498MPD2    H1 7406   4.201   4.594   9.365 -0.6369 -0.0136  2.8595
  498MPD2    H2 7407   4.422   0.200   9.225 -1.3026  0.9853  2.0368
  498MPD2    H3 7408   4.224   0.048   9.217 -0.2706 -1.6063  1.0088
  498MPD2     N 7409   4.369   4.542   9.585 -0.2863 -0.0494  0.2734
  498MPD2    H5 7410   4.441   4.537   9.656  0.6605  0.8372 -0.6218
  498MPD2    N1 7411   4.612   0.196   9.430 -0.3739 -0.5886 -0.0155
  498MPD2    H7 7412   4.689   0.161   9.485 -1.2908 -1.4689  0.7078
  499TMC3    C1 7413   0.018   0.405   9.407  0.4320  0.3623 -0.4407
  499TMC3    C2 7414   0.130   0.343   9.467  0.0142 -0.6904 -0.2658
  499TMC3    C3 7415   0.244   0.411   9.483 -0.0247 -1.1755  0.1290
  499TMC3    C4 7416   0.031   0.526   9.354 -0.0767  0.1734 -0.2851
  499TMC3    C5 7417   0.147   0.593   9.376 -0.1544 -0.3502 -0.1284
  499TMC3    C6 7418   0.252   0.535   9.435 -0.3388 -0.4494  0.5950
  499TMC3     C 7419   4.615   0.329   9.378 -0.3589 -0.4450 -0.9804
  499TMC3     O 7420   4.523   0.388   9.325  0.5135  0.5137 -0.0346
  499TMC3     H 7421   0.130   0.251   9.523  1.7737  0.0789  0.9997
  499TMC3    H1 7422   4.663   0.564   9.304 -0.0455 -0.8999 -1.1677
  499TMC3    H2 7423   0.347   0.587   9.445 -1.3110  1.0343  1.9577
  499TMC3    C7 7424   0.165   0.733   9.340  0.3087 -0.2501  0.2588
  499TMC3    C8 7425   0.368   0.332   9.475  0.0200 -0.1931  0.6890
  499TMC3    O1 7426   0.236   0.801   9.408 -0.4433 -0.4973 -0.3430
  499TMC3    O2 7427   0.465   0.393   9.443  0.2821 -0.0718  0.3837
  500MPD2     C 7428   1.395   1.604  10.722  1.2242 -0.1578 -0.3419
  500MPD2    C1 7429   1.383   1.650  10.594  0.1172  0.7201  0.3594
  500MPD2    C2 7430   1.259   1.652  10.542  0.3895 -0.7556 -0.1469
  500MPD2    C3 7431   1.154   1.595  10.608  0.0651  0.3341 -0.2003
  500MPD2    C4 7432   1.170   1.540  10.731  0.0329  0.1056 -0.0900
  500MPD2    C5 7433   1.288   1.547  10.787 -0.3545  0.1044  0.7719
  500MPD2     H 7434   1.246   1.713  10.454 -0.5015 -2.1992 -1.0328
  500MPD2    H1 7435   1.095   1.488  10.790  0.2442  2.2236  2.0489
  500MPD2    H2 7436   1.491   1.603  10.773  0.7997  1.2531  0.4768
  500MPD2    H3 7437   1.301   1.492  10.879 -1.2148 -0.3327  0.6331
  500MPD2     N 7438   1.022   1.583  10.550 -0.4957  0.1179 -0.1040
  500MPD2    H5 7439   0.952   1.545  10.614  0.0219 -0.6547  0.0126
  500MPD2    N1 7440   1.487   1.694  10.513  0.4744  0.5067  0.2324
  500MPD2    H7 7441   1.481   1.714  10.414 -1.4697 -0.3079  0.1834
  501TMC3    C1 7442   1.713   1.777  10.472  0.2005  0.4736  0.4078
  501TMC3    C2 7443   1.692   1.790  10.338  0.3438  0.3426 -0.0705
  501TMC3    C3 7444   1.798   1.800  10.250 -0.8005 -0.3401 -0.8626
  501TMC3    C4 7445   1.837   1.763  10.515  0.1668  0.1925  0.0637
  501TMC3    C5 7446   1.943   1.756  10.426  0.6113  0.2738  0.4257
  501TMC3    C6 7447   1.921   1.765  10.293  0.1645 -0.4300 -0.3807
  501TMC3     C 7448   1.612   1.732  10.566 -0.0269  0.2903 -0.2585
  501TMC3     O 7449   1.652   1.700  10.680 -0.6485 -0.0938  0.4006
  501TMC3     H 7450   1.592   1.803  10.297  0.4982  2.0599  0.0929
  501TMC3    H1 7451   1.866   1.759  10.619  1.4739  0.7967 -0.2687
  501TMC3    H2 7452   2.001   1.745  10.223 -1.1001  0.5815 -2.1073
  501TMC3    C7 7453   2.072   1.715  10.475  0.1711 -0.0843 -0.0536
  501TMC3    C8 7454   1.769   1.787  10.106 -0.0743  0.3666  0.2649
  501TMC3    O1 7455   2.073   1.681  10.593 -0.2425  0.3058  0.0521
  501TMC3    O2 7456   1.813   1.689  10.042 -0.4396 -0.4045  0.1335
  502TMC3    C1 7457   1.083   0.544  15.100 -0.1165 -0.1143 -0.3380
  502TMC3    C2 7458   1.099   0.635  15.000  0.7399  0.7719 -0.6172
  502TMC3    C3 7459   0.998   0.630  14.912  0.2992  0.2313  0.2572
  502TMC3    C4 7460   0.974   0.463  15.120 -0.3247  0.0410 -0.4838
  502TMC3    C5 7461   0.881   0.458  15.021 -0.1930 -0.1865  0.1310
  502TMC3    C6 7462   0.890   0.543  14.915  0.0927 -0.6334  0.7641
  502TMC3     C 7463   1.191   0.536  15.193  0.7392 -0.0995  0.4720
  502TMC3     O 7464   1.307   0.533  15.150 -0.1662  0.0739 -0.0893
  502TMC3     H 7465   1.194   0.685  14.984 -0.1998  2.7107 -0.1197
  502TMC3    H1 7466   0.985   0.392  15.201 -2.8656 -0.3619 -0.5018
  502TMC3    H2 7467   0.828   0.530  14.826  0.9903 -0.4002  0.0990
  502TMC3    C7 7468   0.785   0.351  15.028  0.4905  0.3359 -0.3934
  502TMC3    C8 7469   0.997   0.742  14.817 -0.1874 -1.0288 -0.7449
  502TMC3    O1 7470   0.813   0.245  15.080 -0.0878  0.1946 -0.0308
  502TMC3    O2 7471   1.108   0.777  14.775  0.2726  0.0691  0.1097
  503MPD2     C 7472   2.925   1.263  16.710  0.4382  0.3209  0.9668
  503MPD2    C1 7473   3.020   1.278  16.812 -0.3257  0.4105  0.7442
  503MPD2    C2 7474   3.080   1.163  16.854  0.4032 -0.0927 -0.6329
  503MPD2    C3 7475   3.052   1.038  16.797 -0.4086  0.4423  0.5954
  503MPD2    C4 7476   2.962   1.030  16.692  0.6203 -0.0436  0.0232
  503MPD2    C5 7477   2.905   1.146  16.651 -1.1903 -0.4366  0.3253
  503MPD2     H 7478   3.160   1.179  16.926 -0.1852  1.9909 -0.4347
  503MPD2    H1 7479   2.947   0.934  16.644 -0.2272  0.5911 -0.9858
  503MPD2    H2 7480   2.870   1.346  16.667 -0.5047 -0.7583  0.1058
  503MPD2    H3 7481   2.832   1.134  16.571  0.1099  1.4278 -1.1277
  503MPD2     N 7482   3.139   0.935  16.827  0.1071 -0.0433 -0.0272
  503MPD2    H5 7483   3.205   0.946  16.904  0.1069 -1.2227  0.1401
  503MPD2    N1 7484   3.054   1.409  16.869 -0.0600 -0.6850  0.0999
  503MPD2    H7 7485   3.140   1.412  16.923  0.4667 -0.9706 -0.7284
  504TMC3    C1 7486   3.231   0.711  16.825  0.2611 -0.0855 -0.6230
  504TMC3    C2 7487   3.178   0.593  16.876  1.2003 -1.1793  0.3721
  504TMC3    C3 7488   3.265   0.513  16.945  0.4231 -0.2334  0.6388
  504TMC3    C4 7489   3.366   0.743  16.834  0.1571  0.1819  0.5568
  504TMC3    C5 7490   3.441   0.654  16.903 -0.1308 -0.7903  0.3749
  504TMC3    C6 7491   3.398   0.539  16.956 -0.1439 -0.1362 -0.2522
  504TMC3     C 7492   3.125   0.808  16.780 -0.1043 -0.5630 -0.2746
  504TMC3     O 7493   3.030   0.753  16.731  0.1849  0.2298 -0.1313
  504TMC3     H 7494   3.074   0.564  16.885  0.7442  0.5480  0.6966
  504TMC3    H1 7495   3.413   0.837  16.807  3.1951 -1.4585  0.1428
  504TMC3    H2 7496   3.462   0.461  16.994 -0.0322  1.6847  3.2508
  504TMC3    C7 7497   3.573   0.642  16.849  0.4079  0.5793  0.0789
  504TMC3    C8 7498   3.202   0.418  17.029  1.2354  0.3906 -0.3556
  504TMC3    O1 7499   3.578   0.654  16.729  0.3496 -0.2281 -0.5937
  504TMC3    O2 7500   3.108   0.355  16.987  0.3676  0.2140 -0.4067
  505MPD2     C 7501   3.400   4.575  10.563 -0.3756 -0.6991 -0.2708
  505MPD2    C1 7502   3.482   4.491  10.635 -0.3969 -0.1204 -0.8811
  505MPD2    C2 7503   3.608   4.538  10.666  0.2952  0.1652 -0.6875
  505MPD2    C3 7504   3.646   4.672  10.649  0.8880 -0.6328  0.0493
  505MPD2    C4 7505   3.554   0.038  10.586  0.1689 -0.0140 -0.2721
  505MPD2    C5 7506   3.436   4.704  10.536 -0.6402 -0.2813  0.1047
  505MPD2     H 7507   3.669   4.472  10.727  1.3645  1.9311  0.1295
  505MPD2    H1 7508   3.581   0.143  10.580  0.3268 -0.1659 -2.2052
  505MPD2    H2 7509   3.310   4.538  10.516 -2.1610  2.3461  0.7406
  505MPD2    H3 7510   3.379   0.040  10.464  0.1521 -0.0026 -0.3051
  505MPD2     N 7511   3.762   4.710  10.708 -0.3269 -0.5325 -0.2835
  505MPD2    H5 7512   3.811   4.632  10.751  0.7558  0.2910 -0.0279
  505MPD2    N1 7513   3.447   4.356  10.640 -0.4423 -0.6640  0.2226
  505MPD2    H7 7514   3.357   4.335  10.598 -0.7373 -0.0496  0.5533
  506TMC3    C1 7515   3.482   4.130  10.656 -0.2384  0.1850  0.2088
  506TMC3    C2 7516   3.451   4.109  10.527 -0.0220 -0.4726  0.3777
  506TMC3    C3 7517   3.497   3.998  10.468 -0.0287  0.2202 -0.2411
  506TMC3    C4 7518   3.557   4.035  10.727 -0.8090  0.2293  0.3895
  506TMC3    C5 7519   3.616   3.932  10.659  0.0501 -0.0772 -0.4009
  506TMC3    C6 7520   3.574   3.905  10.532 -0.1350 -0.1412  0.1405
  506TMC3     C 7521   3.529   4.259  10.696  0.6866 -0.3278  0.3836
  506TMC3     O 7522   3.633   4.259  10.755 -0.1984 -0.2057  0.0656
  506TMC3     H 7523   3.420   4.184  10.455 -1.4697 -0.3389  1.1428
  506TMC3    H1 7524   3.580   4.055  10.831  1.3984  1.8033 -0.4033
  506TMC3    H2 7525   3.630   3.828  10.480  0.5122  0.0142  0.6173
  506TMC3    C7 7526   3.762   3.917  10.681  0.7691  0.8785  0.5092
  506TMC3    C8 7527   3.491   3.974  10.332  0.0665 -0.3787 -0.3002
  506TMC3    O1 7528   3.820   3.822  10.630  0.1150 -0.2966 -1.0419
  506TMC3    O2 7529   3.388   3.934  10.281 -0.3064 -0.1868 -0.1639
  507TMC3    C1 7530   4.126   0.916  14.512 -0.0631  0.4295  0.4047
  507TMC3    C2 7531   4.008   0.853  14.486  0.4418 -0.2706 -0.2745
  507TMC3    C3 7532   3.957   0.864  14.362 -0.2807 -0.1644  0.4780
  507TMC3    C4 7533   4.192   0.994  14.423  0.0664 -0.6982  0.2266
  507TMC3    C5 7534   4.152   0.980  14.291 -0.1374  0.3462  0.5000
  507TMC3    C6 7535   4.030   0.921  14.265 -0.5538  0.7339 -0.4450
  507TMC3     C 7536   4.150   0.966  14.643 -0.5647 -0.0154  0.7045
  507TMC3     O 7537   4.256   0.994  14.687 -0.1290 -0.0818  0.4896
  507TMC3     H 7538   3.940   0.805  14.555 -1.2653  1.8912 -0.4380
  507TMC3    H1 7539   4.285   1.046  14.444 -0.6035  0.2716  0.7331
  507TMC3    H2 7540   4.001   0.898  14.164 -2.3348 -0.1110  0.2677
  507TMC3    C7 7541   4.147   1.111  14.221 -0.0683 -1.0794 -0.6055
  507TMC3    C8 7542   3.834   0.934  14.370  0.1848  0.1726 -0.9755
  507TMC3    O1 7543   4.078   1.099  14.120 -0.1289 -0.4124  0.0651
  507TMC3    O2 7544   3.779   0.948  14.479 -0.6968  0.2647  0.8588
  508MPD2     C 7545   0.020   2.958  15.815  0.0205 -0.2259 -1.3319
  508MPD2    C1 7546   4.687   3.022  15.922  0.4985  0.6771 -0.1170
  508MPD2    C2 7547   4.616   3.141  15.914  0.6771  0.7366  0.0437
  508MPD2    C3 7548   4.608   3.194  15.786  0.1175  0.7681  0.7963
  508MPD2    C4 7549   4.660   3.126  15.672  0.0027  0.1594 -0.6293
  508MPD2    C5 7550   0.000   3.009  15.691 -0.0880  0.6345  0.0877
  508MPD2     H 7551   4.573   3.185  16.003 -0.5312 -1.7203  0.6867
  508MPD2    H1 7552   4.655   3.171  15.574  0.3021 -0.2497 -0.8300
  508MPD2    H2 7553   0.063   2.860  15.831  1.1557  0.4753 -0.0882
  508MPD2    H3 7554   0.044   2.965  15.602 -0.0672  0.7244  0.0531
  508MPD2     N 7555   4.536   3.315  15.782 -0.2355 -0.1719  0.3938
  508MPD2    H5 7556   4.520   3.358  15.873  0.1622  0.4030  0.1909
  508MPD2    N1 7557   4.702   2.959  16.048 -0.2840  0.1431  0.1704
  508MPD2    H7 7558   0.028   2.869  16.038  1.3691  1.1130 -0.7211
  509TMC3    C1 7559   4.310   3.667  15.568  0.3554 -0.1853 -0.3795
  509TMC3    C2 7560   4.398   3.761  15.620 -0.1436  1.0165  0.2433
  509TMC3    C3 7561   4.493   3.717  15.701  0.4905 -0.2268  1.5995
  509TMC3    C4 7562   4.324   3.529  15.594 -0.1188  0.1707  0.2256
  509TMC3    C5 7563   4.424   3.494  15.677  0.5116  0.3327 -0.5433
  509TMC3    C6 7564   4.509   3.585  15.735 -0.4148  0.0620 -0.5550
  509TMC3     C 7565   4.217   3.708  15.465 -1.0299  0.5385  0.8259
  509TMC3     O 7566   4.137   3.625  15.427 -0.7835  0.3365  0.4618
  509TMC3     H 7567   4.392   3.864  15.585  0.2962  0.7285 -0.6888
  509TMC3    H1 7568   4.262   3.447  15.560 -0.2453  0.6810 -0.7659
  509TMC3    H2 7569   4.607   3.556  15.773 -1.6315  0.5044  2.8607
  509TMC3    C7 7570   4.476   3.358  15.667 -0.2409 -0.1894  0.1450
  509TMC3    C8 7571   4.595   3.813  15.733  0.0003  0.3492 -0.0063
  509TMC3    O1 7572   4.461   3.296  15.563 -0.2867  0.7278 -0.5164
  509TMC3    O2 7573   4.592   3.907  15.652 -0.0629  0.1055 -0.0612
  510MPD2     C 7574   2.577   0.465  14.611 -0.7342 -0.0185  0.1826
  510MPD2    C1 7575   2.598   0.331  14.585  0.3047  0.2812  0.5964
  510MPD2    C2 7576   2.687   0.294  14.490  0.3214 -0.2624  0.0879
  510MPD2    C3 7577   2.763   0.391  14.429  0.0648  0.4873 -0.0865
  510MPD2    C4 7578   2.732   0.525  14.441 -0.4839 -0.4211 -0.4156
  510MPD2    C5 7579   2.631   0.558  14.526 -0.0969 -0.4353  0.1684
  510MPD2     H 7580   2.709   0.189  14.475  2.2060  0.3636 -1.5107
  510MPD2    H1 7581   2.787   0.605  14.393  0.2341 -0.7888 -0.2014
  510MPD2    H2 7582   2.490   0.506  14.662  0.7342  1.5727  1.4251
  510MPD2    H3 7583   2.603   0.663  14.529  1.7691  0.0552  0.2162
  510MPD2     N 7584   2.864   0.336  14.349  0.3264  0.8079 -0.0882
  510MPD2    H5 7585   2.867   0.235  14.341 -0.7574  0.6732  1.2243
  510MPD2    N1 7586   2.502   0.242  14.647  0.7079  0.8243  0.6034
  510MPD2    H7 7587   2.429   0.284  14.704 -0.2073 -1.0206  0.7940
  511TMC3    C1 7588   2.420   0.041  14.753 -0.3640  0.2697 -0.1858
  511TMC3    C2 7589   2.369   0.112  14.860  0.3880 -0.1226  0.4709
  511TMC3    C3 7590   2.313   0.057  14.967  0.2859 -0.4939 -0.3966
  511TMC3    C4 7591   2.392   4.625  14.756  0.1824 -0.2672  0.0929
  511TMC3    C5 7592   2.339   4.568  14.869 -0.0910 -0.3137  0.5192
  511TMC3    C6 7593   2.288   4.644  14.982 -0.5403 -0.0490 -0.1010
  511TMC3     C 7594   2.510   0.101  14.647  0.4004 -0.8847  0.1976
  511TMC3     O 7595   2.576   0.029  14.576  0.1046 -0.2825  0.0980
  511TMC3     H 7596   2.387   0.219  14.857  1.0848 -0.2487  0.0967
  511TMC3    H1 7597   2.432   4.559  14.680  0.2925  1.8409 -1.6908
  511TMC3    H2 7598   2.217   4.609  15.056 -0.4522 -1.4947 -0.6930
  511TMC3    C7 7599   2.312   4.434  14.859 -0.1639 -0.4504  0.4669
  511TMC3    C8 7600   2.282   0.148  15.076  0.1033  0.0811 -0.3664
  511TMC3    O1 7601   2.297   4.381  14.749  0.0025  0.1073  0.6755
  511TMC3    O2 7602   2.301   0.270  15.066 -0.0093 -0.8984 -0.0225
  512TMC3    C1 7603   1.782   0.031  13.211 -0.7005  0.1541 -0.6403
  512TMC3    C2 7604   1.867   0.018  13.322  0.6152  0.6075 -0.3551
  512TMC3    C3 7605   1.934   4.620  13.332  0.2283 -0.6960 -0.3268
  512TMC3    C4 7606   1.771   4.661  13.110 -0.2528  0.4362 -0.0995
  512TMC3    C5 7607   1.846   4.547  13.130 -0.3301  0.7710  1.0252
  512TMC3    C6 7608   1.926   4.525  13.238 -0.0439 -1.1463  0.0129
  512TMC3     C 7609   1.712   0.165  13.184 -0.0535  0.2553  0.2868
  512TMC3     O 7610   1.615   0.168  13.107  0.5288 -0.1347 -0.3112
  512TMC3     H 7611   1.864   0.102  13.390 -2.5300  0.0304  0.2173
  512TMC3    H1 7612   1.719   4.694  13.021  2.1586 -1.1585 -2.1190
  512TMC3    H2 7613   1.991   4.439  13.246  0.0661 -0.9400  1.3594
  512TMC3    C7 7614   1.904   4.497  13.007  0.5789  0.4050  0.4142
  512TMC3    C8 7615   2.026   4.590  13.440 -0.0716 -0.2482 -0.4143
  512TMC3    O1 7616   1.910   4.579  12.916  0.5807  0.5473 -0.4949
  512TMC3    O2 7617   2.071   4.474  13.461 -0.4921 -0.1912 -0.1232
  513MPD2     C 7618   3.163   4.524  12.711 -0.1079 -0.8839  0.1143
  513MPD2    C1 7619   3.259   4.446  12.654 -0.1709  0.5257  0.3940
  513MPD2    C2 7620   3.360   4.382  12.730  0.6303 -0.0755 -0.3110
  513MPD2    C3 7621   3.366   4.400  12.869 -0.4683 -0.1255  0.0054
  513MPD2    C4 7622   3.276   4.485  12.929  0.4434 -0.7173 -0.4991
  513MPD2    C5 7623   3.177   4.542  12.849  0.0991 -0.1120  0.0548
  513MPD2     H 7624   3.437   4.317  12.690  0.4386  0.5022 -1.6347
  513MPD2    H1 7625   3.270   4.507  13.035 -0.9856 -1.5045 -0.4074
  513MPD2    H2 7626   3.091   4.572  12.645 -0.6814 -0.9016  0.7205
  513MPD2    H3 7627   3.107   4.611  12.894  1.1683 -0.8813  2.9182
  513MPD2     N 7628   3.471   4.339  12.934 -0.7156 -0.3377  0.1216
  513MPD2    H5 7629   3.541   4.286  12.883 -1.3987 -1.1662  0.0475
  513MPD2    N1 7630   3.256   4.440  12.513  0.0241  0.2814 -0.3555
  513MPD2    H7 7631   3.179   4.481  12.461 -1.4163 -4.4834 -1.9369
  514TMC3    C1 7632   3.356   4.412  12.295 -0.2923 -0.2008 -0.3592
  514TMC3    C2 7633   3.375   4.541  12.258  0.4880 -0.1496 -0.8628
  514TMC3    C3 7634   3.485   4.564  12.175  0.3719  0.0673 -0.1231
  514TMC3    C4 7635   3.428   4.311  12.232 -0.1235  0.7476 -0.0083
  514TMC3    C5 7636   3.529   4.334  12.147  0.2422  0.2297 -0.8337
  514TMC3    C6 7637   3.543   4.462  12.107  0.8644  0.2045  0.3311
  514TMC3     C 7638   3.357   4.389  12.440  0.1732  0.3946  0.7719
  514TMC3     O 7639   3.442   4.312  12.472 -0.4883  0.0889  0.0801
  514TMC3     H 7640   3.322   4.620  12.310 -0.7096  0.0726 -2.4504
  514TMC3    H1 7641   3.420   4.209  12.269 -0.3873  0.8583  0.2396
  514TMC3    H2 7642   3.621   4.494  12.038 -0.6176  3.6163  0.2123
  514TMC3    C7 7643   3.656   4.268  12.170  0.0890 -0.4739 -0.7438
  514TMC3    C8 7644   3.490   4.703  12.124 -0.1942  0.6642 -0.6284
  514TMC3    O1 7645   3.731   4.289  12.075  0.3931 -0.0418  0.6545
  514TMC3    O2 7646   3.421   0.065  12.185 -0.5292  0.0160 -0.5342
  515MPD2     C 7647   1.642   1.178  15.054 -0.0949 -0.1790 -0.2688
  515MPD2    C1 7648   1.670   1.198  14.922  0.1223  0.3592  0.0682
  515MPD2    C2 7649   1.736   1.320  14.887  0.7263  0.2190 -1.0065
  515MPD2    C3 7650   1.769   1.423  14.985  0.4737 -0.0125 -0.1576
  515MPD2    C4 7651   1.742   1.391  15.113  0.5643 -0.0488 -0.6413
  515MPD2    C5 7652   1.676   1.274  15.148  0.9004 -0.1238  0.1110
  515MPD2     H 7653   1.746   1.344  14.781 -0.5031 -3.4799 -1.9719
  515MPD2    H1 7654   1.766   1.468  15.186  0.9923  1.7044 -2.6219
  515MPD2    H2 7655   1.582   1.095  15.089 -0.6139  0.8621  1.3479
  515MPD2    H3 7656   1.645   1.253  15.249  0.0997  3.5700  0.6192
  515MPD2     N 7657   1.832   1.542  14.961 -0.2746 -0.2856  1.1024
  515MPD2    H5 7658   1.851   1.595  15.045 -0.0305  2.2856 -0.5915
  515MPD2    N1 7659   1.639   1.100  14.825 -0.0927 -0.5901 -0.0579
  515MPD2    H7 7660   1.646   1.120  14.726 -1.6405 -3.4857 -0.7548
  516TMC3    C1 7661   1.546   0.906  14.726 -0.2120 -0.5086 -0.2416
  516TMC3    C2 7662   1.487   0.976  14.626 -0.4614  0.0002 -0.1186
  516TMC3    C3 7663   1.409   0.896  14.538  0.6507 -0.0075  0.0827
  516TMC3    C4 7664   1.544   0.769  14.737 -0.3532 -0.8743  0.0630
  516TMC3    C5 7665   1.456   0.699  14.658  0.5597  0.3376  0.2915
  516TMC3    C6 7666   1.393   0.763  14.556  0.3662 -0.0341  0.7768
  516TMC3     C 7667   1.592   0.972  14.849  0.5046  0.3681 -0.4332
  516TMC3     O 7668   1.563   0.918  14.959  0.6227  0.4022  0.1155
  516TMC3     H 7669   1.473   1.083  14.625  2.0468  0.3541  2.3436
  516TMC3    H1 7670   1.603   0.716  14.811 -0.4694 -0.0558  0.7297
  516TMC3    H2 7671   1.329   0.708  14.487 -1.0736 -0.3144  2.3150
  516TMC3    C7 7672   1.410   0.583  14.738 -0.3169  0.3086 -0.6669
  516TMC3    C8 7673   1.400   0.943  14.396 -0.1539  0.0079 -0.1769
  516TMC3    O1 7674   1.440   0.565  14.857 -0.0553  0.2538 -0.4857
  516TMC3    O2 7675   1.316   0.890  14.325 -0.0893  0.5903 -0.0240
  517MPD2     C 7676   1.084   2.602  17.411 -0.3460  0.7568 -0.1148
  517MPD2    C1 7677   1.210   2.577  17.456 -0.1937 -0.2758  0.4373
  517MPD2    C2 7678   1.253   2.644  17.570 -0.3898 -0.1393 -0.3580
  517MPD2    C3 7679   1.172   2.739  17.632  0.0386  0.8436  0.2840
  517MPD2    C4 7680   1.051   2.765  17.587 -0.2000 -0.5524 -0.3995
  517MPD2    C5 7681   1.014   2.703  17.471  0.6752 -0.4531 -0.0192
  517MPD2     H 7682   1.345   2.611  17.617 -0.1584  1.6563  0.4481
  517MPD2    H1 7683   0.994   2.854  17.610  1.5907  0.5122 -0.1098
  517MPD2    H2 7684   1.040   2.539  17.335  0.1327  0.7075 -0.3514
  517MPD2    H3 7685   0.912   2.722  17.439  1.2936 -0.3135 -1.9283
  517MPD2     N 7686   1.221   2.804   0.057 -0.6754 -0.1548 -0.4113
  517MPD2    H5 7687   1.316   2.781   0.084 -0.5770 -1.0910 -1.5617
  517MPD2    N1 7688   1.291   2.469  17.427  0.2130 -0.1650  0.9535
  517MPD2    H7 7689   1.369   2.445  17.487  1.6818 -3.2238 -2.2005
  518TMC3    C1 7690   1.404   2.308  17.287 -0.1895  0.1926  0.0356
  518TMC3    C2 7691   1.412   2.245  17.169 -0.0808 -0.5401 -0.2942
  518TMC3    C3 7692   1.528   2.186  17.126  0.1709 -0.0530 -0.3224
  518TMC3    C4 7693   1.515   2.313  17.363 -0.1596 -0.4285 -0.3548
  518TMC3    C5 7694   1.624   2.237  17.333 -0.0466  0.1722  0.0129
  518TMC3    C6 7695   1.635   2.170  17.215  0.6586  0.5549  0.0565
  518TMC3     C 7696   1.281   2.393  17.309 -0.7172 -0.3090  1.2287
  518TMC3     O 7697   1.189   2.391  17.228  0.3288 -0.1125 -0.8060
  518TMC3     H 7698   1.318   2.233  17.116  1.4883 -1.5197 -2.8793
  518TMC3    H1 7699   1.528   2.394  17.434 -1.0701 -0.7321  0.1592
  518TMC3    H2 7700   1.716   2.102  17.189 -0.3045  0.1372 -1.8421
  518TMC3    C7 7701   1.746   2.256  17.411  0.4255 -0.2358  0.2315
  518TMC3    C8 7702   1.515   2.078  17.025 -0.6117 -0.2413  0.1060
  518TMC3    O1 7703   1.738   2.319  17.518 -0.3513  0.3677  0.1787
  518TMC3    O2 7704   1.602   1.994  17.019 -0.4301  0.3379 -0.0620
  519MPD2     C 7705   2.731   1.303  14.521  0.5041  0.4424 -0.0595
  519MPD2    C1 7706   2.705   1.368  14.405 -0.1952 -0.0189 -0.4182
  519MPD2    C2 7707   2.800   1.363  14.306 -0.5475  0.8370  0.4442
  519MPD2    C3 7708   2.916   1.291  14.323 -0.1320 -0.6354 -0.4808
  519MPD2    C4 7709   2.949   1.235  14.442 -0.0060  0.0385  0.1202
  519MPD2    C5 7710   2.852   1.242  14.545  0.4737  0.0310  0.1972
  519MPD2     H 7711   2.785   1.431  14.223  0.3216  0.0145 -0.3825
  519MPD2    H1 7712   3.036   1.170  14.450  0.5807  0.8116 -0.0449
  519MPD2    H2 7713   2.658   1.292  14.600  0.4185  1.8053  0.0493
  519MPD2    H3 7714   2.860   1.187  14.639  0.4319 -2.8556 -1.4890
  519MPD2     N 7715   3.017   1.282  14.218  0.4340 -0.3817  0.0124
  519MPD2    H5 7716   3.080   1.205  14.238  0.4646 -1.2564 -3.4134
  519MPD2    N1 7717   2.575   1.418  14.380 -0.1100 -0.0859 -0.0774
  519MPD2    H7 7718   2.512   1.410  14.460  1.4004 -1.2535  0.9790
  520TMC3    C1 7719   3.122   1.302  13.997  0.2501  0.3257 -0.6181
  520TMC3    C2 7720   3.095   1.332  13.869 -0.0247 -0.1359 -0.2413
  520TMC3    C3 7721   3.171   1.276  13.775  0.9573 -0.8358 -0.1087
  520TMC3    C4 7722   3.229   1.233  14.031 -0.4945  0.7469 -0.2628
  520TMC3    C5 7723   3.314   1.192  13.934 -0.0794  0.2100  1.0126
  520TMC3    C6 7724   3.283   1.203  13.804 -0.9034  0.1857  0.2160
  520TMC3     C 7725   3.022   1.349  14.094  0.1834  0.5575  0.6848
  520TMC3     O 7726   2.946   1.439  14.056  0.0935  0.5562 -0.2653
  520TMC3     H 7727   3.006   1.388  13.842  0.0962 -0.0548 -0.4675
  520TMC3    H1 7728   3.268   1.232  14.133 -1.1079 -1.0617 -0.0489
  520TMC3    H2 7729   3.346   1.162  13.726 -0.3615  0.5543  0.4518
  520TMC3    C7 7730   3.410   1.086  13.976 -0.1997 -0.1205 -0.8412
  520TMC3    C8 7731   3.124   1.275  13.639 -0.0081 -1.1267  1.0655
  520TMC3    O1 7732   3.382   1.017  14.072  0.0775  0.0255 -0.3471
  520TMC3    O2 7733   3.207   1.280  13.547 -0.0113 -0.5476 -0.5426
  521MPD2     C 7734   3.799   3.774  17.116  0.4838 -0.4418 -0.4131
  521MPD2    C1 7735   3.774   3.668  17.198  0.3005  0.0401  0.2654
  521MPD2    C2 7736   3.888   3.591  17.237 -0.6009 -0.9150 -0.2669
  521MPD2    C3 7737   4.017   3.626  17.206 -0.6005 -1.0171 -0.4968
  521MPD2    C4 7738   4.033   3.731  17.121 -0.2208  0.0793 -0.0118
  521MPD2    C5 7739   3.926   3.808  17.086 -0.5438 -0.2473 -0.3936
  521MPD2     H 7740   3.871   3.499  17.291  1.1395 -1.2418 -0.2628
  521MPD2    H1 7741   4.128   3.768  17.084  0.3141 -0.9072  0.3618
  521MPD2    H2 7742   3.719   3.838  17.080  1.1946 -0.5043 -2.0920
  521MPD2    H3 7743   3.948   3.900  17.033  0.4206  0.4298  1.1994
  521MPD2     N 7744   4.124   3.543  17.257  0.1621 -0.1481 -0.2333
  521MPD2    H5 7745   4.095   3.464  17.313  3.8724 -0.4304  1.2557
  521MPD2    N1 7746   3.647   3.617  17.232 -1.0221  0.2302 -0.3372
  521MPD2    H7 7747   3.644   3.540  17.298  1.0078 -0.2832 -0.8361
  522TMC3    C1 7748   4.343   3.476  17.317 -0.1189 -0.0695 -0.3758
  522TMC3    C2 7749   4.460   3.462  17.252 -0.2088 -0.0060  0.5685
  522TMC3    C3 7750   4.493   3.331  17.223  0.1311 -0.0969 -0.6033
  522TMC3    C4 7751   4.277   3.367  17.369  0.1783  0.5285  0.0518
  522TMC3    C5 7752   4.312   3.237  17.344 -0.9681 -0.7954 -1.1073
  522TMC3    C6 7753   4.420   3.223  17.263  0.2344  0.1591  0.7361
  522TMC3     C 7754   4.258   3.575  17.252  0.3259 -0.0884 -0.5724
  522TMC3     O 7755   4.306   3.680  17.210  0.2667 -0.2034  0.1138
  522TMC3     H 7756   4.518   3.547  17.218 -0.9478 -0.2952 -1.3794
  522TMC3    H1 7757   4.182   3.373  17.420  0.9179  4.3251  0.9430
  522TMC3    H2 7758   4.448   3.121  17.238 -0.0771  0.4406 -0.7775
  522TMC3    C7 7759   4.205   3.152  17.308 -0.3747 -1.2325 -0.1969
  522TMC3    C8 7760   4.599   3.316  17.126  0.2346  0.0243  0.3011
  522TMC3    O1 7761   4.160   3.074  17.390 -0.3232  0.3383 -0.3487
  522TMC3    O2 7762   4.681   3.404  17.116 -0.4048  0.2526 -0.1496
  523MPD2     C 7763   1.772   2.759  10.017  0.2259 -0.0407 -0.3895
  523MPD2    C1 7764   1.766   2.679   9.902  0.3562  0.3173  0.2007
  523MPD2    C2 7765   1.765   2.738   9.774  0.0407 -0.1637  0.3576
  523MPD2    C3 7766   1.742   2.879   9.771  0.4058  0.5220 -0.2766
  523MPD2    C4 7767   1.756   2.956   9.887 -0.2200 -0.4955 -0.0711
  523MPD2    C5 7768   1.770   2.895  10.010  0.0922  0.2499  0.2608
  523MPD2     H 7769   1.737   2.674   9.691  0.4361 -0.8080  0.7130
  523MPD2    H1 7770   1.753   3.065   9.887 -0.3884 -0.5014 -0.2894
  523MPD2    H2 7771   1.769   2.717  10.116 -1.8859  1.0724  0.0268
  523MPD2    H3 7772   1.758   2.955  10.100 -0.0993 -3.2920  2.5956
  523MPD2     N 7773   1.695   2.951   9.658  0.3498 -0.3829 -0.4673
  523MPD2    H5 7774   1.711   3.052   9.659  0.2094 -0.3764  1.7791
  523MPD2    N1 7775   1.759   2.540   9.918  0.0500 -0.1575  0.4020
  523MPD2    H7 7776   1.778   2.504  10.011  1.7642 -1.0380 -0.2933
  524TMC3    C1 7777   1.589   2.990   9.442  0.7545  0.2919  0.3890
  524TMC3    C2 7778   1.483   2.948   9.357  0.2175 -0.1018 -0.5497
  524TMC3    C3 7779   1.390   3.036   9.310 -0.1952  0.1682  1.1732
  524TMC3    C4 7780   1.606   3.124   9.455  0.2496 -0.0279 -0.9754
  524TMC3    C5 7781   1.523   3.212   9.395  0.1572 -0.5749  0.0409
  524TMC3    C6 7782   1.409   3.173   9.330  0.9223 -0.0575  0.0177
  524TMC3     C 7783   1.638   2.897   9.549 -0.2969  0.0287 -0.7043
  524TMC3     O 7784   1.597   2.777   9.539 -0.2252  0.1636  0.0104
  524TMC3     H 7785   1.456   2.843   9.363 -1.6845  0.3781 -0.8327
  524TMC3    H1 7786   1.688   3.166   9.511 -1.5862 -0.0870  1.7412
  524TMC3    H2 7787   1.341   3.245   9.285 -0.0186 -1.1121 -0.2527
  524TMC3    C7 7788   1.567   3.354   9.382 -0.1583  0.3619  0.0551
  524TMC3    C8 7789   1.255   2.996   9.272 -0.1367 -0.9021  0.0805
  524TMC3    O1 7790   1.685   3.377   9.408 -0.0681 -0.1873  0.1650
  524TMC3    O2 7791   1.187   3.089   9.223  0.7261  0.3054 -0.2318
  525MPD2     C 7792   4.224   0.592  14.073 -0.7636 -0.4629  0.3105
  525MPD2    C1 7793   4.342   0.591  14.144  0.3152  0.1635  0.3414
  525MPD2    C2 7794   4.442   0.684  14.127 -0.0378 -0.5470  1.0576
  525MPD2    C3 7795   4.415   0.805  14.060 -0.1777  0.3228 -0.5621
  525MPD2    C4 7796   4.292   0.817  13.998  0.5609  0.0800 -0.1890
  525MPD2    C5 7797   4.203   0.710  14.007 -0.1728  0.0403  0.3678
  525MPD2     H 7798   4.537   0.680  14.179  0.5874  1.3217  0.0505
  525MPD2    H1 7799   4.270   0.904  13.938 -0.8410 -0.5730 -0.6279
  525MPD2    H2 7800   4.154   0.512  14.054 -2.0484  0.3842  1.4913
  525MPD2    H3 7801   4.117   0.716  13.941 -0.2034  0.8371  0.4842
  525MPD2     N 7802   4.499   0.919  14.042  0.3960 -0.0443  0.5777
  525MPD2    H5 7803   4.456   0.998  13.995  0.7759 -0.0491  0.2218
  525MPD2    N1 7804   4.368   0.489  14.237  0.2170  0.1010  0.0070
  525MPD2    H7 7805   4.450   0.514  14.292 -0.4147  0.6975  0.6829
  526TMC3    C1 7806   4.328   0.305  14.391 -0.1589 -0.4612 -0.3189
  526TMC3    C2 7807   4.215   0.280  14.465  0.1134  0.5528 -0.5824
  526TMC3    C3 7808   4.243   0.232  14.589 -0.7091 -0.1534  0.6561
  526TMC3    C4 7809   4.456   0.308  14.444  0.5348 -0.7983  0.1120
  526TMC3    C5 7810   4.479   0.260  14.566  0.4621 -0.5291  0.3790
  526TMC3    C6 7811   4.368   0.219  14.644  0.1356 -0.3291  0.1014
  526TMC3     C 7812   4.294   0.372  14.266  0.1344  0.0964  0.0707
  526TMC3     O 7813   4.182   0.339  14.217 -0.3648  0.3866 -0.0091
  526TMC3     H 7814   4.113   0.299  14.434  0.1676  2.5429  0.4755
  526TMC3    H1 7815   4.530   0.348  14.375  0.9223 -1.4975  0.1163
  526TMC3    H2 7816   4.384   0.172  14.741 -0.8199 -2.2639 -0.6820
  526TMC3    C7 7817   4.603   0.213  14.616  0.5456 -0.1825 -0.1871
  526TMC3    C8 7818   4.136   0.255  14.681  0.6116 -0.3755  0.2120
  526TMC3    O1 7819   4.614   0.204  14.737  0.0275  0.6539  0.1045
  526TMC3    O2 7820   4.024   0.233  14.632 -0.8292  0.4033  0.0959
  527MPD2     C 7821   3.646   2.564   1.282 -0.1227  0.4320  0.4394
  527MPD2    C1 7822   3.780   2.550   1.309  0.4989  0.0389  0.1538
  527MPD2    C2 7823   3.862   2.612   1.220 -0.2216 -0.0270  0.6030
  527MPD2    C3 7824   3.826   2.691   1.117 -0.5270 -0.3597 -0.3255
  527MPD2    C4 7825   3.693   2.707   1.097 -0.2737  0.8167  0.1127
  527MPD2    C5 7826   3.604   2.642   1.180  0.7113  0.9434 -0.5012
  527MPD2     H 7827   3.964   2.601   1.255 -0.0082  0.2965  0.0715
  527MPD2    H1 7828   3.649   2.755   1.010 -0.5822 -1.3811 -0.9366
  527MPD2    H2 7829   3.579   2.522   1.357 -1.4184 -0.5380 -1.2654
  527MPD2    H3 7830   3.501   2.656   1.151  0.1704 -0.6079  0.6674
  527MPD2     N 7831   3.932   2.746   1.034 -0.2863 -0.0692  0.4652
  527MPD2    H5 7832   4.025   2.729   1.071  0.3695  1.1292 -0.6165
  527MPD2    N1 7833   3.835   2.493   1.422  0.1925  0.0930 -0.1886
  527MPD2    H7 7834   3.934   2.513   1.438  0.6175 -1.8613 -0.2667
  528TMC3    C1 7835   3.859   2.402   1.629  0.8752 -0.0030 -0.4153
  528TMC3    C2 7836   3.947   2.500   1.643  0.5996  0.5717  0.4662
  528TMC3    C3 7837   4.077   2.476   1.689 -0.8064 -0.2552  0.1669
  528TMC3    C4 7838   3.897   2.268   1.651  0.7199  0.0534 -0.2800
  528TMC3    C5 7839   4.033   2.249   1.675 -0.2462  0.0191 -0.6703
  528TMC3    C6 7840   4.121   2.351   1.713 -0.4246 -0.8386 -0.1992
  528TMC3     C 7841   3.770   2.416   1.516 -0.9543 -0.8815 -0.1219
  528TMC3     O 7842   3.656   2.366   1.514 -0.4434  0.0226 -0.5666
  528TMC3     H 7843   3.916   2.602   1.627 -2.1547 -0.4874 -0.9590
  528TMC3    H1 7844   3.825   2.191   1.626  1.2790 -1.1440  1.8191
  528TMC3    H2 7845   4.229   2.347   1.718 -0.5165 -2.4908  0.7809
  528TMC3    C7 7846   4.064   2.115   1.707  0.1386 -0.2320 -0.4418
  528TMC3    C8 7847   4.174   2.586   1.690  0.4134 -0.3221  0.1651
  528TMC3    O1 7848   3.978   2.035   1.686 -1.0669  0.2855  0.5280
  528TMC3    O2 7849   4.160   2.672   1.604 -0.2181 -0.1686  0.4104
  529MPD2     C 7850   1.044   1.972   1.097  0.3464 -0.6825 -1.2274
  529MPD2    C1 7851   0.982   1.850   1.108 -0.3722 -0.8544  0.2939
  529MPD2    C2 7852   0.848   1.835   1.064  0.5532 -0.8460  0.5518
  529MPD2    C3 7853   0.780   1.942   1.015  0.1153 -0.8234 -0.5131
  529MPD2    C4 7854   0.846   2.065   0.999  0.0942  1.0455 -0.3347
  529MPD2    C5 7855   0.976   2.079   1.048 -0.6764  0.1613 -0.2483
  529MPD2     H 7856   0.802   1.737   1.056  0.5487 -0.7672 -0.3834
  529MPD2    H1 7857   0.793   2.154   0.966 -0.3388 -0.0161 -2.5129
  529MPD2    H2 7858   1.147   1.976   1.133  0.1787 -1.6910 -0.6219
  529MPD2    H3 7859   1.026   2.174   1.035  0.8946 -0.5891  0.1927
  529MPD2     N 7860   0.654   1.932   0.958 -0.0304  0.3581  0.1283
  529MPD2    H5 7861   0.625   2.009   0.898 -0.1530  0.6186  0.5189
  529MPD2    N1 7862   1.041   1.727   1.149  0.1827  0.6503 -0.3923
  529MPD2    H7 7863   0.997   1.636   1.139  1.4710 -0.2818  2.4519
  530TMC3    C1 7864   1.220   1.572   1.203 -0.0298  0.0155 -0.0780
  530TMC3    C2 7865   1.334   1.545   1.267 -0.4684 -0.0374  0.3252
  530TMC3    C3 7866   1.375   1.413   1.271 -0.4238  0.5027  0.0554
  530TMC3    C4 7867   1.142   1.471   1.155 -0.1168  0.4558  0.4405
  530TMC3    C5 7868   1.185   1.340   1.162  0.5768  0.0724 -0.2878
  530TMC3    C6 7869   1.298   1.306   1.227 -0.0043  0.1063 -0.0630
  530TMC3     C 7870   1.161   1.708   1.206  0.9975  0.3537  0.1068
  530TMC3     O 7871   1.234   1.799   1.241  0.0688 -0.1980 -0.3049
  530TMC3     H 7872   1.391   1.631   1.300  0.2285 -0.4951  0.3299
  530TMC3    H1 7873   1.042   1.491   1.118 -0.4199 -1.6968  0.0690
  530TMC3    H2 7874   1.325   1.202   1.242  1.5449  0.3266 -1.3366
  530TMC3    C7 7875   1.090   1.244   1.131 -0.3102  0.0530  0.0017
  530TMC3    C8 7876   1.513   1.385   1.300  0.3597 -1.1664 -0.0794
  530TMC3    O1 7877   1.022   1.275   1.033 -0.1071 -0.0417  0.1739
  530TMC3    O2 7878   1.565   1.481   1.358  0.6667  0.3136 -0.6975
  531MPD2     C 7879   3.985   4.080  12.519 -0.1437 -0.2794  0.1273
  531MPD2    C1 7880   3.858   4.099  12.578  0.8046  0.0061 -0.2400
  531MPD2    C2 7881   3.750   4.137  12.499 -0.6062 -0.2838  0.1886
  531MPD2    C3 7882   3.776   4.185  12.374  0.6488 -0.1968  0.1976
  531MPD2    C4 7883   3.897   4.167  12.317  0.4365  0.0648 -0.1949
  531MPD2    C5 7884   3.995   4.108  12.386  0.8366 -0.1361  0.4751
  531MPD2     H 7885   3.651   4.158  12.538  0.0815 -0.0601  1.8220
  531MPD2    H1 7886   3.920   4.198  12.215 -0.3178 -0.0235 -0.3916
  531MPD2    H2 7887   4.078   4.057  12.571  0.2197 -1.4854 -1.0712
  531MPD2    H3 7888   4.088   4.083  12.335  0.3526 -1.0923  0.0641
  531MPD2     N 7889   3.666   4.227  12.301  0.0613  0.2406 -0.2329
  531MPD2    H5 7890   3.581   4.239  12.357  1.3459  1.6441  1.4433
  531MPD2    N1 7891   3.851   4.088  12.718  0.6685  0.0968  0.1021
  531MPD2    H7 7892   3.940   4.067  12.762  0.5964 -0.3745  0.0211
  532TMC3    C1 7893   3.748   4.137  12.931  0.5678 -0.1661  0.3364
  532TMC3    C2 7894   3.634   4.166  12.999  0.0934 -0.2893 -1.0540
  532TMC3    C3 7895   3.639   4.271  13.087  0.0881  0.4988  0.3805
  532TMC3    C4 7896   3.860   4.195  12.961  0.5774 -0.5195 -0.3475
  532TMC3    C5 7897   3.870   4.296  13.051  0.0612  0.8161 -0.8246
  532TMC3    C6 7898   3.757   4.333  13.117 -0.1175  0.4788  0.2410
  532TMC3     C 7899   3.731   4.101  12.788  0.4262  0.0550  0.1950
  532TMC3     O 7900   3.614   4.117  12.755  0.2127 -0.6875  0.3040
  532TMC3     H 7901   3.539   4.119  12.974 -0.2842 -0.2014  0.2329
  532TMC3    H1 7902   3.950   4.204  12.902  0.7310  0.8405  0.1033
  532TMC3    H2 7903   3.757   4.414  13.188 -0.8563  0.0859  0.6884
  532TMC3    C7 7904   3.997   4.310  13.121 -1.0550  0.1490 -0.4862
  532TMC3    C8 7905   3.521   4.357  13.064  0.4942 -0.4532 -0.3583
  532TMC3    O1 7906   4.010   4.411  13.186  0.4648  0.3904  0.1019
  532TMC3    O2 7907   3.499   4.442  13.149 -0.4967  0.1548 -0.2734
  533TMC3    C1 7908   4.666   1.082  14.093  0.0665  0.0767 -0.7058
  533TMC3    C2 7909   0.079   1.113  14.093 -0.0060 -0.6847  0.7296
  533TMC3    C3 7910   0.111   1.237  14.149 -0.4572  0.2368  0.3967
  533TMC3    C4 7911   4.574   1.170  14.140 -0.3180  0.0759 -0.4808
  533TMC3    C5 7912   4.604   1.286  14.202  0.7488 -1.1007  0.6929
  533TMC3    C6 7913   0.017   1.320  14.201 -0.4043 -0.3801 -0.3928
  533TMC3     C 7914   4.629   0.937  14.091  0.2634  0.0002 -0.1744
  533TMC3     O 7915   4.714   0.860  14.141  0.0003  0.1145 -0.0042
  533TMC3     H 7916   0.167   1.049  14.084  2.6886  3.0998 -0.0207
  533TMC3    H1 7917   4.469   1.142  14.139 -0.2356 -0.3431  2.1914
  533TMC3    H2 7918   0.041   1.420  14.235  0.7274 -0.7929  0.0069
  533TMC3    C7 7919   4.549   1.273  14.338  0.2540  0.4846 -0.5632
  533TMC3    C8 7920   0.252   1.276  14.146 -0.8144 -0.0733 -1.0117
  533TMC3    O1 7921   4.490   1.169  14.358  0.2130  0.1346 -0.0046
  533TMC3    O2 7922   0.345   1.214  14.091 -0.2266  0.1344  0.2918
  534MPD2     C 7923   3.610   1.140   1.290  0.1401 -1.2121 -0.8070
  534MPD2    C1 7924   3.534   1.258   1.306  0.3504 -0.6003 -0.8984
  534MPD2    C2 7925   3.401   1.255   1.266 -0.2388 -0.0615 -0.1255
  534MPD2    C3 7926   3.344   1.144   1.208  0.3442  0.1253  0.0309
  534MPD2    C4 7927   3.430   1.032   1.190  0.1647  0.2876  0.2467
  534MPD2    C5 7928   3.554   1.023   1.241  0.0984 -0.1106  0.4569
  534MPD2     H 7929   3.354   1.352   1.267  0.7198  0.3618  2.5649
  534MPD2    H1 7930   3.378   0.943   1.158  2.7852 -0.7567 -1.0887
  534MPD2    H2 7931   3.706   1.137   1.340  0.9499  0.4831 -2.2672
  534MPD2    H3 7932   3.609   0.930   1.248  0.2414  0.0679  1.6744
  534MPD2     N 7933   3.209   1.137   1.159  0.0640  0.0074 -0.4052
  534MPD2    H5 7934   3.176   1.048   1.122 -2.5388  0.3704  1.0285
  534MPD2    N1 7935   3.588   1.381   1.339  0.1703 -0.4805 -0.4237
  534MPD2    H7 7936   3.529   1.463   1.334  3.3593  1.7027 -2.5055
  535TMC3    C1 7937   2.997   1.209   1.103 -0.3781  0.3336 -0.3093
  535TMC3    C2 7938   2.890   1.298   1.138 -0.3713 -0.1264 -0.0989
  535TMC3    C3 7939   2.766   1.269   1.078 -0.6290 -0.0408 -0.0441
  535TMC3    C4 7940   2.989   1.110   1.017 -0.1709  0.4630  0.2671
  535TMC3    C5 7941   2.866   1.097   0.957 -0.4012 -0.0821  0.8105
  535TMC3    C6 7942   2.751   1.172   0.983  0.0025  0.7097 -0.3559
  535TMC3     C 7943   3.117   1.240   1.174 -0.6609  0.2252 -0.4910
  535TMC3     O 7944   3.125   1.337   1.246  0.2280 -0.6258 -0.0687
  535TMC3     H 7945   2.911   1.381   1.205 -2.7680 -0.1842  0.7115
  535TMC3    H1 7946   3.079   1.066   0.975 -1.4440 -1.4431 -0.4826
  535TMC3    H2 7947   2.657   1.157   0.931 -0.4007 -0.4541  0.7097
  535TMC3    C7 7948   2.854   0.986   0.862 -0.4925  0.6591  0.0751
  535TMC3    C8 7949   2.651   1.357   1.100  0.1688 -0.1715  0.2124
  535TMC3    O1 7950   2.752   0.992   0.790 -0.1431  0.2967 -0.5882
  535TMC3    O2 7951   2.542   1.307   1.069  0.2305 -0.2331 -0.0675
  536MPD2     C 7952   1.107   4.503  16.423 -0.4627  0.0175  0.4583
  536MPD2    C1 7953   1.049   4.629  16.448 -0.0694 -0.9178 -0.1642
  536MPD2    C2 7954   0.983   4.694  16.343  0.6260 -0.2063 -0.0928
  536MPD2    C3 7955   0.990   4.641  16.211 -0.0133  0.6019 -0.5375
  536MPD2    C4 7956   1.059   4.527  16.188 -0.8406  0.3040 -0.0453
  536MPD2    C5 7957   1.110   4.452  16.298  0.1139  0.5779  0.3422
  536MPD2     H 7958   0.939   0.069  16.369 -0.0657 -0.4267 -0.4501
  536MPD2    H1 7959   1.057   4.474  16.093 -0.9194 -0.0806  0.1705
  536MPD2    H2 7960   1.170   4.454  16.497 -0.8601 -0.4113  0.5128
  536MPD2    H3 7961   1.148   4.351  16.290  0.6277  0.8601 -0.7672
  536MPD2     N 7962   0.931   4.698  16.092 -0.0488 -0.1389 -0.2084
  536MPD2    H5 7963   0.963   4.670  16.000 -3.3190 -1.7105 -0.8575
  536MPD2    N1 7964   1.071   4.689  16.578  0.2308 -0.7540  0.7458
  536MPD2    H7 7965   1.113   4.631  16.649  0.1580  0.8806  2.1271
  537TMC3    C1 7966   1.088   0.139  16.758  0.3375  0.0080 -0.6727
  537TMC3    C2 7967   1.123   0.271  16.775  0.0751  0.8799  0.3961
  537TMC3    C3 7968   1.179   0.307  16.896  0.0835 -0.2409  0.3232
  537TMC3    C4 7969   1.107   0.041  16.851 -0.0992  0.0467 -0.2472
  537TMC3    C5 7970   1.169   0.078  16.966  0.3101  0.3341 -0.3376
  537TMC3    C6 7971   1.194   0.214  16.994 -0.5135 -0.2249  0.1968
  537TMC3     C 7972   1.046   0.104  16.619 -0.3136 -0.1777 -0.1994
  537TMC3     O 7973   1.008   0.200  16.547  0.1379 -0.1817 -0.0410
  537TMC3     H 7974   1.132   0.333  16.686  2.6311  0.8333  0.6259
  537TMC3    H1 7975   1.080   4.659  16.834  0.0247 -0.1712  0.9260
  537TMC3    H2 7976   1.258   0.235  17.079  0.5398  2.0348 -1.1431
  537TMC3    C7 7977   1.142   0.010  17.086 -0.4084  0.3200 -0.4488
  537TMC3    C8 7978   1.258   0.427  16.907 -0.4685  0.7540 -0.0315
  537TMC3    O1 7979   1.129   0.075  17.189  0.0298  0.2891  0.2396
  537TMC3    O2 7980   1.364   0.413  16.966  0.5924 -0.5661  0.1391
  538TMC3    C1 7981   2.627   3.231  10.700  0.7061 -0.1444  0.2545
  538TMC3    C2 7982   2.742   3.279  10.654  0.1401  0.5967 -0.7685
  538TMC3    C3 7983   2.747   3.289  10.520  0.5921 -0.1610 -0.1311
  538TMC3    C4 7984   2.531   3.174  10.628 -0.0130 -0.0684 -0.0767
  538TMC3    C5 7985   2.552   3.168  10.495 -0.2762 -0.6243  0.9925
  538TMC3    C6 7986   2.656   3.229  10.436  0.2902 -0.3124  0.2204
  538TMC3     C 7987   2.614   3.218  10.844  0.4780  0.0392  0.5202
  538TMC3     O 7988   2.580   3.107  10.884 -0.4363 -0.3304 -0.1083
  538TMC3     H 7989   2.797   3.344  10.721  1.6277 -0.7120 -0.7085
  538TMC3    H1 7990   2.445   3.133  10.680  0.0751  0.7183  0.6811
  538TMC3    H2 7991   2.657   3.248  10.330  1.6942  1.8147  0.6279
  538TMC3    C7 7992   2.423   3.167  10.423  0.4485 -0.6537  0.3032
  538TMC3    C8 7993   2.847   3.373  10.452  0.0339  0.0956 -0.8919
  538TMC3    O1 7994   2.332   3.209  10.496 -0.3288 -0.0974 -0.5380
  538TMC3    O2 7995   2.827   3.408  10.336 -0.5456  0.5042 -0.2692
  539MPD2     C 7996   2.403   2.923  11.414 -0.1678  0.3714  0.2396
  539MPD2    C1 7997   2.435   2.919  11.279 -0.2444  0.4100 -0.9721
  539MPD2    C2 7998   2.385   3.021  11.200 -0.7426 -0.5645  0.6424
  539MPD2    C3 7999   2.304   3.126  11.252 -0.4106  0.1446  0.2032
  539MPD2    C4 8000   2.275   3.130  11.387 -0.0866 -0.0452  0.0975
  539MPD2    C5 8001   2.323   3.027  11.463 -0.0178  0.3869  0.1174
  539MPD2     H 8002   2.417   3.016  11.096 -2.0248 -1.0206  0.2645
  539MPD2    H1 8003   2.219   3.211  11.432  2.3404  1.3200  0.6516
  539MPD2    H2 8004   2.432   2.839  11.475 -1.3370 -0.1856  0.0227
  539MPD2    H3 8005   2.299   3.038  11.568  4.0966  1.1407  0.9907
  539MPD2     N 8006   2.243   3.223  11.169 -0.2539  0.0113 -0.5022
  539MPD2    H5 8007   2.180   3.291  11.210  0.5372  0.7993 -0.6043
  539MPD2    N1 8008   2.515   2.816  11.229  0.0882  0.2791 -0.9533
  539MPD2    H7 8009   2.514   2.799  11.129  0.6795 -0.7470 -0.7777
  540TMC3    C1 8010   2.210   3.352  10.972  0.7279 -0.4631  0.0105
  540TMC3    C2 8011   2.152   3.343  10.847 -0.3720 -0.0839 -1.1477
  540TMC3    C3 8012   2.065   3.437  10.808 -0.0224 -0.6195 -0.0337
  540TMC3    C4 8013   2.184   3.461  11.050  0.4148 -0.3814  0.4495
  540TMC3    C5 8014   2.104   3.559  10.999 -0.1436  0.2838  0.8247
  540TMC3    C6 8015   2.034   3.547  10.882  0.1870 -0.1048 -0.1312
  540TMC3     C 8016   2.261   3.234  11.035 -0.6738  0.3764  0.2026
  540TMC3     O 8017   2.278   3.145  10.953  0.3347 -0.3621 -0.3940
  540TMC3     H 8018   2.176   3.264  10.776  3.3562 -1.4835  1.6360
  540TMC3    H1 8019   2.228   3.478  11.148 -0.6901 -0.1892  0.9065
  540TMC3    H2 8020   1.962   3.617  10.842 -0.4080  0.1796  1.4389
  540TMC3    C7 8021   2.022   3.611  11.103 -0.4302  0.9165 -0.3616
  540TMC3    C8 8022   1.979   3.411  10.693 -0.2623 -0.4615 -0.4799
  540TMC3    O1 8023   1.914   3.552  11.126 -0.9198  0.0603 -0.1511
  540TMC3    O2 8024   1.946   3.506  10.623 -0.4559  0.5916  0.0829
  541MPD2     C 8025   0.436   0.046  12.891  0.1151 -0.2593  0.0517
  541MPD2    C1 8026   0.502   4.652  12.854  0.3115 -0.1530  0.1700
  541MPD2    C2 8027   0.528   4.626  12.723 -0.2577 -0.3309 -0.3246
  541MPD2    C3 8028   0.487   4.714  12.617 -0.2731  0.2991  0.2399
  541MPD2    C4 8029   0.423   0.109  12.658 -1.0972  0.1052 -0.1629
  541MPD2    C5 8030   0.413   0.134  12.790  0.3286 -0.2430  0.3348
  541MPD2     H 8031   0.577   4.534  12.694 -2.5372 -1.1680 -1.5528
  541MPD2    H1 8032   0.388   0.189  12.594 -3.8109 -2.4679 -1.8968
  541MPD2    H2 8033   0.423   0.076  12.995 -0.2087  0.5660 -0.2270
  541MPD2    H3 8034   0.366   0.223  12.828  1.0000 -0.2092  1.0870
  541MPD2     N 8035   0.498   4.679  12.488 -0.0103 -0.4786  0.0663
  541MPD2    H5 8036   0.456   0.030  12.429 -0.1016  0.4401  1.2549
  541MPD2    N1 8037   0.539   4.564  12.958  0.1322 -0.1937  0.1248
  541MPD2    H7 8038   0.503   4.588  13.050 -2.0394  0.8836 -1.0004
  542TMC3    C1 8039   0.558   4.578  12.285 -0.3383  0.3824 -0.0461
  542TMC3    C2 8040   0.665   4.529  12.216  0.2084 -0.2761  0.0517
  542TMC3    C3 8041   0.640   4.526  12.082 -0.1982  0.6745 -0.1787
  542TMC3    C4 8042   0.446   4.628  12.229  0.1126  0.8612  0.0927
  542TMC3    C5 8043   0.428   4.616  12.093  0.1753 -0.1588 -0.3563
  542TMC3    C6 8044   0.526   4.569  12.018  0.0785  0.4468  0.4754
  542TMC3     C 8045   0.564   4.576  12.428  0.3810  0.6384  0.0579
  542TMC3     O 8046   0.647   4.502  12.478  0.8486 -0.0846  0.1118
  542TMC3     H 8047   0.768   4.519  12.250  1.0262  2.2190 -1.7448
  542TMC3    H1 8048   0.365   4.676  12.284  0.2852 -2.7944  3.5325
  542TMC3    H2 8049   0.518   4.561  11.910 -1.3135  2.2252  0.4639
  542TMC3    C7 8050   0.300   4.675  12.041 -0.5363  0.3090 -0.4032
  542TMC3    C8 8051   0.741   4.464  11.992  0.4760  0.3135  0.7201
  542TMC3    O1 8052   0.207   4.695  12.118  0.1771  0.5189  0.2719
  542TMC3    O2 8053   0.712   4.482  11.876 -0.2894 -0.6938 -0.6866
  543TMC3    C1 8054   4.206   0.761  16.994  1.0956  0.3825  0.3728
  543TMC3    C2 8055   4.273   0.668  17.080  1.1919  0.8466 -0.5834
  543TMC3    C3 8056   4.212   0.628  17.193  0.0394  0.0526 -0.2680
  543TMC3    C4 8057   4.075   0.808  17.024 -0.5661 -0.5465  0.1137
  543TMC3    C5 8058   4.031   0.766  17.145  0.2078 -0.1691 -0.0586
  543TMC3    C6 8059   4.094   0.684  17.236 -0.2804 -0.0267 -0.1290
  543TMC3     C 8060   4.251   0.765  16.861  0.1756 -0.1223  0.5268
  543TMC3     O 8061   4.359   0.714  16.842 -0.6603  0.3963 -0.3408
  543TMC3     H 8062   4.369   0.628  17.051  0.7355 -0.0874 -0.8014
  543TMC3    H1 8063   4.026   0.890  16.973 -2.4850 -0.0680  2.6886
  543TMC3    H2 8064   4.051   0.654  17.331 -0.2356  1.7350  0.4513
  543TMC3    C7 8065   3.893   0.795  17.181 -0.7093 -0.3183  0.0354
  543TMC3    C8 8066   4.262   0.494  17.243 -0.0761  0.0412 -0.0391
  543TMC3    O1 8067   3.821   0.839  17.094 -0.9351  0.0596  0.0642
  543TMC3    O2 8068   4.367   0.449  17.194 -0.5480 -0.3787 -0.4196
  544MPD2     C 8069   4.158   0.030  17.435 -0.1016 -0.1517 -0.5823
  544MPD2    C1 8070   4.252   0.068  17.337 -0.0857 -0.7874 -0.9708
  544MPD2    C2 8071   4.260   0.203  17.308  0.1973 -0.3430  0.4815
  544MPD2    C3 8072   4.180   0.301  17.359 -0.1577  0.2582  0.2860
  544MPD2    C4 8073   4.085   0.254  17.444 -0.1743  0.4988  0.2946
  544MPD2    C5 8074   4.071   0.124  17.481 -0.4403 -0.4294 -0.6555
  544MPD2     H 8075   4.342   0.230  17.243 -0.3584 -1.1672 -0.5653
  544MPD2    H1 8076   4.010   0.322  17.483 -0.0796 -0.1612  1.6470
  544MPD2    H2 8077   4.135   4.648  17.462  0.0662  0.0582  0.3815
  544MPD2    H3 8078   3.977   0.104  17.530  0.0373 -1.1883 -0.0492
  544MPD2     N 8079   4.179   0.438  17.333  0.4722  0.0382 -0.2771
  544MPD2    H5 8080   4.107   0.496  17.375 -0.3853 -0.5119 -1.0001
  544MPD2    N1 8081   4.334   4.686  17.282  0.7264 -0.3322 -0.0276
  544MPD2    H7 8082   4.319   4.595  17.323 -1.8365 -0.4734 -1.2763
  545TMC3    C1 8083   4.500   4.572  17.160 -0.2257 -0.3621  0.1848
  545TMC3    C2 8084   4.585   4.561  17.054  0.0440  0.0117 -0.0484
  545TMC3    C3 8085   4.668   4.449  17.041 -0.1608 -1.0131  0.7059
  545TMC3    C4 8086   4.514   4.481  17.267 -0.2893 -0.2920  0.0540
  545TMC3    C5 8087   4.613   4.391  17.261 -0.0035 -0.3974  0.5298
  545TMC3    C6 8088   4.686   4.364  17.145 -0.0215  0.4417  0.7203
  545TMC3     C 8089   4.435   4.704  17.186  0.1618  0.3826 -0.9050
  545TMC3     O 8090   4.476   0.079  17.121 -0.2239  0.6385  0.6283
  545TMC3     H 8091   4.590   4.645  16.985 -0.9829 -2.4317 -3.1296
  545TMC3    H1 8092   4.473   4.499  17.366 -1.8527  0.4644 -0.7287
  545TMC3    H2 8093   0.048   4.294  17.139 -1.0939 -0.8602  1.2298
  545TMC3    C7 8094   4.597   4.279  17.351  0.0644  0.4119  0.4673
  545TMC3    C8 8095   0.032   4.466  16.925  0.0482  0.0395  0.8585
  545TMC3    O1 8096   4.484   4.264  17.399  0.4044 -0.9525 -0.1873
  545TMC3    O2 8097   4.705   4.523  16.827  0.2829 -0.3096 -0.0583
  546MPD2     C 8098   1.283   0.965  17.230  0.1321  0.4778 -0.8512
  546MPD2    C1 8099   1.186   0.972  17.133  0.1630 -0.1676 -0.2647
  546MPD2    C2 8100   1.204   1.064  17.033 -0.2043 -0.4316 -0.2147
  546MPD2    C3 8101   1.319   1.140  17.024 -0.1481 -0.2549  0.7691
  546MPD2    C4 8102   1.412   1.124  17.125  0.2398  0.3867  0.4086
  546MPD2    C5 8103   1.394   1.045  17.229 -0.0172 -0.0893 -0.3230
  546MPD2     H 8104   1.130   1.072  16.954 -0.2080 -1.2918 -0.2914
  546MPD2    H1 8105   1.502   1.184  17.127  0.5408 -0.0299 -0.3093
  546MPD2    H2 8106   1.282   0.886  17.305 -1.3650  1.2027 -0.1140
  546MPD2    H3 8107   1.469   1.044  17.307  0.3771 -1.0841 -0.7202
  546MPD2     N 8108   1.355   1.211  16.912 -0.7121  0.0878  0.2694
  546MPD2    H5 8109   1.283   1.247  16.850 -0.0720  2.4703  0.9077
  546MPD2    N1 8110   1.075   0.889  17.145  0.5036  0.4296  0.6555
  546MPD2    H7 8111   1.070   0.822  17.221 -2.3130 -0.4092 -0.2680
  547TMC3    C1 8112   0.888   0.750  17.078  0.6235 -0.3325 -0.4209
  547TMC3    C2 8113   0.768   0.771  17.023 -0.3389  0.2700  0.3340
  547TMC3    C3 8114   0.708   0.660  16.974 -0.4880  0.0196  0.0589
  547TMC3    C4 8115   0.946   0.627  17.086 -0.3742  0.4127  0.2478
  547TMC3    C5 8116   0.884   0.517  17.030 -0.1336 -0.0776 -0.2343
  547TMC3    C6 8117   0.761   0.539  16.966 -0.0044  0.1509  0.0430
  547TMC3     C 8118   0.975   0.868  17.057  0.4188 -0.9517 -0.3300
  547TMC3     O 8119   0.958   0.923  16.948 -0.1887 -0.1701 -0.5988
  547TMC3     H 8120   0.729   0.871  17.007 -1.7086  0.2631  3.5483
  547TMC3    H1 8121   1.043   0.621  17.135  0.2175 -0.3389 -1.0237
  547TMC3    H2 8122   0.702   0.465  16.913 -2.1184 -0.5734  3.4584
  547TMC3    C7 8123   0.901   0.387  17.095 -0.3370 -0.2587 -0.8041
  547TMC3    C8 8124   0.578   0.677  16.918  0.1854 -0.5012 -0.2152
  547TMC3    O1 8125   0.966   0.386  17.198  0.7408  0.6239 -0.0789
  547TMC3    O2 8126   0.547   0.613  16.815 -0.2193 -0.1210  0.2870
  548MPD2     C 8127   1.288   1.495  12.279  0.4931 -0.0372  0.1282
  548MPD2    C1 8128   1.198   1.396  12.246  0.6696 -0.8046 -0.0222
  548MPD2    C2 8129   1.247   1.277  12.192  0.2159 -0.8470  0.0432
  548MPD2    C3 8130   1.378   1.260  12.163 -0.1183 -0.0574 -0.4373
  548MPD2    C4 8131   1.464   1.357  12.202  0.5891 -0.0103 -0.3370
  548MPD2    C5 8132   1.424   1.468  12.267 -0.5026 -0.0563  0.1853
  548MPD2     H 8133   1.171   1.201  12.177 -0.8750  0.1821  0.4333
  548MPD2    H1 8134   1.569   1.330  12.196 -0.3327 -3.7256  0.1297
  548MPD2    H2 8135   1.261   1.593  12.317 -1.4847  0.2471 -2.0221
  548MPD2    H3 8136   1.497   1.530  12.318 -0.4498  0.0978 -0.0766
  548MPD2     N 8137   1.431   1.142  12.098 -0.1996 -0.3231 -0.1463
  548MPD2    H5 8138   1.531   1.134  12.082  0.0752  0.6603  1.0900
  548MPD2    N1 8139   1.058   1.418  12.284 -0.1241  1.1283 -0.2689
  548MPD2    H7 8140   1.037   1.509  12.324  1.2385  1.4154 -0.2000
  549TMC3    C1 8141   0.830   1.399  12.315  0.0420 -0.1722 -0.3776
  549TMC3    C2 8142   0.815   1.537  12.310 -0.1443  0.0680 -0.3060
  549TMC3    C3 8143   0.693   1.581  12.347 -0.1863  0.6232  0.4941
  549TMC3    C4 8144   0.736   1.315  12.377  0.1306 -0.0291  0.5203
  549TMC3    C5 8145   0.613   1.367  12.407 -0.2104 -0.1017 -0.7390
  549TMC3    C6 8146   0.592   1.500  12.396 -0.8767 -0.3440  0.7375
  549TMC3     C 8147   0.955   1.336  12.273  0.5310  0.0452  0.2269
  549TMC3     O 8148   0.947   1.223  12.223 -0.3476  0.5534 -0.1504
  549TMC3     H 8149   0.889   1.608  12.274 -0.6453  0.2113 -1.0668
  549TMC3    H1 8150   0.758   1.209  12.378 -0.9238 -0.2566 -0.4509
  549TMC3    H2 8151   0.500   1.542  12.433 -0.6790  0.8279 -0.1159
  549TMC3    C7 8152   0.500   1.281  12.440 -0.0540  0.0120  0.3183
  549TMC3    C8 8153   0.656   1.718  12.311  0.5685  0.8603  0.3397
  549TMC3    O1 8154   0.388   1.337  12.442 -0.3946  0.7906  0.0115
  549TMC3    O2 8155   0.538   1.727  12.275  0.1657 -0.1296 -0.1119
  550TMC3    C1 8156   4.134   4.420  12.140 -0.6128 -0.1537  0.7243
  550TMC3    C2 8157   4.051   4.453  12.245 -0.3908 -0.0536  0.4123
  550TMC3    C3 8158   3.950   4.539  12.220 -0.5087  0.4339  0.0124
  550TMC3    C4 8159   4.108   4.471  12.014 -0.0580  0.3174  0.2877
  550TMC3    C5 8160   4.003   4.555  11.990  0.9174  0.1910  0.2535
  550TMC3    C6 8161   3.929   4.593  12.103  1.6775 -0.2057 -0.4799
  550TMC3     C 8162   4.203   4.288  12.148  0.5923  0.7642  0.0482
  550TMC3     O 8163   4.247   4.249  12.258 -0.3834 -0.0392 -0.4249
  550TMC3     H 8164   4.074   4.391  12.331 -0.3790  1.1873  1.3046
  550TMC3    H1 8165   4.180   4.451  11.935 -0.1160 -1.7893  0.7708
  550TMC3    H2 8166   3.843   4.657  12.086  1.5948  0.0463  0.8921
  550TMC3    C7 8167   3.968   4.605  11.855  0.1850  0.5851 -0.2897
  550TMC3    C8 8168   3.872   4.572  12.337  0.0148  0.1640  0.2637
  550TMC3    O1 8169   3.878   4.692  11.857 -0.7360  0.0149  0.3649
  550TMC3    O2 8170   3.784   4.655  12.316  0.0198 -0.0817  0.1015
  551TMC3    C1 8171   2.173   2.584  13.502 -0.0599 -0.8003 -0.9087
  551TMC3    C2 8172   2.228   2.692  13.427 -0.0116 -0.1349 -0.0380
  551TMC3    C3 8173   2.285   2.786  13.503  0.7707 -0.3379  0.0361
  551TMC3    C4 8174   2.192   2.566  13.642 -0.1419 -0.0758  0.6167
  551TMC3    C5 8175   2.249   2.668  13.708 -0.3556  0.2804 -0.0821
  551TMC3    C6 8176   2.289   2.783  13.644  0.1633 -0.8404  0.8856
  551TMC3     C 8177   2.060   2.512  13.441  0.0236  0.6385  0.0796
  551TMC3     O 8178   2.072   2.483  13.321  0.2675  0.0568 -0.3912
  551TMC3     H 8179   2.168   2.713  13.339  0.0415  1.4619  0.3081
  551TMC3    H1 8180   2.168   2.474  13.693  3.6477 -0.9909  0.7117
  551TMC3    H2 8181   2.329   2.867  13.699  0.1464 -2.0980  2.8422
  551TMC3    C7 8182   2.284   2.648  13.847 -0.0049 -0.0804 -0.7352
  551TMC3    C8 8183   2.307   2.913  13.444  0.1043  0.3028 -0.2974
  551TMC3    O1 8184   2.244   2.547  13.902  0.2449  0.2372  0.6615
  551TMC3    O2 8185   2.301   3.011  13.516  0.4439 -0.0089 -0.1446
  552MPD2     C 8186   3.904   4.067  13.409 -0.3445 -0.0924 -0.1692
  552MPD2    C1 8187   3.918   3.930  13.437 -0.1653  0.1590  0.0884
  552MPD2    C2 8188   3.994   3.892  13.546 -0.5026  0.3764  0.3776
  552MPD2    C3 8189   4.043   3.987  13.630 -0.3970  0.7450 -0.1260
  552MPD2    C4 8190   4.042   4.118  13.603  0.6835  0.0545  0.3678
  552MPD2    C5 8191   3.958   4.156  13.502 -0.1543  0.2199 -0.0218
  552MPD2     H 8192   4.016   3.788  13.565  0.8389  0.3618 -1.2287
  552MPD2    H1 8193   4.102   4.196  13.649 -1.4922  1.5577  0.6524
  552MPD2    H2 8194   3.846   4.117  13.332  0.8282  1.0268 -0.3331
  552MPD2    H3 8195   3.942   4.263  13.494 -1.5183 -0.0052 -0.3509
  552MPD2     N 8196   4.114   3.954  13.746 -0.4172  0.4608 -0.2684
  552MPD2    H5 8197   4.146   4.036  13.796  0.5944  0.6886 -1.2951
  552MPD2    N1 8198   3.837   3.841  13.370  0.0029 -0.4090  0.8153
  552MPD2    H7 8199   3.845   3.746  13.406  0.9225 -0.5073  0.3515
  553TMC3    C1 8200   3.700   3.761  13.197  0.2702  0.4376  0.1742
  553TMC3    C2 8201   3.712   3.763  13.060 -0.4441 -0.1594  0.9138
  553TMC3    C3 8202   3.705   3.645  12.993  1.0827 -0.2359 -0.2357
  553TMC3    C4 8203   3.691   3.642  13.268 -0.2544 -0.6891  0.2955
  553TMC3    C5 8204   3.673   3.524  13.199  0.5438  0.0301 -0.2958
  553TMC3    C6 8205   3.669   3.526  13.063  0.2667 -0.2096  0.3981
  553TMC3     C 8206   3.753   3.875  13.265  0.1868  0.0962 -0.8198
  553TMC3     O 8207   3.709   3.984  13.226  0.2404 -0.7423  0.3575
  553TMC3     H 8208   3.728   3.860  13.014  0.7956 -1.8436 -2.1552
  553TMC3    H1 8209   3.699   3.651  13.376  0.8784  0.1521  0.1470
  553TMC3    H2 8210   3.635   3.439  13.009 -2.1992  0.1685  1.3243
  553TMC3    C7 8211   3.718   3.404  13.276 -0.5069  0.4131 -0.3975
  553TMC3    C8 8212   3.821   3.625  12.916 -0.4332 -0.1251  0.9607
  553TMC3    O1 8213   3.644   3.309  13.278  0.1990 -0.2774  0.5876
  553TMC3    O2 8214   3.900   3.723  12.907  0.3306 -0.2884 -0.6094
  554TMC3    C1 8215   1.747   3.131  11.155  0.1278 -0.1941  0.3236
  554TMC3    C2 8216   1.729   3.004  11.093 -0.4353  0.0549  0.5274
  554TMC3    C3 8217   1.678   3.006  10.965 -0.3717 -0.0817 -0.3071
  554TMC3    C4 8218   1.719   3.249  11.086 -0.4208 -0.5118 -0.3884
  554TMC3    C5 8219   1.675   3.235  10.954 -0.4828 -0.2245  0.1535
  554TMC3    C6 8220   1.658   3.115  10.892  0.4393 -0.0593 -0.6183
  554TMC3     C 8221   1.807   3.142  11.291  0.2005 -0.5393 -0.0861
  554TMC3     O 8222   1.855   3.248  11.323  0.1755 -0.5596 -0.0970
  554TMC3     H 8223   1.762   2.915  11.144 -0.6374 -1.3813 -1.8780
  554TMC3    H1 8224   1.725   3.343  11.139 -0.4828  0.1297 -1.4966
  554TMC3    H2 8225   1.627   3.114  10.788  1.0961 -0.2687 -0.8132
  554TMC3    C7 8226   1.627   3.344  10.869 -0.7636 -0.2188 -0.2320
  554TMC3    C8 8227   1.599   2.901  10.912 -0.7656 -0.3091  0.0474
  554TMC3    O1 8228   1.546   3.319  10.782  0.4641  0.1267  0.2206
  554TMC3    O2 8229   1.605   2.881  10.790  0.0221  0.2933 -0.2200
  555TMC3    C1 8230   0.078   2.496  14.675  0.3111  0.2555 -0.7080
  555TMC3    C2 8231   0.045   2.598  14.761  0.7987  0.3098  0.3364
  555TMC3    C3 8232   0.050   2.571  14.890  0.4580  0.0139 -0.4923
  555TMC3    C4 8233   0.116   2.373  14.711 -0.1300 -0.6049  0.2959
  555TMC3    C5 8234   0.090   2.342  14.838  0.0759  0.1952 -0.4449
  555TMC3    C6 8235   0.060   2.440  14.930  0.5309 -0.4693 -0.3130
  555TMC3     C 8236   0.146   2.543  14.549  0.3196  1.0976  0.0372
  555TMC3     O 8237   0.262   2.506  14.533 -0.0485  0.1983  0.5257
  555TMC3     H 8238   0.027   2.694  14.714 -1.1143 -0.0066  0.4213
  555TMC3    H1 8239   0.158   2.315  14.630 -1.7932 -0.9050 -0.3489
  555TMC3    H2 8240   0.040   2.419  15.035  1.6165 -0.7064 -0.1495
  555TMC3    C7 8241   0.132   2.215  14.895 -0.0713 -0.2116  0.2150
  555TMC3    C8 8242   0.000   2.669  14.977  0.0010  0.2207 -0.5535
  555TMC3    O1 8243   0.083   2.183  15.007 -0.6135  0.2890  0.1339
  555TMC3    O2 8244   4.622   2.731  14.948  0.4201  0.0894  0.7188
  556MPD2     C 8245   3.177   4.618  10.254 -0.1808  0.4090  0.6684
  556MPD2    C1 8246   3.118   4.519  10.334 -0.3769 -0.5058  0.1440
  556MPD2    C2 8247   3.136   4.392  10.293  0.2210 -0.1203  0.1713
  556MPD2    C3 8248   3.209   4.357  10.182 -0.4970  0.3288 -0.3141
  556MPD2    C4 8249   3.277   4.455  10.114 -0.4145 -0.0000  0.8487
  556MPD2    C5 8250   3.266   4.580  10.156  0.0741 -0.5496  0.1379
  556MPD2     H 8251   3.086   4.314  10.349 -1.3200 -0.5564 -1.8231
  556MPD2    H1 8252   3.337   4.446  10.023 -1.1409  0.4107  0.3309
  556MPD2    H2 8253   3.168   0.003  10.277 -0.3904  0.1731  1.6689
  556MPD2    H3 8254   3.324   4.657  10.106 -0.7593  0.8269  1.2822
  556MPD2     N 8255   3.220   4.221  10.147  0.4117  0.1364  0.3831
  556MPD2    H5 8256   3.167   4.156  10.204  0.8923  0.2070  0.9122
  556MPD2    N1 8257   3.064   4.547  10.463  0.3978 -0.6247 -0.1325
  556MPD2    H7 8258   3.030   4.465  10.513 -0.8781  0.1199  0.2255
  557TMC3    C1 8259   3.264   4.013  10.023 -0.3631 -0.8780 -0.0716
  557TMC3    C2 8260   3.298   3.953   9.905  0.7181  0.0002 -0.9123
  557TMC3    C3 8261   3.224   3.841   9.877  0.5523 -0.6394 -0.3639
  557TMC3    C4 8262   3.173   3.956  10.112  0.2080  0.0168 -0.2861
  557TMC3    C5 8263   3.105   3.848  10.067  0.0357  0.8133  0.2927
  557TMC3    C6 8264   3.128   3.780   9.950 -0.1490  0.0477  0.4757
  557TMC3     C 8265   3.296   4.157  10.045  0.7876  0.2107  0.8421
  557TMC3     O 8266   3.362   4.204   9.956  0.0059  0.1419  0.2722
  557TMC3     H 8267   3.374   3.995   9.839 -1.3882  2.5924 -1.6916
  557TMC3    H1 8268   3.131   4.000  10.202  0.5485 -2.5367  1.1372
  557TMC3    H2 8269   3.072   3.695   9.912 -2.3453  1.7540 -0.1132
  557TMC3    C7 8270   3.060   3.752  10.171 -0.1686  0.3604  0.6256
  557TMC3    C8 8271   3.251   3.781   9.745 -0.1360  0.3610 -0.0256
  557TMC3    O1 8272   2.961   3.685  10.140  0.3875 -0.2733  0.0260
  557TMC3    O2 8273   3.360   3.812   9.693  0.3186 -0.0390 -0.0941
  558TMC3    C1 8274   0.846   1.592  10.402 -0.1852  0.4351 -0.4111
  558TMC3    C2 8275   0.752   1.638  10.489  0.7855  0.3356  0.1141
  558TMC3    C3 8276   0.624   1.609  10.455 -0.7171 -0.4717 -0.0200
  558TMC3    C4 8277   0.820   1.511  10.294  0.3872 -0.3237 -0.5854
  558TMC3    C5 8278   0.690   1.471  10.272  0.1000  0.2714 -0.4666
  558TMC3    C6 8279   0.592   1.518  10.353 -0.6015  0.1813 -0.2657
  558TMC3     C 8280   0.987   1.626  10.424 -0.5399  0.2010 -0.3637
  558TMC3     O 8281   1.057   1.639  10.326 -0.0185 -0.2436  0.1342
  558TMC3     H 8282   0.790   1.704  10.566  0.0748  1.7427 -0.7426
  558TMC3    H1 8283   0.906   1.475  10.238  0.2928  1.2431 -1.7319
  558TMC3    H2 8284   0.492   1.509  10.313 -1.3075  0.6900  1.4096
  558TMC3    C7 8285   0.659   1.405  10.146 -0.0797 -0.2352  0.3019
  558TMC3    C8 8286   0.507   1.665  10.523 -0.4779 -0.9486 -0.3053
  558TMC3    O1 8287   0.547   1.425  10.098  0.3056 -0.1997 -0.5226
  558TMC3    O2 8288   0.403   1.668  10.460 -0.7806 -0.2601  0.2404
  559MPD2     C 8289   1.002   2.391  10.438  0.3412  0.2171  0.1662
  559MPD2    C1 8290   0.942   2.382  10.559  0.0321  0.3512 -0.2752
  559MPD2    C2 8291   1.011   2.384  10.670 -0.0455 -0.1263 -0.5674
  559MPD2    C3 8292   1.147   2.386  10.669  0.2193 -0.5477  0.2025
  559MPD2    C4 8293   1.219   2.373  10.555  0.0575 -1.1750 -0.3012
  559MPD2    C5 8294   1.140   2.383  10.441 -0.5117  0.5395  0.3253
  559MPD2     H 8295   0.952   2.377  10.761 -0.0024 -0.2041 -0.5452
  559MPD2    H1 8296   1.327   2.360  10.552  0.3563  0.7761  2.6970
  559MPD2    H2 8297   0.956   2.401  10.340  2.7652  0.3191 -0.9661
  559MPD2    H3 8298   1.186   2.382  10.342 -3.2979  1.1594 -0.9902
  559MPD2     N 8299   1.209   2.385  10.797  0.2896  0.4487  0.1421
  559MPD2    H5 8300   1.145   2.384  10.875 -0.6570 -1.0556 -0.6489
  559MPD2    N1 8301   0.803   2.380  10.564 -0.0355  0.1948 -0.0916
  559MPD2    H7 8302   0.759   2.388  10.655  0.0872  3.0483 -0.2786
  560TMC3    C1 8303   1.379   2.391  10.961  0.5110  0.2657  0.3576
  560TMC3    C2 8304   1.302   2.311  11.035 -0.0922  1.0605 -0.6161
  560TMC3    C3 8305   1.317   2.316  11.173  0.1748 -0.7584 -0.2444
  560TMC3    C4 8306   1.465   2.477  11.011  0.4400 -0.2149 -0.1356
  560TMC3    C5 8307   1.511   2.460  11.140 -0.1348  0.1168 -0.1526
  560TMC3    C6 8308   1.423   2.393  11.222 -0.2803 -0.3463 -0.0391
  560TMC3     C 8309   1.343   2.409  10.823  0.1917  0.4764 -0.8814
  560TMC3     O 8310   1.437   2.443  10.750  0.2562 -0.4141  0.1440
  560TMC3     H 8311   1.230   2.238  11.000  0.3383  0.3941 -0.1239
  560TMC3    H1 8312   1.486   2.565  10.950  2.6309  0.2509  1.2722
  560TMC3    H2 8313   1.439   2.399  11.329  1.1682 -0.4489 -0.2486
  560TMC3    C7 8314   1.606   2.554  11.193  0.3604  0.4238  0.6570
  560TMC3    C8 8315   1.209   2.266  11.256 -0.0644 -0.1817 -0.1938
  560TMC3    O1 8316   1.603   2.585  11.308  0.0325  0.1355 -0.9477
  560TMC3    O2 8317   1.102   2.248  11.206  0.4146  0.2358  0.6988
  561TMC3    C1 8318   3.634   1.609  11.207 -0.2278  0.0109  0.3689
  561TMC3    C2 8319   3.546   1.520  11.263 -0.4875 -0.0193  0.2096
  561TMC3    C3 8320   3.451   1.581  11.347 -0.3737 -0.9920 -0.1779
  561TMC3    C4 8321   3.625   1.744  11.226 -0.2921  0.5484 -0.1166
  561TMC3    C5 8322   3.520   1.798  11.291  0.0527 -0.0200  0.2498
  561TMC3    C6 8323   3.441   1.719  11.362  0.4722  0.0084 -0.3162
  561TMC3     C 8324   3.773   1.555  11.199  0.4579 -0.4097  0.2611
  561TMC3     O 8325   3.860   1.636  11.180 -0.0196 -0.0411  0.3727
  561TMC3     H 8326   3.553   1.415  11.239 -0.6654  0.0175 -0.0015
  561TMC3    H1 8327   3.711   1.803  11.196  3.9204 -4.4368  2.1008
  561TMC3    H2 8328   3.358   1.766  11.413  0.6114 -0.1285  0.0391
  561TMC3    C7 8329   3.494   1.940  11.279  0.0877  0.0935  0.3705
  561TMC3    C8 8330   3.363   1.488  11.419  0.2823 -0.0497 -0.9413
  561TMC3    O1 8331   3.404   1.983  11.355 -0.2165  0.6556  0.2104
  561TMC3    O2 8332   3.387   1.368  11.406 -0.1019 -0.1064  0.7460
  562TMC3    C1 8333   4.302   3.013  15.871 -0.3166  0.5630 -0.1278
  562TMC3    C2 8334   4.213   3.111  15.837 -0.4506  0.7500  0.1494
  562TMC3    C3 8335   4.172   3.142  15.709 -0.3716 -0.5001  0.1020
  562TMC3    C4 8336   4.357   2.938  15.773 -0.2197 -0.6074  0.2244
  562TMC3    C5 8337   4.327   2.985  15.644  0.3096  0.2607  0.2318
  562TMC3    C6 8338   4.232   3.073  15.611 -0.4173 -0.1398  0.0324
  562TMC3     C 8339   4.324   2.982  16.010  0.1287  0.3668  0.6581
  562TMC3     O 8340   4.264   3.053  16.088  0.0815  0.0989 -0.1141
  562TMC3     H 8341   4.164   3.169  15.914 -0.7241 -0.1403  0.6487
  562TMC3    H1 8342   4.457   2.903  15.793 -0.1952 -0.2696  0.7213
  562TMC3    H2 8343   4.206   3.090  15.507  0.0681 -1.4091 -0.3055
  562TMC3    C7 8344   4.381   2.908  15.532  0.1091  0.2418  0.3131
  562TMC3    C8 8345   4.044   3.205  15.685  0.3920 -0.4099  0.1830
  562TMC3    O1 8346   4.337   2.940  15.417  0.1040  0.2111  0.1029
  562TMC3    O2 8347   3.968   3.190  15.781  0.8816 -0.4949 -0.0551
  563MPD2     C 8348   2.591   3.750  15.531  0.2703 -0.1476 -0.4232
  563MPD2    C1 8349   2.530   3.745  15.659 -0.8382 -0.0848 -0.2908
  563MPD2    C2 8350   2.606   3.774  15.767  0.1166  0.4190 -0.7598
  563MPD2    C3 8351   2.737   3.811  15.752 -0.1797  0.9869  0.7877
  563MPD2    C4 8352   2.794   3.825  15.627  0.0048  0.3645 -0.1694
  563MPD2    C5 8353   2.721   3.792  15.520 -0.6168 -0.0411  0.4416
  563MPD2     H 8354   2.565   3.761  15.866 -1.0277  0.0043 -1.2818
  563MPD2    H1 8355   2.900   3.843  15.616 -0.0401  1.1029  0.5500
  563MPD2    H2 8356   2.531   3.732  15.442 -0.1065 -1.2361  0.0525
  563MPD2    H3 8357   2.768   3.797  15.422  0.9246 -1.5335  1.1006
  563MPD2     N 8358   2.806   3.834  15.879 -0.0758  0.1192  0.6413
  563MPD2    H5 8359   2.754   3.811  15.962 -0.8023  0.1913  0.2062
  563MPD2    N1 8360   2.400   3.710  15.688 -0.1294 -0.1426 -0.0053
  563MPD2    H7 8361   2.383   3.700  15.787  2.2464  0.1258  0.4288
  564TMC3    C1 8362   2.169   3.688  15.666 -0.1556 -0.3236  0.1033
  564TMC3    C2 8363   2.096   3.576  15.627 -0.0382  0.3451 -0.0624
  564TMC3    C3 8364   2.003   3.532  15.722  0.1238  0.0302  0.6327
  564TMC3    C4 8365   2.165   3.738  15.797 -0.1430 -0.0189  0.1403
  564TMC3    C5 8366   2.074   3.679  15.878 -0.3971 -0.7054  0.1457
  564TMC3    C6 8367   1.993   3.582  15.844 -0.5397  0.0518 -0.4804
  564TMC3     C 8368   2.292   3.709  15.600 -0.3895  0.0517  0.0530
  564TMC3     O 8369   2.283   3.717  15.478  0.0640 -0.4498  0.0401
  564TMC3     H 8370   2.134   3.518  15.543 -0.5878  0.6472 -0.5202
  564TMC3    H1 8371   2.215   3.828  15.828  1.2825 -0.6036 -0.4651
  564TMC3    H2 8372   1.907   3.569  15.909  0.8949 -1.7839  1.0367
  564TMC3    C7 8373   2.120   3.683  16.011 -0.3169  0.8416  0.3429
  564TMC3    C8 8374   1.922   3.414  15.701 -1.2688 -0.1438 -0.1630
  564TMC3    O1 8375   2.201   3.768  16.047  0.2588  0.0729 -0.2608
  564TMC3    O2 8376   1.891   3.344  15.797  0.0368  0.2340  0.4874
  565TMC3    C1 8377   2.369   0.183   9.771  0.8303 -0.2555  0.8209
  565TMC3    C2 8378   2.400   0.181   9.904 -0.1667 -0.0285  0.3248
  565TMC3    C3 8379   2.333   0.087   9.982  0.3537  0.1486  0.2228
  565TMC3    C4 8380   2.263   0.110   9.724  1.1169  0.7487  0.0595
  565TMC3    C5 8381   2.178   0.039   9.812  0.0643  0.3404  0.0497
  565TMC3    C6 8382   2.219   0.026   9.943 -0.5188 -0.3861  0.2156
  565TMC3     C 8383   2.411   0.295   9.694  0.2752  0.0365  0.0565
  565TMC3     O 8384   2.331   0.341   9.610  0.2858  0.0216 -0.0115
  565TMC3     H 8385   2.493   0.229   9.933 -0.3274  0.6751 -0.3604
  565TMC3    H1 8386   2.231   0.109   9.620 -0.7950  1.4264  0.6323
  565TMC3    H2 8387   2.158   4.693  10.015  0.0266  0.8249  1.5810
  565TMC3    C7 8388   2.073   4.671   9.764  0.2582  0.4825  0.2542
  565TMC3    C8 8389   2.376   0.101  10.120  0.2894 -0.3616 -0.1908
  565TMC3    O1 8390   2.019   4.592   9.843 -0.2224 -0.8923  0.2708
  565TMC3    O2 8391   2.483   0.158  10.146  0.1522  0.0727  0.2597
  566MPD2     C 8392   3.858   2.646  13.935 -0.6550 -0.0200 -0.3707
  566MPD2    C1 8393   3.976   2.586  13.892 -0.0788 -0.2050 -0.3465
  566MPD2    C2 8394   3.978   2.462  13.827 -0.1364 -0.6208  0.3329
  566MPD2    C3 8395   3.857   2.398  13.813  0.2957 -0.5904  0.5866
  566MPD2    C4 8396   3.738   2.455  13.861  0.3935  0.9023 -0.1026
  566MPD2    C5 8397   3.741   2.575  13.923 -0.3788  1.1634  0.0923
  566MPD2     H 8398   4.072   2.429  13.783 -0.4683 -0.8326 -0.2100
  566MPD2    H1 8399   3.646   2.399  13.846  1.4406 -1.0044  0.6982
  566MPD2    H2 8400   3.848   2.740  13.986  0.1964  0.6038 -1.3594
  566MPD2    H3 8401   3.644   2.620  13.939 -1.1530  0.0996 -1.5174
  566MPD2     N 8402   3.841   2.269  13.756  0.7690 -0.1879 -0.3685
  566MPD2    H5 8403   3.753   2.220  13.759  0.9965 -0.6169 -0.6088
  566MPD2    N1 8404   4.092   2.663  13.910  0.1893 -0.0226 -0.1616
  566MPD2    H7 8405   4.090   2.734  13.982  1.8563 -1.5800  1.4202
  567TMC3    C1 8406   4.326   2.702  13.904 -0.3297 -0.9402  0.8114
  567TMC3    C2 8407   4.398   2.759  13.807  0.3820 -0.6321 -0.2654
  567TMC3    C3 8408   4.533   2.748  13.803 -0.2637  0.4274 -0.5223
  567TMC3    C4 8409   4.381   2.635  14.011 -0.4291  0.3490 -0.1950
  567TMC3    C5 8410   4.524   2.637  14.015 -0.4082 -0.7863 -0.1798
  567TMC3    C6 8411   4.600   2.680  13.908 -0.1243 -0.1692  0.4449
  567TMC3     C 8412   4.211   2.636  13.841  0.0442 -0.6222  0.6951
  567TMC3     O 8413   4.233   2.576  13.735 -0.0102 -0.3048  0.1241
  567TMC3     H 8414   4.349   2.812  13.726  1.8023  1.3150  0.1597
  567TMC3    H1 8415   4.321   2.581  14.084  0.1592  1.5218  1.1531
  567TMC3    H2 8416   4.707   2.666  13.912 -0.1053 -0.1943 -0.1676
  567TMC3    C7 8417   4.590   2.530  14.093  0.1104 -0.4724  0.3510
  567TMC3    C8 8418   4.586   2.755  13.667  0.1251  0.0876  0.1051
  567TMC3    O1 8419   4.698   2.488  14.052 -0.1565  0.4656  0.1065
  567TMC3    O2 8420   4.529   2.822  13.580 -0.0056  1.0231  0.3901
  568MPD2     C 8421   1.789   2.035  16.053 -0.4920  0.0382 -0.2856
  568MPD2    C1 8422   1.821   2.143  16.123  0.0868 -0.2704  0.2763
  568MPD2    C2 8423   1.784   2.277  16.084 -0.0866  0.1462 -0.1085
  568MPD2    C3 8424   1.711   2.291  15.972 -0.9002 -0.1705 -0.1249
  568MPD2    C4 8425   1.672   2.177  15.904  0.1297 -0.4985 -0.0537
  568MPD2    C5 8426   1.711   2.050  15.951 -0.2352 -0.1336  0.4210
  568MPD2     H 8427   1.823   2.367  16.130 -0.3117  0.7079 -1.0165
  568MPD2    H1 8428   1.618   2.179  15.810 -1.5804 -1.9386  0.9008
  568MPD2    H2 8429   1.823   1.940  16.093 -0.7116  0.6488  1.3744
  568MPD2    H3 8430   1.681   1.963  15.894  0.4824 -1.0160  1.3816
  568MPD2     N 8431   1.680   2.426  15.929  0.1379  0.4661  0.4255
  568MPD2    H5 8432   1.692   2.500  15.997 -1.2369  0.0299  1.1440
  568MPD2    N1 8433   1.903   2.125  16.238  0.3442 -0.0225  0.2416
  568MPD2    H7 8434   1.951   2.037  16.253  3.0810  1.7855  2.1063
  569TMC3    C1 8435   1.575   2.577  15.807  0.3230  0.1885 -0.1569
  569TMC3    C2 8436   1.539   2.639  15.924  0.3378 -0.3880  0.3519
  569TMC3    C3 8437   1.520   2.772  15.921  0.1260 -0.0483  0.3921
  569TMC3    C4 8438   1.584   2.638  15.685  0.4238  0.9511  0.1175
  569TMC3    C5 8439   1.578   2.775  15.693 -0.1477 -0.4058 -0.2632
  569TMC3    C6 8440   1.539   2.838  15.805  0.1889  0.1618 -0.3064
  569TMC3     C 8441   1.614   2.442  15.811 -0.6350  0.6657  0.1322
  569TMC3     O 8442   1.592   2.376  15.713 -0.3093 -0.9570  0.1023
  569TMC3     H 8443   1.514   2.583  16.014  1.3347 -0.6123  0.4881
  569TMC3    H1 8444   1.617   2.589  15.594  1.5764  2.6077 -0.3507
  569TMC3    H2 8445   1.527   2.945  15.806 -1.3095 -0.0040 -0.5765
  569TMC3    C7 8446   1.625   2.845  15.573  0.2930  0.1543  0.1076
  569TMC3    C8 8447   1.463   2.835  16.037 -0.4350  0.7240 -0.1476
  569TMC3    O1 8448   1.616   2.794  15.460 -0.0498  0.1686  0.1818
  569TMC3    O2 8449   1.385   2.779  16.107  0.4236 -0.1767 -0.0254
  570TMC3    C1 8450   1.192   1.371  15.902  0.0512  0.2422 -0.1013
  570TMC3    C2 8451   1.287   1.342  15.803  0.1319 -0.2002  0.2886
  570TMC3    C3 8452   1.269   1.406  15.686 -0.0532  0.6224 -0.3301
  570TMC3    C4 8453   1.066   1.422  15.873 -0.3040 -0.4327 -0.1441
  570TMC3    C5 8454   1.056   1.477  15.748  0.2273  0.1847 -0.9741
  570TMC3    C6 8455   1.151   1.474  15.653 -0.0052  0.2515 -0.4848
  570TMC3     C 8456   1.210   1.305  16.030 -0.2509 -1.0784 -0.2916
  570TMC3     O 8457   1.267   1.194  16.021  0.4510 -0.0227 -0.2285
  570TMC3     H 8458   1.379   1.292  15.832 -0.3993 -1.3070  0.0788
  570TMC3    H1 8459   0.983   1.429  15.943  0.5493  0.3957  0.7780
  570TMC3    H2 8460   1.136   1.529  15.561 -2.4745 -2.7895 -1.8932
  570TMC3    C7 8461   0.970   1.592  15.727 -0.5140  0.6383 -0.1626
  570TMC3    C8 8462   1.387   1.479  15.632 -0.0043 -0.3018 -0.3117
  570TMC3    O1 8463   0.885   1.596  15.641  0.2351 -0.3292  0.4150
  570TMC3    O2 8464   1.373   1.595  15.603 -0.0756 -0.6331  0.1627
  571MPD2     C 8465   4.042   2.539  17.303  0.4701 -0.2745  0.1422
  571MPD2    C1 8466   3.910   2.539  17.335  0.4031 -0.2970  0.8421
  571MPD2    C2 8467   3.848   2.654  17.380 -0.7289 -0.8474  0.4612
  571MPD2    C3 8468   3.922   2.769  17.396  0.5490 -0.2828 -0.2525
  571MPD2    C4 8469   4.052   2.772  17.357 -0.5223 -0.1027  0.2088
  571MPD2    C5 8470   4.111   2.659  17.312  0.2971 -0.2661  0.2054
  571MPD2     H 8471   3.741   2.647  17.395 -0.6182  1.2527  2.2875
  571MPD2    H1 8472   4.125   2.850  17.375  0.5909 -1.3511  1.1578
  571MPD2    H2 8473   4.096   2.449  17.279 -0.6587 -1.6891  2.7967
  571MPD2    H3 8474   4.218   2.657  17.295  0.0120 -0.0376 -1.5790
  571MPD2     N 8475   3.878   2.883  17.461 -0.9480 -0.3344 -0.3185
  571MPD2    H5 8476   3.941   2.962  17.467  0.5972 -1.5007 -1.3354
  571MPD2    N1 8477   3.844   2.416  17.332 -0.2271 -0.1494  0.0480
  571MPD2    H7 8478   3.897   2.333  17.309  0.6781  0.8048 -1.2916
  572TMC3    C1 8479   3.746   3.021  17.586 -0.4086  1.0727 -0.3835
  572TMC3    C2 8480   3.710   3.013   0.033  0.4021 -0.1143  0.0401
  572TMC3    C3 8481   3.785   3.081   0.127 -1.0086 -1.1196 -0.3681
  572TMC3    C4 8482   3.838   3.113  17.543 -0.5746  0.7203  0.1355
  572TMC3    C5 8483   3.888   3.193  17.643  0.6214 -0.0095  0.3240
  572TMC3    C6 8484   3.870   3.182   0.091  0.0743 -1.1611  0.0034
  572TMC3     C 8485   3.752   2.894  17.522  0.0767 -0.4433  0.0695
  572TMC3     O 8486   3.670   2.805  17.550  0.0034  0.0636  0.2342
  572TMC3     H 8487   3.643   2.932   0.062 -0.3331  0.5729  0.2801
  572TMC3    H1 8488   3.861   3.127  17.438  0.9011 -1.1532  0.2270
  572TMC3    H2 8489   3.903   3.258   0.160 -2.4733  1.1601 -1.3095
  572TMC3    C7 8490   3.938   3.324  17.596  1.0478 -0.0493 -0.4707
  572TMC3    C8 8491   3.745   3.077   0.263 -0.2005  0.0474  0.5682
  572TMC3    O1 8492   3.883   3.369  17.494  0.3425 -0.1382  0.4153
  572TMC3    O2 8493   3.649   3.006   0.288 -0.3020 -0.7873  0.4058
  573MPD2     C 8494   0.777   4.024   0.799 -1.2383  0.3868  0.5234
  573MPD2    C1 8495   0.803   4.123   0.708  0.8536  0.3266 -0.0036
  573MPD2    C2 8496   0.768   4.105   0.576  0.3984 -0.0521  0.3287
  573MPD2    C3 8497   0.711   3.984   0.539 -0.2977  0.3570 -0.1609
  573MPD2    C4 8498   0.693   3.882   0.627 -0.7139  0.0246 -0.0507
  573MPD2    C5 8499   0.721   3.908   0.758  0.0983  0.0932 -0.4748
  573MPD2     H 8500   0.772   4.189   0.508  1.1260 -1.4539 -1.3536
  573MPD2    H1 8501   0.658   3.784   0.597 -1.8468  0.9406 -1.7167
  573MPD2    H2 8502   0.797   4.033   0.905  0.8280 -2.4823  0.3644
  573MPD2    H3 8503   0.710   3.829   0.832  2.8309  0.6079  0.4901
  573MPD2     N 8504   0.677   3.963   0.402 -0.1829  0.1762  0.4912
  573MPD2    H5 8505   0.626   3.877   0.382  0.0020  0.6804 -2.1664
  573MPD2    N1 8506   0.870   4.238   0.761  0.2283 -1.0688  0.8572
  573MPD2    H7 8507   0.903   4.226   0.856  2.1950 -0.7091  0.2242
  574TMC3    C1 8508   0.675   4.004   0.167  0.2777  0.5578  0.4156
  574TMC3    C2 8509   0.548   3.952   0.164  0.2633 -0.6914 -0.1030
  574TMC3    C3 8510   0.506   3.909   0.044  0.2491 -0.2714 -0.4581
  574TMC3    C4 8511   0.755   4.023   0.063  0.0627 -0.5507  0.4881
  574TMC3    C5 8512   0.707   3.975  17.634  0.3410  0.2386  0.4715
  574TMC3    C6 8513   0.586   3.920  17.622  0.0618 -0.1533 -0.2946
  574TMC3     C 8514   0.731   4.036   0.302 -0.7118 -0.0193 -0.1120
  574TMC3     O 8515   0.830   4.112   0.299 -0.1239  0.1501 -0.5048
  574TMC3     H 8516   0.483   3.955   0.251  0.0972 -1.9784 -0.1729
  574TMC3    H1 8517   0.855   4.064   0.067 -0.6607  1.4719 -1.6019
  574TMC3    H2 8518   0.552   3.888  17.524  0.0230  1.8395 -0.9269
  574TMC3    C7 8519   0.793   4.000  17.516 -0.2232  0.3902 -0.0771
  574TMC3    C8 8520   0.367   3.892   0.039 -0.4893 -0.7269  0.5344
  574TMC3    O1 8521   0.887   4.077  17.527  0.2630  0.3246  0.5548
  574TMC3    O2 8522   0.308   3.823   0.116  0.2335 -0.0489 -0.2908
  575TMC3    C1 8523   2.938   0.365  10.654  0.2468 -0.1586  0.4030
  575TMC3    C2 8524   2.893   0.414  10.775  0.2005  0.0958  0.2029
  575TMC3    C3 8525   2.784   0.350  10.826  0.2528  0.1443  0.5551
  575TMC3    C4 8526   2.881   0.253  10.596  0.2413 -0.4095 -0.3893
  575TMC3    C5 8527   2.781   0.186  10.657 -0.3270 -0.7010  0.0209
  575TMC3    C6 8528   2.733   0.235  10.778 -0.2909  0.0230 -0.1872
  575TMC3     C 8529   3.062   0.427  10.601  0.0784  0.1417  0.9026
  575TMC3     O 8530   3.093   0.542  10.640  0.4221  0.3250  0.4131
  575TMC3     H 8531   2.953   0.489  10.824  2.7051 -1.1930 -0.8833
  575TMC3    H1 8532   2.921   0.231  10.498  1.1781  1.3572 -0.3997
  575TMC3    H2 8533   2.645   0.200  10.830  1.9672 -1.8437  2.4184
  575TMC3    C7 8534   2.693   0.109  10.570 -0.5965 -0.9092 -0.2447
  575TMC3    C8 8535   2.723   0.398  10.950  0.6559  0.1320 -0.2806
  575TMC3    O1 8536   2.729   0.065  10.462 -0.0099 -0.0865  0.2230
  575TMC3    O2 8537   2.702   0.307  11.029 -0.2964  0.9549 -0.2228
  576MPD2     C 8538   2.383   1.815  12.503  0.6740  0.3032 -0.5969
  576MPD2    C1 8539   2.456   1.919  12.443  0.3774 -0.1426  0.1908
  576MPD2    C2 8540   2.448   2.044  12.489 -0.5113  0.1809 -0.8599
  576MPD2    C3 8541   2.371   2.080  12.595  0.1019 -0.0077 -0.1793
  576MPD2    C4 8542   2.283   1.983  12.639  0.6098  0.1483 -0.3527
  576MPD2    C5 8543   2.293   1.848  12.599 -0.1288  0.3281  0.0338
  576MPD2     H 8544   2.505   2.116  12.431  0.0058 -1.0935 -1.9174
  576MPD2    H1 8545   2.214   2.002  12.720  1.5868  0.6336  0.3610
  576MPD2    H2 8546   2.380   1.713  12.469  0.8624 -0.1264  0.6783
  576MPD2    H3 8547   2.224   1.775  12.639  1.7117 -1.8814 -0.7763
  576MPD2     N 8548   2.380   2.208  12.652 -0.7566  0.0810  0.4867
  576MPD2    H5 8549   2.442   2.278  12.613 -2.7035  1.2189 -0.5630
  576MPD2    N1 8550   2.541   1.898  12.330 -0.8393  0.2889 -0.2087
  576MPD2    H7 8551   2.575   1.986  12.292  1.6244 -0.0081  1.2743
  577TMC3    C1 8552   2.698   1.809  12.192  0.0738 -0.4372  0.1397
  577TMC3    C2 8553   2.724   1.702  12.109  0.7431  0.1900 -0.4140
  577TMC3    C3 8554   2.790   1.721  11.986 -0.2726 -0.6286 -0.6369
  577TMC3    C4 8555   2.731   1.939  12.158  0.3460 -0.3958  0.5413
  577TMC3    C5 8556   2.781   1.954  12.033  0.2095 -0.1757 -0.7521
  577TMC3    C6 8557   2.811   1.849  11.942 -0.1290  0.5765 -0.0355
  577TMC3     C 8558   2.591   1.779  12.281  0.0707  0.1717 -0.8745
  577TMC3     O 8559   2.557   1.664  12.312  0.6216 -0.4324 -0.2953
  577TMC3     H 8560   2.708   1.601  12.147  1.3457  0.8183  1.5211
  577TMC3    H1 8561   2.728   2.020  12.230 -1.7972  1.9676 -2.2078
  577TMC3    H2 8562   2.855   1.867  11.844  2.1531 -1.4812  0.6081
  577TMC3    C7 8563   2.830   2.090  12.008 -0.3739 -0.3110  0.0864
  577TMC3    C8 8564   2.853   1.602  11.923  0.3212 -0.2556 -0.5066
  577TMC3    O1 8565   2.830   2.173  12.100 -0.1575  0.0163  0.0865
  577TMC3    O2 8566   2.817   1.498  11.975 -0.4641 -0.0932  0.0243
  578MPD2     C 8567   1.373   2.130   1.690  0.3698  0.9872 -0.5603
  578MPD2    C1 8568   1.380   2.140   1.551  0.1659  0.2296  0.3928
  578MPD2    C2 8569   1.472   2.061   1.480 -1.9117 -1.2168 -0.5388
  578MPD2    C3 8570   1.561   1.976   1.545 -0.0720 -0.1689 -0.4423
  578MPD2    C4 8571   1.550   1.965   1.678  0.1485  0.4172 -0.1053
  578MPD2    C5 8572   1.461   2.035   1.752  0.1706  0.5218  0.0466
  578MPD2     H 8573   1.472   2.054   1.372  0.1728  2.6075 -0.7969
  578MPD2    H1 8574   1.606   1.892   1.735  1.8173  1.0734 -0.8970
  578MPD2    H2 8575   1.310   2.196   1.750 -1.1679 -0.8278 -0.1781
  578MPD2    H3 8576   1.466   2.016   1.858  0.7532 -0.1273 -0.1019
  578MPD2     N 8577   1.648   1.898   1.466 -0.2300 -0.1021  0.4219
  578MPD2    H5 8578   1.638   1.915   1.366 -0.0512 -0.8779  0.2729
  578MPD2    N1 8579   1.301   2.245   1.499  0.2309  0.1147  0.3000
  578MPD2    H7 8580   1.249   2.300   1.566 -0.1011 -0.1419  0.2513
  579TMC3    C1 8581   1.829   1.756   1.390  0.8235  0.0219  0.1631
  579TMC3    C2 8582   1.963   1.741   1.395  0.0313 -0.0640 -0.3206
  579TMC3    C3 8583   2.030   1.700   1.284 -0.8677 -0.3736 -0.1143
  579TMC3    C4 8584   1.753   1.707   1.283  0.6379 -0.1342 -0.7298
  579TMC3    C5 8585   1.828   1.669   1.178  0.9587  0.4668  0.0805
  579TMC3    C6 8586   1.965   1.654   1.180 -0.6740 -1.3191 -0.3310
  579TMC3     C 8587   1.764   1.830   1.501  0.1163 -0.1180  0.7161
  579TMC3     O 8588   1.823   1.834   1.609  0.0985 -0.4649 -0.0914
  579TMC3     H 8589   2.016   1.781   1.480 -1.2119 -1.4382  1.1037
  579TMC3    H1 8590   1.645   1.699   1.282  0.5733  0.5014  0.9193
  579TMC3    H2 8591   2.019   1.624   1.091 -0.3683  0.2337 -0.6665
  579TMC3    C7 8592   1.769   1.601   1.061  0.4471 -1.2375 -0.2953
  579TMC3    C8 8593   2.167   1.754   1.268 -0.1397  0.2925  0.2006
  579TMC3    O1 8594   1.833   1.517   1.005 -0.3765  0.0224  0.1588
  579TMC3    O2 8595   2.186   1.858   1.327 -0.4486  0.4184  0.1096
  580TMC3    C1 8596   0.308   0.455  11.657  0.0165  0.2498  0.1119
  580TMC3    C2 8597   0.428   0.495  11.600  0.6153  0.2208  0.0851
  580TMC3    C3 8598   0.540   0.500  11.678 -0.2067  0.4598 -0.0373
  580TMC3    C4 8599   0.303   0.394  11.782 -0.3722 -0.6457 -0.2706
  580TMC3    C5 8600   0.420   0.389  11.848 -0.3089 -0.5037 -0.4252
  580TMC3    C6 8601   0.537   0.451  11.804 -0.3429 -0.2985 -0.3832
  580TMC3     C 8602   0.229   0.569  11.669  0.8657  0.0304  0.3470
  580TMC3     O 8603   0.219   0.643  11.570  0.0470 -0.0469 -0.2884
  580TMC3     H 8604   0.409   0.550  11.508 -1.5026 -1.5740 -0.5370
  580TMC3    H1 8605   0.213   0.352  11.826  1.7209 -3.0608  1.6700
  580TMC3    H2 8606   0.630   0.441  11.860  1.0404 -0.7039 -2.7818
  580TMC3    C7 8607   0.429   0.313  11.966 -0.5363  0.0954  0.2104
  580TMC3    C8 8608   0.631   0.605  11.651 -0.0001 -0.1393  0.7695
  580TMC3    O1 8609   0.340   0.319  12.054 -0.0359 -0.2660  0.4277
  580TMC3    O2 8610   0.621   0.650  11.542 -0.3787 -0.1095  0.1309
  581MPD2     C 8611   2.894   0.852  14.282  0.4846  0.4197 -0.1707
  581MPD2    C1 8612   2.904   0.855  14.423 -0.1205  0.4612 -0.4983
  581MPD2    C2 8613   2.792   0.887  14.495  0.0200  1.1567 -0.7524
  581MPD2    C3 8614   2.664   0.911  14.432  0.0240 -0.4735  0.0181
  581MPD2    C4 8615   2.658   0.902  14.295  0.6127  0.0482 -0.1731
  581MPD2    C5 8616   2.773   0.883  14.227 -0.7794  0.3004  0.2852
  581MPD2     H 8617   2.794   0.902  14.602  0.3108  0.3712 -0.6497
  581MPD2    H1 8618   2.575   0.934  14.233 -0.9106  0.9611  2.3460
  581MPD2    H2 8619   2.978   0.819  14.222  0.6050 -1.0157  0.7885
  581MPD2    H3 8620   2.764   0.880  14.119 -0.8194 -0.1958  0.3058
  581MPD2     N 8621   2.553   0.939  14.507  0.2194  0.6019 -0.1027
  581MPD2    H5 8622   2.563   0.971  14.603  1.4585  0.2521 -0.1110
  581MPD2    N1 8623   3.021   0.817  14.488  0.1748 -0.6512  0.3080
  581MPD2    H7 8624   3.107   0.803  14.435 -0.6805 -0.2732 -1.1916
  582TMC3    C1 8625   3.135   0.688  14.628 -0.7291  0.6756 -0.4925
  582TMC3    C2 8626   3.223   0.694  14.727 -0.4446  0.6425  0.2886
  582TMC3    C3 8627   3.260   0.580  14.789  0.3038 -0.2392 -0.3861
  582TMC3    C4 8628   3.078   0.569  14.596  0.3976 -0.0053 -0.5432
  582TMC3    C5 8629   3.113   0.455  14.659  0.2552  0.1448 -0.1352
  582TMC3    C6 8630   3.207   0.457  14.759 -0.3089 -1.3671 -0.7907
  582TMC3     C 8631   3.033   0.787  14.625 -0.7330 -1.1313  0.3338
  582TMC3     O 8632   2.949   0.776  14.714 -0.0484  0.3136  0.0249
  582TMC3     H 8633   3.275   0.785  14.756 -2.9851  2.1599  0.0295
  582TMC3    H1 8634   2.980   0.567  14.548 -0.0503 -2.6933  0.4897
  582TMC3    H2 8635   3.213   0.375  14.830  0.3729 -0.4046  0.2853
  582TMC3    C7 8636   2.998   0.382  14.695 -0.6827  0.0142  0.2623
  582TMC3    C8 8637   3.312   0.595  14.921  0.1397  0.8994 -0.0716
  582TMC3    O1 8638   3.010   0.261  14.717 -0.2326  0.4073 -0.3001
  582TMC3    O2 8639   3.275   0.690  14.984 -0.2851 -0.1950 -0.3659
  583MPD2     C 8640   3.258   1.993  16.702  0.2646 -0.1447  0.5379
  583MPD2    C1 8641   3.228   2.116  16.652 -0.7112 -0.0810  0.6626
  583MPD2    C2 8642   3.174   2.208  16.735 -0.1427  0.2591 -0.0955
  583MPD2    C3 8643   3.155   2.185  16.867 -0.1896 -0.4685  0.4059
  583MPD2    C4 8644   3.199   2.067  16.918 -0.0652 -0.5535 -0.1304
  583MPD2    C5 8645   3.238   1.968  16.834  0.6726  0.3855 -0.8892
  583MPD2     H 8646   3.144   2.307  16.702 -3.4839 -0.6552  0.1794
  583MPD2    H1 8647   3.190   2.046  17.023 -1.8076 -0.5685 -0.2931
  583MPD2    H2 8648   3.294   1.914  16.636 -0.7833 -0.2784  0.1206
  583MPD2    H3 8649   3.271   1.871  16.869  0.7231  0.3345 -1.0807
  583MPD2     N 8650   3.092   2.281  16.946 -0.5918 -0.5021 -0.3963
  583MPD2    H5 8651   3.068   2.366  16.896 -0.6247 -0.9207 -1.0837
  583MPD2    N1 8652   3.257   2.147  16.520 -0.0918 -0.0268 -0.1082
  583MPD2    H7 8653   3.234   2.242  16.494 -0.8170 -0.0497  0.4297
  584TMC3    C1 8654   3.008   2.407  17.137 -0.2864 -0.0720  0.1974
  584TMC3    C2 8655   3.011   2.516  17.058  0.5101 -0.2494 -0.3799
  584TMC3    C3 8656   2.996   2.632  17.118 -0.2121 -0.7904  0.8458
  584TMC3    C4 8657   2.982   2.410  17.274 -0.2038 -0.2825  0.1822
  584TMC3    C5 8658   2.965   2.535  17.329 -0.1777  0.0995 -0.2631
  584TMC3    C6 8659   2.970   2.647  17.252  0.8291  0.6565 -0.5245
  584TMC3     C 8660   3.057   2.277  17.078 -0.1666  0.3908 -0.3153
  584TMC3     O 8661   3.073   2.188  17.161 -0.0773 -0.2854  0.3205
  584TMC3     H 8662   3.045   2.515  16.955 -0.0248  0.3547 -0.5573
  584TMC3    H1 8663   2.987   2.322  17.338  1.7387 -1.4067 -1.5136
  584TMC3    H2 8664   2.954   2.737  17.309  3.0899  1.5619 -1.3235
  584TMC3    C7 8665   2.973   2.538  17.472  0.1751  0.1499  0.5915
  584TMC3    C8 8666   2.988   2.745  17.032  0.5456 -0.6448  0.0471
  584TMC3    O1 8667   2.992   2.434  17.530  0.3607  0.7591 -0.6664
  584TMC3    O2 8668   2.959   2.724  16.917 -0.3057 -0.1717 -0.2880
  585MPD2     C 8669   2.600   1.164   0.127  0.3411 -0.0353  0.0602
  585MPD2    C1 8670   2.611   1.055   0.046  0.1638 -0.2927  0.0331
  585MPD2    C2 8671   2.630   1.081  17.594 -0.9108  0.0713 -0.0195
  585MPD2    C3 8672   2.659   1.206  17.545  0.2211 -0.0823 -0.0939
  585MPD2    C4 8673   2.653   1.307  17.632 -0.8975  0.0022  1.0359
  585MPD2    C5 8674   2.618   1.288   0.074 -0.6699 -0.0279 -0.0820
  585MPD2     H 8675   2.605   1.005  17.521 -0.4728  0.0204 -0.1213
  585MPD2    H1 8676   2.671   1.411  17.604  0.7713 -0.5364  0.0929
  585MPD2    H2 8677   2.580   1.148   0.233  1.0548  0.5111  0.2800
  585MPD2    H3 8678   2.615   1.369   0.145 -1.0367  1.5721 -1.9149
  585MPD2     N 8679   2.679   1.227  17.404 -0.4659  0.0286  0.5632
  585MPD2    H5 8680   2.672   1.323  17.371 -1.9205  0.0249  0.8453
  585MPD2    N1 8681   2.587   0.927   0.099  0.2950 -0.3467 -0.0342
  585MPD2    H7 8682   2.567   0.917   0.198 -2.1503  0.2282 -0.4829
  586TMC3    C1 8683   2.729   1.185  17.186  0.9402 -0.3765  0.7524
  586TMC3    C2 8684   2.758   1.099  17.081  0.5213 -0.4159  0.0301
  586TMC3    C3 8685   2.735   1.135  16.947 -0.6252  0.3784 -0.0514
  586TMC3    C4 8686   2.688   1.308  17.160 -0.1148  0.3471 -0.1673
  586TMC3    C5 8687   2.655   1.345  17.029 -1.2353 -1.1397  1.0265
  586TMC3    C6 8688   2.686   1.260  16.922 -0.1237 -0.2540 -0.4053
  586TMC3     C 8689   2.713   1.126  17.315  1.1977 -0.6236 -0.0149
  586TMC3     O 8690   2.731   1.005  17.328 -0.5354  0.0336 -0.1418
  586TMC3     H 8691   2.774   0.997  17.115  2.0730 -0.2994 -0.3324
  586TMC3    H1 8692   2.643   1.374  17.234  0.3862  1.7440 -1.1035
  586TMC3    H2 8693   2.675   1.289  16.818  1.9589 -2.0572 -1.1134
  586TMC3    C7 8694   2.515   1.390  17.022  0.5660  0.7666  0.9266
  586TMC3    C8 8695   2.657   1.025  16.887 -0.5219  0.4507 -0.2044
  586TMC3    O1 8696   2.448   1.384  17.124 -0.3097 -0.0419  0.5137
  586TMC3    O2 8697   2.684   0.907  16.894 -0.1681 -0.0722 -0.2230
  587TMC3    C1 8698   0.235   4.363  16.309 -0.5163 -0.5144  0.6542
  587TMC3    C2 8699   0.213   4.487  16.255 -0.1537 -0.7316 -0.1963
  587TMC3    C3 8700   0.323   4.560  16.215  0.0774  0.1943  0.0884
  587TMC3    C4 8701   0.356   4.300  16.309  0.1376  0.3631  0.0196
  587TMC3    C5 8702   0.465   4.372  16.255 -0.2243 -0.2042 -0.0815
  587TMC3    C6 8703   0.443   4.495  16.196 -0.2541 -0.4937 -0.5131
  587TMC3     C 8704   0.128   4.289  16.375  0.1511 -0.6777  0.2686
  587TMC3     O 8705   0.147   4.171  16.411 -0.0938  0.0951 -0.1021
  587TMC3     H 8706   0.112   4.526  16.249 -0.2427 -0.7347  1.2624
  587TMC3    H1 8707   0.361   4.195  16.336  1.1177  0.3107 -0.3428
  587TMC3    H2 8708   0.526   4.546  16.150  0.1849 -1.6428 -1.0022
  587TMC3    C7 8709   0.597   4.343  16.309 -0.1143 -0.2848 -0.1021
  587TMC3    C8 8710   0.302   4.681  16.147 -0.4824 -0.3912  0.1514
  587TMC3    O1 8711   0.693   4.417  16.281 -0.0210 -0.1350 -0.5329
  587TMC3    O2 8712   0.394   0.007  16.079  0.1844 -0.7340  0.6164
  588TMC3    C1 8713   2.201   2.199   9.372  0.5961 -0.0246 -0.1045
  588TMC3    C2 8714   2.185   2.079   9.308 -0.6007 -0.1224 -0.5677
  588TMC3    C3 8715   2.288   1.993   9.306  0.5606 -0.0280  0.1480
  588TMC3    C4 8716   2.321   2.220   9.435 -0.0602  0.4144  0.2276
  588TMC3    C5 8717   2.425   2.138   9.417 -1.2139 -0.3486  0.7597
  588TMC3    C6 8718   2.415   2.023   9.347 -0.4177  0.1790 -0.3336
  588TMC3     C 8719   2.106   2.311   9.343  0.7452 -0.2521 -0.5190
  588TMC3     O 8720   1.989   2.292   9.308  0.4805  0.7487 -0.3095
  588TMC3     H 8721   2.099   2.058   9.245 -0.3889  0.5313 -1.0656
  588TMC3    H1 8722   2.325   2.314   9.489 -1.1477  0.0513  0.9421
  588TMC3    H2 8723   2.500   1.963   9.316  0.3474 -0.6186  3.3134
  588TMC3    C7 8724   2.561   2.183   9.461 -0.6368 -0.2201 -0.7297
  588TMC3    C8 8725   2.236   1.857   9.334 -0.0580 -0.0499  0.0919
  588TMC3    O1 8726   2.657   2.149   9.401 -0.0029  0.0416 -0.4461
  588TMC3    O2 8727   2.116   1.838   9.335  0.2461 -0.0577 -0.0321
  589TMC3    C1 8728   1.802   4.684   1.123  0.3227 -0.0034 -0.0271
  589TMC3    C2 8729   1.872   4.663   1.239 -0.3141  0.7049 -0.0452
  589TMC3    C3 8730   1.907   4.527   1.269 -0.3696 -0.2269 -0.0488
  589TMC3    C4 8731   1.775   4.577   1.035  0.3477 -0.0201  0.5932
  589TMC3    C5 8732   1.820   4.449   1.062  0.0745  0.2759  0.6173
  589TMC3    C6 8733   1.879   4.418   1.185  0.1966 -0.3211  0.1444
  589TMC3     C 8734   1.743   0.091   1.082 -0.0130 -1.1707  0.4593
  589TMC3     O 8735   1.677   0.083   0.980  0.5826  0.0057  0.5425
  589TMC3     H 8736   1.884   0.017   1.316 -0.6909  2.1249 -1.3694
  589TMC3    H1 8737   1.715   4.596   0.946  2.9174 -2.5654 -1.6839
  589TMC3    H2 8738   1.904   4.315   1.203  0.7545 -0.0500  0.9367
  589TMC3    C7 8739   1.772   4.338   0.978 -0.0684  0.6020 -0.1833
  589TMC3    C8 8740   1.990   4.516   1.387  0.6884  0.2047 -0.4393
  589TMC3    O1 8741   1.790   4.230   1.026  0.1925  0.1063  0.1560
  589TMC3    O2 8742   1.996   4.598   1.478  0.5567 -0.3359  0.0081
  590MPD2     C 8743   0.639   2.718  16.500  0.7835  0.2658  0.3445
  590MPD2    C1 8744   0.575   2.805  16.421  0.6613 -0.4103 -0.0392
  590MPD2    C2 8745   0.650   2.885  16.343 -0.0938 -1.0300 -0.3572
  590MPD2    C3 8746   0.783   2.895  16.361  0.2854  0.1610  0.0798
  590MPD2    C4 8747   0.848   2.812  16.449 -0.4277  0.0290  0.0946
  590MPD2    C5 8748   0.779   2.721  16.515  0.0066 -0.5829 -0.5351
  590MPD2     H 8749   0.609   2.957  16.273  0.7202  0.0501  0.2802
  590MPD2    H1 8750   0.954   2.815  16.472  0.1763 -2.1568 -2.3907
  590MPD2    H2 8751   0.580   2.632  16.530  1.8209 -0.0543  1.4794
  590MPD2    H3 8752   0.831   2.646  16.574 -1.7601 -0.3378  1.3590
  590MPD2     N 8753   0.853   2.988  16.281  0.2590 -0.8850 -0.1666
  590MPD2    H5 8754   0.791   3.057  16.239 -0.1840 -0.8252  0.5864
  590MPD2    N1 8755   0.433   2.795  16.407  0.6338  0.1108  0.3756
  590MPD2    H7 8756   0.388   2.731  16.471  1.1289 -0.2076  0.4088
  591TMC3    C1 8757   1.030   3.114  16.202 -0.0812 -1.0287  0.3647
  591TMC3    C2 8758   1.103   3.083  16.093 -0.0870  1.1044  0.7366
  591TMC3    C3 8759   1.076   3.155  15.975 -0.0586  0.2532 -0.1549
  591TMC3    C4 8760   0.938   3.216  16.200  0.2274 -0.1586  0.3294
  591TMC3    C5 8761   0.923   3.292  16.088 -0.1995  0.2488 -0.0088
  591TMC3    C6 8762   0.996   3.268  15.975 -0.3208 -0.4361 -0.1066
  591TMC3     C 8763   0.989   2.998  16.273  0.4300 -0.6507  0.0686
  591TMC3     O 8764   1.082   2.926  16.307  0.1696  0.3578  0.3046
  591TMC3     H 8765   1.166   2.995  16.090  0.7759  1.7654 -0.2883
  591TMC3    H1 8766   0.891   3.243  16.294  1.2664  1.0217  0.5110
  591TMC3    H2 8767   0.967   3.303  15.876 -0.5117 -1.7149 -0.4958
  591TMC3    C7 8768   0.811   3.379  16.086 -0.0748 -0.1312 -0.6154
  591TMC3    C8 8769   1.141   3.100  15.854 -0.7102 -0.2394 -0.1192
  591TMC3    O1 8770   0.736   3.375  16.186 -0.3949 -0.3558 -0.5123
  591TMC3    O2 8771   1.184   2.985  15.863 -0.8180  0.0556 -0.0647
  592MPD2     C 8772   1.442   0.570  10.955  0.1840 -0.0940  0.0130
  592MPD2    C1 8773   1.472   0.562  11.092  0.2464 -0.4134 -0.1415
  592MPD2    C2 8774   1.423   0.448  11.154  0.1923 -0.2859 -0.1836
  592MPD2    C3 8775   1.345   0.354  11.087 -0.1173 -0.4713  0.5219
  592MPD2    C4 8776   1.315   0.371  10.953  0.3577  0.1177 -0.1374
  592MPD2    C5 8777   1.368   0.478  10.885  0.1336  0.2061 -0.1011
  592MPD2     H 8778   1.437   0.433  11.260  0.6229  1.0719 -0.0523
  592MPD2    H1 8779   1.246   0.308  10.898  1.9451 -2.5636  0.9437
  592MPD2    H2 8780   1.485   0.653  10.901  2.0784 -0.2413  1.2952
  592MPD2    H3 8781   1.348   0.483  10.778  1.1450 -1.0053 -0.3407
  592MPD2     N 8782   1.294   0.241  11.164 -0.0187 -1.1192  0.3505
  592MPD2    H5 8783   1.334   0.229  11.256  1.6631  0.9454 -0.1231
  592MPD2    N1 8784   1.542   0.659  11.161 -0.1791 -0.0273 -0.2687
  592MPD2    H7 8785   1.588   0.733  11.108  1.5577 -0.5701  0.5083
  593TMC3    C1 8786   1.637   0.787  11.328 -0.0159  0.4779  0.2289
  593TMC3    C2 8787   1.622   0.835  11.456 -0.1623 -0.3582 -0.1316
  593TMC3    C3 8788   1.695   0.939  11.505  0.2362  0.6476  0.0133
  593TMC3    C4 8789   1.729   0.840  11.244 -0.0771 -0.3514 -0.4233
  593TMC3    C5 8790   1.799   0.947  11.295  0.1731 -0.3398  0.1382
  593TMC3    C6 8791   1.782   1.006  11.425  0.6013  0.1139 -0.7927
  593TMC3     C 8792   1.558   0.673  11.298 -0.0444 -0.1216 -0.2959
  593TMC3     O 8793   1.513   0.607  11.391  1.0051  0.2758 -0.1476
  593TMC3     H 8794   1.560   0.795  11.536  1.8441  2.0701  2.6361
  593TMC3    H1 8795   1.742   0.810  11.141 -0.6055 -1.1602 -0.2588
  593TMC3    H2 8796   1.830   1.100  11.450  1.2320 -0.6334  0.7653
  593TMC3    C7 8797   1.893   1.019  11.206  0.0359 -0.2682  0.5434
  593TMC3    C8 8798   1.647   1.010  11.620 -0.6149 -0.0372 -0.5850
  593TMC3    O1 8799   1.962   1.102  11.267 -0.0700  0.1650  0.2780
  593TMC3    O2 8800   1.530   0.999  11.648 -0.2972  0.1673 -0.3381
  594MPD2     C 8801   0.125   3.847  13.993 -0.5300  0.1658  0.1055
  594MPD2    C1 8802   0.033   3.955  13.993  0.1083  0.8554 -0.1364
  594MPD2    C2 8803   0.081   4.082  13.994 -0.1801 -0.2314 -0.4075
  594MPD2    C3 8804   0.216   4.101  13.974  0.2979 -0.0362 -0.3875
  594MPD2    C4 8805   0.306   4.000  13.984  0.2848 -0.0866 -0.8691
  594MPD2    C5 8806   0.261   3.867  13.988  0.0798 -0.2434 -0.5466
  594MPD2     H 8807   0.023   4.174  13.999 -0.6320 -0.5447  0.0738
  594MPD2    H1 8808   0.414   4.003  13.982  0.2886 -0.0825 -0.6440
  594MPD2    H2 8809   0.088   3.745  13.991  0.0996 -0.0404 -0.9338
  594MPD2    H3 8810   0.328   3.783  13.976  0.0120 -0.2488 -0.8870
  594MPD2     N 8811   0.263   4.238  13.967  0.2023 -0.0031  0.0076
  594MPD2    H5 8812   0.192   4.309  13.980 -0.4258 -0.5676 -0.3337
  594MPD2    N1 8813   4.620   3.924  14.009 -0.1333  0.0806 -0.0747
  594MPD2    H7 8814   4.595   3.826  14.015 -1.8467  0.5905  1.1822
  595TMC3    C1 8815   0.568   4.584  14.001 -0.3214 -0.2109 -0.3738
  595TMC3    C2 8816   0.529   4.469  13.940 -0.1179 -0.3474 -0.1216
  595TMC3    C3 8817   0.402   4.421  13.938  0.7065  0.7479 -0.0064
  595TMC3    C4 8818   0.474   4.655  14.074 -0.2363  0.3171  0.1741
  595TMC3    C5 8819   0.351   4.603  14.080 -0.5514  0.2370  0.3185
  595TMC3    C6 8820   0.304   4.494  14.005 -0.2998 -0.7086  0.1390
  595TMC3     C 8821   0.702   4.621  14.032  0.0032 -0.1827  0.0444
  595TMC3     O 8822   0.720   4.699  14.123  0.0385  0.2968 -0.4546
  595TMC3     H 8823   0.609   4.402  13.911  1.1811  1.3146 -0.3076
  595TMC3    H1 8824   0.497   0.028  14.122 -1.1385  0.6545 -0.0504
  595TMC3    H2 8825   0.200   4.464  14.014 -0.4959  0.6135  2.1679
  595TMC3    C7 8826   0.259   4.653  14.180 -0.1535 -1.2362 -0.0347
  595TMC3    C8 8827   0.395   4.270  13.946 -0.6545 -0.3257  0.5776
  595TMC3    O1 8828   0.142   4.665  14.140 -0.0985  0.4853 -0.6912
  595TMC3    O2 8829   0.498   4.203  13.945  0.1373 -0.3513 -0.3718
  596MPD2     C 8830   4.044   2.037  16.589  0.1251 -0.1026  0.6758
  596MPD2    C1 8831   4.052   2.167  16.545  0.4889 -0.0532 -0.6799
  596MPD2    C2 8832   4.067   2.189  16.411  0.2079  0.4518  0.5022
  596MPD2    C3 8833   4.080   2.087  16.323 -0.2898  0.0769 -0.7929
  596MPD2    C4 8834   4.105   1.959  16.374 -0.5638  0.3760 -0.5077
  596MPD2    C5 8835   4.091   1.937  16.507  0.3355 -0.0764  0.4548
  596MPD2     H 8836   4.085   2.292  16.382 -0.7995  0.4033 -0.2867
  596MPD2    H1 8837   4.135   1.879  16.308 -0.8162  0.4658 -0.7338
  596MPD2    H2 8838   4.003   2.005  16.684  0.3675 -1.3358  0.3570
  596MPD2    H3 8839   4.112   1.836  16.539 -1.8134  0.6690  4.1320
  596MPD2     N 8840   4.107   2.102  16.184  0.0280 -0.3021  0.3012
  596MPD2    H5 8841   4.136   2.014  16.142  0.2613 -0.5025  0.8734
  596MPD2    N1 8842   4.036   2.277  16.630 -0.1089  0.3395  0.0110
  596MPD2    H7 8843   4.045   2.370  16.590 -1.0195  0.2618 -0.3707
  597TMC3    C1 8844   3.975   2.397  16.828 -0.1408 -1.1152  0.0021
  597TMC3    C2 8845   4.050   2.501  16.785  1.1322 -0.8032  0.3138
  597TMC3    C3 8846   4.029   2.628  16.836 -0.6821  0.3961 -0.5714
  597TMC3    C4 8847   3.880   2.416  16.919  0.4878 -0.2087 -0.1901
  597TMC3    C5 8848   3.856   2.545  16.964 -0.0557 -0.0679  0.3613
  597TMC3    C6 8849   3.927   2.647  16.924  0.0582 -0.3614  0.0951
  597TMC3     C 8850   3.983   2.271  16.759 -0.1382  0.6582  0.0249
  597TMC3     O 8851   3.926   2.176  16.807 -0.3924  0.5597 -0.2770
  597TMC3     H 8852   4.139   2.493  16.724  0.6532  2.1318 -0.7834
  597TMC3    H1 8853   3.821   2.335  16.960 -0.3113  0.1454 -0.6242
  597TMC3    H2 8854   3.910   2.744  16.969  0.3331 -0.0071 -0.5584
  597TMC3    C7 8855   3.730   2.572  17.024 -0.4158 -0.3027  0.4871
  597TMC3    C8 8856   4.124   2.731  16.798 -0.2189 -0.0794 -0.1404
  597TMC3    O1 8857   3.660   2.478  17.063 -0.2219  0.1817  0.3530
  597TMC3    O2 8858   4.235   2.690  16.769 -0.1310 -0.1788 -0.0949
  598TMC3    C1 8859   1.949   4.098  15.669 -1.3497  0.6443 -0.1666
  598TMC3    C2 8860   1.845   4.025  15.712 -0.3744 -0.7221  0.8658
  598TMC3    C3 8861   1.812   3.912  15.637  0.4490 -0.2401  0.4206
  598TMC3    C4 8862   2.021   4.069  15.559  0.0936  1.1728  0.6399
  598TMC3    C5 8863   1.975   3.967  15.475  0.4155  0.5349 -0.4463
  598TMC3    C6 8864   1.876   3.883  15.517 -0.4339 -0.4494  0.7222
  598TMC3     C 8865   1.975   4.233  15.725  0.5410 -0.3232  0.4367
  598TMC3     O 8866   2.049   4.304  15.658 -0.2930 -0.1180 -0.6655
  598TMC3     H 8867   1.772   4.068  15.780  0.0510  1.3653  0.0125
  598TMC3    H1 8868   2.117   4.115  15.536  0.4317 -0.1382 -0.5289
  598TMC3    H2 8869   1.839   3.811  15.446  1.7888 -0.6141 -0.2722
  598TMC3    C7 8870   2.041   3.951  15.346 -0.4856 -0.1693  0.4205
  598TMC3    C8 8871   1.732   3.819  15.712  0.5964  0.6601  0.1424
  598TMC3    O1 8872   2.020   3.844  15.289 -0.8041  0.3898  0.2882
  598TMC3    O2 8873   1.736   3.836  15.834  0.1578 -0.5396  0.4419
  599MPD2     C 8874   2.267   1.530  15.642 -0.7069  0.1696  0.4517
  599MPD2    C1 8875   2.243   1.399  15.647 -0.0078  0.9974 -0.6905
  599MPD2    C2 8876   2.119   1.364  15.693  0.7110 -0.1701 -0.2066
  599MPD2    C3 8877   2.024   1.449  15.751  0.2382 -0.4636 -1.3528
  599MPD2    C4 8878   2.059   1.578  15.751 -0.6925  0.3645 -0.3673
  599MPD2    C5 8879   2.179   1.618  15.698 -0.2077 -0.3137 -0.2220
  599MPD2     H 8880   2.086   1.262  15.679 -2.5312  0.7815  0.6259
  599MPD2    H1 8881   1.998   1.648  15.806  0.1611 -0.0670  1.1198
  599MPD2    H2 8882   2.357   1.571  15.599  0.6876 -3.0514  0.3235
  599MPD2    H3 8883   2.206   1.722  15.687  0.7553 -0.5960 -0.5730
  599MPD2     N 8884   1.896   1.417  15.806 -0.6081  0.7141 -0.0545
  599MPD2    H5 8885   1.828   1.490  15.824  1.0353  2.4193 -0.8001
  599MPD2    N1 8886   2.326   1.312  15.577 -0.3086  0.1701  0.0207
  599MPD2    H7 8887   2.410   1.352  15.539  0.3217  0.2709  1.5344
  600TMC3    C1 8888   1.734   1.293  15.917  1.1267 -0.0823  0.7057
  600TMC3    C2 8889   1.708   1.178  15.987 -0.2892 -0.0037  0.4953
  600TMC3    C3 8890   1.613   1.198  16.085  0.4941 -0.3799 -0.1260
  600TMC3    C4 8891   1.670   1.417  15.930  0.2711 -0.1115 -0.7659
  600TMC3    C5 8892   1.587   1.429  16.033 -0.6575  0.0910 -0.0566
  600TMC3    C6 8893   1.554   1.320  16.112  0.3097 -0.0652  0.5085
  600TMC3     C 8894   1.852   1.286  15.829  0.0472  0.0588 -0.4897
  600TMC3     O 8895   1.914   1.179  15.811 -0.0741 -0.2486  0.8519
  600TMC3     H 8896   1.758   1.083  15.969 -2.2579 -1.1742  1.1262
  600TMC3    H1 8897   1.678   1.504  15.866  1.6197  0.9466  0.8123
  600TMC3    H2 8898   1.509   1.336  16.210 -0.4388  0.8329  0.0232
  600TMC3    C7 8899   1.560   1.565  16.072  0.2431 -0.0202 -0.3850
  600TMC3    C8 8900   1.605   1.081  16.172 -0.4999 -0.1334  0.0537
  600TMC3    O1 8901   1.531   1.645  15.987  0.2840  0.4093  0.1874
  600TMC3    O2 8902   1.705   1.027  16.216  0.2293  0.1928  0.4364
  601MPD2     C 8903   4.254   3.731  17.617 -0.2624  0.6062  0.2467
  601MPD2    C1 8904   4.135   3.727  17.546  0.5464 -0.3986 -0.3118
  601MPD2    C2 8905   4.066   3.603  17.565 -0.0876  0.5762 -0.7837
  601MPD2    C3 8906   4.103   3.507  17.659 -0.3308 -0.6174 -0.9711
  601MPD2    C4 8907   4.214   3.530   0.053  0.3650 -0.1960  0.0862
  601MPD2    C5 8908   4.300   3.638   0.025  0.2625  0.4742  0.0379
  601MPD2     H 8909   3.979   3.578  17.505  0.3515  0.5095 -1.3842
  601MPD2    H1 8910   4.244   3.463   0.133  0.0041  1.9477  2.0536
  601MPD2    H2 8911   4.320   3.815  17.599  1.7864 -0.6598  1.8690
  601MPD2    H3 8912   4.398   3.631   0.071 -0.2692 -1.1797  0.9382
  601MPD2     N 8913   4.045   3.379  17.664 -0.4088 -0.7328  0.2059
  601MPD2    H5 8914   4.083   3.317   0.049 -0.0596 -2.7293 -1.7370
  601MPD2    N1 8915   4.088   3.831  17.463 -0.4850  0.3387 -0.3047
  601MPD2    H7 8916   4.002   3.821  17.411 -0.2543 -1.0429 -0.4193
  602TMC3    C1 8917   4.085   4.025  17.336 -0.4908  0.2346 -0.4153
  602TMC3    C2 8918   4.157   4.114  17.268 -0.4659 -0.3076  0.2350
  602TMC3    C3 8919   4.094   4.228  17.209 -0.1502  0.2828  0.0133
  602TMC3    C4 8920   3.953   4.031  17.342  1.0939 -0.3309 -0.2097
  602TMC3    C5 8921   3.892   4.147  17.292  0.2817 -0.3976  0.0045
  602TMC3    C6 8922   3.954   4.240  17.216 -0.6203  0.2785  0.3008
  602TMC3     C 8923   4.157   3.940  17.425  0.1522  0.5857  0.1692
  602TMC3     O 8924   4.270   3.978  17.457 -0.3128  0.0726  0.1293
  602TMC3     H 8925   4.266   4.115  17.268 -0.4644 -0.4779  0.2236
  602TMC3    H1 8926   3.890   3.959  17.392 -0.3279 -0.2085 -1.7849
  602TMC3    H2 8927   3.900   4.293  17.139  0.7906  1.1285 -0.1022
  602TMC3    C7 8928   3.746   4.154  17.301 -0.5255 -0.2250 -0.0706
  602TMC3    C8 8929   4.171   4.320  17.129  0.5277  0.5021  0.1296
  602TMC3    O1 8930   3.681   4.050  17.293 -0.2016  0.4426  0.2421
  602TMC3    O2 8931   4.269   4.267  17.076 -0.0594  0.2560  0.2569
  603TMC3    C1 8932   1.990   0.105  10.974 -0.4965 -0.0556 -0.6233
  603TMC3    C2 8933   1.965   0.131  11.103  0.1787  0.7037  0.2430
  603TMC3    C3 8934   2.039   0.233  11.164  0.7177  0.4595 -0.1050
  603TMC3    C4 8935   2.073   0.185  10.898  0.4664  0.1220 -0.3886
  603TMC3    C5 8936   2.132   0.295  10.954  0.3655 -0.1394  0.2990
  603TMC3    C6 8937   2.112   0.321  11.088  0.6953 -0.8392  0.9311
  603TMC3     C 8938   1.947   4.696  10.919 -0.6548  0.0208  0.2489
  603TMC3     O 8939   1.950   4.695  10.797  0.4854 -0.8263 -0.5973
  603TMC3     H 8940   1.904   0.064  11.163 -2.1430  2.1590 -0.5289
  603TMC3    H1 8941   2.097   0.158  10.796 -0.6222 -0.4053 -0.5060
  603TMC3    H2 8942   2.135   0.425  11.111 -2.1007  0.3701 -1.7663
  603TMC3    C7 8943   2.245   0.360  10.883  0.2721  0.0714 -1.0401
  603TMC3    C8 8944   2.063   0.229  11.308 -0.0258 -0.1552  0.1058
  603TMC3    O1 8945   2.316   0.420  10.961  0.2592  0.6724 -0.1810
  603TMC3    O2 8946   2.015   0.141  11.377 -0.0578 -0.5945 -0.6250
  604MPD2     C 8947   3.245   3.485  16.411 -0.1839  0.6344 -0.1040
  604MPD2    C1 8948   3.113   3.459  16.371 -0.2224  0.3592  0.6475
  604MPD2    C2 8949   3.081   3.412  16.248 -0.0418  0.0044 -0.6573
  604MPD2    C3 8950   3.176   3.420  16.148  0.0534 -0.8601 -0.7657
  604MPD2    C4 8951   3.297   3.454  16.189 -0.2872 -0.4470  0.0920
  604MPD2    C5 8952   3.340   3.474  16.314 -0.2566 -0.1164  0.3595
  604MPD2     H 8953   2.979   3.385  16.223 -0.1865  0.7642 -0.9003
  604MPD2    H1 8954   3.377   3.452  16.115 -0.0392 -0.5759  0.3663
  604MPD2    H2 8955   3.275   3.513  16.512  0.0931  0.6413 -0.1896
  604MPD2    H3 8956   3.447   3.483  16.332 -0.5606  1.5729  1.3354
  604MPD2     N 8957   3.144   3.398  16.010  0.0405 -0.5789  0.7530
  604MPD2    H5 8958   3.048   3.425  15.988  1.5317  3.5848 -0.5400
  604MPD2    N1 8959   3.017   3.466  16.471 -0.5259  0.8391 -0.8502
  604MPD2    H7 8960   3.055   3.509  16.555 -1.9645 -1.7081  1.1206
  605TMC3    C1 8961   2.798   3.495  16.558 -0.7533 -0.7479  0.2305
  605TMC3    C2 8962   2.849   3.602  16.633  0.3209 -0.4663  0.0950
  605TMC3    C3 8963   2.775   3.720  16.636 -0.6583  0.1239 -0.4288
  605TMC3    C4 8964   2.681   3.519  16.489 -0.4657  0.6689  0.3606
  605TMC3    C5 8965   2.614   3.638  16.491 -0.0286  0.5920  0.0416
  605TMC3    C6 8966   2.658   3.742  16.567 -0.6163 -1.1152 -0.1415
  605TMC3     C 8967   2.887   3.423  16.467  0.2203 -0.2473 -0.1739
  605TMC3     O 8968   2.833   3.336  16.398 -0.3759 -0.0411  0.7051
  605TMC3     H 8969   2.933   3.589  16.700  0.5552  3.9290  0.6476
  605TMC3    H1 8970   2.646   3.444  16.419  1.1208  2.1638 -2.0428
  605TMC3    H2 8971   2.604   3.836  16.572  0.3235 -0.6428  1.2086
  605TMC3    C7 8972   2.493   3.643  16.411  0.0812 -0.3165 -0.6450
  605TMC3    C8 8973   2.823   3.842  16.701 -0.0533  0.1574  0.0459
  605TMC3    O1 8974   2.468   3.743  16.346  0.6147 -0.2668  0.5771
  605TMC3    O2 8975   2.742   3.921  16.751  0.1112 -0.1079  0.0138
  606TMC3    C1 8976   4.017   1.413   0.713  0.1794  0.1669 -0.2483
  606TMC3    C2 8977   4.125   1.440   0.791  1.1416  0.3178  0.6816
  606TMC3    C3 8978   4.235   1.358   0.779 -0.1261  0.2119 -0.2383
  606TMC3    C4 8979   4.013   1.310   0.629  0.5915  0.1467 -0.3225
  606TMC3    C5 8980   4.124   1.226   0.621 -0.0162 -0.0385  0.0761
  606TMC3    C6 8981   4.233   1.251   0.699 -0.3339 -0.3510 -0.4143
  606TMC3     C 8982   3.908   1.514   0.712  0.2360  0.5863  0.6622
  606TMC3     O 8983   3.796   1.484   0.676 -0.1682 -0.3089 -0.0196
  606TMC3     H 8984   4.114   1.518   0.865  1.1795  0.4978  0.4975
  606TMC3    H1 8985   3.919   1.291   0.578  0.6701  1.3917 -0.9242
  606TMC3    H2 8986   4.320   1.189   0.680  1.0363  1.5884 -0.4772
  606TMC3    C7 8987   4.134   1.121   0.514 -0.3404 -0.5703  0.9768
  606TMC3    C8 8988   4.356   1.388   0.856  0.2985 -0.2354 -0.0341
  606TMC3    O1 8989   4.200   1.022   0.536 -0.2378  0.4256 -0.1200
  606TMC3    O2 8990   4.360   1.506   0.886 -0.0516  0.4414  0.3039
  607MPD2     C 8991   1.533   4.559  11.405 -0.8702 -0.0151 -0.2840
  607MPD2    C1 8992   1.519   4.629  11.522 -0.8383  0.2817 -0.0835
  607MPD2    C2 8993   1.482   4.559  11.629  0.4420 -0.0798  0.0639
  607MPD2    C3 8994   1.478   4.422  11.636 -0.7965  0.2957  0.0188
  607MPD2    C4 8995   1.500   4.347  11.526  0.0390 -0.0488 -0.1369
  607MPD2    C5 8996   1.521   4.418  11.407 -0.2864 -0.1540  0.2347
  607MPD2     H 8997   1.479   4.618  11.720  1.8162  0.2726 -0.1114
  607MPD2    H1 8998   1.491   4.240  11.516 -2.1760  0.3807 -2.7850
  607MPD2    H2 8999   1.551   4.597  11.305  2.3230 -0.4855  0.1110
  607MPD2    H3 9000   1.526   4.364  11.313  1.8492  0.6244 -0.0804
  607MPD2     N 9001   1.466   4.370  11.765  0.6402  0.0052 -0.1840
  607MPD2    H5 9002   1.466   4.446  11.833  0.2871 -1.1909  1.1581
  607MPD2    N1 9003   1.555   0.046  11.540  0.5741 -0.2956 -0.0745
  607MPD2    H7 9004   1.550   0.084  11.634 -0.9330 -0.3923 -0.1057
  608TMC3    C1 9005   1.628   0.258  11.490  0.2519 -0.1494  0.3041
  608TMC3    C2 9006   1.618   0.285  11.619  0.0049 -0.7440 -0.5371
  608TMC3    C3 9007   1.705   0.377  11.668 -0.4631  0.1130 -0.0055
  608TMC3    C4 9008   1.721   0.330  11.410 -0.0270 -0.7734  0.2375
  608TMC3    C5 9009   1.789   0.440  11.458 -0.0316 -0.0508  0.1085
  608TMC3    C6 9010   1.785   0.459  11.592 -0.0075 -0.5505 -0.1420
  608TMC3     C 9011   1.587   0.130  11.440  0.0651  0.2694 -0.4670
  608TMC3     O 9012   1.563   0.125  11.320 -0.2672 -0.3790 -0.4904
  608TMC3     H 9013   1.552   0.238  11.691  2.0793  1.3162  2.7234
  608TMC3    H1 9014   1.743   0.295  11.310  1.1468 -2.4762  1.1070
  608TMC3    H2 9015   1.855   0.526  11.641  1.4401 -2.9724  1.1186
  608TMC3    C7 9016   1.864   0.513  11.366 -0.4528 -0.5721  0.2939
  608TMC3    C8 9017   1.743   0.358  11.806 -0.3843 -0.5932 -1.0238
  608TMC3    O1 9018   1.861   0.481  11.247 -0.4010 -0.0754  0.0541
  608TMC3    O2 9019   1.776   0.454  11.873  0.2490 -0.3902  0.5422
  609TMC3    C1 9020   0.404   3.384   9.292 -0.4546  0.2538 -0.3104
  609TMC3    C2 9021   0.364   3.359   9.160 -0.0122  0.1844 -0.2226
  609TMC3    C3 9022   0.413   3.244   9.107  0.5109  0.3057  0.2102
  609TMC3    C4 9023   0.479   3.299   9.367 -0.1863 -1.2232  0.2336
  609TMC3    C5 9024   0.539   3.191   9.305 -0.2637 -0.2561 -0.0408
  609TMC3    C6 9025   0.500   3.163   9.180  0.2244  0.2375  0.7794
  609TMC3     C 9026   0.371   3.513   9.346  0.2544 -0.3829  0.7905
  609TMC3     O 9027   0.272   3.565   9.307  0.5461  0.0248 -0.3553
  609TMC3     H 9028   0.302   3.434   9.111  1.4763  1.1656 -0.5831
  609TMC3    H1 9029   0.487   3.314   9.474  0.8349  2.4656 -0.3498
  609TMC3    H2 9030   0.548   3.078   9.132  1.5439 -0.1089  2.7090
  609TMC3    C7 9031   0.638   3.108   9.372  0.1525 -0.4093  0.4050
  609TMC3    C8 9032   0.417   3.237   8.963 -0.2408 -0.0646 -0.0353
  609TMC3    O1 9033   0.703   3.166   9.459 -0.1596 -0.3728 -0.2045
  609TMC3    O2 9034   0.490   3.145   8.922  0.1214  0.0678  0.2121
  610TMC3    C1 9035   1.923   4.563  12.445 -0.0040 -0.5414  0.5643
  610TMC3    C2 9036   1.940   4.555  12.313  0.3907 -0.4030 -0.5836
  610TMC3    C3 9037   2.057   4.592  12.243 -1.0003 -0.5318 -1.0046
  610TMC3    C4 9038   2.026   4.606  12.518 -0.1708  0.4484 -0.1689
  610TMC3    C5 9039   2.148   4.619  12.454 -0.6251 -0.2521  0.5067
  610TMC3    C6 9040   2.164   4.618  12.315  0.7800  0.0433 -0.0094
  610TMC3     C 9041   1.787   4.573  12.496  0.6335  0.2133 -0.8475
  610TMC3     O 9042   1.695   4.528  12.432 -0.7912 -0.0920  0.2613
  610TMC3     H 9043   1.862   4.532  12.242  0.5320 -0.6723 -0.6536
  610TMC3    H1 9044   2.015   4.617  12.625  1.2277 -1.3355  0.1757
  610TMC3    H2 9045   2.259   4.653  12.278 -0.3711  0.4156 -2.6655
  610TMC3    C7 9046   2.272   4.621  12.529 -0.2296  0.1093  0.0366
  610TMC3    C8 9047   2.063   4.643  12.108  0.8347  0.5452 -0.0299
  610TMC3    O1 9048   2.358   4.541  12.495 -0.0474 -0.1438  0.1870
  610TMC3    O2 9049   2.139   0.015  12.093 -0.0873 -0.0225  0.5130
  611MPD2     C 9050   1.656   0.279   9.667  0.0614 -1.2578  0.2370
  611MPD2    C1 9051   1.697   0.244   9.795 -0.0468 -0.3249 -0.9576
  611MPD2    C2 9052   1.823   0.273   9.840 -0.1537 -0.2891  0.3377
  611MPD2    C3 9053   1.906   0.346   9.746  0.2213 -0.2600 -0.1850
  611MPD2    C4 9054   1.862   0.380   9.611  0.3068 -0.2787 -0.4154
  611MPD2    C5 9055   1.734   0.344   9.571  0.0087  0.0309 -0.5062
  611MPD2     H 9056   1.853   0.252   9.942  1.5914 -0.1362 -0.1405
  611MPD2    H1 9057   1.923   0.439   9.543  3.8851  0.2451  3.2107
  611MPD2    H2 9058   1.555   0.268   9.630 -0.7410 -0.8480  2.2789
  611MPD2    H3 9059   1.694   0.355   9.471 -1.8135  3.0286  0.5673
  611MPD2     N 9060   2.032   0.407   9.786 -0.0308 -0.3038  0.1188
  611MPD2    H5 9061   2.075   0.480   9.730  0.9042 -1.5810 -0.8438
  611MPD2    N1 9062   1.603   0.185   9.871 -0.4340 -0.0343 -0.1687
  611MPD2    H7 9063   1.512   0.173   9.827  0.7738  2.9335 -3.5144
  612TMC3    C1 9064   2.208   0.475   9.929 -0.1145 -0.8049  0.2407
  612TMC3    C2 9065   2.265   0.465  10.058 -0.9167 -0.2430 -0.1937
  612TMC3    C3 9066   2.367   0.556  10.082 -0.5164  0.3865 -0.3612
  612TMC3    C4 9067   2.248   0.570   9.837  0.1241  0.6445  0.1878
  612TMC3    C5 9068   2.351   0.657   9.868 -0.3655  0.1505  0.0508
  612TMC3    C6 9069   2.414   0.654   9.992 -0.1465  0.7656  0.2427
  612TMC3     C 9070   2.087   0.389   9.908  0.1294 -0.3063  0.0359
  612TMC3     O 9071   2.070   0.291   9.982 -0.0385  0.3183 -0.3395
  612TMC3     H 9072   2.230   0.389  10.127 -0.2210 -1.2445 -0.9482
  612TMC3    H1 9073   2.222   0.558   9.732 -0.6231  0.8916  0.3482
  612TMC3    H2 9074   2.500   0.712  10.022  0.3515  1.0104 -1.6402
  612TMC3    C7 9075   2.350   0.776   9.795  0.5720  0.3318 -0.2554
  612TMC3    C8 9076   2.449   0.530  10.202 -0.2085  0.9476 -0.1778
  612TMC3    O1 9077   2.240   0.794   9.742  0.4422  0.0904  0.5091
  612TMC3    O2 9078   2.558   0.586  10.219  0.5767 -0.5515 -0.2684
  613MPD2     C 9079   0.452   2.474  16.213  0.9555  0.2869 -0.1256
  613MPD2    C1 9080   0.389   2.529  16.102 -0.2320  0.2869 -0.1742
  613MPD2    C2 9081   0.303   2.438  16.031  0.3256 -0.1837  0.4138
  613MPD2    C3 9082   0.278   2.308  16.070 -0.4521  0.0228  0.2059
  613MPD2    C4 9083   0.342   2.264  16.186  0.1201  0.0501  0.1734
  613MPD2    C5 9084   0.412   2.352  16.264  0.1309 -0.4139  0.2010
  613MPD2     H 9085   0.277   2.477  15.934  0.0541 -1.9433 -0.2075
  613MPD2    H1 9086   0.335   2.160  16.216  0.0287 -0.7004 -2.4604
  613MPD2    H2 9087   0.517   2.533  16.278  1.5987 -1.3325  0.6914
  613MPD2    H3 9088   0.460   2.309  16.351  0.5212  1.6603  1.0100
  613MPD2     N 9089   0.198   2.217  15.993 -0.3318  0.7493 -0.1011
  613MPD2    H5 9090   0.195   2.117  16.012 -0.4200  0.5835 -0.9955
  613MPD2    N1 9091   0.416   2.655  16.052  0.2949 -0.1576 -0.5623
  613MPD2    H7 9092   0.499   2.701  16.088  0.6020 -0.0682 -1.3950
  614TMC3    C1 9093   0.460   2.792  15.866 -0.2751 -0.0877 -0.0007
  614TMC3    C2 9094   0.570   2.718  15.833  0.2072  0.7832  0.1710
  614TMC3    C3 9095   0.603   2.692  15.703 -0.5189  0.0307  0.3288
  614TMC3    C4 9096   0.394   2.868  15.770  0.1844 -0.2556 -0.4310
  614TMC3    C5 9097   0.434   2.846  15.645 -0.4446  0.6854 -0.4957
  614TMC3    C6 9098   0.535   2.759  15.605  0.2455  0.1731  0.7917
  614TMC3     C 9099   0.365   2.714  15.939 -0.5614  0.0535 -0.0899
  614TMC3     O 9100   0.255   2.691  15.885  0.5194 -0.3480 -0.1611
  614TMC3     H 9101   0.627   2.659  15.903 -0.1681 -0.9733 -1.0110
  614TMC3    H1 9102   0.300   2.917  15.792  0.1411 -0.5490  0.0307
  614TMC3    H2 9103   0.542   2.740  15.499  0.0303  2.0014  0.4479
  614TMC3    C7 9104   0.360   2.925  15.552  0.0190  0.0888  0.0619
  614TMC3    C8 9105   0.648   2.557  15.671  0.0467 -0.1041 -0.4640
  614TMC3    O1 9106   0.319   3.039  15.578  0.2789  0.5395  0.0005
  614TMC3    O2 9107   0.645   2.483  15.770 -0.2464  0.1322 -0.2921
  615MPD2     C 9108   4.579   4.224  15.830  0.1432 -0.1833  0.7177
  615MPD2    C1 9109   4.504   4.287  15.923 -0.1372 -0.6515 -0.7848
  615MPD2    C2 9110   4.443   4.405  15.879 -0.0006 -0.0461 -0.0924
  615MPD2    C3 9111   4.454   4.451  15.750  0.0971  0.1837  1.0079
  615MPD2    C4 9112   4.537   4.381  15.664  0.4199  0.5686 -0.1496
  615MPD2    C5 9113   4.599   4.272  15.710  0.5688  0.2179 -0.2589
  615MPD2     H 9114   4.375   4.459  15.944  0.0713 -0.1871  0.0985
  615MPD2    H1 9115   4.556   4.425  15.567  1.3387  1.7192  0.5558
  615MPD2    H2 9116   4.629   4.130  15.850  2.1075  0.5421 -0.7634
  615MPD2    H3 9117   4.673   4.223  15.649  2.3218  1.8245  0.5793
  615MPD2     N 9118   4.388   4.565  15.692 -0.4610 -0.3434  0.0111
  615MPD2    H5 9119   4.420   4.597  15.601  0.1974  2.4627  1.2367
  615MPD2    N1 9120   4.493   4.254  16.057 -0.5054  0.4010  0.5527
  615MPD2    H7 9121   4.434   4.315  16.113  0.5968  0.3924  1.7424
  616TMC3    C1 9122   4.502   4.116  16.248  0.1567  0.0839  0.5198
  616TMC3    C2 9123   4.584   4.048  16.322  0.3980 -0.0206 -0.1948
  616TMC3    C3 9124   4.530   3.981  16.433 -0.7080 -0.0296 -0.1578
  616TMC3    C4 9125   4.372   4.133  16.268  0.1377  0.4117  0.7489
  616TMC3    C5 9126   4.324   4.085  16.387  0.1483 -0.3045 -0.3847
  616TMC3    C6 9127   4.406   4.019  16.483 -0.3894  0.1357 -0.3578
  616TMC3     C 9128   4.556   4.146  16.121 -1.2368 -0.4469 -0.0553
  616TMC3     O 9129   4.631   4.065  16.072  0.3779  0.3423 -0.0872
  616TMC3     H 9130   4.682   4.023  16.281  0.2091  0.9484 -1.2428
  616TMC3    H1 9131   4.306   4.158  16.185  2.0375  2.7253 -0.0619
  616TMC3    H2 9132   4.367   3.972  16.573 -0.5817  0.5041 -0.2487
  616TMC3    C7 9133   4.186   4.108  16.420  0.3723 -0.4486  0.0143
  616TMC3    C8 9134   4.618   3.893  16.511 -0.5059  0.7423 -0.2937
  616TMC3    O1 9135   4.137   4.026  16.493 -0.4827  0.0906 -0.5766
  616TMC3    O2 9136   4.583   3.822  16.606 -0.0981 -0.2415 -0.0635
  617MPD2     C 9137   2.453   2.316  13.712 -0.2772  0.3479  0.1156
  617MPD2    C1 9138   2.441   2.302  13.852  1.0568 -0.0838 -0.2767
  617MPD2    C2 9139   2.324   2.249  13.906 -0.3133 -0.2588  0.1639
  617MPD2    C3 9140   2.226   2.197  13.828 -0.2179  0.6907  0.3213
  617MPD2    C4 9141   2.238   2.214  13.688 -1.0025  0.4195  0.1578
  617MPD2    C5 9142   2.348   2.275  13.633  0.1089 -0.6986  0.9075
  617MPD2     H 9143   2.323   2.253  14.014  4.6831 -3.5172  0.3424
  617MPD2    H1 9144   2.156   2.180  13.625  0.8685 -2.3434 -0.8463
  617MPD2    H2 9145   2.543   2.353  13.665  0.5183 -2.7814 -0.8491
  617MPD2    H3 9146   2.347   2.289  13.525 -1.8148 -1.0853  0.8729
  617MPD2     N 9147   2.109   2.135  13.874 -0.0680 -0.5075 -0.4912
  617MPD2    H5 9148   2.033   2.126  13.808 -1.0604 -1.5218  0.8108
  617MPD2    N1 9149   2.555   2.338  13.925  0.3738 -0.1165 -0.2199
  617MPD2    H7 9150   2.634   2.362  13.865  1.2060  1.5700  1.5576
  618TMC3    C1 9151   2.718   2.323  14.093  0.0616 -0.2517 -0.6593
  618TMC3    C2 9152   2.781   2.207  14.135  0.7053  0.8302  0.7111
  618TMC3    C3 9153   2.916   2.210  14.119  0.2129 -0.6257  0.5875
  618TMC3    C4 9154   2.784   2.425  14.041 -0.0925  0.5713 -0.3674
  618TMC3    C5 9155   2.915   2.431  14.037 -0.9162 -0.0550  0.1063
  618TMC3    C6 9156   2.986   2.317  14.076  0.0875 -0.3876  0.1842
  618TMC3     C 9157   2.578   2.309  14.057  0.0067 -0.6334  0.2266
  618TMC3     O 9158   2.512   2.253  14.144  0.6619  0.1420 -0.3625
  618TMC3     H 9159   2.727   2.118  14.165  0.8723  1.2562  2.2395
  618TMC3    H1 9160   2.722   2.513  14.031  0.5572  0.9574 -1.0082
  618TMC3    H2 9161   3.094   2.322  14.081  0.0307  0.0231  0.9490
  618TMC3    C7 9162   2.972   2.567  14.040 -0.2967 -0.1369 -0.1217
  618TMC3    C8 9163   2.969   2.083  14.110  0.3780 -0.3034 -0.5332
  618TMC3    O1 9164   2.897   2.641  14.101  0.8624  0.1169 -0.8347
  618TMC3    O2 9165   2.919   2.003  14.189 -0.2138  0.3941  0.3061
  619MPD2     C 9166   4.541   3.232  13.541 -0.2156  0.1451  0.4124
  619MPD2    C1 9167   4.446   3.253  13.439  0.0519 -0.0246 -0.3185
  619MPD2    C2 9168   4.317   3.212  13.458  0.0719  0.5599 -0.6470
  619MPD2    C3 9169   4.283   3.133  13.567 -0.5213  0.0871 -0.5415
  619MPD2    C4 9170   4.386   3.094  13.660  0.4192 -0.1328  0.3420
  619MPD2    C5 9171   4.505   3.148  13.644  0.5190  0.0205  0.5908
  619MPD2     H 9172   4.239   3.239  13.388 -1.1105  0.0317  0.4832
  619MPD2    H1 9173   4.360   3.029  13.742  0.5821 -2.1440 -1.2139
  619MPD2    H2 9174   4.645   3.260  13.532  0.0035 -0.2052  1.8219
  619MPD2    H3 9175   4.586   3.133  13.715 -0.4659 -0.6920  1.5647
  619MPD2     N 9176   4.147   3.098  13.580 -0.2245  0.5494  0.0028
  619MPD2    H5 9177   4.092   3.131  13.501 -0.0974 -0.1734 -0.3869
  619MPD2    N1 9178   4.474   3.323  13.321 -0.3417 -0.3202  0.2545
  619MPD2    H7 9179   4.395   3.348  13.261 -1.1276  0.2543  1.5301
  620TMC3    C1 9180   4.572   3.497  13.196 -0.7738 -0.2628 -0.3911
  620TMC3    C2 9181   4.501   3.471  13.082  0.4488  0.2290  0.0861
  620TMC3    C3 9182   4.479   3.578  13.005  0.2943 -0.2991 -0.1062
  620TMC3    C4 9183   4.625   3.620  13.227 -0.6835  0.2402  0.7792
  620TMC3    C5 9184   4.604   3.728  13.144  0.6572 -0.1335 -0.1241
  620TMC3    C6 9185   4.543   3.698  13.020 -0.1154  0.3433  0.3358
  620TMC3     C 9186   4.596   3.394  13.299  0.3475 -0.0080  0.0157
  620TMC3     O 9187   4.699   3.399  13.366 -0.5940  0.4263  0.3068
  620TMC3     H 9188   4.469   3.370  13.058  2.1964  0.0364 -1.5299
  620TMC3    H1 9189   4.668   3.630  13.326 -1.9894 -0.9155  1.4549
  620TMC3    H2 9190   4.512   3.776  12.952 -0.2793  0.4196  0.4962
  620TMC3    C7 9191   4.568   3.854  13.197 -0.2806  0.6571  0.0282
  620TMC3    C8 9192   4.369   3.587  12.915  0.1858  0.3368 -0.1752
  620TMC3    O1 9193   4.638   3.904  13.283  0.5636 -0.8492  0.6115
  620TMC3    O2 9194   4.298   3.682  12.938  0.1808 -0.2893 -0.4374
  621MPD2     C 9195   4.539   3.480   9.833  0.0920 -0.1827 -0.1468
  621MPD2    C1 9196   4.635   3.454   9.924 -0.0870  0.0715 -0.0633
  621MPD2    C2 9197   0.001   3.553   9.956 -0.7406 -0.2201  1.0406
  621MPD2    C3 9198   4.709   3.681   9.904  0.4895 -0.1366  1.1075
  621MPD2    C4 9199   4.600   3.705   9.824 -0.3931 -0.0772  0.0961
  621MPD2    C5 9200   4.513   3.604   9.788 -0.0236  0.3840  0.4915
  621MPD2     H 9201   0.087   3.534  10.021 -0.1531 -2.1111 -0.2992
  621MPD2    H1 9202   4.587   3.800   9.773  0.6750 -1.2388 -2.3908
  621MPD2    H2 9203   4.476   3.404   9.791 -0.7625  0.1571  0.5138
  621MPD2    H3 9204   4.431   3.612   9.717  1.2094  3.0306 -0.6043
  621MPD2     N 9205   0.086   3.778   9.941 -0.2836  0.2558  0.7099
  621MPD2    H5 9206   0.166   3.753   9.999  0.6596  0.0079 -0.6841
  621MPD2    N1 9207   4.664   3.326   9.980  0.3860  0.2070 -0.5231
  621MPD2    H7 9208   0.028   3.317  10.035  0.1266 -0.6890 -0.2662
  622TMC3    C1 9209   4.616   3.100  10.039  0.1906  0.1012 -0.6787
  622TMC3    C2 9210   4.612   3.137  10.171 -0.0095  0.1239 -0.4952
  622TMC3    C3 9211   4.604   3.041  10.264 -0.2047 -0.2854  0.1062
  622TMC3    C4 9212   4.605   2.967   9.998  0.0204 -0.8394 -0.0852
  622TMC3    C5 9213   4.607   2.872  10.096  0.2450 -0.6224 -0.1880
  622TMC3    C6 9214   4.595   2.904  10.228  0.7992  0.1651 -0.3961
  622TMC3     C 9215   4.596   3.206   9.941  0.7744 -0.3584 -0.4184
  622TMC3     O 9216   4.536   3.178   9.839  0.9658  0.0922 -0.3198
  622TMC3     H 9217   4.618   3.243  10.193  0.8963  0.1563 -0.9069
  622TMC3    H1 9218   4.625   2.938   9.896  2.1187 -0.4126  0.2029
  622TMC3    H2 9219   4.578   2.831  10.306 -0.1491 -1.1553 -1.8248
  622TMC3    C7 9220   4.601   2.729  10.076 -0.0103 -0.2638 -0.5205
  622TMC3    C8 9221   4.554   3.062  10.396  0.1782  0.1253  0.7084
  622TMC3    O1 9222   4.649   2.649  10.158  0.2393 -0.6684 -0.1288
  622TMC3    O2 9223   4.583   2.982  10.483 -0.2457 -0.0487  0.3828
  623MPD2     C 9224   3.519   3.830  16.142 -0.4566 -0.4883 -0.0068
  623MPD2    C1 9225   3.429   3.825  16.242 -0.4082  0.3416 -0.0834
  623MPD2    C2 9226   3.473   3.818  16.373 -0.0838  0.0764 -0.5519
  623MPD2    C3 9227   3.611   3.821  16.397  0.0055  0.4032  0.2457
  623MPD2    C4 9228   3.704   3.833  16.292  0.3777 -0.1829 -0.1889
  623MPD2    C5 9229   3.654   3.835  16.164 -0.3668 -0.0295  0.0727
  623MPD2     H 9230   3.406   3.817  16.458 -0.6222  2.0635 -0.9488
  623MPD2    H1 9231   3.808   3.856  16.311  0.8828 -3.0367  0.6200
  623MPD2    H2 9232   3.497   3.829  16.036 -0.0086 -2.0167 -0.0848
  623MPD2    H3 9233   3.723   3.833  16.081 -1.0860  0.6612 -0.5475
  623MPD2     N 9234   3.659   3.802  16.526 -0.3097 -0.1462 -0.3366
  623MPD2    H5 9235   3.585   3.812  16.594  0.8137  0.0876  0.8479
  623MPD2    N1 9236   3.287   3.827  16.211  0.7118 -0.0712 -0.3475
  623MPD2    H7 9237   3.260   3.839  16.113 -0.0946 -1.9137 -0.3662
  624TMC3    C1 9238   3.758   3.567  16.822 -0.0910 -0.0276 -0.5300
  624TMC3    C2 9239   3.636   3.597  16.875  0.1493 -0.3828 -0.3147
  624TMC3    C3 9240   3.596   3.721  16.842 -0.1180  0.4085  0.5722
  624TMC3    C4 9241   3.831   3.657  16.742 -0.1845 -0.6284  0.2926
  624TMC3    C5 9242   3.777   3.777  16.709 -0.3937 -0.0100  0.2012
  624TMC3    C6 9243   3.659   3.815  16.764  0.1421 -0.0309  0.5677
  624TMC3     C 9244   3.837   3.464  16.876  0.1558 -0.1544  0.3970
  624TMC3     O 9245   3.956   3.462  16.852 -1.2253  0.0421 -1.2260
  624TMC3     H 9246   3.572   3.535  16.936 -0.0126  0.2238  0.1378
  624TMC3    H1 9247   3.920   3.615  16.695  0.3353 -2.4679  2.8999
  624TMC3    H2 9248   3.625   3.918  16.755  1.2160  0.2612 -0.1850
  624TMC3    C7 9249   3.787   3.800  16.566  0.1618  0.7728  0.2382
  624TMC3    C8 9250   3.448   3.736  16.828 -0.4649 -1.0087 -0.2240
  624TMC3    O1 9251   3.894   3.767  16.505  0.1806 -0.6786 -0.0224
  624TMC3    O2 9252   3.374   3.642  16.795 -0.1169 -0.0937 -0.7826
  625MPD2     C 9253   3.746   0.706   0.435  0.3623  0.8729 -0.7767
  625MPD2    C1 9254   3.733   0.574   0.491  0.5715  0.7925  0.6865
  625MPD2    C2 9255   3.813   0.544   0.600  0.0067 -0.4032 -0.0197
  625MPD2    C3 9256   3.900   0.629   0.652  0.2662  0.1686 -0.4569
  625MPD2    C4 9257   3.922   0.753   0.596 -0.1602 -0.3727 -0.6870
  625MPD2    C5 9258   3.838   0.791   0.489  0.2571 -0.2853 -0.2392
  625MPD2     H 9259   3.811   0.444   0.642 -0.3150 -0.7522 -0.8687
  625MPD2    H1 9260   3.996   0.825   0.627  1.0294 -1.3842 -1.1618
  625MPD2    H2 9261   3.695   0.746   0.348 -0.9144  1.2479  0.1286
  625MPD2    H3 9262   3.855   0.886   0.439 -1.1699 -0.2532 -0.6635
  625MPD2     N 9263   3.972   0.582   0.766  0.2562 -0.7270 -0.2198
  625MPD2    H5 9264   3.984   0.483   0.782 -1.0642 -0.7087  0.8918
  625MPD2    N1 9265   3.649   0.478   0.434 -0.6811  0.4863 -0.2170
  625MPD2    H7 9266   3.643   0.391   0.485  1.3546  0.0268 -0.7769
  626TMC3    C1 9267   3.556   0.363   0.255  0.2127  0.3437  0.0862
  626TMC3    C2 9268   3.496   0.383   0.137  0.5107 -0.3232 -0.2649
  626TMC3    C3 9269   3.515   0.286   0.045 -0.4738 -0.4913 -0.3706
  626TMC3    C4 9270   3.642   0.264   0.277 -0.6447  0.5140  0.2175
  626TMC3    C5 9271   3.672   0.181   0.183  0.4022  0.2133 -0.3074
  626TMC3    C6 9272   3.607   0.185   0.062  0.3043  0.4689 -0.2360
  626TMC3     C 9273   3.601   0.490   0.307 -0.6735 -0.8259  0.5071
  626TMC3     O 9274   3.612   0.575   0.223 -0.3636  0.0868  0.1526
  626TMC3     H 9275   3.421   0.461   0.127  0.8796 -0.0346 -0.8297
  626TMC3    H1 9276   3.705   0.254   0.365 -2.6367 -2.0332  1.3650
  626TMC3    H2 9277   3.634   0.120  17.665  1.2607 -1.2165  1.4017
  626TMC3    C7 9278   3.788   0.096   0.211  0.1121  0.5198 -0.8277
  626TMC3    C8 9279   3.460   0.314  17.604  0.6233 -0.5819 -0.0098
  626TMC3    O1 9280   3.880   0.139   0.281  0.2615  0.1707 -0.1387
  626TMC3    O2 9281   3.453   0.431  17.570 -0.2158  0.4734  0.8272
  627MPD2     C 9282   1.756   0.831  14.323  0.2312 -0.5317 -0.4055
  627MPD2    C1 9283   1.821   0.797  14.432 -0.5120  0.0643  0.6504
  627MPD2    C2 9284   1.798   0.677  14.483 -0.3347 -0.1176  0.6326
  627MPD2    C3 9285   1.703   0.584  14.440 -0.4891 -0.1252 -0.4747
  627MPD2    C4 9286   1.615   0.626  14.343  0.0974 -0.6337 -0.3830
  627MPD2    C5 9287   1.656   0.743  14.277 -0.3323 -0.2930  0.6378
  627MPD2     H 9288   1.865   0.656  14.566  2.2614  2.5411 -0.7998
  627MPD2    H1 9289   1.536   0.572  14.292  0.2725 -0.8352 -0.4433
  627MPD2    H2 9290   1.769   0.928  14.276 -0.6637 -0.5310 -0.6382
  627MPD2    H3 9291   1.604   0.782  14.191  2.2470 -0.8086 -1.1806
  627MPD2     N 9292   1.693   0.468  14.507 -0.7886 -0.3343 -0.7570
  627MPD2    H5 9293   1.764   0.441  14.574  1.2723  3.1138 -1.5702
  627MPD2    N1 9294   1.932   0.867  14.485 -0.5074  0.7225  0.6769
  627MPD2    H7 9295   1.979   0.823  14.564  1.7777  1.3195 -0.3474
  628TMC3    C1 9296   2.094   1.033  14.509  0.0546  0.5297  0.1019
  628TMC3    C2 9297   2.193   0.937  14.510  0.2689 -0.5719 -0.8774
  628TMC3    C3 9298   2.321   0.981  14.536 -0.3805  0.4780  0.0921
  628TMC3    C4 9299   2.122   1.163  14.544 -0.3065 -0.4018  0.0476
  628TMC3    C5 9300   2.247   1.203  14.574 -0.6464 -0.0682  0.0707
  628TMC3    C6 9301   2.348   1.115  14.563  0.1425 -0.9622  0.5066
  628TMC3     C 9302   1.965   1.000  14.460  0.1153  0.4540  0.0062
  628TMC3     O 9303   1.908   1.089  14.391 -0.1040  0.2337 -0.5169
  628TMC3     H 9304   2.189   0.832  14.482  0.6392 -1.1518  1.2018
  628TMC3    H1 9305   2.048   1.237  14.520 -0.5272  0.1455  2.4417
  628TMC3    H2 9306   2.448   1.155  14.557  0.0930 -0.9491 -0.2153
  628TMC3    C7 9307   2.283   1.347  14.570 -0.0728 -0.1051 -1.0979
  628TMC3    C8 9308   2.422   0.908  14.466  0.4287  0.4747  0.4245
  628TMC3    O1 9309   2.399   1.374  14.599 -0.7854 -0.1243  0.2343
  628TMC3    O2 9310   2.391   0.817  14.388 -0.4909 -0.8637  0.4697
  629MPD2     C 9311   0.361   3.657  16.528 -0.3322  0.8867  0.8769
  629MPD2    C1 9312   0.366   3.771  16.456  0.7097 -0.2023  0.1132
  629MPD2    C2 9313   0.256   3.857  16.449  0.1183  0.0302 -0.0205
  629MPD2    C3 9314   0.143   3.824  16.511 -0.1845 -0.0010 -0.5788
  629MPD2    C4 9315   0.131   3.708  16.585  0.4020 -0.5802  0.3337
  629MPD2    C5 9316   0.247   3.630  16.600  0.2137 -0.3260 -0.5334
  629MPD2     H 9317   0.252   3.946  16.387 -0.4817  0.4689  0.6453
  629MPD2    H1 9318   0.039   3.680  16.635  0.9528 -0.8058  1.2198
  629MPD2    H2 9319   0.434   3.577  16.541 -0.9578  0.1025 -0.5124
  629MPD2    H3 9320   0.237   3.541  16.662 -0.3217 -0.7562 -1.2282
  629MPD2     N 9321   0.032   3.905  16.473 -0.0373 -0.2657 -0.4873
  629MPD2    H5 9322   0.053   3.988  16.420 -2.3645  0.5737 -0.1129
  629MPD2    N1 9323   0.484   3.781  16.372 -0.5453 -0.2952 -0.3429
  629MPD2    H7 9324   0.553   3.706  16.372 -0.1984  0.0408  1.3693
  630TMC3    C1 9325   0.643   3.874  16.227 -0.0150  0.1559  1.1103
  630TMC3    C2 9326   0.672   3.968  16.126  0.8847  0.1735 -0.1002
  630TMC3    C3 9327   0.801   3.961  16.083 -0.2357 -0.5129 -0.2261
  630TMC3    C4 9328   0.734   3.792  16.286  0.7590  0.1393  0.1672
  630TMC3    C5 9329   0.862   3.801  16.237  0.3404  0.2260  0.7407
  630TMC3    C6 9330   0.885   3.862  16.122 -0.3089 -0.1778  0.2741
  630TMC3     C 9331   0.513   3.886  16.290 -0.2496 -0.0892  0.1262
  630TMC3     O 9332   0.452   3.994  16.273 -0.1425 -0.0829  0.1040
  630TMC3     H 9333   0.597   4.040  16.094 -0.1932 -0.1313  1.7519
  630TMC3    H1 9334   0.714   3.748  16.384  0.0214  0.9594  0.3846
  630TMC3    H2 9335   0.983   3.851  16.077  0.0280  1.4932  0.6115
  630TMC3    C7 9336   0.963   3.805  16.339  0.3908  0.1498 -0.0243
  630TMC3    C8 9337   0.865   4.084  16.057  0.1397 -0.5994  0.2684
  630TMC3    O1 9338   0.949   3.729  16.434 -0.6035  0.5682  0.5065
  630TMC3    O2 9339   0.980   4.092  16.099 -0.5628 -0.0587  0.3663
  631MPD2     C 9340   4.093   4.683  14.909  0.2349  0.7284  0.1616
  631MPD2    C1 9341   3.981   4.704  14.987 -0.0028 -0.1327  0.5542
  631MPD2    C2 9342   4.005   0.029  15.112 -0.2149 -0.2235 -0.0210
  631MPD2    C3 9343   4.133   0.059  15.154  0.3428 -0.0372  0.1303
  631MPD2    C4 9344   4.244   0.041  15.067 -0.0353  0.4522  0.7314
  631MPD2    C5 9345   4.223   4.708  14.944  0.2529 -0.5977 -0.3436
  631MPD2     H 9346   3.923   0.058  15.178  0.8589  0.7992  0.8502
  631MPD2    H1 9347   4.344   0.070  15.095  0.6248 -0.8259 -0.2886
  631MPD2    H2 9348   4.082   4.646  14.807  1.1519 -1.1771  0.7566
  631MPD2    H3 9349   4.307   4.685  14.879  2.4083 -0.0189  2.1916
  631MPD2     N 9350   4.149   0.101  15.286 -0.6510 -0.1786  0.0009
  631MPD2    H5 9351   4.064   0.119  15.340 -0.0956 -1.8345  1.3996
  631MPD2    N1 9352   3.856   4.664  14.938  0.5145 -0.0338 -0.0385
  631MPD2    H7 9353   3.848   4.633  14.842  1.4100  0.8061 -0.3908
  632TMC3    C1 9354   3.620   4.638  14.974  0.0048 -0.4842  0.0059
  632TMC3    C2 9355   3.514   4.607  15.056 -0.9406 -0.2914 -0.0395
  632TMC3    C3 9356   3.396   4.673  15.035  0.9047 -0.6485 -0.3341
  632TMC3    C4 9357   3.608   4.699  14.851 -0.2602  0.5698 -0.5216
  632TMC3    C5 9358   3.482   0.031  14.823  0.1359  0.0695  0.6863
  632TMC3    C6 9359   3.371   0.024  14.914  0.2714  0.2536 -0.5464
  632TMC3     C 9360   3.749   4.645  15.033  0.3690  0.1575  0.7217
  632TMC3     O 9361   3.744   4.648  15.154  0.1579  0.6443 -0.4001
  632TMC3     H 9362   3.523   4.555  15.150  0.5033 -0.2302 -0.1477
  632TMC3    H1 9363   3.689   4.711  14.781 -1.0150  0.2309 -1.4431
  632TMC3    H2 9364   3.274   0.065  14.888 -0.3756  0.0523  1.5855
  632TMC3    C7 9365   3.465   0.145  14.739  0.7264 -0.4209  0.5137
  632TMC3    C8 9366   3.296   4.678  15.143 -0.0775 -0.8390  0.7954
  632TMC3    O1 9367   3.420   0.248  14.790  0.4398 -0.4876 -0.3522
  632TMC3    O2 9368   3.280   4.580  15.210 -0.5419  1.6233 -0.3176
  633MPD2     C 9369   3.433   1.921  17.297  0.2419  0.3062  0.8632
  633MPD2    C1 9370   3.486   1.870  17.178 -0.2307  0.0855  0.1578
  633MPD2    C2 9371   3.541   1.747  17.175  0.2345  0.0341  0.7859
  633MPD2    C3 9372   3.541   1.663  17.276  0.5116 -0.0045 -0.9639
  633MPD2    C4 9373   3.478   1.709  17.393  0.1049 -0.2391 -0.1111
  633MPD2    C5 9374   3.435   1.840  17.407  0.3374  0.0784 -0.1730
  633MPD2     H 9375   3.600   1.725  17.086 -0.2243  0.6531  0.3251
  633MPD2    H1 9376   3.457   1.657  17.486  0.4213  2.0056  1.2150
  633MPD2    H2 9377   3.405   2.025  17.312 -0.4585 -0.1347  2.6427
  633MPD2    H3 9378   3.413   1.880  17.505 -2.8585  0.8419 -1.2074
  633MPD2     N 9379   3.610   1.541  17.267 -0.0823  0.5601 -0.5367
  633MPD2    H5 9380   3.658   1.531  17.178 -1.3771 -0.6278 -1.1035
  633MPD2    N1 9381   3.505   1.946  17.062 -0.3563 -0.6176  0.0246
  633MPD2    H7 9382   3.535   1.897  16.978  2.3070  1.2532 -0.1114
  634TMC3    C1 9383   3.546   2.128  16.920  0.0276  0.1332  0.2173
  634TMC3    C2 9384   3.631   2.048  16.844 -0.1859  0.4386 -0.5590
  634TMC3    C3 9385   3.646   2.093  16.710 -0.1304  0.0666  0.6815
  634TMC3    C4 9386   3.495   2.244  16.883 -0.5779  0.0231 -0.0566
  634TMC3    C5 9387   3.529   2.288  16.762 -0.4383 -0.6764  0.2128
  634TMC3    C6 9388   3.595   2.214  16.667  0.4557 -0.3074 -0.2013
  634TMC3     C 9389   3.487   2.082  17.046 -0.9453  0.5796 -0.5882
  634TMC3     O 9390   3.430   2.153  17.125 -0.5580 -0.2244  0.0511
  634TMC3     H 9391   3.676   1.957  16.881  1.1801  1.1888 -0.3834
  634TMC3    H1 9392   3.427   2.293  16.952 -1.9808 -1.6961 -0.2171
  634TMC3    H2 9393   3.600   2.239  16.562  2.1155 -3.6742 -0.9344
  634TMC3    C7 9394   3.467   2.413  16.705 -0.6845  0.0034 -0.1862
  634TMC3    C8 9395   3.685   1.985  16.616  0.3735  0.2032 -0.7324
  634TMC3    O1 9396   3.491   2.428  16.586  0.8027  0.0216 -0.1461
  634TMC3    O2 9397   3.695   1.871  16.661 -0.2150 -0.1387  0.1367
  635TMC3    C1 9398   3.682   2.251  17.343  0.1783 -0.5348  0.3133
  635TMC3    C2 9399   3.771   2.187  17.263  0.4522 -0.5692 -0.1215
  635TMC3    C3 9400   3.785   2.053  17.281 -0.2941  0.3290  0.0403
  635TMC3    C4 9401   3.640   2.191  17.460 -0.0382  0.4816 -0.7712
  635TMC3    C5 9402   3.673   2.059  17.489  0.2902  0.3472 -0.0398
  635TMC3    C6 9403   3.746   1.988  17.392  0.0588 -0.6895 -0.3707
  635TMC3     C 9404   3.712   2.390  17.369 -0.4153 -0.1723  0.0238
  635TMC3     O 9405   3.637   2.454  17.441  0.1755  0.0049  0.1599
  635TMC3     H 9406   3.798   2.239  17.171 -2.0847  0.0403 -0.5229
  635TMC3    H1 9407   3.571   2.243  17.525 -1.1382 -3.9865  1.6136
  635TMC3    H2 9408   3.780   1.889  17.422 -1.5181 -1.4836 -1.1912
  635TMC3    C7 9409   3.663   2.009  17.626  0.2162 -0.0728  0.8455
  635TMC3    C8 9410   3.847   1.980  17.173  0.6047  0.7715  0.0661
  635TMC3    O1 9411   3.671   1.887  17.642 -0.8206  0.0166 -0.0155
  635TMC3    O2 9412   3.878   2.032  17.068 -0.6236 -0.4016 -0.7621
  636MPD2     C 9413   4.490   2.703  15.338  0.8787 -0.1364  0.5189
  636MPD2    C1 9414   4.516   2.706  15.475  0.0582 -0.3862  0.3158
  636MPD2    C2 9415   4.600   2.612  15.525  0.2546  0.5260 -0.1672
  636MPD2    C3 9416   4.649   2.508  15.450  0.3015  0.3225 -0.1053
  636MPD2    C4 9417   4.610   2.499  15.319  0.1663 -0.9928 -0.2259
  636MPD2    C5 9418   4.531   2.593  15.263  0.5265  0.0784 -0.0122
  636MPD2     H 9419   4.618   2.621  15.631  2.6831 -1.5445 -0.4087
  636MPD2    H1 9420   4.648   2.433  15.242  0.6315 -2.0026  0.8740
  636MPD2    H2 9421   4.426   2.773  15.286  0.4456  1.8856  3.8576
  636MPD2    H3 9422   4.490   2.578  15.164  3.9948  2.5456 -1.8150
  636MPD2     N 9423   0.019   2.414  15.510  0.6262  0.1273  0.5785
  636MPD2    H5 9424   0.048   2.430  15.606  0.5757 -0.8498  0.7504
  636MPD2    N1 9425   4.470   2.807  15.567 -0.0364 -0.3719 -0.8078
  636MPD2    H7 9426   4.493   2.804  15.666  0.7178  0.1637 -0.9699
  637TMC3    C1 9427   0.073   2.195  15.560 -0.0656  0.0731 -0.2975
  637TMC3    C2 9428   0.029   2.222  15.688 -0.5878  0.0257 -0.1759
  637TMC3    C3 9429   0.092   2.163  15.785 -0.6262  0.8235  0.2902
  637TMC3    C4 9430   0.177   2.104  15.532 -0.6912  0.7020 -0.0054
  637TMC3    C5 9431   0.250   2.058  15.639 -0.0597  0.4952 -0.0550
  637TMC3    C6 9432   0.191   2.073  15.764  0.1789 -0.4235  0.2673
  637TMC3     C 9433   0.046   2.294  15.455  0.4656 -0.2784  0.2245
  637TMC3     O 9434   0.043   2.255  15.336  0.1257  0.0692  0.1070
  637TMC3     H 9435   4.676   2.298  15.709  0.6949  1.6539 -1.6362
  637TMC3    H1 9436   0.228   2.104  15.436 -1.9199  0.7817 -0.6595
  637TMC3    H2 9437   0.232   2.028  15.854 -0.3192  1.7562  1.5805
  637TMC3    C7 9438   0.391   2.109  15.648 -0.0163  0.7825  0.4090
  637TMC3    C8 9439   0.114   2.259  15.892  0.5483 -0.2888 -0.4140
  637TMC3    O1 9440   0.403   2.194  15.737  0.0316  0.5022 -0.0440
  637TMC3    O2 9441   0.078   2.373  15.871 -0.3883  0.4109 -0.0070
  638MPD2     C 9442   0.030   1.380  14.640  0.2806  0.3836 -0.5159
  638MPD2    C1 9443   4.666   1.299  14.562 -0.0086 -0.1113 -0.3332
  638MPD2    C2 9444   4.628   1.175  14.622  0.0895 -0.0470 -0.7132
  638MPD2    C3 9445   4.683   1.136  14.742 -0.7273 -0.7220  0.5886
  638MPD2    C4 9446   0.047   1.217  14.810  0.6582 -0.3588 -0.5724
  638MPD2    C5 9447   0.082   1.334  14.754 -0.0726  0.2515  0.4485
  638MPD2     H 9448   4.570   1.095  14.578 -1.3030  0.9161 -0.6522
  638MPD2    H1 9449   0.080   1.196  14.911 -0.3964  0.5556 -0.0263
  638MPD2    H2 9450   0.063   1.474  14.597  1.6547 -0.2755 -0.9057
  638MPD2    H3 9451   0.142   1.404  14.812  1.2432  0.0284 -0.6444
  638MPD2     N 9452   4.662   1.005  14.784 -0.1898  0.2697 -0.3302
  638MPD2    H5 9453   4.586   0.957  14.736 -1.0087  0.5166  0.7107
  638MPD2    N1 9454   4.626   1.338  14.431 -0.0559 -0.1526 -0.3543
  638MPD2    H7 9455   4.684   1.417  14.403  0.7647  0.3102  2.5644
  639TMC3    C1 9456   4.670   0.806  14.912  0.0511  0.3651  0.2620
  639TMC3    C2 9457   4.541   0.781  14.873 -0.0057  0.8401 -0.1129
  639TMC3    C3 9458   4.509   0.644  14.876  0.3111  0.5553 -0.7036
  639TMC3    C4 9459   0.044   0.700  14.938  0.0297  0.4330 -0.1529
  639TMC3    C5 9460   4.718   0.575  14.935 -0.6539 -0.7602  0.6986
  639TMC3    C6 9461   4.592   0.539  14.903  0.9753  0.3098 -0.3410
  639TMC3     C 9462   0.015   0.933  14.877 -0.2297 -0.4851  0.1245
  639TMC3     O 9463   0.135   0.948  14.898  0.0211  0.1745  1.2738
  639TMC3     H 9464   4.475   0.860  14.841  0.2164  0.8276 -0.6021
  639TMC3    H1 9465   0.146   0.729  14.960 -0.0528  0.1564  0.5800
  639TMC3    H2 9466   4.553   0.438  14.908  1.7958  0.0621  1.1163
  639TMC3    C7 9467   0.075   0.463  14.989  0.2079 -0.2151 -0.0323
  639TMC3    C8 9468   4.382   0.603  14.819 -0.0522 -0.2226  0.0134
  639TMC3    O1 9469   0.017   0.362  15.022 -0.0670  0.1851 -0.0457
  639TMC3    O2 9470   4.370   0.500  14.759 -0.2245  0.2377 -0.3162
  640MPD2     C 9471   1.177   4.382   9.672  0.0729 -0.3384  0.4974
  640MPD2    C1 9472   1.047   4.349   9.643  0.0846  0.7779  0.3015
  640MPD2    C2 9473   0.945   4.440   9.678  0.6098 -0.0705 -0.2540
  640MPD2    C3 9474   0.974   4.561   9.745 -0.5142  0.0149  0.8095
  640MPD2    C4 9475   1.103   4.595   9.767 -0.1854  0.7218  0.4317
  640MPD2    C5 9476   1.205   4.508   9.733  0.2835 -0.2762  0.1563
  640MPD2     H 9477   0.845   4.419   9.641  0.8535 -1.6507 -0.0166
  640MPD2    H1 9478   1.123   4.696   9.802 -1.5992  0.1434  2.9674
  640MPD2    H2 9479   1.261   4.318   9.648 -0.7884 -0.0854 -3.2453
  640MPD2    H3 9480   1.307   4.530   9.763  0.2470 -0.6466  0.5459
  640MPD2     N 9481   0.879   4.657   9.788  0.3712 -0.0247  0.0393
  640MPD2    H5 9482   0.928   0.016   9.828 -0.4130  0.8417 -0.7251
  640MPD2    N1 9483   1.023   4.219   9.581 -0.1918 -0.2075  0.6506
  640MPD2    H7 9484   1.105   4.160   9.576 -2.6519 -3.7206  1.5105
  641TMC3    C1 9485   0.910   4.044   9.495  0.5815  0.7638  0.7476
  641TMC3    C2 9486   0.998   3.952   9.545 -0.1595 -0.2427 -0.0898
  641TMC3    C3 9487   0.995   3.830   9.483 -0.1478 -0.1174 -0.2306
  641TMC3    C4 9488   0.825   4.015   9.395  0.8667 -0.2075  0.5134
  641TMC3    C5 9489   0.825   3.890   9.333  0.8847  0.3103  0.3949
  641TMC3    C6 9490   0.910   3.794   9.381 -0.2264  0.1441  0.1801
  641TMC3     C 9491   0.903   4.176   9.537 -0.2314 -0.1953  0.3419
  641TMC3     O 9492   0.797   4.233   9.532 -0.0175 -1.1246  0.7327
  641TMC3     H 9493   1.051   3.966   9.639 -1.3971  0.1553  0.5370
  641TMC3    H1 9494   0.761   4.096   9.361 -0.0654 -0.7344  1.0021
  641TMC3    H2 9495   0.920   3.699   9.331  0.5636 -0.3975  1.3782
  641TMC3    C7 9496   0.722   3.858   9.236  0.1927  1.3504 -0.4355
  641TMC3    C8 9497   1.092   3.724   9.512 -0.7150  0.3765  0.8603
  641TMC3    O1 9498   0.756   3.763   9.163 -0.0050  0.7351 -0.0350
  641TMC3    O2 9499   1.062   3.612   9.467 -0.0658 -0.2125 -0.7369
  642TMC3    C1 9500   1.445   0.946  11.966  0.3370  0.6221  0.7155
  642TMC3    C2 9501   1.577   0.959  11.985 -0.4766 -0.0499 -0.5264
  642TMC3    C3 9502   1.649   0.849  11.965 -0.7563 -0.3411  1.2391
  642TMC3    C4 9503   1.373   0.828  11.938 -0.0012 -0.1071  0.2230
  642TMC3    C5 9504   1.447   0.713  11.932 -0.1757 -0.0672 -0.0703
  642TMC3    C6 9505   1.589   0.723  11.938 -0.1599 -0.3463  0.1385
  642TMC3     C 9506   1.359   1.051  12.025 -0.6003  0.1149 -0.0570
  642TMC3     O 9507   1.241   1.034  12.018 -0.4712 -0.1488 -0.3517
  642TMC3     H 9508   1.625   1.056  11.982 -0.4083 -0.0951 -0.9024
  642TMC3    H1 9509   1.266   0.828  11.920  0.0669 -1.1609 -0.1668
  642TMC3    H2 9510   1.648   0.635  11.914  2.3488  0.4428  3.4556
  642TMC3    C7 9511   1.391   0.608  11.868 -0.5729  0.0132 -0.3034
  642TMC3    C8 9512   1.788   0.873  11.920 -0.0360 -0.4349  0.6830
  642TMC3    O1 9513   1.311   0.621  11.778 -0.2911  0.6841  0.1731
  642TMC3    O2 9514   1.826   0.988  11.935  0.1748 -0.0730 -0.9915
  643TMC3    C1 9515   0.927   0.193   0.150 -0.3623 -0.2867 -0.0077
  643TMC3    C2 9516   0.797   0.241   0.168 -0.5099  1.0034 -0.0339
  643TMC3    C3 9517   0.705   0.206   0.067  0.1976 -0.4143 -0.1163
  643TMC3    C4 9518   0.959   0.107   0.050  0.0173 -1.1161  0.1711
  643TMC3    C5 9519   0.863   0.059  17.645 -0.3455  0.1130 -0.9029
  643TMC3    C6 9520   0.735   0.111  17.654  0.3551  0.3615 -0.0526
  643TMC3     C 9521   1.029   0.258   0.229  0.0401  0.9034 -0.0105
  643TMC3     O 9522   1.010   0.377   0.258  0.0277  0.2011  0.3402
  643TMC3     H 9523   0.776   0.322   0.237  1.7746  1.1921  0.4398
  643TMC3    H1 9524   1.059   0.084   0.015 -0.3734  1.3784 -2.5585
  643TMC3    H2 9525   0.657   0.073  17.589  0.0209 -0.2246  0.6892
  643TMC3    C7 9526   0.912   0.051  17.509  0.2384  0.8008  0.2466
  643TMC3    C8 9527   0.639   0.330   0.020 -0.2964  0.3714  0.6269
  643TMC3    O1 9528   1.002   0.121  17.477 -0.2334 -0.5839 -0.3348
  643TMC3    O2 9529   0.650   0.435   0.083  0.1574  0.2945  0.0411
  644MPD2     C 9530   1.081   4.588   9.168  1.1217  0.3239 -0.5966
  644MPD2    C1 9531   0.965   4.521   9.151  0.0995  0.5152 -0.4566
  644MPD2    C2 9532   0.844   4.586   9.131  0.1443 -0.0072 -0.3675
  644MPD2    C3 9533   0.844   0.006   9.119 -0.0194  0.1115  0.4886
  644MPD2    C4 9534   0.969   0.073   9.125 -0.4328  0.2838  0.3994
  644MPD2    C5 9535   1.087   0.006   9.153  0.2448  0.1848  0.9166
  644MPD2     H 9536   0.755   4.526   9.121  2.3316 -3.3087 -0.0767
  644MPD2    H1 9537   0.985   0.180   9.112 -2.4434  0.2851 -2.1518
  644MPD2    H2 9538   1.178   4.538   9.172  0.0531 -1.6412  0.9465
  644MPD2    H3 9539   1.184   0.054   9.161 -0.6386  2.0618  0.2732
  644MPD2     N 9540   0.720   0.072   9.094  0.1410 -0.3474  0.4241
  644MPD2    H5 9541   0.637   0.014   9.087  1.2869 -1.9498  0.1380
  644MPD2    N1 9542   0.985   4.381   9.161  0.0872  0.2006  0.6293
  644MPD2    H7 9543   1.081   4.351   9.170  0.0182 -0.1253  0.2747
  645TMC3    C1 9544   0.560   0.245   9.095 -0.2742  0.4280  0.1698
  645TMC3    C2 9545   0.536   0.375   9.061 -0.1529  1.0247  0.1335
  645TMC3    C3 9546   0.406   0.413   9.048 -0.4962 -0.5871 -0.2574
  645TMC3    C4 9547   0.464   0.148   9.106  0.6732  0.1364  0.0406
  645TMC3    C5 9548   0.338   0.198   9.098 -0.2594 -0.0573  0.4859
  645TMC3    C6 9549   0.298   0.326   9.065 -0.1069 -0.6236  0.1144
  645TMC3     C 9550   0.704   0.208   9.104  0.6376 -0.2816 -0.3102
  645TMC3     O 9551   0.785   0.293   9.126  0.0099  0.5829  0.2876
  645TMC3     H 9552   0.624   0.436   9.044  0.3020  0.3282 -0.0422
  645TMC3    H1 9553   0.477   0.054   9.158 -0.8387  0.6677  1.4197
  645TMC3    H2 9554   0.197   0.366   9.061  0.5530  1.0640  0.2268
  645TMC3    C7 9555   0.220   0.116   9.134 -0.5335 -0.2671  0.4023
  645TMC3    C8 9556   0.371   0.553   9.038 -0.1762 -0.3766  0.0754
  645TMC3    O1 9557   0.124   0.175   9.176  0.0163  0.4261  0.3620
  645TMC3    O2 9558   0.259   0.571   8.990  0.0429 -0.2643  0.4969
  646MPD2     C 9559   3.992   4.389  14.468  0.7915 -0.4749  0.0561
  646MPD2    C1 9560   4.075   4.473  14.538  0.1862  0.2109 -0.2153
  646MPD2    C2 9561   4.053   4.609  14.523 -0.1470 -0.6190  0.1617
  646MPD2    C3 9562   3.965   4.661  14.426  0.2862  0.5102  0.3134
  646MPD2    C4 9563   3.892   4.575  14.348 -0.4387 -0.1037 -0.1102
  646MPD2    C5 9564   3.904   4.441  14.372 -0.2966 -0.5573  0.0177
  646MPD2     H 9565   4.096   4.678  14.595 -1.1763 -0.1621  0.3409
  646MPD2    H1 9566   3.816   4.612  14.281 -1.5720 -0.1632  1.1331
  646MPD2    H2 9567   3.982   4.281  14.477  0.3636 -0.4277  0.1303
  646MPD2    H3 9568   3.848   4.372  14.311  4.8165 -1.9208 -3.1357
  646MPD2     N 9569   3.940   0.079  14.419 -0.1376  0.3645  0.7282
  646MPD2    H5 9570   3.989   0.135  14.488 -2.9622  1.5849  1.7681
  646MPD2    N1 9571   4.164   4.420  14.635  0.0211 -0.1858  0.3364
  646MPD2    H7 9572   4.139   4.332  14.678  0.1275  1.0352  2.8662
  647TMC3    C1 9573   4.346   4.431  14.782  0.3901  0.3162 -0.0199
  647TMC3    C2 9574   4.280   4.375  14.884 -0.4247 -0.2771 -0.4000
  647TMC3    C3 9575   4.356   4.368  15.004 -0.6719 -0.2701  0.4420
  647TMC3    C4 9576   4.478   4.471  14.796 -0.1640  0.9808  0.4706
  647TMC3    C5 9577   4.545   4.466  14.915  0.0696  0.3381 -0.5498
  647TMC3    C6 9578   4.482   4.416  15.022 -1.0046 -0.0995  0.4729
  647TMC3     C 9579   4.284   4.479  14.655 -0.0572 -0.1288 -0.9843
  647TMC3     O 9580   4.340   4.569  14.592  0.2466 -0.0776  0.0504
  647TMC3     H 9581   4.181   4.336  14.867 -0.5769 -0.9369  2.0058
  647TMC3    H1 9582   4.530   4.514  14.711 -1.9458  0.6486 -0.7958
  647TMC3    H2 9583   4.538   4.385  15.109 -1.6832 -1.5426  0.3982
  647TMC3    C7 9584   4.686   4.453  14.914  0.0175 -0.0269 -0.0858
  647TMC3    C8 9585   4.324   4.259  15.098  0.6495 -0.0262  0.8534
  647TMC3    O1 9586   0.019   4.413  15.013  0.2308  0.5176 -0.8627
  647TMC3    O2 9587   4.408   4.222  15.180  0.0212  0.4220  0.3962
  648TMC3    C1 9588   4.096   2.195  15.962  0.0605  0.1104 -0.2593
  648TMC3    C2 9589   4.136   2.078  15.907 -0.0032  0.9573 -0.1689
  648TMC3    C3 9590   4.096   2.042  15.783  0.3639 -0.5141 -0.2969
  648TMC3    C4 9591   4.012   2.277  15.894 -0.1416 -0.4313  0.3501
  648TMC3    C5 9592   3.965   2.235  15.771  0.8654  0.3054  0.3859
  648TMC3    C6 9593   4.007   2.115  15.713  0.2228 -0.2744  0.6125
  648TMC3     C 9594   4.080   2.209  16.107  0.5234 -0.0932 -0.0967
  648TMC3     O 9595   4.029   2.315  16.148 -0.3770 -0.4430  0.2664
  648TMC3     H 9596   4.209   2.013  15.954 -1.4142 -0.4531  0.0871
  648TMC3    H1 9597   3.967   2.363  15.942  0.9793  0.6134 -0.4829
  648TMC3    H2 9598   3.960   2.077  15.623 -0.5410 -0.5709  1.1388
  648TMC3    C7 9599   3.869   2.312  15.705 -0.5352 -0.0519  0.3613
  648TMC3    C8 9600   4.115   1.903  15.751 -0.1114 -0.0831 -0.2130
  648TMC3    O1 9601   3.874   2.296  15.582  0.0999  0.4650 -0.0891
  648TMC3    O2 9602   4.011   1.840  15.744 -0.1409  0.1339 -0.6129
  649TMC3    C1 9603   3.139   3.404  12.648  0.1522 -0.3876 -0.5989
  649TMC3    C2 9604   3.266   3.446  12.619  0.3887 -0.2631  0.3572
  649TMC3    C3 9605   3.357   3.404  12.715  0.0698  0.0031 -0.1119
  649TMC3    C4 9606   3.112   3.305  12.734  0.8942 -0.2434  0.1929
  649TMC3    C5 9607   3.205   3.256  12.813 -0.2180 -0.2291  0.5788
  649TMC3    C6 9608   3.333   3.305  12.811  0.3837 -0.1389 -0.3176
  649TMC3     C 9609   3.027   3.488  12.607  0.3013 -0.6452 -0.0422
  649TMC3     O 9610   3.058   3.596  12.559 -0.3621 -0.2158  0.1995
  649TMC3     H 9611   3.291   3.526  12.550 -0.1230 -0.7093 -0.3374
  649TMC3    H1 9612   3.008   3.286  12.757  0.2628  0.0720 -2.4563
  649TMC3    H2 9613   3.412   3.276  12.880  0.3329  1.6425  0.4837
  649TMC3    C7 9614   3.162   3.166  12.914 -0.2178  0.1626 -1.0018
  649TMC3    C8 9615   3.502   3.434  12.711  0.3704  0.1956  0.3746
  649TMC3    O1 9616   3.226   3.155  13.013 -0.1044 -0.5185 -0.7287
  649TMC3    O2 9617   3.585   3.387  12.785  0.8622 -0.9638 -0.5292
  650TMC3    C1 9618   0.735   0.391  12.879  0.7696 -0.0886 -0.3118
  650TMC3    C2 9619   0.686   0.519  12.860  0.1795  0.7850 -0.1915
  650TMC3    C3 9620   0.647   0.554  12.730 -0.7929  0.1129 -0.0291
  650TMC3    C4 9621   0.735   0.300  12.772 -0.1151 -0.0944  0.2515
  650TMC3    C5 9622   0.692   0.337  12.646 -0.1708 -0.4433 -0.1717
  650TMC3    C6 9623   0.653   0.467  12.620  0.0922 -0.2443  0.0460
  650TMC3     C 9624   0.818   0.379  13.000  0.0393  0.3577  0.0754
  650TMC3     O 9625   0.813   0.471  13.085  0.8387 -0.0057  0.2100
  650TMC3     H 9626   0.678   0.596  12.936 -1.3035  0.0293  0.4177
  650TMC3    H1 9627   0.780   0.204  12.793  0.6457 -0.1516 -1.6416
  650TMC3    H2 9628   0.628   0.502  12.520  1.1371 -1.2933 -0.5724
  650TMC3    C7 9629   0.722   0.252  12.532 -0.4255 -0.3577 -0.2496
  650TMC3    C8 9630   0.611   0.687  12.697 -0.0557 -0.4340 -0.0868
  650TMC3    O1 9631   0.792   0.155  12.561 -0.5725  0.8229  0.8110
  650TMC3    O2 9632   0.692   0.775  12.732  0.2886  0.2010 -0.1255
  651MPD2     C 9633   4.446   2.283  10.423 -0.2449 -0.5536  0.5551
  651MPD2    C1 9634   4.478   2.344  10.540 -0.9193  0.2962 -0.7874
  651MPD2    C2 9635   4.613   2.364  10.567 -0.0528 -0.6627 -0.1281
  651MPD2    C3 9636   4.714   2.333  10.476  0.1857 -0.1766 -0.3856
  651MPD2    C4 9637   4.677   2.269  10.362 -0.3744 -0.5892 -0.0591
  651MPD2    C5 9638   4.547   2.245  10.337  0.6327 -0.0952  0.5999
  651MPD2     H 9639   4.646   2.412  10.658  0.4866  0.1515 -0.7548
  651MPD2    H1 9640   0.029   2.232  10.290  1.0942 -1.8239  2.0622
  651MPD2    H2 9641   4.346   2.258  10.389 -0.4833  1.5138 -0.3027
  651MPD2    H3 9642   4.516   2.213  10.238  0.0663  1.0186  0.4190
  651MPD2     N 9643   0.123   2.353  10.522  0.0344 -0.4646 -0.4048
  651MPD2    H5 9644   0.139   2.414  10.601 -1.7310 -1.9382  1.0865
  651MPD2    N1 9645   4.388   2.394  10.629 -0.1565 -0.2385  0.1304
  651MPD2    H7 9646   4.428   2.448  10.704  1.0833 -0.7854 -0.1408
  652TMC3    C1 9647   0.589   2.408  10.473  0.4182  0.0819  0.3419
  652TMC3    C2 9648   0.472   2.337  10.433 -0.2111  0.6124  0.1104
  652TMC3    C3 9649   0.356   2.383  10.485 -1.4450  0.4079  0.7217
  652TMC3    C4 9650   0.587   2.533  10.537  0.0991  0.6558  0.4523
  652TMC3    C5 9651   0.465   2.583  10.558  0.3156 -0.1774  0.0593
  652TMC3    C6 9652   0.353   2.512  10.546  0.3309  0.2497  0.6226
  652TMC3     C 9653   0.721   2.348  10.457 -0.6553 -0.1309  0.5470
  652TMC3     O 9654   0.738   2.283  10.357 -0.0865  0.0014  0.8219
  652TMC3     H 9655   0.483   2.244  10.379  0.4508  0.8114 -0.1006
  652TMC3    H1 9656   0.669   2.601  10.559 -1.5361  3.0484 -0.7511
  652TMC3    H2 9657   0.257   2.550  10.580 -0.6222 -0.9836 -0.7157
  652TMC3    C7 9658   0.441   2.729  10.572  0.4154 -0.0623  0.3436
  652TMC3    C8 9659   0.232   2.310  10.453  0.3444 -0.0029  0.4028
  652TMC3    O1 9660   0.327   2.757  10.614 -0.2614 -0.1032 -0.6253
  652TMC3    O2 9661   0.236   2.232  10.359 -0.2828 -0.0048  0.2650
  653MPD2     C 9662   3.201   1.955   0.021 -0.5112  0.2042  0.0148
  653MPD2    C1 9663   3.192   2.060  17.610 -0.0820  0.4460 -0.0212
  653MPD2    C2 9664   3.153   2.040  17.476  0.0090  0.0860  0.2374
  653MPD2    C3 9665   3.121   1.907  17.448 -0.2231 -0.6452 -0.1366
  653MPD2    C4 9666   3.141   1.806  17.543  0.5856  0.1142  0.1036
  653MPD2    C5 9667   3.184   1.826  17.670  0.4934 -0.4416  0.5239
  653MPD2     H 9668   3.152   2.115  17.399 -1.9597  1.0579  1.2153
  653MPD2    H1 9669   3.127   1.702  17.516 -2.1674 -0.2929  3.1347
  653MPD2    H2 9670   3.217   1.989   0.123  0.2881 -0.5542  0.1440
  653MPD2    H3 9671   3.183   1.743   0.055  0.3561 -1.5561 -0.8058
  653MPD2     N 9672   3.081   1.886  17.314 -0.8535  0.2718 -0.0928
  653MPD2    H5 9673   3.058   1.968  17.259 -2.1898  0.3362  0.5493
  653MPD2    N1 9674   3.244   2.187  17.636  0.2645  0.3576  0.2792
  653MPD2    H7 9675   3.240   2.253  17.559  0.7982  1.2527  1.0310
  654TMC3    C1 9676   3.035   1.753  17.119  0.1896 -0.3460  0.5251
  654TMC3    C2 9677   2.967   1.865  17.069  0.0542  0.6944 -0.1297
  654TMC3    C3 9678   2.931   1.858  16.934 -0.2814  0.2559  0.2379
  654TMC3    C4 9679   3.063   1.641  17.046  0.1672  0.0796 -0.2540
  654TMC3    C5 9680   3.031   1.638  16.911 -0.4088 -0.2506 -0.0495
  654TMC3    C6 9681   2.965   1.747  16.856  0.3395 -0.1712 -0.3163
  654TMC3     C 9682   3.097   1.765  17.251  0.5636  0.1188 -0.4432
  654TMC3     O 9683   3.170   1.670  17.288 -0.0564 -0.2075  0.6234
  654TMC3     H 9684   2.930   1.948  17.128 -2.2936 -0.3013 -0.1657
  654TMC3    H1 9685   3.105   1.552  17.091 -0.9893  0.0708  0.8017
  654TMC3    H2 9686   2.930   1.745  16.753 -2.8016 -1.5760  0.7842
  654TMC3    C7 9687   2.977   1.515  16.850  0.3859  0.1609  0.2675
  654TMC3    C8 9688   2.849   1.957  16.873 -0.7018  1.0950 -0.4770
  654TMC3    O1 9689   2.862   1.526  16.802 -0.0831  0.4336  0.0437
  654TMC3    O2 9690   2.768   2.019  16.940  0.0484  0.6038  0.0690
  655MPD2     C 9691   4.386   2.288  15.654  0.5407 -0.2500 -0.6865
  655MPD2    C1 9692   4.314   2.386  15.585 -0.0124 -0.3206  0.0124
  655MPD2    C2 9693   4.287   2.365  15.453 -0.0659 -0.1072  0.0716
  655MPD2    C3 9694   4.339   2.261  15.385 -0.4931 -0.3551 -0.5936
  655MPD2    C4 9695   4.425   2.178  15.453  0.8506 -0.2525  0.0890
  655MPD2    C5 9696   4.445   2.188  15.583  0.1430 -0.7435 -0.0490
  655MPD2     H 9697   4.228   2.445  15.411 -0.7229 -0.3943  0.4412
  655MPD2    H1 9698   4.473   2.098  15.399 -0.8465 -0.5595 -0.9712
  655MPD2    H2 9699   4.406   2.291  15.761 -2.0266  1.4238 -0.2729
  655MPD2    H3 9700   4.501   2.107  15.629  2.6757  2.0112  1.6666
  655MPD2     N 9701   4.309   2.237  15.248 -0.3533 -0.5403  0.2051
  655MPD2    H5 9702   4.357   2.154  15.214 -0.6211  0.8185 -3.5382
  655MPD2    N1 9703   4.260   2.505  15.645  0.4126 -0.4872  0.7174
  655MPD2    H7 9704   4.206   2.566  15.584  0.5987 -1.1451 -0.0973
  656TMC3    C1 9705   4.175   2.641  15.800  0.0959 -0.3729 -0.4689
  656TMC3    C2 9706   4.110   2.639  15.921  0.4614 -0.0769  0.3091
  656TMC3    C3 9707   4.000   2.717  15.934  0.6060 -0.4861  0.4257
  656TMC3    C4 9708   4.124   2.712  15.694  0.3530  0.5264  0.3503
  656TMC3    C5 9709   4.012   2.782  15.713 -1.1170  0.1287  0.1826
  656TMC3    C6 9710   3.943   2.788  15.830 -1.0623 -0.4165 -0.1764
  656TMC3     C 9711   4.274   2.547  15.775  0.2572 -0.4489 -0.5719
  656TMC3     O 9712   4.324   2.485  15.872  0.4384 -0.1074  0.1792
  656TMC3     H 9713   4.149   2.599  16.014  0.5703 -0.0624  0.2702
  656TMC3    H1 9714   4.181   2.744  15.607  1.9020 -1.2017  0.7325
  656TMC3    H2 9715   3.839   2.816  15.844 -1.6018 -2.4427 -0.0782
  656TMC3    C7 9716   3.964   2.860  15.603  0.0329 -0.3237 -0.4270
  656TMC3    C8 9717   3.910   2.675  16.036  0.1386  1.2597 -0.2499
  656TMC3    O1 9718   4.031   2.876  15.501  0.0656 -0.2728 -0.0989
  656TMC3    O2 9719   3.896   2.554  16.042 -0.3841  0.6561 -0.0163
  657TMC3    C1 9720   3.481   1.600  14.839  1.0075  0.2263 -0.3463
  657TMC3    C2 9721   3.513   1.607  14.972 -0.1497 -0.2373  0.2990
  657TMC3    C3 9722   3.432   1.687  15.045 -0.4076  0.8945 -0.0260
  657TMC3    C4 9723   3.371   1.663  14.781  0.7161  0.4307 -0.2162
  657TMC3    C5 9724   3.291   1.740  14.865  0.4143 -0.4416  0.2216
  657TMC3    C6 9725   3.322   1.755  14.998  0.2487 -0.3333 -0.0850
  657TMC3     C 9726   3.580   1.541  14.742  0.5810  0.2286  0.3863
  657TMC3     O 9727   3.532   1.502  14.635 -0.3171  0.1359 -0.6311
  657TMC3     H 9728   3.597   1.553  15.012 -0.1099  0.8977  1.7298
  657TMC3    H1 9729   3.356   1.659  14.674  0.9982 -1.1166 -0.1925
  657TMC3    H2 9730   3.274   1.833  15.056  0.1402  1.5094 -2.7110
  657TMC3    C7 9731   3.205   1.835  14.803  0.0270  0.9908 -0.7274
  657TMC3    C8 9732   3.472   1.720  15.186  0.4715  0.7765  0.1902
  657TMC3    O1 9733   3.220   1.850  14.680 -0.1797 -0.3072 -0.5668
  657TMC3    O2 9734   3.440   1.825  15.231  0.1230  0.6292  0.2480
  658MPD2     C 9735   4.626   2.218  14.510  0.7362  0.2974 -0.7026
  658MPD2    C1 9736   4.512   2.291  14.528  0.5278  0.9785  0.0210
  658MPD2    C2 9737   4.476   2.382  14.418  0.7123  0.3241 -0.0448
  658MPD2    C3 9738   4.559   2.401  14.303  0.3197  0.0621  0.8760
  658MPD2    C4 9739   4.670   2.326  14.289 -0.1795  0.0585 -0.3762
  658MPD2    C5 9740   4.698   2.234  14.386 -0.3467 -0.8585 -1.2418
  658MPD2     H 9741   4.397   2.453  14.438  1.0979  1.2166 -1.7332
  658MPD2    H1 9742   0.021   2.322  14.208  1.4601 -0.3884  1.1108
  658MPD2    H2 9743   4.636   2.132  14.576  1.7596  2.4151  1.8904
  658MPD2    H3 9744   0.064   2.173  14.367  0.0445 -0.1799 -1.6504
  658MPD2     N 9745   4.521   2.498  14.209 -0.9484  0.1037  0.6887
  658MPD2    H5 9746   4.438   2.552  14.228 -0.4023  0.5664  1.7344
  658MPD2    N1 9747   4.421   2.287  14.634  0.0730 -0.3880 -0.4459
  658MPD2    H7 9748   4.333   2.332  14.613 -1.2129 -2.7648 -0.1567
  659TMC3    C1 9749   4.309   2.249  14.827  0.0663 -0.4248 -0.5998
  659TMC3    C2 9750   4.321   2.244  14.963 -0.4744  0.2325  0.4665
  659TMC3    C3 9751   4.202   2.242  15.032  0.6483 -0.3673  0.6763
  659TMC3    C4 9752   4.189   2.266  14.761  0.0508 -0.1570 -0.0535
  659TMC3    C5 9753   4.073   2.262  14.842 -0.3149 -0.1196  0.0706
  659TMC3    C6 9754   4.078   2.244  14.979  0.5436 -0.7251 -0.0539
  659TMC3     C 9755   4.436   2.236  14.756 -0.1776 -0.0032  0.2718
  659TMC3     O 9756   4.532   2.180  14.804 -0.3760 -0.3146  0.4297
  659TMC3     H 9757   4.415   2.232  15.015 -0.8377 -0.2706  1.0087
  659TMC3    H1 9758   4.179   2.271  14.653 -2.2853  0.5610  0.1911
  659TMC3    H2 9759   3.985   2.248  15.033 -0.0137  2.0639 -1.1948
  659TMC3    C7 9760   3.941   2.227  14.790  0.1857 -0.2692  0.3415
  659TMC3    C8 9761   4.202   2.289  15.169  0.2524 -0.1760  0.6599
  659TMC3    O1 9762   3.847   2.284  14.846 -0.4389 -0.3318  0.9641
  659TMC3    O2 9763   4.112   2.365  15.211 -0.2482  0.7192  0.2790
  660MPD2     C 9764   2.588   1.431  12.568  0.1516 -0.2385 -0.4830
  660MPD2    C1 9765   2.478   1.375  12.500  0.1357  0.2392 -0.0357
  660MPD2    C2 9766   2.428   1.248  12.533  0.3780 -0.6967 -0.3982
  660MPD2    C3 9767   2.487   1.175  12.638  0.0459  0.3747  0.0589
  660MPD2    C4 9768   2.591   1.237  12.708  0.5151 -0.4107  0.5677
  660MPD2    C5 9769   2.642   1.356  12.668 -0.2178 -0.9413  0.1865
  660MPD2     H 9770   2.343   1.207  12.481 -0.0948  0.2465 -0.3582
  660MPD2    H1 9771   2.643   1.183  12.786 -0.4737 -0.8696  0.8980
  660MPD2    H2 9772   2.626   1.530  12.547 -0.9538 -0.0444 -1.5511
  660MPD2    H3 9773   2.732   1.387  12.720  0.5143  1.0745 -2.2695
  660MPD2     N 9774   2.444   1.055  12.700 -0.0983  0.3774  0.4596
  660MPD2    H5 9775   2.490   1.020  12.784  1.1428  0.1571 -0.3200
  660MPD2    N1 9776   2.407   1.458  12.412  0.4292  0.5976  0.2274
  660MPD2    H7 9777   2.461   1.529  12.363  0.6130  0.5135  0.3087
  661TMC3    C1 9778   2.206   1.524  12.272  0.1875  0.2177  0.3621
  661TMC3    C2 9779   2.292   1.556  12.171 -0.5327 -0.2326  0.1938
  661TMC3    C3 9780   2.238   1.566  12.047 -0.2273 -0.1330 -0.6473
  661TMC3    C4 9781   2.073   1.517  12.264  0.0231 -0.4839  0.6593
  661TMC3    C5 9782   2.023   1.534  12.134 -0.8596  0.0210  0.2397
  661TMC3    C6 9783   2.103   1.563  12.022  0.6922  0.1631  0.0234
  661TMC3     C 9784   2.273   1.448  12.386  0.9950 -0.3069 -0.4528
  661TMC3     O 9785   2.193   1.389  12.462 -0.3493  0.3830 -0.3461
  661TMC3     H 9786   2.400   1.552  12.180 -0.6830 -0.2241  2.0444
  661TMC3    H1 9787   2.005   1.502  12.347  0.9128 -0.5122  1.3743
  661TMC3    H2 9788   2.057   1.558  11.924  1.2804 -1.5550 -0.1718
  661TMC3    C7 9789   1.894   1.484  12.110  0.5200 -0.8395  0.6590
  661TMC3    C8 9790   2.316   1.594  11.937  0.4513 -0.9196  0.4243
  661TMC3    O1 9791   1.803   1.528  12.179 -0.4540 -0.3035  0.4408
  661TMC3    O2 9792   2.290   1.527  11.835 -0.5548 -0.2568 -0.6489
  662MPD2     C 9793   2.168   0.893  16.857 -0.3475 -0.5521  0.3424
  662MPD2    C1 9794   2.274   0.842  16.930 -0.4241  0.0816  0.6037
  662MPD2    C2 9795   2.398   0.896  16.912 -0.2697  0.6470  0.3851
  662MPD2    C3 9796   2.418   1.011  16.838  0.5274 -0.8503 -0.6030
  662MPD2    C4 9797   2.313   1.071  16.770  0.5473  0.3275 -0.3301
  662MPD2    C5 9798   2.186   1.012  16.782  0.3466  0.4424  0.4152
  662MPD2     H 9799   2.475   0.847  16.970  0.3380  0.8758 -0.2330
  662MPD2    H1 9800   2.321   1.156  16.702  0.7001  1.4739  1.1310
  662MPD2    H2 9801   2.071   0.848  16.871 -0.8891 -0.0098 -1.6556
  662MPD2    H3 9802   2.107   1.062  16.727 -0.0094 -0.7725 -0.1734
  662MPD2     N 9803   2.542   1.077  16.839 -0.5125  0.1208  0.0619
  662MPD2    H5 9804   2.545   1.169  16.798 -2.5283  0.0080 -0.3469
  662MPD2    N1 9805   2.259   0.743  17.025  0.8326  0.5836  0.3832
  662MPD2    H7 9806   2.346   0.712  17.068  1.8802  2.0917 -0.6233
  663TMC3    C1 9807   2.156   0.577  17.165  0.4834 -0.2529 -0.8002
  663TMC3    C2 9808   2.269   0.568  17.239  0.2515  0.4017 -0.0943
  663TMC3    C3 9809   2.272   0.476  17.342  0.0565  0.1857 -1.0136
  663TMC3    C4 9810   2.058   0.482  17.173  0.4232  0.5781  0.8442
  663TMC3    C5 9811   2.086   0.371  17.240 -0.3974 -0.6511  0.4602
  663TMC3    C6 9812   2.192   0.363  17.323  0.5880 -0.3060  0.2406
  663TMC3     C 9813   2.134   0.678  17.063 -0.4992 -0.0102 -0.0540
  663TMC3     O 9814   2.017   0.687  17.018  0.2203  0.2256 -0.1807
  663TMC3     H 9815   2.340   0.650  17.243  0.0350  0.5299  1.0918
  663TMC3    H1 9816   1.961   0.495  17.128  0.0259  1.8559  2.0676
  663TMC3    H2 9817   2.186   0.293  17.405 -0.7327 -1.2952 -0.7211
  663TMC3    C7 9818   1.989   0.267  17.228 -0.6453 -0.1620  0.8190
  663TMC3    C8 9819   2.266   0.551  17.471  0.9246  0.5889  0.4343
  663TMC3    O1 9820   1.867   0.283  17.219  0.3200  0.0372  0.5777
  663TMC3    O2 9821   2.231   0.671  17.463  0.0580 -0.3512  0.2204
  664MPD2     C 9822   0.903   3.570  17.451 -0.9465 -0.0063 -0.2065
  664MPD2    C1 9823   1.009   3.658  17.468 -0.5328 -0.0796 -0.3309
  664MPD2    C2 9824   1.031   3.709  17.594 -0.3293  0.2562 -0.5582
  664MPD2    C3 9825   0.965   3.673   0.022  0.1712  0.7117 -0.1608
  664MPD2    C4 9826   0.853   3.591   0.004  0.8862 -0.3051 -0.3783
  664MPD2    C5 9827   0.831   3.538  17.565 -0.5646  0.3572  0.2974
  664MPD2     H 9828   1.118   3.771  17.613 -1.2208  0.6772  2.1366
  664MPD2    H1 9829   0.790   3.575   0.090  0.6944  0.7516 -0.3194
  664MPD2    H2 9830   0.875   3.526  17.356  0.4454 -0.8099 -0.2388
  664MPD2    H3 9831   0.743   3.479  17.541 -2.6972  2.8827  1.8801
  664MPD2     N 9832   1.003   3.729   0.147 -0.2793  0.3784  0.0320
  664MPD2    H5 9833   1.072   3.803   0.137  0.1538  0.1106  1.0172
  664MPD2    N1 9834   1.090   3.715  17.365 -0.2901  0.1440  0.0070
  664MPD2    H7 9835   1.141   3.797  17.397  0.6101 -0.8241  1.0562
  665TMC3    C1 9836   1.031   3.769   0.378  0.2519  0.3897  0.4029
  665TMC3    C2 9837   1.026   3.712   0.501  0.3557 -0.2531  0.1192
  665TMC3    C3 9838   1.026   3.796   0.608  0.3512  0.3869 -0.6131
  665TMC3    C4 9839   1.046   3.895   0.352  0.7396  0.6776  0.0114
  665TMC3    C5 9840   1.055   3.975   0.463  0.2345 -0.4646  0.2585
  665TMC3    C6 9841   1.073   3.924   0.591  0.5684 -0.3156 -0.4989
  665TMC3     C 9842   0.963   3.697   0.275 -0.3663 -0.1248 -1.1936
  665TMC3     O 9843   0.893   3.598   0.312  0.0268 -0.1211 -1.2812
  665TMC3     H 9844   1.005   3.605   0.504 -0.8023 -0.0628 -1.1174
  665TMC3    H1 9845   1.018   3.933   0.254  0.1581  0.3662  0.0557
  665TMC3    H2 9846   1.073   3.985   0.681 -0.8161 -0.3542 -0.4693
  665TMC3    C7 9847   1.122   4.098   0.429  0.0129  0.5653  0.3334
  665TMC3    C8 9848   1.056   3.734   0.734  0.4092  0.3957  0.5679
  665TMC3    O1 9849   1.116   4.131   0.309 -0.4679 -0.1397 -0.3406
  665TMC3    O2 9850   1.130   3.780   0.817 -0.5474  0.1886 -0.5065
  666TMC3    C1 9851   0.196   3.994   9.943 -0.0474  0.9522  0.6434
  666TMC3    C2 9852   0.315   3.928   9.959  0.2519 -0.3221 -0.7310
  666TMC3    C3 9853   0.433   3.997   9.973 -0.6887 -0.0326  1.0324
  666TMC3    C4 9854   0.193   4.128   9.962 -0.9229  0.2944  0.6059
  666TMC3    C5 9855   0.312   4.192   9.995 -0.1930 -0.5129 -0.1271
  666TMC3    C6 9856   0.430   4.136   9.978  0.4945 -0.5115 -0.3608
  666TMC3     C 9857   0.075   3.918   9.929  0.2104  0.4310  0.1595
  666TMC3     O 9858   4.696   3.985   9.889 -0.6005  0.3840  0.7800
  666TMC3     H 9859   0.327   3.821   9.945 -1.5163 -0.4072 -1.5557
  666TMC3    H1 9860   0.097   4.178   9.959  1.1341  4.3339  3.5608
  666TMC3    H2 9861   0.524   4.189   9.980  1.2621 -1.9021  0.3568
  666TMC3    C7 9862   0.303   4.335   9.998 -0.5873  0.3245  0.0786
  666TMC3    C8 9863   0.557   3.926   9.985  0.0230  0.0488 -0.3394
  666TMC3    O1 9864   0.196   4.375   9.945  0.4986 -0.3862 -0.5432
  666TMC3    O2 9865   0.553   3.805  10.005  0.7952 -0.5958 -0.1930
  667MPD2     C 9866   1.471   3.377  15.008  0.4002 -0.2627 -0.4295
  667MPD2    C1 9867   1.350   3.424  15.059 -0.0583 -0.0811 -0.0125
  667MPD2    C2 9868   1.241   3.336  15.051  0.0492  0.0223 -0.0069
  667MPD2    C3 9869   1.246   3.212  14.995 -0.3726 -0.1993 -0.0330
  667MPD2    C4 9870   1.362   3.169  14.930 -0.6258 -0.2937  0.0775
  667MPD2    C5 9871   1.468   3.251  14.945  0.4080 -0.6391 -0.1423
  667MPD2     H 9872   1.148   3.360  15.101  0.4589  2.8087 -0.5685
  667MPD2    H1 9873   1.377   3.069  14.891 -1.5929 -0.1140 -0.7572
  667MPD2    H2 9874   1.566   3.420  15.039  0.9726 -3.0519  1.6824
  667MPD2    H3 9875   1.563   3.207  14.919 -0.8427 -1.9131 -2.5744
  667MPD2     N 9876   1.144   3.114  15.009  0.1359 -0.1908 -0.6676
  667MPD2    H5 9877   1.172   3.022  14.977 -0.4722  0.4349 -2.9685
  667MPD2    N1 9878   1.332   3.541  15.136 -0.4099  0.9507  0.2401
  667MPD2    H7 9879   1.236   3.556  15.167 -0.3678 -1.3551  1.4802
  668TMC3    C1 9880   1.387   3.748  15.236 -0.1051  0.2524 -0.2420
  668TMC3    C2 9881   1.464   3.857  15.256  0.4696  0.1543 -0.9028
  668TMC3    C3 9882   1.443   3.923  15.377 -0.6260 -0.3294 -0.2080
  668TMC3    C4 9883   1.281   3.723  15.320  0.1669  0.6982 -0.4352
  668TMC3    C5 9884   1.260   3.805  15.428 -0.2346 -0.7766 -0.1767
  668TMC3    C6 9885   1.355   3.891  15.471  0.0252 -0.1812  0.1202
  668TMC3     C 9886   1.427   3.636  15.150 -0.3783  1.0420  0.1500
  668TMC3     O 9887   1.540   3.636  15.108  0.3809 -0.9862 -0.0979
  668TMC3     H 9888   1.534   3.892  15.181  2.0852  1.6453  1.3216
  668TMC3    H1 9889   1.215   3.638  15.303  1.3723 -0.3125 -0.0638
  668TMC3    H2 9890   1.339   3.964  15.550 -0.2369  0.0688 -0.1619
  668TMC3    C7 9891   1.159   3.766  15.521  0.4750  0.1346  0.1324
  668TMC3    C8 9892   1.537   4.036  15.402  0.0638  0.4003 -0.2271
  668TMC3    O1 9893   1.202   3.726  15.631  0.1262  0.1253 -0.3417
  668TMC3    O2 9894   1.549   4.078  15.517 -0.5446  0.4208  0.2998
  669TMC3    C1 9895   4.313   3.719  14.101  0.4393  0.7049 -0.3264
  669TMC3    C2 9896   4.217   3.732  14.002  0.9180 -0.8046 -0.2115
  669TMC3    C3 9897   4.224   3.838  13.920  0.5572  0.6573  0.8137
  669TMC3    C4 9898   4.403   3.817  14.124 -0.3073 -0.2061  0.0727
  669TMC3    C5 9899   4.395   3.934  14.052  0.0989  0.4075 -0.4714
  669TMC3    C6 9900   4.308   3.945  13.949 -0.8852  0.0738  0.3763
  669TMC3     C 9901   4.266   3.656  14.219  0.5243 -0.1369 -0.1582
  669TMC3     O 9902   4.267   3.715  14.325  0.1345  0.4608 -0.6521
  669TMC3     H 9903   4.147   3.652  13.977 -0.6284  0.2235  0.8900
  669TMC3    H1 9904   4.472   3.810  14.208  2.3700 -0.1040 -2.1280
  669TMC3    H2 9905   4.332   4.021  13.875  0.1200 -1.5531 -0.9562
  669TMC3    C7 9906   4.515   4.006  14.022  0.4817 -0.5595  0.0976
  669TMC3    C8 9907   4.143   3.834  13.806  0.0859 -0.4841 -0.3735
  669TMC3    O1 9908   4.505   4.126  14.017  0.3282  0.2750  0.1370
  669TMC3    O2 9909   4.095   3.732  13.762  0.1499  0.6220 -0.0914
  670MPD2     C 9910   2.324   1.910  13.581  0.2597 -0.1073 -0.2783
  670MPD2    C1 9911   2.436   1.897  13.659 -0.2203 -0.1695 -0.4801
  670MPD2    C2 9912   2.422   1.844  13.785  0.4580  0.2145  0.0007
  670MPD2    C3 9913   2.301   1.791  13.826  0.2985 -0.5043  0.1538
  670MPD2    C4 9914   2.193   1.799  13.746 -0.4570  0.5573 -0.0207
  670MPD2    C5 9915   2.204   1.861  13.624  0.4064  0.9971 -0.7372
  670MPD2     H 9916   2.509   1.842  13.849 -0.2532 -3.5154  0.8172
  670MPD2    H1 9917   2.097   1.765  13.783  0.0439 -0.1559  0.6104
  670MPD2    H2 9918   2.321   1.967  13.489 -2.4327 -0.0824 -0.1642
  670MPD2    H3 9919   2.108   1.871  13.575  0.2303 -0.1269 -0.6350
  670MPD2     N 9920   2.292   1.726  13.953  0.1983  0.0379 -0.3507
  670MPD2    H5 9921   2.371   1.750  14.013 -1.5853 -0.4396  2.1963
  670MPD2    N1 9922   2.568   1.947  13.625 -0.2839  0.0455  0.0314
  670MPD2    H7 9923   2.644   1.933  13.690 -0.6769 -0.4007  0.3935
  671TMC3    C1 9924   2.221   1.581  14.125  0.7696  0.8206 -0.5397
  671TMC3    C2 9925   2.349   1.581  14.161  0.2095  0.1591 -0.0659
  671TMC3    C3 9926   2.394   1.480  14.239  0.0689 -0.3611 -0.1192
  671TMC3    C4 9927   2.143   1.468  14.149 -0.2945 -1.2313 -0.3241
  671TMC3    C5 9928   2.198   1.357  14.208  0.3000 -0.3145  0.0930
  671TMC3    C6 9929   2.330   1.358  14.249  0.3542  0.1179  0.2207
  671TMC3     C 9930   2.194   1.640  13.996 -0.6253 -0.0754 -0.4070
  671TMC3     O 9931   2.108   1.585  13.925 -0.2621 -0.2303 -0.9376
  671TMC3     H 9932   2.388   1.681  14.176 -0.1433  0.2827  0.0155
  671TMC3    H1 9933   2.037   1.470  14.125 -0.2712 -0.6722 -0.3785
  671TMC3    H2 9934   2.374   1.271  14.296 -1.3685 -1.2421 -0.6997
  671TMC3    C7 9935   2.155   1.229  14.161  0.5932 -0.7958  0.0812
  671TMC3    C8 9936   2.535   1.476  14.263  0.3945 -0.2856  0.4694
  671TMC3    O1 9937   2.245   1.157  14.116 -1.1292 -1.2766  0.0387
  671TMC3    O2 9938   2.596   1.525  14.168  0.3682 -0.1840  0.3864
  672MPD2     C 9939   3.602   1.753   1.143 -0.3183  0.0193 -0.1835
  672MPD2    C1 9940   3.688   1.663   1.088 -0.0395 -0.4660  0.0298
  672MPD2    C2 9941   3.822   1.694   1.079  0.4816  0.2328  0.0022
  672MPD2    C3 9942   3.866   1.820   1.124 -0.5034  0.0893 -0.5499
  672MPD2    C4 9943   3.777   1.912   1.177  0.5642  1.0284  0.6754
  672MPD2    C5 9944   3.646   1.876   1.176 -0.3979 -0.4975 -0.4007
  672MPD2     H 9945   3.894   1.624   1.037  1.8292  1.9177 -0.4794
  672MPD2    H1 9946   3.809   2.011   1.208 -0.8386  1.1563  1.7165
  672MPD2    H2 9947   3.496   1.730   1.147 -0.4934  0.7383 -0.5981
  672MPD2    H3 9948   3.567   1.939   1.215  1.0808  1.2843 -0.3124
  672MPD2     N 9949   4.002   1.849   1.117  0.5208 -0.0255  0.2154
  672MPD2    H5 9950   4.025   1.939   1.158 -4.6992  0.6926  1.5954
  672MPD2    N1 9951   3.647   1.545   1.028 -0.7007  0.9071 -0.2460
  672MPD2    H7 9952   3.724   1.487   0.994 -0.1662  1.3359  0.2374
  673TMC3    C1 9953   3.513   1.399   0.905  1.1953 -0.1433 -0.2828
  673TMC3    C2 9954   3.610   1.301   0.908  0.3092 -0.2271 -0.0196
  673TMC3    C3 9955   3.607   1.205   0.805  0.3898  0.3302 -0.7214
  673TMC3    C4 9956   3.428   1.416   0.797  0.4145  0.0188 -0.2632
  673TMC3    C5 9957   3.441   1.326   0.701  0.0338 -0.2871 -0.1851
  673TMC3    C6 9958   3.523   1.219   0.696  0.6300  0.2135 -0.1406
  673TMC3     C 9959   3.518   1.509   0.996 -0.4806 -0.3832 -0.2537
  673TMC3     O 9960   3.409   1.561   1.017 -0.2507 -0.2761 -0.6960
  673TMC3     H 9961   3.669   1.287   0.998  0.0052  3.4279  0.7182
  673TMC3    H1 9962   3.354   1.494   0.790 -1.3915 -1.6334  0.2727
  673TMC3    H2 9963   3.502   1.137   0.627 -0.3875  0.3523 -0.0063
  673TMC3    C7 9964   3.440   1.391   0.574  0.3763 -0.3785 -0.3442
  673TMC3    C8 9965   3.637   1.068   0.844  0.1208 -0.2534  0.0272
  673TMC3    O1 9966   3.460   1.312   0.479 -0.8188 -0.1585 -0.5124
  673TMC3    O2 9967   3.560   0.985   0.798 -0.1724  0.6268  0.1110
  674MPD2     C 9968   2.667   4.562  17.585  0.3758  0.6717  0.4913
  674MPD2    C1 9969   2.668   4.584   0.033 -0.3340  0.9563 -0.7776
  674MPD2    C2 9970   2.641   4.708   0.085 -0.2720  0.1997  0.1939
  674MPD2    C3 9971   2.635   0.096   0.003  1.0448  0.4140  1.0131
  674MPD2    C4 9972   2.649   0.076  17.554 -0.1897  0.7292  0.2959
  674MPD2    C5 9973   2.659   4.669  17.502  0.6010 -0.2818  0.1754
  674MPD2     H 9974   2.638   0.007   0.191  1.2872  1.5845 -0.0259
  674MPD2    H1 9975   2.662   0.157  17.483  1.1523 -0.7659 -1.1452
  674MPD2    H2 9976   2.679   4.460  17.551  0.6209  0.2574  1.8119
  674MPD2    H3 9977   2.668   4.660  17.395  0.9145 -0.6006  0.2309
  674MPD2     N 9978   2.636   0.227   0.051 -0.0039 -0.6614  0.6128
  674MPD2    H5 9979   2.638   0.241   0.152 -0.7386  2.6761  0.1754
  674MPD2    N1 9980   2.704   4.468   0.110 -0.5758  0.3283 -0.6054
  674MPD2    H7 9981   2.713   4.377   0.065 -0.2692  0.0558  0.0126
  675TMC3    C1 9982   2.792   4.342   0.279  0.8871 -0.3078  0.0272
  675TMC3    C2 9983   2.842   4.259   0.183  0.8882 -0.0984  0.3148
  675TMC3    C3 9984   2.890   4.138   0.234  0.7370  0.3071 -0.1805
  675TMC3    C4 9985   2.792   4.324   0.415  0.3221 -0.1171 -0.3539
  675TMC3    C5 9986   2.846   4.207   0.458 -0.4514  0.2664  0.4571
  675TMC3    C6 9987   2.886   4.111   0.364 -0.1628 -0.0764 -0.2274
  675TMC3     C 9988   2.725   4.463   0.241  0.7235  0.4719  0.3794
  675TMC3     O 9989   2.703   4.547   0.328  0.1152 -0.4971  0.2878
  675TMC3     H 9990   2.859   4.285   0.079  0.4829  0.2840  0.3434
  675TMC3    H1 9991   2.766   4.400   0.487 -1.1171 -1.1179  0.1828
  675TMC3    H2 9992   2.910   4.012   0.400  0.2176 -0.1375 -0.6543
  675TMC3    C7 9993   2.864   4.169   0.597  0.9250  0.3005  0.1135
  675TMC3    C8 9994   2.971   4.061   0.143 -0.2367  0.5084  0.3547
  675TMC3    O1 9995   2.947   4.080   0.616 -0.1755 -0.1769  0.9315
  675TMC3    O2 9996   2.953   4.088   0.022  0.0148 -0.5390 -0.0419
  676MPD2     C 9997   0.812   0.103  10.724  0.3763 -1.0057 -0.4916
  676MPD2    C1 9998   0.794   0.044  10.848  0.3041 -0.2433  0.5884
  676MPD2    C2 9999   0.872   4.654  10.886  0.3219 -0.5064 -0.0091
  676MPD2    C310000   0.941   4.583  10.785 -0.3612  0.4781 -0.0181
  676MPD2    C410001   0.944   4.627  10.658  0.6226 -0.6521  0.3613
  676MPD2    C510002   0.888   0.031  10.632 -0.0585  0.7686 -0.8813
  676MPD2     H10003   0.863   4.617  10.988 -3.1351 -0.2482 -0.2081
  676MPD2    H110004   1.001   4.574  10.582 -0.1806 -0.0798 -0.6437
  676MPD2    H210005   0.787   0.206  10.703  1.5047 -0.7479 -0.5887
  676MPD2    H310006   0.909   0.071  10.533 -1.8719  1.4581 -0.9800
  676MPD2     N10007   0.995   4.455  10.808  0.4162 -0.4818  0.7803
  676MPD2    H510008   1.054   4.420  10.733 -1.4977  1.5766 -1.6700
  676MPD2    N110009   0.734   0.107  10.953 -0.1408 -0.7774  0.1059
  676MPD2    H710010   0.751   0.062  11.043  1.2639 -2.3497 -0.9339
  677TMC3    C110011   0.564   0.219  11.072 -0.4632 -0.7158 -0.1071
  677TMC3    C210012   0.434   0.177  11.078 -0.7452  0.3364 -0.0124
  677TMC3    C310013   0.377   0.146  11.202 -0.3087 -0.3173  0.7466
  677TMC3    C410014   0.627   0.267  11.183  0.1788 -0.1061  0.0865
  677TMC3    C510015   0.562   0.249  11.304 -0.1680  0.2279  0.6527
  677TMC3    C610016   0.441   0.185  11.313 -1.1428  0.4766 -0.4012
  677TMC3     C10017   0.639   0.210  10.947  0.7069  0.6489  0.1218
  677TMC3     O10018   0.586   0.236  10.837  0.1656 -0.2879 -0.0291
  677TMC3     H10019   0.377   0.146  10.992  0.4300  2.3224 -1.5165
  677TMC3    H110020   0.727   0.307  11.168 -0.7013  1.6878 -0.9064
  677TMC3    H210021   0.400   0.154  11.409  1.1933 -0.8027  0.1990
  677TMC3    C710022   0.633   0.261  11.434  0.4334  0.0050  1.2762
  677TMC3    C810023   0.279   0.041  11.191 -0.1494  0.4106 -0.4350
  677TMC3    O110024   0.577   0.210  11.534  0.5454 -0.4273 -0.3656
  677TMC3    O210025   0.185   0.069  11.115  0.2403  0.2923 -0.0018
  678MPD2     C10026   2.425   4.283   1.534 -0.9492  0.0722 -0.1878
  678MPD2    C110027   2.375   4.212   1.427  0.0304  0.4839 -0.8297
  678MPD2    C210028   2.258   4.261   1.372 -0.7965 -0.3758  0.5993
  678MPD2    C310029   2.179   4.359   1.434  0.2016  0.1061  0.0968
  678MPD2    C410030   2.235   4.423   1.541  0.9638  0.9630  0.0787
  678MPD2    C510031   2.360   4.392   1.587  0.2659 -0.2582  0.1620
  678MPD2     H10032   2.216   4.220   1.281  3.6407  0.3583 -1.7580
  678MPD2    H110033   2.177   4.503   1.586  1.8277  1.9834 -0.6146
  678MPD2    H210034   2.523   4.262   1.575  0.0052  3.5630 -0.6621
  678MPD2    H310035   2.408   4.445   1.668  0.4864  0.3424 -0.3674
  678MPD2     N10036   2.063   4.401   1.368 -0.7689 -0.4354  0.1594
  678MPD2    H510037   2.038   4.346   1.287  1.4613  0.6283 -1.2198
  678MPD2    N110038   2.441   4.116   1.356 -0.2843  0.1806  0.4033
  678MPD2    H710039   2.380   4.087   1.281  0.7276 -2.1810  0.4792
  679TMC3    C110040   2.721   3.868   1.098  0.3372 -0.3617  0.2055
  679TMC3    C210041   2.707   3.935   1.219  0.1694 -0.5802  0.5193
  679TMC3    C310042   2.611   4.029   1.225  0.0554  0.3804 -0.0540
  679TMC3    C410043   2.672   3.911   0.975 -1.2870  0.7132 -0.5057
  679TMC3    C510044   2.576   4.008   0.986 -0.6096 -0.2217 -0.3202
  679TMC3    C610045   2.546   4.069   1.108  0.2578 -0.5358  0.2504
  679TMC3     C10046   2.848   3.795   1.101 -0.7532 -0.0899  0.2276
  679TMC3     O10047   2.916   3.781   1.002  0.2831 -0.1471 -0.1691
  679TMC3     H10048   2.746   3.901   1.315  1.4659 -0.8798 -0.1180
  679TMC3    H110049   2.709   3.866   0.883 -0.4338  0.9629 -0.2798
  679TMC3    H210050   2.481   4.154   1.120 -0.5972 -0.8073 -2.4942
  679TMC3    C710051   2.509   4.066   0.872 -0.0261 -0.0908  0.7115
  679TMC3    C810052   2.575   4.089   1.350  0.1614 -0.1092 -1.1072
  679TMC3    O110053   2.415   4.139   0.903 -0.8781  0.4484 -0.6697
  679TMC3    O210054   2.664   4.127   1.419 -0.1904  0.1669  0.3136
  680MPD2     C10055   3.172   3.397  13.675 -0.0589  0.0643  0.0163
  680MPD2    C110056   3.051   3.472  13.673  0.7646 -0.8755 -0.8504
  680MPD2    C210057   3.038   3.587  13.739 -0.3472 -0.2720  0.1474
  680MPD2    C310058   3.145   3.640  13.807  0.6105 -0.3694 -0.7040
  680MPD2    C410059   3.261   3.563  13.807  0.0290  0.3497 -0.4041
  680MPD2    C510060   3.278   3.450  13.742  0.4352  0.3944 -0.1132
  680MPD2     H10061   2.944   3.641  13.737 -0.6138 -0.7874 -0.9816
  680MPD2    H110062   3.350   3.600  13.856  0.0604  0.9154 -0.8985
  680MPD2    H210063   3.189   3.309  13.614  1.1573  0.6908 -0.5372
  680MPD2    H310064   3.377   3.408  13.728 -0.1841 -1.6294  1.5699
  680MPD2     N10065   3.142   3.770  13.865 -0.1584 -0.3345  0.6285
  680MPD2    H510066   3.226   3.810  13.907 -1.8231  2.7951  0.9820
  680MPD2    N110067   2.950   3.408  13.601  0.2409  0.2838 -0.5306
  680MPD2    H710068   2.976   3.320  13.558 -0.0685  0.3289 -0.8092
  681TMC3    C110069   2.732   3.330  13.579 -0.7541 -0.6934  0.6308
  681TMC3    C210070   2.656   3.292  13.687  0.2618 -0.6722  0.3847
  681TMC3    C310071   2.618   3.160  13.703 -0.2490  0.1147  0.6303
  681TMC3    C410072   2.771   3.237  13.482 -0.7654 -0.3295  0.0048
  681TMC3    C510073   2.722   3.109  13.501  0.0425  0.4890  0.7253
  681TMC3    C610074   2.645   3.068  13.602  0.0928  0.4439  0.3255
  681TMC3     C10075   2.820   3.446  13.600  0.7644 -0.7832  0.5065
  681TMC3     O10076   2.763   3.545  13.639 -0.2936 -0.4835  0.2502
  681TMC3     H10077   2.643   3.367  13.764 -0.9555 -1.2727  0.7784
  681TMC3    H110078   2.815   3.277  13.392 -0.5392 -2.1771 -0.7037
  681TMC3    H210079   2.629   2.961  13.611  0.1611  0.2968 -1.3710
  681TMC3    C710080   2.734   3.013  13.392 -0.3781 -0.0564  0.1716
  681TMC3    C810081   2.514   3.122  13.796  0.5864  0.1913 -0.1224
  681TMC3    O110082   2.665   2.908  13.396 -0.2063 -0.9357 -0.2574
  681TMC3    O210083   2.465   3.014  13.776 -0.1527  0.3170 -0.1891
  682MPD2     C10084   4.273   0.391  10.705 -0.0819  0.7420 -0.0172
  682MPD2    C110085   4.362   0.288  10.726 -0.1835 -0.5509 -0.2013
  682MPD2    C210086   4.354   0.214  10.840  0.6932  0.3391  0.1322
  682MPD2    C310087   4.260   0.244  10.930 -0.3976  1.0650 -0.2377
  682MPD2    C410088   4.174   0.353  10.912 -0.0381  0.0845 -0.0813
  682MPD2    C510089   4.178   0.428  10.797  1.1421 -0.8772 -0.1497
  682MPD2     H10090   4.418   0.127  10.852 -0.2680 -0.3247  0.4573
  682MPD2    H110091   4.090   0.383  10.973 -1.0919 -0.7326 -1.1280
  682MPD2    H210092   4.270   0.438  10.607 -2.6836  0.3432 -0.1222
  682MPD2    H310093   4.105   0.506  10.783  1.7367 -0.0186  1.4874
  682MPD2     N10094   4.248   0.166  11.039 -0.4538  0.1384 -0.8843
  682MPD2    H510095   4.327   0.104  11.055 -1.1533 -0.2371  1.0785
  682MPD2    N110096   4.462   0.251  10.635 -0.0434 -0.2393  0.5501
  682MPD2    H710097   4.512   0.165  10.655 -1.8851 -1.7474 -1.4034
  683TMC3    C110098   4.239   0.157  11.494  0.4650 -0.4344  0.5795
  683TMC3    C210099   4.333   0.060  11.490 -0.2829 -0.0945  0.0850
  683TMC3    C310100   4.332   4.694  11.384  0.0038 -0.2588 -0.3601
  683TMC3    C410101   4.173   0.191  11.380  0.8335  0.1494  0.1927
  683TMC3    C510102   4.182   0.113  11.266  0.2349 -0.7366 -0.1545
  683TMC3    C610103   4.255   0.000  11.269  0.3308 -0.3554  0.0290
  683TMC3     C10104   4.252   0.258  11.590  0.5276  0.0120 -0.4106
  683TMC3     O10105   4.226   0.378  11.568  0.4327 -0.6827 -0.1249
  683TMC3     H10106   4.403   0.050  11.572  0.1042  0.1409 -0.2179
  683TMC3    H110107   4.106   0.276  11.384  0.2383 -0.3460  0.6005
  683TMC3    H210108   4.259   4.665  11.176 -0.7264  0.0603 -0.2661
  683TMC3    C710109   4.160   0.185  11.145  0.3994  0.6643  0.3489
  683TMC3    C810110   4.421   4.579  11.398  0.2366 -0.6232  0.4126
  683TMC3    O110111   4.058   0.252  11.148  0.2455 -0.3505 -0.1776
  683TMC3    O210112   4.532   4.597  11.451  1.0686  0.4155  0.3618
  684MPD2     C10113   2.606   4.279  16.431  0.1376 -0.4695 -0.1445
  684MPD2    C110114   2.691   4.281  16.318 -0.0170  0.5686  0.0968
  684MPD2    C210115   2.715   4.399  16.253  0.2451  0.2294 -0.0709
  684MPD2    C310116   2.653   4.510  16.296 -0.1224 -0.0489 -1.0387
  684MPD2    C410117   2.571   4.516  16.406 -0.7079  0.7839  0.5786
  684MPD2    C510118   2.561   4.399  16.480  0.1388 -0.3814 -0.2073
  684MPD2     H10119   2.781   4.390  16.167  1.3376  2.2065  0.5650
  684MPD2    H110120   2.542   4.608  16.457 -0.6992  0.1899  1.6455
  684MPD2    H210121   2.609   4.193  16.497 -0.6531 -0.9790 -0.7669
  684MPD2    H310122   2.507   4.402  16.574 -1.7830 -1.2872 -1.2958
  684MPD2     N10123   2.700   4.624  16.230 -0.0829  0.3816 -0.3014
  684MPD2    H510124   2.706   4.711  16.281  2.8465  0.8457 -1.4419
  684MPD2    N110125   2.753   4.163  16.261  0.3447  0.4004 -0.5097
  684MPD2    H710126   2.803   4.167  16.172  2.2311 -0.0027  0.5250
  685TMC3    C110127   2.842   3.949  16.253 -0.3664 -0.1526  0.1086
  685TMC3    C210128   2.846   3.966  16.117  0.0377  0.6412  0.4937
  685TMC3    C310129   2.949   3.912  16.045  0.6568  0.0528 -0.5292
  685TMC3    C410130   2.944   3.878  16.311  0.5765  0.1274  0.6438
  685TMC3    C510131   3.053   3.828  16.236 -0.4591  0.0259 -0.1775
  685TMC3    C610132   3.052   3.843  16.102  0.0996  0.2021 -0.5269
  685TMC3     C10133   2.777   4.047  16.334 -0.0440  0.2938 -0.4254
  685TMC3     O10134   2.761   4.022  16.454 -0.1137  0.1160  0.6817
  685TMC3     H10135   2.762   4.011  16.065  0.8759 -0.5956 -1.9819
  685TMC3    H110136   2.943   3.867  16.419  2.6372  0.8483  0.7490
  685TMC3    H210137   3.127   3.801  16.036 -0.4519  1.2184 -1.7975
  685TMC3    C710138   3.179   3.820  16.300 -0.0105  0.2949 -0.3949
  685TMC3    C810139   2.924   3.908  15.901 -0.7889  0.6252 -0.2417
  685TMC3    O110140   3.182   3.820  16.425  0.0907 -0.6704 -0.3811
  685TMC3    O210141   3.012   3.950  15.824 -0.1696 -0.5609  0.2180
  686MPD2     C10142   3.542   4.469  15.462 -0.5129 -0.2805  0.3351
  686MPD2    C110143   3.644   4.411  15.531 -0.3841  0.5616 -0.3035
  686MPD2    C210144   3.756   4.487  15.573  0.3976  0.5643  0.1909
  686MPD2    C310145   3.772   4.621  15.548 -0.4221 -0.1252  0.1155
  686MPD2    C410146   3.663   4.673  15.474  0.0965  0.4184 -0.3846
  686MPD2    C510147   3.555   4.602  15.440 -0.5325  0.0831  0.3036
  686MPD2     H10148   3.839   4.439  15.624  0.1719 -1.4778 -1.3854
  686MPD2    H110149   3.659   0.054  15.437  1.0594  0.1294 -1.3034
  686MPD2    H210150   3.452   4.417  15.434  0.5202  0.1331 -3.6837
  686MPD2    H310151   3.471   4.650  15.391  0.3012  1.0452 -0.1859
  686MPD2     N10152   3.886   4.694  15.593 -0.3551  0.6644  0.2383
  686MPD2    H510153   3.949   4.642  15.654 -0.0217  0.0336 -0.6450
  686MPD2    N110154   3.629   4.275  15.558  0.0789 -0.1696 -0.9996
  686MPD2    H710155   3.540   4.233  15.535 -0.0743 -0.6690  0.4827
  687TMC3    C110156   4.050   0.148  15.613  0.0191  0.4586  0.4700
  687TMC3    C210157   4.125   0.203  15.514  0.1565  0.1302  0.1548
  687TMC3    C310158   4.247   0.155  15.486 -0.0218 -0.6930  0.1076
  687TMC3    C410159   4.103   0.061  15.703  0.8045  0.1841 -0.1255
  687TMC3    C510160   4.233   0.026  15.681 -0.0881  0.8613 -0.3811
  687TMC3    C610161   4.310   0.069  15.576  0.1984  0.2959  0.4732
  687TMC3     C10162   3.921   0.101  15.555  0.0915  0.4028  0.0635
  687TMC3     O10163   3.876   0.165  15.464  0.2297 -0.0218 -0.1019
  687TMC3     H10164   4.077   0.263  15.438 -1.0361 -0.5155  0.4028
  687TMC3    H110165   4.047   0.029  15.790  3.6690  0.1445  1.7072
  687TMC3    H210166   4.409   0.033  15.551 -0.5811  0.5454 -2.9581
  687TMC3    C710167   4.281   4.625  15.752  0.3206 -0.0357  0.2538
  687TMC3    C810168   4.269   0.125  15.350 -0.2078 -0.2946  0.7229
  687TMC3    O110169   4.236   4.607  15.859  0.2619 -0.1848 -0.2261
  687TMC3    O210170   4.387   0.116  15.316 -0.1331 -0.0689 -0.5107
  688MPD2     C10171   3.416   2.859  17.306  0.2202 -0.3007 -0.2282
  688MPD2    C110172   3.460   2.733  17.323 -0.1000  0.8512  0.4394
  688MPD2    C210173   3.544   2.676  17.233  0.5538  0.1787  0.7166
  688MPD2    C310174   3.582   2.753  17.118  0.3010 -0.8582  0.4984
  688MPD2    C410175   3.533   2.880  17.099 -0.2834 -0.5269 -0.5112
  688MPD2    C510176   3.446   2.929  17.192 -0.0662  0.0320  0.1195
  688MPD2     H10177   3.565   2.570  17.245 -0.7822  0.0324  1.6997
  688MPD2    H110178   3.550   2.938  17.009  2.4718  0.5664  0.7162
  688MPD2    H210179   3.357   2.905  17.384 -0.3315  0.0523 -0.8551
  688MPD2    H310180   3.413   3.033  17.193  0.9363  0.3372  1.1085
  688MPD2     N10181   3.685   2.703  17.027  0.2241  0.0986 -0.0816
  688MPD2    H510182   3.716   2.768  16.956 -1.9255  1.1521 -0.0469
  688MPD2    N110183   3.427   2.653  17.432  0.1027 -0.0932  0.2318
  688MPD2    H710184   3.483   2.568  17.435 -1.7303 -1.2741  1.2803
  689TMC3    C110185   3.371   2.574  17.633 -0.6818  0.2115 -0.3526
  689TMC3    C210186   3.459   2.621   0.036  0.0369 -0.3090 -0.4780
  689TMC3    C310187   3.511   2.535   0.128 -0.3903 -0.3556  0.0306
  689TMC3    C410188   3.330   2.442  17.624 -0.0725  0.7412 -0.3424
  689TMC3    C510189   3.379   2.354   0.037  0.4085 -0.3219  0.0548
  689TMC3    C610190   3.474   2.395   0.129  0.1313  0.4563 -0.2423
  689TMC3     C10191   3.345   2.676  17.535  0.0293 -0.6610  0.7797
  689TMC3     O10192   3.305   2.785  17.572 -0.3520 -0.3190 -0.3395
  689TMC3     H10193   3.484   2.726   0.042 -0.9877 -0.0449 -0.8376
  689TMC3    H110194   3.255   2.428  17.547  0.0616 -0.7674 -0.2031
  689TMC3    H210195   3.521   2.331   0.202 -0.9038 -1.1106 -0.9474
  689TMC3    C710196   3.327   2.221   0.055  0.0081  0.0934 -0.2990
  689TMC3    C810197   3.628   2.572   0.204  1.1626 -0.3444 -0.7644
  689TMC3    O110198   3.376   2.158   0.149  0.6683 -0.2205  0.4432
  689TMC3    O210199   3.636   2.531   0.319 -0.4227  0.1145 -0.7835
  690MPD2     C10200   0.478   0.160  15.474 -0.0931  0.0981 -0.3707
  690MPD2    C110201   0.534   0.044  15.537 -0.2131 -0.1054 -0.0460
  690MPD2    C210202   0.665   0.008  15.503 -0.1899 -0.0818 -0.2630
  690MPD2    C310203   0.735   0.093  15.419 -0.6055  0.5927  0.1603
  690MPD2    C410204   0.675   0.205  15.371  0.5393 -0.1543  0.6586
  690MPD2    C510205   0.551   0.237  15.392  0.2111 -0.4195 -0.5950
  690MPD2     H10206   0.701   4.632  15.536 -1.1778 -0.0868  0.7911
  690MPD2    H110207   0.717   0.280  15.304 -1.8482  0.2412 -0.3942
  690MPD2    H210208   0.373   0.182  15.488  0.4854  3.9043 -2.0950
  690MPD2    H310209   0.522   0.333  15.350 -1.8103 -0.2271  1.2358
  690MPD2     N10210   0.865   0.069  15.369  0.2464  0.2460 -0.2172
  690MPD2    H510211   0.886   0.130  15.291 -2.1421  0.5151 -0.6386
  690MPD2    N110212   0.461   4.679  15.623 -0.6939  0.6252 -0.3820
  690MPD2    H710213   0.495   4.585  15.635 -2.4293 -0.0562 -0.7782
  691TMC3    C110214   0.292   4.627  15.780 -0.5619 -0.0219  0.0194
  691TMC3    C210215   0.162   4.655  15.816  0.1027 -0.0436 -0.4234
  691TMC3    C310216   0.085   4.563  15.876  0.0288 -0.1371  0.7898
  691TMC3    C410217   0.348   4.506  15.798  0.0498  0.2360  1.1324
  691TMC3    C510218   0.263   4.409  15.846  0.3912 -0.2485 -0.2492
  691TMC3    C610219   0.135   4.436  15.891  0.4153  0.1795  0.3873
  691TMC3     C10220   0.345   4.719  15.683  0.1086 -0.5042  0.2267
  691TMC3     O10221   0.290   0.111  15.669  0.5085  0.1122  0.1466
  691TMC3     H10222   0.130   0.038  15.819 -0.4715 -0.1981 -1.0732
  691TMC3    H110223   0.452   4.483  15.781 -0.1820  0.6238 -0.7305
  691TMC3    H210224   0.070   4.363  15.937  0.0175  0.6277  0.5292
  691TMC3    C710225   0.310   4.277  15.886  0.3789  0.1800  0.3345
  691TMC3    C810226   4.685   4.612  15.951 -0.1218 -0.5796  0.0709
  691TMC3    O110227   0.414   4.272  15.955 -0.0121 -0.1601  0.5619
  691TMC3    O210228   4.665   4.569  16.062 -0.0069  0.4260  0.4224
  692TMC3    C110229   2.428   1.109  15.521  0.6818 -0.0422 -0.2334
  692TMC3    C210230   2.544   1.152  15.576  0.2307 -0.0195 -0.0949
  692TMC3    C310231   2.644   1.066  15.593 -0.0399 -0.6053 -0.1604
  692TMC3    C410232   2.415   0.973  15.502 -0.3416 -0.0884 -0.1867
  692TMC3    C510233   2.512   0.884  15.547 -0.7547 -0.7116 -0.5603
  692TMC3    C610234   2.631   0.935  15.592  0.3084  0.0403 -0.2121
  692TMC3     C10235   2.307   1.175  15.554 -0.3779  0.3557  0.5082
  692TMC3     O10236   2.214   1.108  15.588 -0.3346  0.0371 -0.1926
  692TMC3     H10237   2.578   1.250  15.545 -0.6857  0.4617  0.4008
  692TMC3    H110238   2.325   0.926  15.464 -0.3286 -0.0785 -0.2301
  692TMC3    H210239   2.719   0.874  15.607  0.5907  0.4771 -0.1048
  692TMC3    C710240   2.500   0.746  15.514 -0.6824  0.2947  0.7977
  692TMC3    C810241   2.742   1.112  15.693  0.4124 -0.9945  0.2955
  692TMC3    O110242   2.417   0.719  15.429 -0.2473 -0.0380  0.4925
  692TMC3    O210243   2.825   1.031  15.736  0.2943  0.4342 -0.1009
  693MPD2     C10244   2.107   3.131  10.027  0.5406 -0.1233 -0.4037
  693MPD2    C110245   2.101   3.211  10.130 -0.6542 -0.7005  0.0244
  693MPD2    C210246   2.204   3.216  10.220 -0.3159  0.4476 -0.2106
  693MPD2    C310247   2.312   3.129  10.206 -0.4677 -0.2416  0.3114
  693MPD2    C410248   2.318   3.051  10.093 -0.6094  0.1599 -0.2773
  693MPD2    C510249   2.215   3.053  10.004  0.6694  0.4836 -0.6511
  693MPD2     H10250   2.206   3.297  10.293 -4.6035 -0.2020  0.6198
  693MPD2    H110251   2.388   2.968  10.091 -0.6047  0.1344  1.0916
  693MPD2    H210252   2.048   3.147   9.938  0.4613  1.9630  0.0450
  693MPD2    H310253   2.216   2.988   9.916  1.7613  1.0156 -1.0311
  693MPD2     N10254   2.425   3.116  10.289 -0.0893  0.8653 -0.6588
  693MPD2    H510255   2.501   3.056  10.259  0.8796  0.6204  2.2326
  693MPD2    N110256   1.998   3.306  10.120  0.1455 -0.3900 -0.5136
  693MPD2    H710257   1.945   3.293  10.034  0.4675 -0.4526 -0.7055
  694TMC3    C110258   1.862   3.490  10.168 -0.0902  0.3436  0.4887
  694TMC3    C210259   1.753   3.419  10.119 -0.6501 -0.3287  0.1715
  694TMC3    C310260   1.627   3.467  10.150  0.4217 -0.5416  0.2106
  694TMC3    C410261   1.838   3.600  10.241 -0.3723  0.2087 -0.4138
  694TMC3    C510262   1.718   3.668  10.237  0.2399  0.5676  0.2246
  694TMC3    C610263   1.609   3.597  10.195 -0.1910  0.5190 -0.8540
  694TMC3     C10264   1.981   3.413  10.204 -0.2852 -0.9343 -0.2531
  694TMC3     O10265   2.055   3.456  10.294 -0.1312 -0.0682  0.4018
  694TMC3     H10266   1.764   3.320  10.075  1.7182  0.5475 -1.1845
  694TMC3    H110267   1.927   3.644  10.285 -0.1038  0.2225 -0.9783
  694TMC3    H210268   1.514   3.642  10.222 -0.5360  0.6791 -2.3373
  694TMC3    C710269   1.703   3.740  10.366  0.0992 -0.3397  0.3839
  694TMC3    C810270   1.515   3.380  10.112 -0.0046  0.4883  0.1624
  694TMC3    O110271   1.785   3.830  10.382 -0.2777  0.3319 -0.0373
  694TMC3    O210272   1.528   3.262  10.133  0.0972 -0.3147  0.4051
  695MPD2     C10273   2.961   1.282  13.397  0.0972 -0.3378 -0.1140
  695MPD2    C110274   2.912   1.248  13.522  0.0194 -0.6305 -0.3860
  695MPD2    C210275   2.778   1.226  13.538 -0.1444 -0.4506 -0.1534
  695MPD2    C310276   2.689   1.235  13.430 -0.6194 -0.1166  0.1385
  695MPD2    C410277   2.734   1.274  13.309  0.1307  0.2661 -0.0275
  695MPD2    C510278   2.872   1.282  13.291 -0.0483  0.3505 -0.0264
  695MPD2     H10279   2.740   1.199  13.636  0.4088  1.7682  0.6657
  695MPD2    H110280   2.671   1.291  13.222 -0.7452  0.3775  0.6222
  695MPD2    H210281   3.063   1.312  13.375 -0.4900  0.2727 -1.9993
  695MPD2    H310282   2.901   1.318  13.193  2.8187 -0.4648  0.5077
  695MPD2     N10283   2.551   1.211  13.454 -0.0893 -0.6446  1.0475
  695MPD2    H510284   2.523   1.187  13.548  0.4032  0.6237  1.5114
  695MPD2    N110285   2.989   1.255  13.639 -0.5275  0.2577  0.8457
  695MPD2    H710286   2.944   1.244  13.730 -0.7302 -2.4397  0.4102
  696TMC3    C110287   2.311   1.183  13.399  0.2556 -0.4158  0.0403
  696TMC3    C210288   2.295   1.096  13.500  0.1918  0.1428 -0.7177
  696TMC3    C310289   2.162   1.070  13.538  0.5835 -0.7992 -0.2942
  696TMC3    C410290   2.210   1.241  13.320 -0.5373  0.3219 -0.1585
  696TMC3    C510291   2.086   1.219  13.372 -0.4091  0.1929  0.2941
  696TMC3    C610292   2.055   1.130  13.470 -0.2715  0.4742  0.8585
  696TMC3     C10293   2.454   1.211  13.360  0.1249 -0.0735  0.1818
  696TMC3     O10294   2.463   1.240  13.242 -0.3126  0.0877 -0.2267
  696TMC3     H10295   2.384   1.055  13.546  0.1156  1.1398  0.3429
  696TMC3    H110296   2.219   1.293  13.226  1.4334 -0.9397 -0.6675
  696TMC3    H210297   1.953   1.124  13.505 -0.9018 -0.1404 -1.1263
  696TMC3    C710298   1.989   1.313  13.333 -0.1757 -0.3572 -0.2863
  696TMC3    C810299   2.149   1.044  13.681 -0.5444 -0.0163  0.3098
  696TMC3    O110300   1.962   1.324  13.211 -0.0673 -0.3272 -0.2149
  696TMC3    O210301   2.251   1.059  13.749 -0.2523  0.2478  0.7710
  697MPD2     C10302   1.962   2.559  15.703 -1.0709  0.0367 -0.3054
  697MPD2    C110303   1.921   2.541  15.571 -0.0030  0.2025 -0.2348
  697MPD2    C210304   1.927   2.650  15.495 -0.1939  0.2878 -0.5435
  697MPD2    C310305   1.977   2.772  15.528 -0.4165 -0.3578 -0.1985
  697MPD2    C410306   2.035   2.786  15.660 -0.7254 -0.3921  0.2297
  697MPD2    C510307   2.026   2.676  15.745  0.1816  0.8746 -0.1743
  697MPD2     H10308   1.898   2.643  15.391  0.2094 -0.9134 -0.5733
  697MPD2    H110309   2.062   2.887  15.690  2.3236 -1.3926  0.8234
  697MPD2    H210310   1.948   2.486  15.782 -1.6703 -0.1812 -0.6152
  697MPD2    H310311   2.060   2.685  15.847  1.5974 -1.6660 -0.4321
  697MPD2     N10312   1.984   2.874  15.426 -0.3367 -0.1751  0.4039
  697MPD2    H510313   1.955   2.857  15.331 -1.4561  1.7908  0.4075
  697MPD2    N110314   1.868   2.428  15.511  0.2364 -0.0391 -0.5846
  697MPD2    H710315   1.824   2.435  15.420 -1.0004  2.0574  0.1709
  698TMC3    C110316   2.100   3.043  15.304 -0.2835  0.2687 -0.9433
  698TMC3    C210317   2.179   3.154  15.299 -0.1671 -1.0855  0.5238
  698TMC3    C310318   2.245   3.195  15.187 -0.8599 -0.6001 -1.1490
  698TMC3    C410319   2.090   2.975  15.185  0.2340 -0.6836 -0.8267
  698TMC3    C510320   2.152   3.018  15.069  0.0162 -0.4247  0.3416
  698TMC3    C610321   2.243   3.126  15.070  0.2802  0.9141  0.1570
  698TMC3     C10322   2.067   2.987  15.436  0.3699  0.6015  0.5540
  698TMC3     O10323   2.112   3.046  15.533 -0.0776 -0.8825 -0.4914
  698TMC3     H10324   2.180   3.226  15.381 -1.4550 -0.3541 -0.1037
  698TMC3    H110325   2.039   2.879  15.184 -0.0316 -0.5577  0.4366
  698TMC3    H210326   2.273   3.179  14.980  2.8580 -1.1283 -0.1950
  698TMC3    C710327   2.119   2.949  14.951  0.3907  0.7341 -0.6337
  698TMC3    C810328   2.277   3.335  15.192  0.5384 -0.5473  0.5932
  698TMC3    O110329   2.009   2.890  14.954 -0.4500 -0.1617 -0.2228
  698TMC3    O210330   2.199   3.418  15.243  0.1407  0.1739 -0.4617
  699TMC3    C110331   2.288   0.882  12.741 -0.5501  0.0784  0.2145
  699TMC3    C210332   2.318   0.896  12.874  0.1672  0.7044  0.0938
  699TMC3    C310333   2.219   0.845  12.962  0.0836 -0.8270 -0.6654
  699TMC3    C410334   2.177   0.826  12.696  0.0844  0.0626 -0.1441
  699TMC3    C510335   2.085   0.780  12.780  0.2989  0.4128 -0.0059
  699TMC3    C610336   2.110   0.779  12.912  0.3801 -0.4232  0.4870
  699TMC3     C10337   2.351   0.976  12.645  0.1107  0.6698  0.9388
  699TMC3     O10338   2.305   0.982  12.529 -0.0272 -0.0612 -0.2479
  699TMC3     H10339   2.419   0.922  12.904  0.6341 -0.2762 -0.6497
  699TMC3    H110340   2.154   0.820  12.590  2.1854  0.7799 -0.6258
  699TMC3    H210341   2.032   0.741  12.976  1.0619  0.1802  1.6596
  699TMC3    C710342   1.959   0.748  12.720  0.0803 -0.1092 -0.1972
  699TMC3    C810343   2.255   0.831  13.102  0.5048  0.2115 -0.8127
  699TMC3    O110344   1.946   0.718  12.604 -0.3533  0.5178  0.1163
  699TMC3    O210345   2.186   0.747  13.164 -0.1745 -0.1838  0.4259
  700TMC3    C110346   1.193   2.772  16.981 -0.0554  0.6323 -0.3412
  700TMC3    C210347   1.300   2.687  16.951 -0.0044  0.3668 -0.1481
  700TMC3    C310348   1.392   2.668  17.052 -0.3777  0.2542 -0.4996
  700TMC3    C410349   1.180   2.835  17.100 -0.2697  0.8557  0.2383
  700TMC3    C510350   1.272   2.803  17.195 -0.0848  0.2864 -0.3135
  700TMC3    C610351   1.378   2.720  17.178  0.6454 -0.0185 -0.1544
  700TMC3     C10352   1.125   2.826  16.872 -0.3111  0.8185 -0.0100
  700TMC3     O10353   1.060   2.751  16.801 -0.7711  0.3936 -1.0820
  700TMC3     H10354   1.309   2.654  16.848 -2.2843  0.3355 -0.3502
  700TMC3    H110355   1.104   2.912  17.109  0.0945  0.9338  2.5324
  700TMC3    H210356   1.428   2.688  17.268 -0.5577 -2.0046 -0.1884
  700TMC3    C710357   1.288   2.898  17.301  0.3582  0.7937  0.3022
  700TMC3    C810358   1.517   2.606  17.003 -0.7766  0.1611  0.6401
  700TMC3    O110359   1.400   2.924  17.335 -0.0609  0.5366 -0.0046
  700TMC3    O210360   1.518   2.584  16.883  0.1691 -0.2662 -0.0890
  701TMC3    C110361   1.411   1.494  15.173 -0.4390  0.0603 -0.0302
  701TMC3    C210362   1.411   1.527  15.043 -0.1436  0.1317  0.2925
  701TMC3    C310363   1.481   1.636  15.011  0.3525  0.3946  0.5053
  701TMC3    C410364   1.451   1.583  15.272  0.0969  0.2802 -0.1233
  701TMC3    C510365   1.529   1.688  15.242  0.3436  0.5260 -0.3209
  701TMC3    C610366   1.545   1.708  15.110  0.3707 -0.1127 -0.3074
  701TMC3     C10367   1.329   1.386  15.222  0.2589  0.5534 -0.1128
  701TMC3     O10368   1.350   1.346  15.337 -0.0836  0.0559  0.1908
  701TMC3     H10369   1.383   1.452  14.971 -1.5644  0.7366  0.2263
  701TMC3    H110370   1.431   1.557  15.376 -0.7054  1.0788 -0.0776
  701TMC3    H210371   1.622   1.776  15.076  2.0384 -1.6193  0.5191
  701TMC3    C710372   1.525   1.812  15.316 -0.1478  0.5107  0.5542
  701TMC3    C810373   1.497   1.673  14.870 -0.6285 -0.6789  0.2961
  701TMC3    O110374   1.572   1.903  15.245  0.4274  0.3897  0.2678
  701TMC3    O210375   1.557   1.775  14.856 -0.7831 -0.2178 -0.0996
  702MPD2     C10376   1.460   4.074  10.428  0.5006 -0.4960 -0.6836
  702MPD2    C110377   1.375   4.166  10.478  0.2934  0.5820 -0.1979
  702MPD2    C210378   1.367   4.287  10.407 -0.0821 -0.3180 -0.8660
  702MPD2    C310379   1.446   4.314  10.301 -0.3886  0.7900 -0.2554
  702MPD2    C410380   1.537   4.220  10.247  0.3024 -0.0184  0.1787
  702MPD2    C510381   1.543   4.099  10.317 -0.0989 -0.3699 -0.3432
  702MPD2     H10382   1.289   4.355  10.439 -0.1434 -0.8836  0.1906
  702MPD2    H110383   1.607   4.231  10.166 -0.3363  0.5017 -0.2922
  702MPD2    H210384   1.474   3.987  10.493  2.7657 -0.9726 -1.8112
  702MPD2    H310385   1.609   4.019  10.286  0.9231 -0.0904  1.1102
  702MPD2     N10386   1.442   4.445  10.243  0.2804  0.3292  0.0883
  702MPD2    H510387   1.502   4.464  10.163  0.4749 -0.0162  0.1560
  702MPD2    N110388   1.289   4.161  10.594  0.2024  0.0923 -1.2876
  702MPD2    H710389   1.246   4.250  10.615  0.9557 -0.2013  1.4475
  703TMC3    C110390   1.370   4.666  10.194 -0.0058 -0.1417 -0.2863
  703TMC3    C210391   1.253   0.006  10.154 -0.3523 -0.2528  0.2820
  703TMC3    C310392   1.253   0.110  10.061 -0.0114 -0.5522 -0.3606
  703TMC3    C410393   1.488   4.695  10.132  0.5159 -0.9908  0.1477
  703TMC3    C510394   1.488   0.076  10.044 -0.2581  0.2337 -0.3333
  703TMC3    C610395   1.374   0.143   9.998 -0.5497  0.2044 -0.0451
  703TMC3     C10396   1.365   4.553  10.285  0.0656 -0.1119 -0.2014
  703TMC3     O10397   1.276   4.554  10.364  0.1304  0.2622  0.4658
  703TMC3     H10398   1.167   4.699  10.214  0.2946 -1.7137  0.5414
  703TMC3    H110399   1.581   4.643  10.148  0.2763 -1.1591  0.9784
  703TMC3    H210400   1.385   0.228   9.932  0.9304 -0.8258 -1.1370
  703TMC3    C710401   1.616   0.122   9.995 -0.3153 -0.1363 -0.9403
  703TMC3    C810402   1.162   0.221  10.094  0.0017  0.1514  0.0240
  703TMC3    O110403   1.718   0.103  10.061 -0.0844 -0.1884 -0.3659
  703TMC3    O210404   1.198   0.332  10.043  0.0268  0.3304  0.0988
  704TMC3    C110405   3.584   3.046  12.100  0.4609 -0.0792 -0.3317
  704TMC3    C210406   3.713   3.023  12.067  0.6536  0.5211  0.8673
  704TMC3    C310407   3.789   2.935  12.140  0.0248 -0.0757 -0.0181
  704TMC3    C410408   3.526   2.967  12.199  0.5176  0.0117 -0.1598
  704TMC3    C510409   3.609   2.892  12.283  0.2213 -0.4252  0.5088
  704TMC3    C610410   3.739   2.870  12.252  0.4345 -0.1133  0.6524
  704TMC3     C10411   3.491   3.102  12.005  0.2981  0.1331  0.6403
  704TMC3     O10412   3.372   3.113  12.032 -0.2201  0.3258  0.0465
  704TMC3     H10413   3.764   3.084  11.993 -0.0192 -1.0755 -0.9053
  704TMC3    H110414   3.426   2.998  12.229  1.0710 -0.4351  2.1706
  704TMC3    H210415   3.798   2.797  12.306 -0.8140 -1.3647  0.3213
  704TMC3    C710416   3.547   2.769  12.326 -0.2194  0.4710  0.0188
  704TMC3    C810417   3.902   2.885  12.068  0.4209 -0.1175 -0.6295
  704TMC3    O110418   3.618   2.701  12.397 -0.3563 -0.3639 -0.6557
  704TMC3    O210419   3.904   2.890  11.947  0.2678  0.0828  0.2744
  705MPD2     C10420   3.213   0.553  16.297  0.3329 -0.3579 -0.1264
  705MPD2    C110421   3.127   0.623  16.214  0.0994 -0.2843  0.0207
  705MPD2    C210422   3.017   0.684  16.272 -0.5718 -0.1255 -0.4078
  705MPD2    C310423   2.982   0.669  16.404  0.1481  0.2213  0.2641
  705MPD2    C410424   3.062   0.587  16.480 -0.0404  0.7037 -0.0464
  705MPD2    C510425   3.168   0.528  16.425 -0.7377  0.5547 -0.0982
  705MPD2     H10426   2.959   0.742  16.202  0.3410  1.0662 -0.1856
  705MPD2    H110427   3.043   0.575  16.586  1.8503 -0.0280  0.2004
  705MPD2    H210428   3.309   0.513  16.268 -0.4230 -2.6962  0.6362
  705MPD2    H310429   3.228   0.472  16.496  1.0722  0.6942 -1.5397
  705MPD2     N10430   2.874   0.731  16.471  0.2594 -0.4711  0.0940
  705MPD2    H510431   2.875   0.722  16.572 -0.5182 -0.6219  0.0892
  705MPD2    N110432   3.155   0.640  16.074  0.0669  0.0974  0.6661
  705MPD2    H710433   3.092   0.694  16.015  0.0760  0.3000  0.8424
  706TMC3    C110434   3.371   0.610  15.660  0.3537  0.1850 -0.1734
  706TMC3    C210435   3.334   0.733  15.621  0.3689  0.1779 -0.2284
  706TMC3    C310436   3.278   0.804  15.719 -0.2811 -0.2425  0.5154
  706TMC3    C410437   3.331   0.549  15.779  0.1787  0.1068 -0.7758
  706TMC3    C510438   3.252   0.622  15.864 -0.7379 -1.0419  1.3588
  706TMC3    C610439   3.245   0.758  15.842  0.5043  0.0100 -0.4702
  706TMC3     C10440   3.450   0.526  15.569 -0.4773  0.2690  0.3122
  706TMC3     O10441   3.497   0.420  15.615  0.8028  0.0335 -0.0202
  706TMC3     H10442   3.355   0.782  15.527 -1.0286  0.5754 -0.3305
  706TMC3    H110443   3.345   0.443  15.790  1.3754  0.4191  0.6059
  706TMC3    H210444   3.191   0.822  15.910  0.4275  0.5323 -1.0218
  706TMC3    C710445   3.239   0.570  15.998 -0.7625  0.2649  0.8031
  706TMC3    C810446   3.276   0.947  15.710  0.5071 -0.1516 -0.5914
  706TMC3    O110447   3.317   0.480  16.034 -0.1897 -0.2073  0.0502
  706TMC3    O210448   3.288   0.997  15.604 -0.3249  0.3218  0.1844
  707TMC3    C110449   1.316   4.331   1.724  0.1436  0.0309  0.3321
  707TMC3    C210450   1.328   4.194   1.742  1.2769 -0.2119  0.1499
  707TMC3    C310451   1.374   4.147   1.861  0.4886  0.6728 -0.3527
  707TMC3    C410452   1.358   4.413   1.823 -0.5013  0.6726 -0.1461
  707TMC3    C510453   1.406   4.357   1.942  0.3718  0.0362  0.1047
  707TMC3    C610454   1.409   4.224   1.967  0.5650  0.0021 -0.4499
  707TMC3     C10455   1.260   4.391   1.602  0.5993  0.0928  0.5574
  707TMC3     O10456   1.261   4.322   1.500  0.5098 -0.2285  0.3795
  707TMC3     H10457   1.301   4.134   1.656  2.5737  1.1095 -1.1960
  707TMC3    H110458   1.392   4.510   1.792 -3.0521  1.3175 -0.9531
  707TMC3    H210459   1.459   4.178   2.052 -2.4125 -3.0586 -0.3352
  707TMC3    C710460   1.465   4.436   2.044 -0.0879  0.2259 -0.3933
  707TMC3    C810461   1.377   4.008   1.882  0.3486 -0.6922  0.0326
  707TMC3    O110462   1.538   4.392   2.127  0.0579 -0.2248  0.3787
  707TMC3    O210463   1.357   3.971   1.993  0.0627 -0.2139  0.1407
  708MPD2     C10464   1.296   3.744  14.152 -0.3696  0.5063 -0.0107
  708MPD2    C110465   1.178   3.803  14.184 -0.4730 -0.7046  0.0468
  708MPD2    C210466   1.098   3.740  14.275 -0.4604  0.1635 -0.1850
  708MPD2    C310467   1.144   3.634  14.344  0.1875 -1.2703  0.1825
  708MPD2    C410468   1.266   3.580  14.327  0.5104  0.0829 -0.3017
  708MPD2    C510469   1.342   3.631  14.224  0.2874  0.4306  0.6836
  708MPD2     H10470   1.002   3.787  14.290  0.1198  1.3544 -0.1930
  708MPD2    H110471   1.311   3.493  14.375  0.6268  0.4278  0.2138
  708MPD2    H210472   1.370   3.797  14.092 -1.2693  2.2459  0.4291
  708MPD2    H310473   1.442   3.592  14.208 -0.9763 -2.2707 -0.6574
  708MPD2     N10474   1.067   3.580  14.441 -0.2325  0.1059  0.9189
  708MPD2    H510475   1.112   3.527  14.515 -1.1399  1.5914  2.5127
  708MPD2    N110476   1.124   3.918  14.131  0.2580  0.1736  0.4450
  708MPD2    H710477   1.030   3.944  14.159 -0.6881 -0.9109 -1.8065
  709TMC3    C110478   1.078   4.108  14.002  0.0797 -0.3857 -0.1580
  709TMC3    C210479   1.075   4.146  13.871 -0.1784  0.3052 -0.1850
  709TMC3    C310480   0.948   4.177  13.825 -0.7688  0.1410  0.3291
  709TMC3    C410481   0.974   4.124  14.093  0.3218  0.2973  0.3940
  709TMC3    C510482   0.846   4.141  14.041  0.5501  0.2666 -0.7243
  709TMC3    C610483   0.836   4.165  13.907 -0.3810  0.1568  0.1140
  709TMC3     C10484   1.174   3.997  14.033 -0.0076  0.0916 -0.6512
  709TMC3     O10485   1.285   3.997  13.979  0.7221  0.0011 -0.3297
  709TMC3     H10486   1.164   4.151  13.809 -0.2939 -1.7470 -0.4906
  709TMC3    H110487   0.983   4.120  14.201 -0.4759  0.6163  0.4726
  709TMC3    H210488   0.738   4.199  13.876 -0.5501 -2.0207 -1.7033
  709TMC3    C710489   0.773   4.042  14.107  0.2610 -0.2518 -0.3905
  709TMC3    C810490   0.923   4.257  13.707 -0.1548  0.1603 -0.3926
  709TMC3    O110491   0.846   3.948  14.142  0.0189  0.2257 -0.9536
  709TMC3    O210492   0.832   4.341  13.722 -0.0890 -0.2059  0.3106
  710TMC3    C110493   2.356   0.163   0.722 -1.1388  0.4360 -0.0837
  710TMC3    C210494   2.351   0.228   0.602  0.9545  0.3694  0.7248
  710TMC3    C310495   2.358   0.144   0.488 -0.4541  0.1070  0.8539
  710TMC3    C410496   2.365   0.029   0.731 -0.6428  0.2382 -0.3067
  710TMC3    C510497   2.368   4.673   0.618  0.2004 -0.3975  0.0932
  710TMC3    C610498   2.368   0.010   0.493 -0.3159 -0.5263  0.7877
  710TMC3     C10499   2.386   0.237   0.840  0.0032  0.4140  0.7497
  710TMC3     O10500   2.473   0.188   0.912 -0.4021  0.0691 -0.2880
  710TMC3     H10501   2.347   0.336   0.609  0.1003  0.3409  0.6374
  710TMC3    H110502   2.353   4.704   0.829  2.5758 -0.0946 -0.0491
  710TMC3    H210503   2.358   4.673   0.402 -1.7262  1.7254 -0.4835
  710TMC3    C710504   2.421   4.538   0.639  0.3844  0.2802  0.0941
  710TMC3    C810505   2.348   0.217   0.359 -0.0895 -0.6491  0.5999
  710TMC3    O110506   2.462   4.507   0.750 -0.3892 -0.1381  0.5231
  710TMC3    O210507   2.355   0.149   0.259 -0.0979 -0.6542  0.4106
  711TMC3    C110508   1.946   1.705  14.839  0.5395 -0.4339  0.6877
  711TMC3    C210509   1.944   1.766  14.965  0.1287 -0.1674 -0.1835
  711TMC3    C310510   2.065   1.786  15.033 -0.1127  0.4911 -0.3002
  711TMC3    C410511   2.065   1.663  14.788  0.3613 -0.3269 -0.1506
  711TMC3    C510512   2.179   1.669  14.869  0.4505  0.4964  0.3449
  711TMC3    C610513   2.186   1.747  14.980  0.3968 -0.4876 -0.3640
  711TMC3     C10514   1.857   1.587  14.835 -0.4519  0.3441 -1.2306
  711TMC3     O10515   1.835   1.541  14.725 -0.9889 -0.0840 -0.5730
  711TMC3     H10516   1.851   1.785  15.018  0.4506  0.6680  0.0758
  711TMC3    H110517   2.069   1.588  14.710 -1.9041  0.3132 -0.8598
  711TMC3    H210518   2.283   1.738  15.027 -0.4586 -2.3147  1.0254
  711TMC3    C710519   2.238   1.535  14.883 -0.0285  0.1014 -0.3832
  711TMC3    C810520   2.050   1.748  15.170 -0.2706 -0.1031 -0.3987
  711TMC3    O110521   2.347   1.529  14.935 -0.2537 -0.2548 -0.5828
  711TMC3    O210522   1.959   1.670  15.188 -0.2564  0.2298 -0.2971
  712MPD2     C10523   3.627   2.359  13.401  0.0965 -0.9215  0.0203
  712MPD2    C110524   3.530   2.439  13.444  0.2399 -0.3043 -0.1636
  712MPD2    C210525   3.562   2.557  13.511 -0.0140  0.7162  0.0780
  712MPD2    C310526   3.690   2.583  13.544  0.3809  0.3301 -0.2800
  712MPD2    C410527   3.790   2.501  13.503  0.1259 -0.3423 -0.5104
  712MPD2    C510528   3.755   2.387  13.433 -0.1801 -0.1968 -0.2584
  712MPD2     H10529   3.488   2.636  13.517 -1.3837 -0.4710 -1.6581
  712MPD2    H110530   3.894   2.520  13.528  0.4062 -1.9020 -0.4318
  712MPD2    H210531   3.602   2.261  13.363 -0.7577 -1.0254  0.8450
  712MPD2    H310532   3.833   2.314  13.415  0.6217  0.6813 -0.3652
  712MPD2     N10533   3.736   2.701  13.603 -0.8775 -0.1298  0.1216
  712MPD2    H510534   3.837   2.707  13.616 -0.8178  0.2830 -0.5164
  712MPD2    N110535   3.393   2.413  13.411 -0.3085 -0.8951  0.3113
  712MPD2    H710536   3.321   2.476  13.443  0.0001  0.4010 -1.5955
  713TMC3    C110537   3.730   2.916  13.696 -0.4349 -1.0442  0.2474
  713TMC3    C210538   3.870   2.904  13.687 -0.1704  0.0294  0.2943
  713TMC3    C310539   3.946   3.019  13.673 -0.0284  1.0154 -1.3352
  713TMC3    C410540   3.672   3.032  13.660 -0.3808 -0.2213 -0.5535
  713TMC3    C510541   3.749   3.141  13.640 -0.0417 -0.1747 -0.0171
  713TMC3    C610542   3.887   3.139  13.646  0.9033 -0.4528  1.2668
  713TMC3     C10543   3.656   2.807  13.640 -0.1742  0.0864  0.0057
  713TMC3     O10544   3.533   2.823  13.631 -0.3256 -0.8022 -0.0201
  713TMC3     H10545   3.921   2.818  13.729  0.0483  0.3672  0.7152
  713TMC3    H110546   3.565   3.040  13.668 -0.3999 -0.3498 -0.6656
  713TMC3    H210547   3.954   3.225  13.638 -1.3983  1.1990 -0.2756
  713TMC3    C710548   3.672   3.259  13.632 -0.4521 -0.0595  0.3870
  713TMC3    C810549   4.093   3.020  13.680 -1.2127  0.3317  0.3540
  713TMC3    O110550   3.558   3.254  13.593  0.1537  0.3880  0.1013
  713TMC3    O210551   4.141   2.937  13.761 -0.2335  0.2781  0.3545
  714MPD2     C10552   1.937   1.127   1.339 -0.0909  0.9391  0.4038
  714MPD2    C110553   1.854   1.050   1.262  0.6223 -0.8536 -0.4928
  714MPD2    C210554   1.725   1.094   1.238  0.0494 -0.0456  0.5533
  714MPD2    C310555   1.681   1.211   1.295 -0.1505  0.1169 -0.0618
  714MPD2    C410556   1.758   1.273   1.389 -0.3644  0.2047  0.3117
  714MPD2    C510557   1.887   1.235   1.397 -0.6937 -0.4859 -0.2162
  714MPD2     H10558   1.656   1.039   1.175 -1.8922  0.6352  2.0844
  714MPD2    H110559   1.723   1.361   1.443  0.7522  1.2711 -0.7069
  714MPD2    H210560   2.035   1.108   1.380 -0.5304  0.1282  1.0846
  714MPD2    H310561   1.951   1.293   1.463 -1.9044 -0.3534  0.8336
  714MPD2     N10562   1.556   1.260   1.258 -0.1357 -0.1981 -0.0847
  714MPD2    H510563   1.507   1.208   1.187  1.7844  0.6827 -2.0388
  714MPD2    N110564   1.906   0.919   1.227 -0.3276 -0.5481 -0.1370
  714MPD2    H710565   1.994   0.894   1.269 -0.2996 -1.1836 -0.5821
  715TMC3    C110566   1.904   0.689   1.170  0.1587  0.2546  0.4732
  715TMC3    C210567   1.918   0.608   1.061  0.0163  0.0496  0.8561
  715TMC3    C310568   2.001   0.499   1.075 -0.3521  0.0652  0.2871
  715TMC3    C410569   1.976   0.670   1.283 -0.4979  0.4794  0.0805
  715TMC3    C510570   2.045   0.556   1.295  0.2762  0.1098  0.2927
  715TMC3    C610571   2.062   0.468   1.191  0.3865 -0.7846 -0.0126
  715TMC3     C10572   1.848   0.823   1.150  0.2330 -0.4489 -0.9621
  715TMC3     O10573   1.756   0.829   1.066 -0.2356 -0.3151  0.1600
  715TMC3     H10574   1.864   0.635   0.972  0.9314  0.4146  0.4145
  715TMC3    H110575   1.957   0.737   1.365 -0.0646 -1.3738  1.6878
  715TMC3    H210576   2.147   0.400   1.194  2.1180  1.4060  1.5146
  715TMC3    C710577   2.138   0.554   1.405 -0.3254 -0.1276 -0.1365
  715TMC3    C810578   1.986   0.398   0.974 -0.0138  0.0045 -0.4861
  715TMC3    O110579   2.121   0.638   1.495 -0.2939 -0.5789 -0.1425
  715TMC3    O210580   1.927   0.428   0.872 -0.0552  0.0786  0.2716
  716MPD2     C10581   1.438   3.745   9.625 -0.5660 -0.0814 -0.5616
  716MPD2    C110582   1.309   3.695   9.611 -1.1187  0.5965 -0.3796
  716MPD2    C210583   1.283   3.555   9.629  0.1920  0.1040 -1.0053
  716MPD2    C310584   1.381   3.469   9.674 -0.1669  0.3597 -0.7245
  716MPD2    C410585   1.510   3.515   9.683  0.1791 -0.1500 -0.0324
  716MPD2    C510586   1.533   3.646   9.653 -0.6420 -0.5607  0.0716
  716MPD2     H10587   1.179   3.525   9.628  0.5357 -1.0881 -1.0327
  716MPD2    H110588   1.597   3.461   9.719 -0.5071  0.4051  2.4305
  716MPD2    H210589   1.465   3.846   9.597  2.8428 -0.8019  0.0482
  716MPD2    H310590   1.636   3.674   9.672 -0.5340 -1.5734  1.0693
  716MPD2     N10591   1.346   3.329   9.697 -0.4490 -0.4737  1.3672
  716MPD2    H510592   1.247   3.315   9.675 -0.3671  1.6082 -0.3376
  716MPD2    N110593   1.205   3.774   9.571 -0.0748 -0.2232  0.4509
  716MPD2    H710594   1.218   3.874   9.583  0.5577 -0.0861 -1.4933
  717TMC3    C110595   1.375   3.091   9.736  0.0462  0.7745 -0.2227
  717TMC3    C210596   1.267   3.066   9.653 -0.1352  0.3027  0.1427
  717TMC3    C310597   1.208   2.941   9.659  0.5195  0.6940  0.8533
  717TMC3    C410598   1.419   3.000   9.827  0.5736 -0.0203 -0.4143
  717TMC3    C510599   1.345   2.882   9.836  0.2501 -0.2066  1.0147
  717TMC3    C610600   1.241   2.857   9.761 -0.2345 -0.1450  0.3134
  717TMC3     C10601   1.434   3.229   9.730  0.4867  0.1374  0.5142
  717TMC3     O10602   1.553   3.233   9.754  0.1993  0.1662 -0.1644
  717TMC3     H10603   1.231   3.151   9.597  0.4693  0.4059 -0.0915
  717TMC3    H110604   1.506   3.022   9.888  0.9883 -2.3986 -0.1367
  717TMC3    H210605   1.185   2.765   9.778 -1.3650  0.8230  1.8839
  717TMC3    C710606   1.376   2.790   9.947 -0.5167  0.1585 -0.2660
  717TMC3    C810607   1.073   2.939   9.610  0.5458 -0.1651  0.3640
  717TMC3    O110608   1.357   2.667   9.933 -0.8125  0.2780  0.2168
  717TMC3    O210609   1.027   3.050   9.601  0.4516 -0.3847 -1.0282
  718MPD2     C10610   0.774   2.874  12.625  0.2282 -0.7281  0.1475
  718MPD2    C110611   0.695   2.919  12.526 -0.7816 -0.9614  0.3968
  718MPD2    C210612   0.559   2.885  12.523  1.0140  0.0965 -0.3849
  718MPD2    C310613   0.501   2.815  12.628 -0.6024 -0.6556 -0.6303
  718MPD2    C410614   0.580   2.786  12.736 -1.3335 -0.2688  0.3207
  718MPD2    C510615   0.719   2.804  12.732  0.0650 -0.2523 -0.3106
  718MPD2     H10616   0.489   2.914  12.446  1.0923 -2.0960 -1.2720
  718MPD2    H110617   0.539   2.747  12.828  0.9757 -0.2366  1.3508
  718MPD2    H210618   0.876   2.909  12.628  0.4654 -1.4747  0.8113
  718MPD2    H310619   0.776   2.769  12.817  1.4508  1.5000 -0.5172
  718MPD2     N10620   0.367   2.784  12.610  0.2416 -0.2101 -0.0217
  718MPD2    H510621   0.327   2.811  12.521 -2.1735 -2.6415  0.3274
  718MPD2    N110622   0.763   2.983  12.411  0.2259  0.0721 -0.4476
  718MPD2    H710623   0.862   3.004  12.417 -0.0126  1.7801 -2.7299
  719TMC3    C110624   0.760   3.110  12.216  0.4741  0.3019 -0.1033
  719TMC3    C210625   0.669   3.153  12.125  0.0155  0.5142  0.2929
  719TMC3    C310626   0.633   3.284  12.144 -0.1192  0.2409  0.1362
  719TMC3    C410627   0.830   3.195  12.303 -0.0914 -0.4400  0.2826
  719TMC3    C510628   0.809   3.332  12.294 -0.3620  0.1697  0.1430
  719TMC3    C610629   0.711   3.381  12.211 -0.2782  0.0243  0.9322
  719TMC3     C10630   0.707   2.996  12.282  0.1370  0.7900  0.0015
  719TMC3     O10631   0.603   2.947  12.237  0.3278 -0.4971  0.2143
  719TMC3     H10632   0.623   3.084  12.056 -0.3605  0.9239  0.1270
  719TMC3    H110633   0.919   3.155  12.349  0.4515 -0.6599 -0.9500
  719TMC3    H210634   0.678   3.483  12.223 -1.6327  0.0044 -2.6427
  719TMC3    C710635   0.931   3.404  12.273  0.3828 -0.4697 -1.0763
  719TMC3    C810636   0.493   3.309  12.162  0.8726  0.2095 -0.2551
  719TMC3    O110637   1.034   3.347  12.233 -0.5150 -0.3244  0.5535
  719TMC3    O210638   0.455   3.351  12.273 -0.1132 -0.5321 -0.8792
  720MPD2     C10639   3.114   4.709  13.356 -0.2093  0.2994  0.2630
  720MPD2    C110640   3.109   0.086  13.445 -0.6179  1.1243 -0.1942
  720MPD2    C210641   3.199   0.095  13.549 -0.0126  0.0169  0.0129
  720MPD2    C310642   3.312   0.009  13.547 -0.1199  0.0162 -0.1768
  720MPD2    C410643   3.315   4.627  13.456  0.4560  0.5864  0.0730
  720MPD2    C510644   3.214   4.617  13.361  0.3023  0.0793 -0.9626
  720MPD2     H10645   3.180   0.172  13.622 -1.7471 -1.6883  1.3715
  720MPD2    H110646   3.399   4.560  13.449 -0.8852 -0.8815 -2.0503
  720MPD2    H210647   3.048   4.696  13.271 -1.5650 -0.7151  1.4798
  720MPD2    H310648   3.219   4.548  13.278 -0.4369 -2.8883  1.4621
  720MPD2     N10649   3.404   0.011  13.658  0.8152  0.5935  0.0674
  720MPD2    H510650   3.392   0.078  13.733  3.5315 -0.8470  1.7699
  720MPD2    N110651   3.004   0.185  13.434 -0.0444 -0.3032  0.3849
  720MPD2    H710652   3.003   0.256  13.506 -2.1117 -1.5951  1.6277
  721TMC3    C110653   3.610   4.703  13.764  0.3108 -0.8588 -0.2997
  721TMC3    C210654   3.572   0.039  13.884  0.1064  0.0111 -0.4125
  721TMC3    C310655   3.642   0.143  13.937 -0.4068 -0.0089  0.5199
  721TMC3    C410656   3.730   0.005  13.710 -0.0018  0.4590  0.3469
  721TMC3    C510657   3.803   0.113  13.759  0.1151 -0.4104  0.1968
  721TMC3    C610658   3.755   0.186  13.870 -0.3087 -0.3567 -0.2151
  721TMC3     C10659   3.514   4.651  13.667 -0.5082  0.2098 -0.0033
  721TMC3     O10660   3.558   4.560  13.598 -0.6031  0.5050 -0.7563
  721TMC3     H10661   3.470   0.017  13.913  0.0147  1.6793  0.4982
  721TMC3    H110662   3.759   4.689  13.612 -1.7597 -1.3495  0.4773
  721TMC3    H210663   3.817   0.264  13.914  0.7895 -1.8717  0.9023
  721TMC3    C710664   3.946   0.106  13.735  0.1392 -0.3578  0.2377
  721TMC3    C810665   3.574   0.231  14.021  0.2627  0.6067 -0.0704
  721TMC3    O110666   4.016   0.198  13.767 -0.3351 -0.3557 -0.0295
  721TMC3    O210667   3.566   0.353  14.003 -0.3259  0.8269  0.2595
  722MPD2     C10668   2.879   3.404  13.060 -0.1225  0.3744 -0.3283
  722MPD2    C110669   2.816   3.507  13.114 -0.2179 -1.0099  0.2164
  722MPD2    C210670   2.706   3.565  13.042 -0.7086 -0.2717  0.0286
  722MPD2    C310671   2.652   3.497  12.931 -0.4550 -0.2620  0.5327
  722MPD2    C410672   2.711   3.385  12.883  0.4772 -0.5927 -0.3897
  722MPD2    C510673   2.824   3.347  12.953 -0.3101  0.3646 -0.7958
  722MPD2     H10674   2.651   3.655  13.067  1.5805  1.4034 -0.9519
  722MPD2    H110675   2.676   3.334  12.794 -0.0630  1.2612 -1.2297
  722MPD2    H210676   2.972   3.362  13.097  0.3583 -0.0599 -2.0371
  722MPD2    H310677   2.869   3.260  12.906  1.4307  1.2690 -0.8128
  722MPD2     N10678   2.530   3.542  12.882  0.3403  0.1379 -0.2943
  722MPD2    H510679   2.487   3.622  12.927 -2.5505 -1.8438  0.4144
  722MPD2    N110680   2.870   3.579  13.220  0.5704  0.2895  0.0982
  722MPD2    H710681   2.821   3.664  13.249  1.7318  1.3108 -0.9063
  723TMC3    C110682   2.326   3.549  12.761 -0.5106 -0.2319  0.2000
  723TMC3    C210683   2.209   3.486  12.769 -0.4306 -0.4182 -0.1752
  723TMC3    C310684   2.098   3.563  12.782 -0.7741 -0.2511 -0.8488
  723TMC3    C410685   2.339   3.686  12.752 -0.2487  0.9385  0.4604
  723TMC3    C510686   2.224   3.755  12.762  0.0224 -0.5428  0.1661
  723TMC3    C610687   2.107   3.699  12.794  0.2631  0.5491 -0.2139
  723TMC3     C10688   2.444   3.469  12.797  0.2211 -1.0285  0.1325
  723TMC3     O10689   2.455   3.357  12.740  0.4520  0.3170  0.0284
  723TMC3     H10690   2.209   3.381  12.796 -1.0664 -0.2286  0.5779
  723TMC3    H110691   2.432   3.743  12.750 -0.5633  1.3346 -2.5731
  723TMC3    H210692   2.023   3.767  12.782 -0.6753 -0.3143  1.4890
  723TMC3    C710693   2.242   3.896  12.757 -0.9618  0.6625  0.0082
  723TMC3    C810694   1.968   3.498  12.807  0.2417  0.1117 -0.3118
  723TMC3    O110695   2.324   3.925  12.669 -0.1535 -0.7065  0.2771
  723TMC3    O210696   1.897   3.555  12.886  0.1897 -0.1672  0.5178
  724TMC3    C110697   1.804   2.258   8.791 -0.0635 -0.0944  0.1268
  724TMC3    C210698   1.929   2.224   8.836  0.5953 -0.0004  0.2863
  724TMC3    C310699   1.951   2.101   8.886 -0.3379  0.0388  0.1579
  724TMC3    C410700   1.698   2.167   8.799  0.0741 -0.0046  0.0940
  724TMC3    C510701   1.729   2.047   8.859  0.1684  0.1254 -0.2140
  724TMC3    C610702   1.852   2.008   8.906 -0.3583  0.7167  0.2229
  724TMC3     C10703   1.793   2.387   8.740 -0.5807 -0.3505  1.1756
  724TMC3     O10704   1.889   2.465   8.733 -0.4026 -0.8043 -0.0655
  724TMC3     H10705   2.011   2.289   8.807  0.9849 -0.1691  1.0257
  724TMC3    H110706   1.596   2.186   8.770  0.0679 -0.0619  0.0802
  724TMC3    H210707   1.873   1.911   8.951  0.4181  0.7648 -0.0239
  724TMC3    C710708   1.635   1.935   8.851 -0.3613 -0.5323  0.6527
  724TMC3    C810709   2.085   2.054   8.923 -0.3638 -0.2673  1.1545
  724TMC3    O110710   1.689   1.825   8.859  0.4431  0.3189  0.3478
  724TMC3    O210711   2.103   1.932   8.912  0.3217  0.5059 -0.3764
  725TMC3    C110712   3.332   0.313  12.768  0.0804 -0.5916  0.3639
  725TMC3    C210713   3.269   0.361  12.653  0.6813  0.4035 -0.5145
  725TMC3    C310714   3.243   0.270  12.555  0.6205 -0.6582  0.3045
  725TMC3    C410715   3.384   0.186  12.779  0.1554  0.2854  0.1974
  725TMC3    C510716   3.362   0.107  12.663  0.3915 -0.9310  0.2288
  725TMC3    C610717   3.283   0.142  12.561  0.7208 -0.4804 -0.5499
  725TMC3     C10718   3.395   0.414  12.853  0.3153 -0.9317  0.3780
  725TMC3     O10719   3.412   0.521  12.800  0.6271 -0.6205  0.5249
  725TMC3     H10720   3.225   0.459  12.643  0.9149  0.8170  2.5960
  725TMC3    H110721   3.445   0.151  12.861  0.5628  1.6235  0.4712
  725TMC3    H210722   3.274   0.082  12.472 -3.5112 -0.9552  0.2077
  725TMC3    C710723   3.462   0.003  12.628 -0.0335 -0.0431  0.0663
  725TMC3    C810724   3.211   0.323  12.426 -0.2350 -0.6970  0.6123
  725TMC3    O110725   3.464   4.688  12.513  0.0877  0.0510  0.2530
  725TMC3    O210726   3.110   0.293  12.374  0.3895 -0.4720 -0.6731
  726MPD2     C10727   2.197   1.459  10.269 -0.2286 -0.4185 -0.4612
  726MPD2    C110728   2.086   1.470  10.194  0.2118  0.3618 -0.9463
  726MPD2    C210729   1.967   1.434  10.249 -0.1411  0.0739 -0.4979
  726MPD2    C310730   1.954   1.396  10.381 -1.0728  0.2821  0.0615
  726MPD2    C410731   2.070   1.365  10.449 -0.0797  0.1276 -0.3613
  726MPD2    C510732   2.190   1.386  10.391  0.6994  0.3476  0.8355
  726MPD2     H10733   1.878   1.438  10.187  0.1386  0.8428 -0.8397
  726MPD2    H110734   2.061   1.323  10.549  0.6571  0.4094 -0.1801
  726MPD2    H210735   2.296   1.476  10.228 -1.2920  0.3638 -2.7253
  726MPD2    H310736   2.282   1.361  10.442  0.1177 -2.3858  0.5232
  726MPD2     N10737   1.823   1.372  10.439  0.1816 -0.2296  0.2489
  726MPD2    H510738   1.822   1.339  10.535 -0.5353 -0.8266  0.0437
  726MPD2    N110739   2.091   1.525  10.063 -0.4364  0.1278  0.0990
  726MPD2    H710740   2.005   1.538  10.011 -0.2102 -0.2964 -0.3816
  727TMC3    C110741   2.175   1.656   9.877 -0.3401 -0.5367  0.1265
  727TMC3    C210742   2.248   1.764   9.847  0.7308 -0.3302  0.7314
  727TMC3    C310743   2.207   1.852   9.745 -0.7055 -0.4729 -0.0226
  727TMC3    C410744   2.067   1.623   9.798  0.2101 -0.7346 -0.6208
  727TMC3    C510745   2.041   1.701   9.689 -0.0264 -0.8332  0.7579
  727TMC3    C610746   2.101   1.823   9.665  0.2786 -0.0711  1.1274
  727TMC3     C10747   2.196   1.598  10.010 -0.2230  0.5555 -0.1215
  727TMC3     O10748   2.309   1.613  10.050 -0.4162 -0.3110  0.3472
  727TMC3     H10749   2.327   1.796   9.916  0.1123  0.6324  0.9896
  727TMC3    H110750   2.012   1.531   9.812 -2.1313  1.1251  2.3390
  727TMC3    H210751   2.082   1.889   9.582  2.8656 -1.5098 -0.6030
  727TMC3    C710752   1.917   1.673   9.625 -0.4963  0.3514  0.7253
  727TMC3    C810753   2.270   1.983   9.751 -0.7265  0.7136  0.1036
  727TMC3    O110754   1.835   1.609   9.685  0.2082 -0.6556 -0.0232
  727TMC3    O210755   2.386   1.988   9.787  0.1618  0.3330  0.2958
  728TMC3    C110756   1.067   4.688  15.342  0.5330  0.0929 -0.3905
  728TMC3    C210757   1.176   4.641  15.416  0.0184  0.4792  0.4016
  728TMC3    C310758   1.301   4.665  15.370 -0.4398  0.9202  0.4725
  728TMC3    C410759   1.089   0.054  15.236  0.1793 -0.0165 -0.4306
  728TMC3    C510760   1.219   0.068  15.188 -0.3013  0.5842 -0.6389
  728TMC3    C610761   1.326   0.013  15.257  0.1140  0.1431 -0.5033
  728TMC3     C10762   0.947   4.691  15.415 -0.1441 -0.4073 -0.3189
  728TMC3     O10763   0.929   4.603  15.502  0.3150 -0.1184  0.2188
  728TMC3     H10764   1.162   4.591  15.511  0.9386 -1.9802 -0.7512
  728TMC3    H110765   1.007   0.092  15.177  0.2274  0.6026 -0.0990
  728TMC3    H210766   1.425   0.020  15.214  1.3900 -0.8372  2.3056
  728TMC3    C710767   1.252   0.172  15.083 -0.2224  0.1777 -0.3136
  728TMC3    C810768   1.412   4.619  15.458 -0.5835  0.1491  0.4761
  728TMC3    O110769   1.350   0.247  15.082  0.2547  0.4114 -0.5368
  728TMC3    O210770   1.376   4.553  15.553  0.2179  0.1112  0.2309
  729MPD2     C10771   3.554   1.108  16.582  0.0187  1.4363 -0.0881
  729MPD2    C110772   3.685   1.141  16.609 -0.4652 -0.8305 -0.3796
  729MPD2    C210773   3.721   1.153  16.743  0.0304 -0.2765 -0.5176
  729MPD2    C310774   3.639   1.128  16.854  0.4963 -0.0446  0.1505
  729MPD2    C410775   3.516   1.098  16.823 -0.2888 -0.3661  0.4658
  729MPD2    C510776   3.468   1.089  16.696 -0.3331  0.6525 -0.4548
  729MPD2     H10777   3.820   1.194  16.764 -0.8718  1.7486 -0.1778
  729MPD2    H110778   3.442   1.078  16.900 -0.8001  0.2178  0.1279
  729MPD2    H210779   3.513   1.084  16.485  0.7747  1.0586 -0.3143
  729MPD2    H310780   3.364   1.065  16.678 -1.1454  1.2685  3.4647
  729MPD2     N10781   3.681   1.153  16.988 -0.2501 -0.0692  0.1932
  729MPD2    H510782   3.606   1.166  17.055  0.7484 -1.2903  1.5332
  729MPD2    N110783   3.769   1.186  16.502  0.3278  0.0181 -0.4674
  729MPD2    H710784   3.730   1.186  16.408 -1.5173  2.4404  0.3184
  730TMC3    C110785   3.821   1.225  17.160  0.5954 -0.3169 -0.2021
  730TMC3    C210786   3.910   1.175  17.244  0.3974  0.2320 -0.1372
  730TMC3    C310787   3.901   1.207  17.382 -0.5708  0.1089  0.7931
  730TMC3    C410788   3.727   1.313  17.193  0.2176 -0.5999 -0.2785
  730TMC3    C510789   3.724   1.343  17.327  0.4535 -0.3682  0.1807
  730TMC3    C610790   3.810   1.297  17.426 -0.0146 -0.3777 -0.7884
  730TMC3     C10791   3.812   1.161  17.030  0.2252  1.3056  0.0707
  730TMC3     O10792   3.915   1.121  16.977 -0.5226 -0.3856 -0.0014
  730TMC3     H10793   3.978   1.097  17.210 -0.3341 -0.3749 -0.2046
  730TMC3    H110794   3.647   1.343  17.127  0.5645  0.9713  0.0170
  730TMC3    H210795   3.793   1.325  17.529  0.3199 -0.9546 -0.5776
  730TMC3    C710796   3.635   1.455  17.363  0.1466  0.2793  0.3236
  730TMC3    C810797   3.979   1.122  17.471  0.5633 -0.2839  0.7563
  730TMC3    O110798   3.613   1.470  17.484  0.1471 -0.5051 -0.4030
  730TMC3    O210799   4.025   1.016  17.421 -0.3156 -0.4320 -0.8000
  731MPD2     C10800   3.578   0.399  11.857 -0.1247  0.2617  0.2421
  731MPD2    C110801   3.562   0.293  11.769 -0.1086  0.2240  0.4838
  731MPD2    C210802   3.580   0.166  11.820 -0.0282 -0.9360  0.1174
  731MPD2    C310803   3.567   0.139  11.953 -0.8392 -0.8663  0.3785
  731MPD2    C410804   3.576   0.250  12.038  0.1096  0.2890  0.0174
  731MPD2    C510805   3.578   0.379  11.993 -0.1982  0.2835  0.1178
  731MPD2     H10806   3.571   0.080  11.754 -0.4494 -0.5642 -0.3120
  731MPD2    H110807   3.578   0.237  12.146 -3.8251 -4.1913 -0.4577
  731MPD2    H210808   3.578   0.501  11.819 -0.9518  0.5833  1.1380
  731MPD2    H310809   3.579   0.465  12.058  0.9027  0.3521  0.0019
  731MPD2     N10810   3.567   0.007  12.008  0.2279 -0.1129  0.4543
  731MPD2    H510811   3.593   4.649  11.950 -1.2591  0.4641 -0.9923
  731MPD2    N110812   3.536   0.320  11.631  0.8556  0.0559 -0.9280
  731MPD2    H710813   3.543   0.417  11.601  0.2979  0.1830 -0.6358
  732TMC3    C110814   3.522   0.254  11.401 -0.6582  0.5904 -0.5609
  732TMC3    C210815   3.415   0.205  11.328 -0.4022 -0.6819 -0.3694
  732TMC3    C310816   3.431   0.135  11.210 -0.2041  0.1062  0.2019
  732TMC3    C410817   3.649   0.228  11.354  0.7627 -0.0726 -0.6806
  732TMC3    C510818   3.668   0.156  11.242 -0.0133 -1.0167  0.4431
  732TMC3    C610819   3.562   0.106  11.169  0.1497  0.4942 -0.0999
  732TMC3     C10820   3.509   0.220  11.543 -0.2760  0.4465 -0.1251
  732TMC3     O10821   3.442   0.117  11.569 -0.6817  0.8059  0.5123
  732TMC3     H10822   3.315   0.223  11.366  0.5040  2.1421  0.6670
  732TMC3    H110823   3.727   0.285  11.403 -1.2041  1.9082  0.1860
  732TMC3    H210824   3.582   0.034  11.091 -0.9926  0.6976 -0.5755
  732TMC3    C710825   3.782   0.059  11.251 -0.6025 -0.1445 -0.8115
  732TMC3    C810826   3.342   0.027  11.195 -0.1162 -0.3093 -0.4624
  732TMC3    O110827   3.783   4.698  11.155 -0.1824 -0.7328 -0.0570
  732TMC3    O210828   3.366   4.671  11.099  0.5604 -0.1628 -1.0011
  733TMC3    C110829   4.669   2.644  12.597  0.0136 -0.1913 -0.4750
  733TMC3    C210830   0.060   2.662  12.675 -0.2945 -0.3338 -0.2534
  733TMC3    C310831   0.142   2.768  12.661  0.1871  0.4750  0.3007
  733TMC3    C410832   4.642   2.741  12.506  0.1337  0.2634 -0.4766
  733TMC3    C510833   0.001   2.851  12.498 -0.2268  0.0128 -0.3860
  733TMC3    C610834   0.112   2.871  12.578  0.6057 -0.2684  0.5916
  733TMC3     C10835   4.563   2.541  12.630 -0.7862  0.2612  0.4497
  733TMC3     O10836   4.602   2.446  12.692  0.4022 -0.2176  0.0168
  733TMC3     H10837   0.085   2.576  12.737  0.0303  0.3141  0.5199
  733TMC3    H110838   4.573   2.715  12.426  0.6015 -2.1543 -0.0965
  733TMC3    H210839   0.172   2.961  12.567 -1.3609  0.8378 -1.2265
  733TMC3    C710840   4.713   2.928  12.372  0.3642 -0.4807 -0.1473
  733TMC3    C810841   0.277   2.742  12.708  0.3784 -0.8112 -0.1861
  733TMC3    O110842   4.615   2.906  12.300  0.2433 -0.2909  0.9526
  733TMC3    O210843   0.307   2.710  12.823  0.1296  0.1167 -0.4757
  734MPD2     C10844   1.725   0.088  12.244 -0.0553 -0.3816 -0.2664
  734MPD2    C110845   1.678   0.007  12.141 -0.7017  0.3124  0.1079
  734MPD2    C210846   1.688   0.054  12.016 -0.2487  0.1020 -0.6733
  734MPD2    C310847   1.721   0.186  11.985  0.4427  0.5034 -0.2631
  734MPD2    C410848   1.755   0.269  12.091  0.1724 -0.7717  0.0449
  734MPD2    C510849   1.777   0.210  12.216 -0.2271  0.1729  0.1858
  734MPD2     H10850   1.653   4.708  11.938 -1.0685 -1.1276  0.7472
  734MPD2    H110851   1.768   0.376  12.087 -0.5559 -0.6545  0.7655
  734MPD2    H210852   1.706   0.062  12.348  0.5948  0.7403  0.1299
  734MPD2    H310853   1.815   0.273  12.295  1.5410 -0.7690  0.0950
  734MPD2     N10854   1.730   0.226  11.850 -0.2555 -0.0356  0.1216
  734MPD2    H510855   1.722   0.150  11.783  0.0764 -0.2751  0.3541
  734MPD2    N110856   1.615   4.601  12.167 -0.3772 -0.3575  0.7319
  734MPD2    H710857   1.625   4.562  12.260 -0.8025  2.3004  1.8789
  735TMC3    C110858   1.513   4.395  12.112 -0.5754  0.3153  0.5912
  735TMC3    C210859   1.438   4.328  12.015 -0.0321  0.5612  0.2982
  735TMC3    C310860   1.491   4.222  11.951 -0.5811  0.5194 -0.0864
  735TMC3    C410861   1.625   4.339  12.161 -0.3297  0.3238 -0.3296
  735TMC3    C510862   1.670   4.229  12.106 -0.6248  0.0855 -0.0237
  735TMC3    C610863   1.607   4.164  12.001  0.7658  0.2759  0.5691
  735TMC3     C10864   1.541   4.534  12.079 -0.5187  0.6434 -0.2685
  735TMC3     O10865   1.487   4.570  11.973 -0.5743 -0.2788  0.5563
  735TMC3     H10866   1.350   4.373  11.971 -0.1764  0.2942  0.3082
  735TMC3    H110867   1.683   4.377  12.244  2.1017 -2.7358 -0.6158
  735TMC3    H210868   1.643   4.076  11.949  2.0442  1.3899 -0.3921
  735TMC3    C710869   1.816   4.239  12.091 -0.5349 -0.1671  0.2349
  735TMC3    C810870   1.473   4.235  11.803 -0.3385 -0.4690  0.1709
  735TMC3    O110871   1.868   4.348  12.094  0.0739 -0.5311  0.2727
  735TMC3    O210872   1.487   4.130  11.737  1.0896 -0.1905 -0.1516
  736MPD2     C10873   2.030   3.939  12.075  0.3349  0.8512  0.3969
  736MPD2    C110874   2.010   4.074  12.070 -0.0020 -0.5457 -0.2690
  736MPD2    C210875   2.116   4.165  12.052  0.4737  0.1793 -0.8268
  736MPD2    C310876   2.243   4.111  12.028 -0.4702  0.2229  0.4912
  736MPD2    C410877   2.269   3.976  12.042 -0.4236 -0.2989 -0.1588
  736MPD2    C510878   2.163   3.896  12.068 -0.6038  0.0870 -0.4107
  736MPD2     H10879   2.090   4.268  12.030 -0.5104  0.2934  0.8580
  736MPD2    H110880   2.368   3.933  12.040 -0.3246 -0.0759  0.0021
  736MPD2    H210881   1.950   3.870  12.098 -0.6194  1.0264 -2.3853
  736MPD2    H310882   2.176   3.791  12.091 -2.2711  0.0605  0.4216
  736MPD2     N10883   2.352   4.195  11.994 -0.1936 -0.3971 -0.2773
  736MPD2    H510884   2.440   4.149  11.970 -0.9225 -0.0707 -3.5922
  736MPD2    N110885   1.871   4.111  12.079  0.1749  0.6563 -0.0495
  736MPD2    H710886   1.796   4.043  12.083 -0.0256  0.7813 -1.7975
  737TMC3    C110887   2.460   4.403  11.923 -0.4082 -0.5690 -1.0797
  737TMC3    C210888   2.450   4.541  11.930 -0.1711  0.0271 -0.8873
  737TMC3    C310889   2.478   4.611  11.813 -0.4370  0.7982 -0.1960
  737TMC3    C410890   2.492   4.342  11.804  0.1669 -0.1984  0.1316
  737TMC3    C510891   2.532   4.415  11.697 -0.3194  0.3903 -0.0145
  737TMC3    C610892   2.525   4.551  11.701  0.2846 -0.3383 -0.7617
  737TMC3     C10893   2.350   4.332  11.996  0.5337 -0.4554  0.7265
  737TMC3     O10894   2.262   4.409  12.053  0.2345 -0.5804  0.2503
  737TMC3     H10895   2.389   4.574  12.013  1.5730 -1.4427  0.9753
  737TMC3    H110896   2.483   4.234  11.794 -2.3122  0.0347 -0.3345
  737TMC3    H210897   2.550   4.615  11.616  0.6683  1.3578  0.6257
  737TMC3    C710898   2.593   4.345  11.586 -0.2717  0.0480  0.2077
  737TMC3    C810899   2.439   0.031  11.811  0.1574  0.4944 -0.5914
  737TMC3    O110900   2.620   4.229  11.609  0.2102  0.0579 -0.2067
  737TMC3    O210901   2.443   0.089  11.918  0.7452  0.8462  0.0092
  738MPD2     C10902   2.406   3.606  15.168 -0.4336  0.1205  0.1501
  738MPD2    C110903   2.468   3.490  15.123 -1.3018  0.2296 -0.9379
  738MPD2    C210904   2.598   3.513  15.080  0.4454 -0.0549  0.3915
  738MPD2    C310905   2.666   3.636  15.084 -0.2256 -0.3072  0.2149
  738MPD2    C410906   2.593   3.747  15.137  0.1704  0.0821  0.8038
  738MPD2    C510907   2.460   3.737  15.169 -0.1195 -0.0766 -0.5495
  738MPD2     H10908   2.650   3.422  15.050 -0.4688  0.0170 -1.4165
  738MPD2    H110909   2.634   3.848  15.130  1.5042 -0.4528  0.8119
  738MPD2    H210910   2.301   3.602  15.192 -0.4230 -0.8303  0.0253
  738MPD2    H310911   2.408   3.825  15.205 -2.1789 -0.3272 -2.9319
  738MPD2     N10912   2.798   3.655  15.040 -0.1593  0.4388 -0.5679
  738MPD2    H510913   2.834   3.750  15.041 -2.6808  1.3735  1.1630
  738MPD2    N110914   2.402   3.363  15.122 -0.3010 -0.1030  0.4915
  738MPD2    H710915   2.452   3.278  15.100 -0.5676 -0.1566  0.0873
  739TMC3    C110916   3.019   3.615  14.966 -0.4155 -0.2986 -1.0100
  739TMC3    C210917   3.034   3.736  14.909  0.4477  0.4912 -0.3292
  739TMC3    C310918   3.161   3.776  14.873  0.5143  0.1353  0.3671
  739TMC3    C410919   3.132   3.527  14.974 -0.1352 -0.1421 -0.6744
  739TMC3    C510920   3.256   3.573  14.940 -0.2680 -0.3730 -0.5617
  739TMC3    C610921   3.271   3.697  14.885  0.3803 -0.2078 -0.1372
  739TMC3     C10922   2.881   3.561  14.986  0.8088 -0.0422 -0.4943
  739TMC3     O10923   2.847   3.452  14.941  0.9246  0.3719 -0.0011
  739TMC3     H10924   2.949   3.798  14.887 -0.4234 -0.7127 -0.3651
  739TMC3    H110925   3.110   3.433  15.022  0.1938  0.6657  1.0757
  739TMC3    H210926   3.373   3.727  14.861 -1.2916  4.1634 -1.7688
  739TMC3    C710927   3.373   3.485  14.940 -0.3111 -0.4336  0.1112
  739TMC3    C810928   3.167   3.872  14.759 -0.7555  0.1894 -0.2843
  739TMC3    O110929   3.476   3.536  14.967 -0.3043 -0.7168  0.4195
  739TMC3    O210930   3.232   3.852  14.657 -0.2253  0.0843 -0.3267
  740TMC3    C110931   3.053   0.318  14.221 -0.3399 -0.0061  0.6651
  740TMC3    C210932   3.069   0.201  14.283  0.0516 -0.5696  0.0529
  740TMC3    C310933   3.142   0.107  14.218 -0.2873  0.4209  0.3082
  740TMC3    C410934   3.110   0.355  14.102  0.7186  0.8420  0.1796
  740TMC3    C510935   3.184   0.259  14.042 -0.5087  0.5076 -0.0122
  740TMC3    C610936   3.196   0.137  14.099  0.5000  0.1401 -0.4262
  740TMC3     C10937   2.966   0.409  14.284 -0.0139 -0.0148 -1.0680
  740TMC3     O10938   2.974   0.528  14.255  0.3600  0.2270  0.5820
  740TMC3     H10939   3.050   0.176  14.387  0.9941  0.8078  0.5529
  740TMC3    H110940   3.117   0.454  14.057 -0.6347  0.9366  0.1858
  740TMC3    H210941   3.261   0.066  14.051 -2.6351 -0.9911 -2.9838
  740TMC3    C710942   3.233   0.268  13.904  0.3574 -0.3159 -1.3832
  740TMC3    C810943   3.163   4.703  14.293  1.2373 -0.1391  1.1002
  740TMC3    O110944   3.282   0.160  13.872 -0.4166 -0.0044  0.1926
  740TMC3    O210945   3.147   4.705  14.412 -0.3526 -0.0748 -0.4136
  741TMC3    C110946   2.596   4.132  14.408  0.1596  0.4246  0.4692
  741TMC3    C210947   2.525   4.020  14.415 -0.0553 -0.2252 -0.7204
  741TMC3    C310948   2.493   3.966  14.537  0.4576  0.0316  0.1342
  741TMC3    C410949   2.627   4.209  14.519 -1.3360  0.1674  1.0036
  741TMC3    C510950   2.586   4.158  14.641 -0.7488  0.3664 -0.4945
  741TMC3    C610951   2.523   4.030  14.657  0.1025  0.0492 -0.1165
  741TMC3     C10952   2.610   4.207  14.280 -0.1923 -0.4226  0.9590
  741TMC3     O10953   2.614   4.329  14.282  0.3579 -0.1146  0.1667
  741TMC3     H10954   2.475   3.981  14.327  1.3426 -3.6095 -0.0148
  741TMC3    H110955   2.672   4.307  14.510  2.6245 -1.6530  0.9556
  741TMC3    H210956   2.481   4.001  14.752  1.1327  0.1755  0.3824
  741TMC3    C710957   2.602   4.234  14.769  0.6582 -0.6461 -0.2233
  741TMC3    C810958   2.394   3.866  14.540 -0.0050 -0.5339  0.3551
  741TMC3    O110959   2.563   4.174  14.867  0.0153  0.4376  0.2906
  741TMC3    O210960   2.317   3.862  14.446  0.8289 -0.2157 -0.0709
  742TMC3    C110961   2.744   2.955  15.494 -0.5755  1.0828  0.2919
  742TMC3    C210962   2.645   2.879  15.440  0.2910 -0.0719 -0.1686
  742TMC3    C310963   2.678   2.783  15.345 -0.8645 -0.3232 -0.1926
  742TMC3    C410964   2.873   2.923  15.466 -0.0812  0.5579  0.6031
  742TMC3    C510965   2.901   2.826  15.377  0.0036 -0.2384 -0.0581
  742TMC3    C610966   2.809   2.758  15.308 -0.0061  0.4773  0.3519
  742TMC3     C10967   2.720   3.005  15.622  0.4715  0.0640  0.7253
  742TMC3     O10968   2.610   3.048  15.650  0.5696 -0.0052 -0.4261
  742TMC3     H10969   2.542   2.907  15.459  1.1029  1.3942  2.1030
  742TMC3    H110970   2.960   2.970  15.511 -0.4469  0.7691  1.0940
  742TMC3    H210971   2.843   2.673  15.250 -0.1810  0.3266  0.4686
  742TMC3    C710972   3.031   2.840  15.317 -0.1773  0.2986 -0.5123
  742TMC3    C810973   2.581   2.710  15.276  0.7426 -0.2972 -0.0212
  742TMC3    O110974   3.077   2.954  15.328 -0.3271  0.4696  0.0626
  742TMC3    O210975   2.633   2.633  15.196 -0.3303 -0.2473 -0.4307
  743MPD2     C10976   2.052   3.691   1.408  0.0140  0.0758 -0.1452
  743MPD2    C110977   2.020   3.621   1.294  0.1605  0.1792 -0.2025
  743MPD2    C210978   2.123   3.586   1.207 -0.6520 -0.2513  0.0849
  743MPD2    C310979   2.258   3.616   1.237  0.0376 -0.3986  0.0045
  743MPD2    C410980   2.291   3.695   1.351 -0.3307  0.5078  1.2542
  743MPD2    C510981   2.185   3.724   1.437 -0.2070 -0.2260  0.3181
  743MPD2     H10982   2.102   3.539   1.111 -0.7072  1.8666 -0.9294
  743MPD2    H110983   2.392   3.722   1.381  0.0247  1.3271 -0.6916
  743MPD2    H210984   1.985   3.718   1.489 -0.2355  1.4182 -0.7950
  743MPD2    H310985   2.217   3.756   1.536  1.9179  0.3928 -0.5655
  743MPD2     N10986   2.365   3.575   1.151 -0.2200  0.5641  0.5938
  743MPD2    H510987   2.329   3.538   1.063  0.7595  2.5886 -0.6407
  743MPD2    N110988   1.883   3.586   1.275  0.3998 -0.7451 -0.6246
  743MPD2    H710989   1.822   3.622   1.348 -0.5369 -2.3634 -0.6216
  744TMC3    C110990   1.699   3.460   1.201 -0.1050  0.2173  0.6949
  744TMC3    C210991   1.655   3.439   1.326  0.4534  0.0544 -0.4614
  744TMC3    C310992   1.529   3.384   1.334  0.4069 -0.0885 -0.5521
  744TMC3    C410993   1.621   3.433   1.094 -0.2109 -0.1592  0.1192
  744TMC3    C510994   1.497   3.372   1.107  0.2918  0.2756 -0.1262
  744TMC3    C610995   1.450   3.349   1.234 -0.1956 -0.1706  0.2805
  744TMC3     C10996   1.827   3.520   1.169  0.0014  0.2004  0.5146
  744TMC3     O10997   1.875   3.489   1.063  0.1484  0.3227 -0.5337
  744TMC3     H10998   1.711   3.462   1.415 -0.6510  2.6582 -0.4333
  744TMC3    H110999   1.655   3.451   0.993 -1.6437  2.4364  0.0882
  744TMC3    H211000   1.349   3.316   1.254 -0.5496 -0.4221 -1.9363
  744TMC3    C711001   1.401   3.423   1.011  1.1201 -0.3715 -0.0897
  744TMC3    C811002   1.460   3.421   1.457 -0.8607  0.0783  0.1688
  744TMC3    O111003   1.421   3.522   0.941 -0.1876  0.3986 -0.0724
  744TMC3    O211004   1.355   3.361   1.485 -0.5757  0.0185 -0.5043
  745TMC3    C111005   3.203   2.294  13.314  0.6751  0.2142 -0.1400
  745TMC3    C211006   3.126   2.380  13.382  0.1695 -1.2764 -0.1576
  745TMC3    C311007   2.994   2.388  13.350 -0.0247 -0.0447 -0.2398
  745TMC3    C411008   3.157   2.232  13.201 -0.1796 -0.2385  0.3292
  745TMC3    C511009   3.032   2.248  13.164  0.5111 -0.4872 -0.0122
  745TMC3    C611010   2.944   2.318  13.244 -0.0784 -0.6328 -1.1813
  745TMC3     C11011   3.351   2.307  13.327  0.0015  0.0100 -0.2544
  745TMC3     O11012   3.422   2.231  13.262  0.1249  0.0530  0.6030
  745TMC3     H11013   3.160   2.428  13.473  2.7827 -1.7501 -0.8988
  745TMC3    H111014   3.223   2.169  13.141  2.5288  2.3333  0.6260
  745TMC3    H211015   2.838   2.326  13.222 -0.5461 -0.2766  1.1851
  745TMC3    C711016   3.028   2.305  13.026 -0.0975  0.0472  0.0724
  745TMC3    C811017   2.899   2.442  13.444  0.8286 -0.1251 -0.4030
  745TMC3    O111018   2.923   2.356  12.991  0.5124 -0.0737 -0.9556
  745TMC3    O211019   2.794   2.387  13.439  0.6362 -0.0939  0.2547
  746TMC3    C111020   1.031   4.238  10.892  0.4708  0.2800 -0.9072
  746TMC3    C211021   1.151   4.203  10.831 -0.2634  0.0218  0.3086
  746TMC3    C311022   1.164   4.078  10.773 -0.2449  0.5598 -0.0511
  746TMC3    C411023   0.944   4.142  10.927  0.2120 -0.3613 -0.4032
  746TMC3    C511024   0.953   4.017  10.874 -0.2080 -0.1827  0.3167
  746TMC3    C611025   1.067   3.983  10.800  0.1601  0.2795 -0.3804
  746TMC3     C11026   0.988   4.376  10.920  0.7062 -0.1935 -0.1307
  746TMC3     O11027   0.915   4.394  11.016 -0.2591  0.0133 -0.1719
  746TMC3     H11028   1.229   4.278  10.821 -0.5976  0.2727 -0.4173
  746TMC3    H111029   0.854   4.176  10.977  0.6655 -1.3206  1.0729
  746TMC3    H211030   1.083   3.887  10.753 -2.0234  0.3923 -1.3428
  746TMC3    C711031   0.823   3.967  10.834 -0.1855 -0.0423  0.3681
  746TMC3    C811032   1.254   4.051  10.666  0.3622  0.3300  0.1701
  746TMC3    O111033   0.744   4.058  10.810  0.3903  0.6938 -0.2375
  746TMC3    O211034   1.285   3.937  10.639  0.2218  0.1864  1.2607
  747TMC3    C111035   3.040   4.665  10.665  0.2922 -0.9896 -0.1416
  747TMC3    C211036   2.974   4.566  10.721  1.1045 -0.1220 -0.2585
  747TMC3    C311037   2.949   4.588  10.857  0.3520 -0.1818  0.0492
  747TMC3    C411038   3.110   0.040  10.735  0.2598 -0.7142  0.1775
  747TMC3    C511039   3.091   0.048  10.874  0.1157 -0.2354  0.0179
  747TMC3    C611040   3.000   4.684  10.939  0.1577  0.5251 -0.0709
  747TMC3     C11041   3.052   4.674  10.519  0.6061  0.1132 -0.1045
  747TMC3     O11042   3.094   0.058  10.475 -0.3306  0.3448  0.2096
  747TMC3     H11043   2.929   4.486  10.664 -0.9413  0.7634  0.1089
  747TMC3    H111044   3.167   0.117  10.685  0.8519 -1.5144 -0.3990
  747TMC3    H211045   2.971   4.709  11.041  1.8717 -0.4961  0.6737
  747TMC3    C711046   3.134   0.171  10.936  0.4059  0.3213 -0.2983
  747TMC3    C811047   2.874   4.480  10.917  0.3710 -0.4111 -0.0158
  747TMC3    O111048   3.077   0.227  11.027 -0.7154 -0.3446  0.5060
  747TMC3    O211049   2.888   4.372  10.854 -0.0042  0.0268  0.1771
  748MPD2     C11050   0.242   0.458   1.288  0.5069 -0.0468 -0.0037
  748MPD2    C111051   0.372   0.403   1.314  0.0049 -0.7806  0.1099
  748MPD2    C211052   0.480   0.449   1.234  0.1443  0.0854 -0.2026
  748MPD2    C311053   0.463   0.556   1.150 -0.0585  0.4471 -0.2012
  748MPD2    C411054   0.336   0.615   1.142 -0.2186  0.1570  0.1851
  748MPD2    C511055   0.227   0.562   1.202  0.3646 -0.7386 -0.3910
  748MPD2     H11056   0.583   0.414   1.239  0.0277 -0.3056 -0.5781
  748MPD2    H111057   0.318   0.707   1.088  0.6340  0.8205  1.0367
  748MPD2    H211058   0.153   0.417   1.334  1.1504  0.1671  1.4517
  748MPD2    H311059   0.131   0.614   1.197  0.6780 -0.1664 -0.4447
  748MPD2     N11060   0.584   0.611   1.100  0.3845 -0.1239 -0.2481
  748MPD2    H511061   0.666   0.564   1.136 -0.9570 -2.5470 -0.3204
  748MPD2    N111062   0.384   0.305   1.416  0.0531  0.1864  0.1557
  748MPD2    H711063   0.306   0.305   1.481 -0.6740 -0.0596 -0.7212
  749TMC3    C111064   0.713   0.737   0.963 -0.4138  0.5154  0.0508
  749TMC3    C211065   0.824   0.696   1.031  0.2957  0.0065 -0.2262
  749TMC3    C311066   0.928   0.763   1.004  0.0075  0.5462 -0.5201
  749TMC3    C411067   0.724   0.830   0.856  0.1402  0.1646 -0.1612
  749TMC3    C511068   0.845   0.878   0.813 -0.4321 -0.7953 -0.2960
  749TMC3    C611069   0.951   0.841   0.895  0.8169  0.0916 -0.5319
  749TMC3     C11070   0.582   0.711   1.011  0.5387 -0.3196  0.0167
  749TMC3     O11071   0.491   0.780   0.967  0.0731  0.2208  0.2116
  749TMC3     H11072   0.818   0.649   1.129 -1.4524  1.0060  0.1466
  749TMC3    H111073   0.634   0.867   0.808 -0.7513 -2.6270 -0.6557
  749TMC3    H211074   1.044   0.896   0.892  1.3946 -0.7548  2.6962
  749TMC3    C711075   0.856   1.012   0.761  0.4007 -0.9030  0.0615
  749TMC3    C811076   1.050   0.736   1.074 -0.7747 -0.6956  0.3737
  749TMC3    O111077   0.951   1.079   0.797  0.1151 -0.3735  1.0213
  749TMC3    O211078   1.147   0.806   1.075 -0.4276 -0.4347 -0.4236
  750MPD2     C11079   1.074   1.344  11.362 -0.1137  0.3407 -0.0820
  750MPD2    C111080   0.961   1.274  11.381 -0.3576 -0.0451 -0.2011
  750MPD2    C211081   0.914   1.200  11.272 -0.4016 -0.6072 -0.6012
  750MPD2    C311082   0.981   1.185  11.155 -0.1791  0.3905  0.4107
  750MPD2    C411083   1.109   1.240  11.146 -0.5743  0.7080  0.0986
  750MPD2    C511084   1.146   1.326  11.247 -0.1153  0.1866  0.1045
  750MPD2     H11085   0.808   1.176  11.271 -0.8923  1.5308 -1.2937
  750MPD2    H111086   1.179   1.228  11.064  0.0918  0.1554  0.7434
  750MPD2    H211087   1.110   1.418  11.433 -1.2916  0.4459  0.3984
  750MPD2    H311088   1.243   1.373  11.238 -0.9292  1.7677 -0.4005
  750MPD2     N11089   0.936   1.110  11.045  0.0708  0.3324  0.4697
  750MPD2    H511090   0.996   1.132  10.966  2.2315 -1.3124  1.6541
  750MPD2    N111091   0.893   1.279  11.504 -0.0639 -0.0680  0.2107
  750MPD2    H711092   0.923   1.349  11.570 -1.5061  0.2570  0.5293
  751TMC3    C111093   0.798   0.962  10.907  0.3102  0.2746  0.2242
  751TMC3    C211094   0.671   0.924  10.879  0.4145  0.4433 -0.1690
  751TMC3    C311095   0.654   0.830  10.780 -0.3065  0.1155  0.8026
  751TMC3    C411096   0.905   0.916  10.848  0.8618 -0.6535  0.4941
  751TMC3    C511097   0.888   0.820  10.756  0.0940  1.0063 -1.0658
  751TMC3    C611098   0.763   0.785  10.715  0.4637 -0.0059 -0.5573
  751TMC3     C11099   0.823   1.029  11.038  0.1169  0.0119  0.0118
  751TMC3     O11100   0.740   1.010  11.125 -0.2344  0.7038 -0.4588
  751TMC3     H11101   0.585   0.969  10.928 -0.4690 -0.3676 -0.9647
  751TMC3    H111102   0.999   0.934  10.900  1.4829 -3.4614  0.3246
  751TMC3    H211103   0.752   0.693  10.659  2.2358 -0.6481  0.1362
  751TMC3    C711104   1.000   0.750  10.690 -0.3790 -0.0178 -0.2433
  751TMC3    C811105   0.529   0.765  10.746  0.2411  0.2487 -0.3978
  751TMC3    O111106   1.073   0.816  10.612  0.5410  0.1673 -0.2925
  751TMC3    O211107   0.521   0.716  10.635 -0.1166  1.0133 -0.3393
  752TMC3    C111108   0.084   1.281  16.951 -0.1272 -0.1869  0.1500
  752TMC3    C211109   0.207   1.301  17.010 -0.4287  0.0072 -0.8880
  752TMC3    C311110   0.207   1.322  17.145  0.1795 -0.7772  0.1740
  752TMC3    C411111   4.694   1.271  17.030  0.3387 -0.2809 -0.2159
  752TMC3    C511112   4.698   1.303  17.166  0.4398  0.4901 -0.0520
  752TMC3    C611113   0.102   1.325  17.225 -0.2545 -0.4879 -0.1436
  752TMC3     C11114   0.084   1.257  16.808  0.5533 -0.1976  0.1688
  752TMC3     O11115   0.194   1.277  16.752  0.1435  0.7817 -0.1787
  752TMC3     H11116   0.303   1.299  16.959 -0.2085 -0.8158 -0.4454
  752TMC3    H111117   4.593   1.246  16.999 -0.0574 -2.4907  2.8409
  752TMC3    H211118   0.123   1.357  17.327 -2.3942  0.5676 -0.0405
  752TMC3    C711119   4.568   1.322  17.243  0.7609 -0.3887  0.0622
  752TMC3    C811120   0.344   1.332  17.208 -0.2458  0.1264 -0.9525
  752TMC3    O111121   4.470   1.259  17.202 -0.1692  0.6154  0.4827
  752TMC3    O211122   0.434   1.377  17.138 -0.2729 -0.2682  0.7704
  753TMC3    C111123   1.558   2.518  13.217 -0.3275 -0.4646 -0.3595
  753TMC3    C211124   1.491   2.510  13.335 -0.6378 -1.3132 -0.2935
  753TMC3    C311125   1.389   2.414  13.350  0.0528 -0.0353 -0.0666
  753TMC3    C411126   1.527   2.430  13.111 -0.4948 -0.0481 -0.2037
  753TMC3    C511127   1.405   2.359  13.121  0.1180  0.4249  0.3198
  753TMC3    C611128   1.344   2.341  13.243 -0.2484 -0.4753 -0.8228
  753TMC3     C11129   1.665   2.611  13.198  0.0868  0.3597 -0.0764
  753TMC3     O11130   1.735   2.572  13.105 -0.1811 -0.1130 -0.8963
  753TMC3     H11131   1.504   2.587  13.410  0.5822  0.6446 -2.5297
  753TMC3    H111132   1.582   2.434  13.017 -0.4465  0.2099 -0.1654
  753TMC3    H211133   1.263   2.271  13.258 -0.4793 -0.0140  0.0790
  753TMC3    C711134   1.351   2.310  13.001 -0.3239 -0.3184  0.0522
  753TMC3    C811135   1.317   2.400  13.477 -0.0968 -0.1581 -0.0592
  753TMC3    O111136   1.412   2.336  12.901  0.0332  0.0170 -0.2537
  753TMC3    O211137   1.205   2.353  13.470 -0.0690 -0.0781 -0.6522
  754MPD2     C11138   4.636   1.239  12.537  0.1373 -0.6362 -0.2717
  754MPD2    C111139   4.612   1.154  12.645  0.2562 -0.5057 -0.4490
  754MPD2    C211140   4.485   1.107  12.679 -0.1377  0.0994  0.0928
  754MPD2    C311141   4.379   1.140  12.602  0.4002 -0.0913  0.0745
  754MPD2    C411142   4.402   1.222  12.487  0.0475 -0.1143  0.2810
  754MPD2    C511143   4.531   1.261  12.456 -0.5759 -0.4028  0.2162
  754MPD2     H11144   4.470   1.053  12.772 -1.7109  1.3404  0.5631
  754MPD2    H111145   4.320   1.254  12.423  0.4132 -0.8106 -0.5341
  754MPD2    H211146   0.016   1.269  12.510  0.0999 -1.0344 -0.8543
  754MPD2    H311147   4.545   1.316  12.364  0.0075 -1.6530 -0.4525
  754MPD2     N11148   4.253   1.102  12.629 -0.1878  0.8145  0.9614
  754MPD2    H511149   4.179   1.145  12.575 -0.4976  0.9253  1.4782
  754MPD2    N111150   0.015   1.118  12.715 -0.1780 -0.1793  0.0754
  754MPD2    H711151   0.100   1.167  12.687 -0.1421 -0.9995 -1.2430
  755MPD2     C11152   3.812   1.341  13.470 -0.2306  0.3173 -0.2325
  755MPD2    C111153   3.790   1.401  13.345  0.2662 -0.3908 -0.0537
  755MPD2    C211154   3.816   1.337  13.222 -0.2266 -0.8377 -0.4717
  755MPD2    C311155   3.865   1.206  13.231 -0.0400 -0.2979  0.1514
  755MPD2    C411156   3.894   1.149  13.357 -0.0089 -0.5572 -0.4554
  755MPD2    C511157   3.863   1.217  13.472  0.0114 -0.1112  0.9839
  755MPD2     H11158   3.791   1.384  13.127  1.2513  0.0664 -0.4112
  755MPD2    H111159   3.920   1.044  13.366  1.2243 -0.1099  1.1175
  755MPD2    H211160   3.795   1.393  13.563  1.9513 -0.1029  0.3844
  755MPD2    H311161   3.887   1.167  13.565 -0.0493  1.5934  1.9260
  755MPD2     N11162   3.893   1.127  13.115 -0.2616  0.3513 -0.0650
  755MPD2    H511163   3.904   1.027  13.132 -0.3416  0.7874  2.6256
  755MPD2    N111164   3.733   1.529  13.343 -0.2052  0.6673 -0.0436
  755MPD2    H711165   3.748   1.586  13.260  2.1807 -0.3746 -0.3481
  756MPD2     C11166   0.873   1.191   9.935  1.0067 -0.4819  0.0805
  756MPD2    C111167   0.777   1.287   9.961  0.4774 -0.1961 -0.5863
  756MPD2    C211168   0.706   1.350   9.854  0.2233 -0.7016 -0.5408
  756MPD2    C311169   0.730   1.307   9.724  1.0251 -0.2677  0.5445
  756MPD2    C411170   0.820   1.206   9.700 -0.1584 -0.5772  0.3751
  756MPD2    C511171   0.880   1.142   9.808  0.7960  0.0605  0.6319
  756MPD2     H11172   0.621   1.416   9.864  1.4606  0.8693 -0.3647
  756MPD2    H111173   0.849   1.173   9.601  2.2257  2.0698  0.2005
  756MPD2    H211174   0.923   1.134  10.013  0.8446  2.2978  2.2339
  756MPD2    H311175   0.952   1.063   9.789  1.1713  0.4683  0.3457
  756MPD2     N11176   0.657   1.371   9.618 -0.1748  0.2006 -0.1961
  756MPD2    H511177   0.587   1.439   9.645 -1.6017 -1.8430  1.2274
  756MPD2    N111178   0.756   1.321  10.091 -0.0419  0.2122  0.2913
  756MPD2    H711179   0.817   1.285  10.164 -0.6578 -1.9336 -0.2639
  757MPD2     C11180   0.001   0.911   9.068  0.3273  0.3630 -0.3829
  757MPD2    C111181   0.089   0.895   9.170  0.2939  0.1744  0.4484
  757MPD2    C211182   0.177   0.995   9.210 -0.6034  0.3706  0.4513
  757MPD2    C311183   0.167   1.125   9.161 -0.2440  0.3050 -0.6251
  757MPD2    C411184   0.071   1.140   9.059  0.1533 -0.1640  0.2078
  757MPD2    C511185   4.719   1.037   9.016  0.2234 -0.0600 -0.1328
  757MPD2     H11186   0.259   0.980   9.280 -1.9409  1.2034  2.2070
  757MPD2    H111187   0.043   1.237   9.020  0.3035  0.1649  0.9045
  757MPD2    H211188   4.645   0.839   9.040 -0.0066 -0.2649  2.1636
  757MPD2    H311189   4.647   1.063   8.939  0.8953  3.4739  0.4167
  757MPD2     N11190   0.258   1.215   9.224 -0.1612  0.2315 -0.1397
  757MPD2    H511191   0.312   1.180   9.303  1.8837  1.2603 -1.0756
  757MPD2    N111192   0.089   0.765   9.229 -0.3530 -0.2839 -0.1335
  757MPD2    H711193   0.025   0.699   9.186 -0.0904 -0.3851 -0.3671
  758MPD2     C11194   0.329   0.556  15.644  0.1176 -0.1231  0.1051
  758MPD2    C111195   0.385   0.518  15.766 -0.1530  0.0513  0.4004
  758MPD2    C211196   0.343   0.596  15.878 -0.0521 -0.7751  0.0594
  758MPD2    C311197   0.264   0.707  15.871  0.1101  0.2309  0.3441
  758MPD2    C411198   0.218   0.747  15.747  0.3028 -0.1811 -0.3859
  758MPD2    C511199   0.241   0.669  15.635  0.0477  0.0657  0.2488
  758MPD2     H11200   0.383   0.568  15.974 -1.8455  1.4016  1.4491
  758MPD2    H111201   0.157   0.836  15.741 -0.0530 -0.3776  0.3163
  758MPD2    H211202   0.349   0.495  15.557  1.7510 -0.2297  0.5476
  758MPD2    H311203   0.202   0.695  15.537  1.8024 -0.9221 -0.7213
  758MPD2     N11204   0.223   0.791  15.976  0.7587  0.0567  0.7523
  758MPD2    H511205   0.153   0.863  15.966  0.7215 -0.3957 -2.1061
  758MPD2    N111206   0.461   0.402  15.773  0.0356 -0.5962  0.7070
  758MPD2    H711207   0.492   0.373  15.681  2.8662  0.8311  1.2229
  759MPD2     C11208   4.058   3.810   9.814 -0.1935  0.7687  0.0492
  759MPD2    C111209   4.124   3.870   9.915 -0.0010 -0.2813 -0.0563
  759MPD2    C211210   4.240   3.944   9.887 -0.9796 -0.6011 -0.3478
  759MPD2    C311211   4.288   3.968   9.762  0.1790 -0.6671 -0.1062
  759MPD2    C411212   4.223   3.899   9.662 -0.0573 -0.3324 -0.1798
  759MPD2    C511213   4.107   3.821   9.689  0.0923  0.6730  0.3144
  759MPD2     H11214   4.296   3.981   9.972 -3.1190 -0.8834  1.2012
  759MPD2    H111215   4.248   3.914   9.558 -1.2665  1.1654 -0.2547
  759MPD2    H211216   3.966   3.754   9.828 -1.0376  2.7456  2.2864
  759MPD2    H311217   4.050   3.776   9.609 -2.4286 -2.6990  3.9831
  759MPD2     N11218   4.407   4.042   9.739 -0.5058  0.5730  0.3311
  759MPD2    H511219   4.443   4.088   9.822 -0.2981 -1.8004  1.5444
  759MPD2    N111220   4.070   3.851  10.045 -0.3460 -0.0164 -0.0006
  759MPD2    H711221   3.989   3.792  10.060  1.4553 -1.9469  2.1156
  760MPD2     C11222   3.548   1.656  11.723 -0.1374 -0.3957 -0.3342
  760MPD2    C111223   3.685   1.634  11.744 -0.3996  0.1190  0.1285
  760MPD2    C211224   3.725   1.525  11.812  0.4899 -0.7846  0.0210
  760MPD2    C311225   3.630   1.431  11.865 -0.4955 -0.1891  0.0486
  760MPD2    C411226   3.493   1.450  11.834 -0.0252  0.3295 -0.4542
  760MPD2    C511227   3.457   1.563  11.768  0.5414  0.3339 -0.3722
  760MPD2     H11228   3.830   1.499  11.823  0.7723  0.3873  0.1158
  760MPD2    H111229   3.409   1.396  11.875 -0.9132  1.5192 -0.6823
  760MPD2    H211230   3.512   1.743  11.670 -2.6691 -1.0773  0.2773
  760MPD2    H311231   3.353   1.591  11.759  0.6622  0.9620  0.1716
  760MPD2     N11232   3.662   1.312  11.939 -0.2563 -0.0971 -0.0931
  760MPD2    H511233   3.580   1.254  11.951 -2.0091  3.1008  3.5173
  760MPD2    N111234   3.781   1.736  11.706  0.3826  0.0531  0.1442
  760MPD2    H711235   3.878   1.711  11.724  0.0089 -2.0915 -0.7487
  761MPD2     C11236   0.104   0.545  10.907 -0.3218 -0.7932  0.7882
  761MPD2    C111237   0.188   0.512  10.803  0.4677 -0.1314  0.6869
  761MPD2    C211238   0.287   0.604  10.782  0.2717 -0.6186 -0.5923
  761MPD2    C311239   0.305   0.715  10.857 -0.2605 -0.1972  0.9226
  761MPD2    C411240   0.218   0.744  10.961 -0.2786 -0.3643  0.3130
  761MPD2    C511241   0.117   0.653  10.985  0.8129 -0.1486  0.2124
  761MPD2     H11242   0.365   0.576  10.713  2.4491 -1.4261  2.1730
  761MPD2    H111243   0.232   0.833  11.021 -3.0216 -0.8432  1.6447
  761MPD2    H211244   0.016   0.483  10.917 -1.8057  1.3876  1.4028
  761MPD2    H311245   0.049   0.672  11.068 -0.6292 -1.5519 -0.6374
  761MPD2     N11246   0.421   0.795  10.834 -0.6655  0.1905  0.0860
  761MPD2    H511247   0.435   0.873  10.897  1.0198  1.3167 -1.7060
  761MPD2    N111248   0.168   0.390  10.726  0.1427 -0.8050 -0.0717
  761MPD2    H711249   0.113   0.322  10.778  0.7661 -0.3447  1.1699
  762MPD2     C11250   0.808   0.422  10.393 -0.2714  0.0187  0.1532
  762MPD2    C111251   0.771   0.293  10.369 -0.2289  1.3066 -0.5150
  762MPD2    C211252   0.848   0.209  10.288  0.8291 -0.0718  0.4584
  762MPD2    C311253   0.959   0.264  10.230 -0.4300  0.4046 -0.1034
  762MPD2    C411254   0.991   0.396  10.249 -0.2190 -0.1974  0.3953
  762MPD2    C511255   0.911   0.475  10.325  0.8161 -0.2622 -0.4138
  762MPD2     H11256   0.832   0.102  10.294  0.3717 -0.0701 -0.7186
  762MPD2    H111257   1.066   0.442  10.187  0.0962  2.3060  2.6521
  762MPD2    H211258   0.757   0.496  10.453 -2.0025  0.6161 -2.0579
  762MPD2    H311259   0.938   0.579  10.341 -2.1190  0.6912 -1.7330
  762MPD2     N11260   1.043   0.182  10.148  0.1152  0.1585 -0.5126
  762MPD2    H511261   1.030   0.082  10.144 -0.7216  0.3105 -1.6285
  762MPD2    N111262   0.647   0.259  10.432 -0.2366 -0.3110  0.4050
  762MPD2    H711263   0.602   0.335  10.483  1.5646  2.0472 -1.5115
  763MPD2     C11264   2.460   1.002  15.969  0.6936  0.9223 -0.7300
  763MPD2    C111265   2.333   1.046  15.931  0.1393 -0.9357  0.0723
  763MPD2    C211266   2.299   1.180  15.955 -0.3770 -0.0829 -0.0579
  763MPD2    C311267   2.395   1.273  15.994  0.1442  1.1215 -0.8130
  763MPD2    C411268   2.515   1.229  16.034  0.0788 -0.2880 -0.4920
  763MPD2    C511269   2.548   1.096  16.027  0.4753 -0.3852  1.0230
  763MPD2     H11270   2.202   1.208  15.916  0.1682  1.4358 -0.3328
  763MPD2    H111271   2.590   1.297  16.073 -2.8392  0.2935  4.2024
  763MPD2    H211272   2.488   0.899  15.950  3.4410  1.6289 -0.4319
  763MPD2    H311273   2.653   1.079  16.046  0.8522  0.4266 -0.3351
  763MPD2     N11274   2.381   1.410  15.986  0.4300  0.4022  0.2922
  763MPD2    H511275   2.468   1.462  15.981  1.6686 -1.8681 -1.9021
  763MPD2    N111276   2.233   0.971  15.860  0.2982 -0.4372 -0.2238
  763MPD2    H711277   2.158   1.033  15.830  1.2606  1.6090  1.6397
  764MPD2     C11278   0.114   2.178   0.165  0.9571  0.2794  0.7211
  764MPD2    C111279   0.060   2.053   0.193 -0.7228  0.2288  0.4420
  764MPD2    C211280   0.095   1.999   0.319  0.1852 -0.4150  0.3360
  764MPD2    C311281   0.166   2.066   0.423  0.4256 -0.5078 -1.3325
  764MPD2    C411282   0.218   2.192   0.389  0.3037  0.1326 -1.0137
  764MPD2    C511283   0.192   2.241   0.264 -0.0980  0.6902  0.1067
  764MPD2     H11284   0.070   1.896   0.344  1.8612 -0.5572  1.4308
  764MPD2    H111285   0.265   2.262   0.457 -0.5963 -0.9228  0.6983
  764MPD2    H211286   0.091   2.236   0.076  2.7316 -1.1107 -0.6281
  764MPD2    H311287   0.220   2.344   0.244 -2.8107  1.3190 -0.4413
  764MPD2     N11288   0.194   1.994   0.540 -0.1365  0.1185 -0.1535
  764MPD2    H511289   0.153   1.902   0.550  0.7492 -0.3188 -0.5740
  764MPD2    N111290   4.705   1.979   0.103  0.5841 -0.2216  0.5533
  764MPD2    H711291   4.660   1.896   0.138  1.7623 -1.6187 -1.2417
  765MPD2     C11292   4.313   0.264  15.935 -0.2441  0.3574  0.0590
  765MPD2    C111293   4.409   0.282  15.843  0.7292 -0.0131  0.4386
  765MPD2    C211294   4.504   0.186  15.823  0.0052 -1.2901  0.0428
  765MPD2    C311295   4.526   0.083  15.911 -0.0532  0.6289 -0.1568
  765MPD2    C411296   4.438   0.073  16.017 -0.2188 -0.1790  0.1322
  765MPD2    C511297   4.337   0.167  16.033  0.1629  0.3539  0.1951
  765MPD2     H11298   4.580   0.201  15.746 -1.8697  0.7813 -1.3828
  765MPD2    H111299   4.455   4.715  16.090  0.6636 -0.6573 -0.6034
  765MPD2    H211300   4.227   0.328  15.949 -0.0085  0.3703  1.5097
  765MPD2    H311301   4.283   0.161  16.127 -2.8577 -0.6668 -1.6020
  765MPD2     N11302   4.629   4.707  15.874 -0.2578  1.1264  0.2166
  765MPD2    H511303   4.646   4.709  15.774 -0.5474  1.8516  0.1816
  765MPD2    N111304   4.399   0.391  15.760  0.1497 -0.0454  0.4833
  765MPD2    H711305   4.318   0.451  15.775  1.1965  1.6090 -0.5605
  766MPD2     C11306   3.949   0.401  15.139  0.2532 -0.2730 -0.7452
  766MPD2    C111307   4.085   0.422  15.133 -0.6797  0.9846  0.1719
  766MPD2    C211308   4.151   0.388  15.020  0.0623 -0.2310  0.1041
  766MPD2    C311309   4.089   0.329  14.911  0.3365 -0.1661 -0.4867
  766MPD2    C411310   3.953   0.316  14.920  0.4806  0.0233 -0.1488
  766MPD2    C511311   3.883   0.364  15.027  0.3117  0.1828 -0.2507
  766MPD2     H11312   4.258   0.403  15.013  0.1530 -0.3657  1.1387
  766MPD2    H111313   3.899   0.288  14.830 -1.5539 -3.2312  2.0925
  766MPD2    H211314   3.896   0.434  15.228  0.2216 -3.3104  0.3583
  766MPD2    H311315   3.775   0.357  15.017  0.1266 -0.3641  2.0662
  766MPD2     N11316   4.173   0.307  14.796  0.5744 -0.0580 -0.4157
  766MPD2    H511317   4.270   0.336  14.801  0.4668  0.1072  0.8016
  766MPD2    N111318   4.168   0.469  15.241  0.2857  0.1290  0.3001
  766MPD2    H711319   4.265   0.476  15.213  0.3336  0.9030  0.6567
  767MPD2     C11320   4.069   0.743  14.939  0.2579 -0.0492  0.4560
  767MPD2    C111321   4.146   0.677  14.851 -0.5970  0.6143  0.1893
  767MPD2    C211322   4.086   0.597  14.751 -0.1081 -0.0594  0.2078
  767MPD2    C311323   3.947   0.593  14.732 -0.2290  0.2738  0.3809
  767MPD2    C411324   3.871   0.672  14.816  1.0455  0.1614 -0.3970
  767MPD2    C511325   3.930   0.743  14.912 -0.0527  0.4566 -0.1434
  767MPD2     H11326   4.149   0.548  14.678 -2.3190 -0.4590 -1.4578
  767MPD2    H111327   3.763   0.658  14.814  0.9153  0.8109  3.3954
  767MPD2    H211328   4.110   0.799  15.022  0.7226  0.3214 -0.0264
  767MPD2    H311329   3.861   0.798  14.975  1.1251  0.2908  1.2799
  767MPD2     N11330   3.882   0.506  14.635 -0.5928  0.0443  0.4018
  767MPD2    H511331   3.944   0.434  14.600  0.4467  1.4353 -0.6379
  767MPD2    N111332   4.288   0.693  14.865 -0.2742 -0.7118  0.2283
  767MPD2    H711333   4.311   0.766  14.931  1.4913 -0.1579 -0.9909
  768MPD2     C11334   0.854   4.024  10.300  0.7934 -0.6522  0.0411
  768MPD2    C111335   0.777   3.926  10.363  0.4475  0.6785 -0.5136
  768MPD2    C211336   0.836   3.828  10.443 -0.2203  0.1561  0.1137
  768MPD2    C311337   0.976   3.828  10.467  0.1563 -1.1737  0.0650
  768MPD2    C411338   1.044   3.934  10.407 -0.2093 -0.3309 -0.6717
  768MPD2    C511339   0.985   4.022  10.325 -0.4008 -0.2385 -0.1022
  768MPD2     H11340   0.770   3.751  10.482  0.7859  0.2768  2.0167
  768MPD2    H111341   1.149   3.958  10.422 -0.1425 -2.7819  2.7225
  768MPD2    H211342   0.817   4.102  10.235  0.1149 -2.0283 -1.1988
  768MPD2    H311343   1.046   4.100  10.281  0.5667 -1.2630 -0.5528
  768MPD2     N11344   1.055   3.734  10.539  0.0569 -0.1280 -0.1294
  768MPD2    H511345   1.154   3.751  10.554 -0.2222  0.5914  0.8511
  768MPD2    N111346   0.638   3.915  10.347  0.3336 -0.9251 -0.0549
  768MPD2    H711347   0.593   3.833  10.386 -2.0995 -1.4704 -4.0999
  769MPD2     C11348   1.516   1.639  14.367 -0.1458 -0.0965  0.1203
  769MPD2    C111349   1.413   1.565  14.408  0.1593 -0.1249  0.1653
  769MPD2    C211350   1.384   1.565  14.548 -0.0386  0.4565 -0.6799
  769MPD2    C311351   1.463   1.627  14.641 -0.0831  0.0471 -0.4705
  769MPD2    C411352   1.575   1.701  14.594 -0.7482  0.2841 -0.0219
  769MPD2    C511353   1.603   1.695  14.458  0.4609  0.7752  0.2289
  769MPD2     H11354   1.301   1.506  14.585  0.4569 -0.2060 -0.6207
  769MPD2    H111355   1.660   1.740  14.650  0.4051  1.2130 -2.4034
  769MPD2    H211356   1.531   1.644  14.260 -0.0487  0.5822  0.1666
  769MPD2    H311357   1.683   1.760  14.424  2.1340 -1.0732  0.6355
  769MPD2     N11358   1.434   1.607  14.777  0.3163  0.0779  0.2666
  769MPD2    H511359   1.361   1.539  14.795 -0.6541  1.4345  1.4117
  769MPD2    N111360   1.330   1.493  14.322 -0.4330  0.2266 -0.8440
  769MPD2    H711361   1.328   1.513  14.223 -1.1632 -1.7361 -1.2212
  770MPD2     C11362   0.700   0.903  14.683 -0.2080 -0.6924 -0.3489
  770MPD2    C111363   0.839   0.875  14.687  0.3601 -0.5235 -0.8376
  770MPD2    C211364   0.918   0.928  14.583 -0.4307 -0.1042 -0.3964
  770MPD2    C311365   0.856   1.014  14.491 -0.5833 -0.4901 -0.9971
  770MPD2    C411366   0.721   1.038  14.497  0.1858 -0.7887  0.3487
  770MPD2    C511367   0.646   0.972  14.584 -0.3622  0.0066  0.1422
  770MPD2     H11368   1.024   0.910  14.570  0.0566  1.0942  1.9420
  770MPD2    H111369   0.676   1.112  14.433  0.0577 -0.6955  0.5485
  770MPD2    H211370   0.628   0.865  14.755  0.7085  1.0255  1.4494
  770MPD2    H311371   0.539   0.982  14.575 -0.2794  2.3023  1.6493
  770MPD2     N11372   0.931   1.067  14.390  0.8030 -0.2178  0.2978
  770MPD2    H511373   1.030   1.045  14.390  0.4011 -2.0313  0.2502
  770MPD2    N111374   0.874   0.782  14.784 -0.5756 -0.3135 -0.3265
  770MPD2    H711375   0.797   0.743  14.836  1.0554 -1.5507  1.1678
  771MPD2     C11376   2.275   0.037  13.861  0.2619 -0.8257 -0.4964
  771MPD2    C111377   2.204   0.137  13.800 -0.2834 -0.0558 -0.4888
  771MPD2    C211378   2.133   0.113  13.687 -0.2287 -0.0439  0.2294
  771MPD2    C311379   2.123   4.709  13.633 -0.0445  0.2661  0.4356
  771MPD2    C411380   2.195   4.607  13.696  0.1805 -0.7248 -0.4235
  771MPD2    C511381   2.277   4.634  13.799  0.1136 -0.0493 -0.4355
  771MPD2     H11382   2.085   0.194  13.633 -1.6492  0.3301  2.0655
  771MPD2    H111383   2.208   4.504  13.667  0.0718 -1.1173  0.9315
  771MPD2    H211384   2.352   0.057  13.935 -0.8767  0.3050  0.3811
  771MPD2    H311385   2.330   4.549  13.841 -2.6206 -0.5543  1.9738
  771MPD2     N11386   2.046   4.701  13.515 -0.2325 -0.2986 -0.3393
  771MPD2    H511387   2.009   0.069  13.481  1.2552  0.0541 -1.0158
  771MPD2    N111388   2.223   0.273  13.834 -0.0716  0.6068 -0.9042
  771MPD2    H711389   2.194   0.340  13.764 -1.4258  0.2809 -0.6601
  772MPD2     C11390   1.724   0.575  13.604 -0.1747  0.1264  0.0313
  772MPD2    C111391   1.741   0.539  13.741 -0.0858  0.3437 -1.4786
  772MPD2    C211392   1.636   0.473  13.806  0.0924 -0.5176 -0.3762
  772MPD2    C311393   1.516   0.440  13.738  0.6009 -0.0959 -0.2505
  772MPD2    C411394   1.499   0.484  13.608  0.0623  0.0270  0.1778
  772MPD2    C511395   1.603   0.551  13.547 -0.8281  0.1905  0.2091
  772MPD2     H11396   1.648   0.450  13.912  0.6881 -0.3322 -0.4008
  772MPD2    H111397   1.409   0.474  13.549 -0.2841 -1.9429  1.0199
  772MPD2    H211398   1.794   0.621  13.535  0.6850  2.7901  2.6602
  772MPD2    H311399   1.582   0.579  13.444 -0.1892  0.9200  0.2813
  772MPD2     N11400   1.407   0.367  13.785 -0.6024  0.1873 -0.0911
  772MPD2    H511401   1.325   0.350  13.728 -1.4651 -2.0291  1.7891
  772MPD2    N111402   1.862   0.563  13.813  0.3324 -0.6188 -0.3545
  772MPD2    H711403   1.869   0.514  13.901  0.2647 -1.7564 -0.9780
  773MPD2     C11404   0.997   0.975   0.317  0.3880  0.4040 -0.1646
  773MPD2    C111405   1.072   0.997   0.206 -0.6012 -0.4286 -0.8052
  773MPD2    C211406   1.211   0.990   0.215  0.4627  0.0413  0.5946
  773MPD2    C311407   1.271   0.952   0.334  0.5444  0.3564  0.4337
  773MPD2    C411408   1.189   0.938   0.447  0.2190 -0.6270  0.3079
  773MPD2    C511409   1.054   0.959   0.438 -0.2618  0.2386 -0.5665
  773MPD2     H11410   1.270   0.976   0.125 -0.3510 -0.8958  0.2099
  773MPD2    H111411   1.243   0.927   0.540  0.8389  1.9846  0.2436
  773MPD2    H211412   0.890   0.993   0.315 -0.0227 -2.0242 -0.7481
  773MPD2    H311413   0.997   0.952   0.530 -1.2759  3.9885 -0.9112
  773MPD2     N11414   1.415   0.928   0.335  0.0757 -0.4640 -0.3465
  773MPD2    H511415   1.463   0.959   0.252 -0.3407 -1.2737 -0.8868
  773MPD2    N111416   1.021   1.015   0.076 -0.0312  0.5242 -0.1373
  773MPD2    H711417   1.087   1.029  17.685 -0.6700 -3.7804 -1.4647
  774MPD2     C11418   0.349   0.315  13.336 -0.8162 -0.5402  0.1724
  774MPD2    C111419   0.235   0.385  13.365 -0.1540 -0.8308 -0.1879
  774MPD2    C211420   0.209   0.502  13.291  0.8410  0.0237 -0.0526
  774MPD2    C311421   0.292   0.540  13.183 -0.7039  0.6016  0.4526
  774MPD2    C411422   0.400   0.459  13.155 -0.3062 -0.7037  0.0821
  774MPD2    C511423   0.428   0.346  13.229 -0.8771 -0.0254 -0.4018
  774MPD2     H11424   0.129   0.570  13.317 -0.2900 -0.6076 -1.8546
  774MPD2    H111425   0.469   0.478  13.074 -0.1482  0.0942  0.4050
  774MPD2    H211426   0.373   0.233  13.403 -1.8247 -0.2617  0.8812
  774MPD2    H311427   0.521   0.296  13.204 -1.1660  0.0378 -1.5931
  774MPD2     N11428   0.274   0.673  13.129 -0.4188  0.7613  0.0173
  774MPD2    H511429   0.194   0.723  13.165 -2.4394 -2.2835 -0.2718
  774MPD2    N111430   0.158   0.340  13.478 -1.0730 -0.4713 -0.2688
  774MPD2    H711431   0.192   0.254  13.520  0.9138 -0.8762 -2.7002
  775MPD2     C11432   1.708   1.340  15.530 -0.1081 -0.1281  0.2235
  775MPD2    C111433   1.626   1.444  15.574 -0.1892 -0.1040 -0.4571
  775MPD2    C211434   1.670   1.576  15.577  1.1231  0.1225 -0.4562
  775MPD2    C311435   1.786   1.606  15.513 -0.1016  0.3707  0.1625
  775MPD2    C411436   1.855   1.504  15.452  0.0038  0.0997  0.3432
  775MPD2    C511437   1.834   1.367  15.475 -0.1575  0.7920  0.3171
  775MPD2     H11438   1.596   1.653  15.594  1.3420  0.0562  0.7511
  775MPD2    H111439   1.948   1.526  15.401  0.1992 -0.0259  0.6394
  775MPD2    H211440   1.683   1.238  15.557  0.7178 -0.8247 -1.6482
  775MPD2    H311441   1.898   1.294  15.428 -0.6145  0.0910  0.7864
  775MPD2     N11442   1.834   1.738  15.493 -0.0491 -0.2523 -0.0127
  775MPD2    H511443   1.905   1.755  15.423  0.5880  1.1638  0.9750
  775MPD2    N111444   1.499   1.400  15.621  0.0650  0.0634  0.1548
  775MPD2    H711445   1.490   1.299  15.625 -1.2858  0.1719 -0.1649
  776MPD2     C11446   1.057   1.689  12.018 -0.7771  0.4085  0.1296
  776MPD2    C111447   0.921   1.674  11.977  0.0701 -0.3574 -0.3208
  776MPD2    C211448   0.834   1.782  11.964 -0.5215  0.4427 -0.3186
  776MPD2    C311449   0.884   1.907  11.976  0.2159 -0.5835 -0.0463
  776MPD2    C411450   1.012   1.925  12.028  0.3721 -0.3039 -0.2040
  776MPD2    C511451   1.096   1.815  12.051  0.3375  0.4474  0.8095
  776MPD2     H11452   0.727   1.776  11.950 -0.6950  1.3649  0.6063
  776MPD2    H111453   1.055   2.024  12.043  2.2706 -1.0006 -1.0807
  776MPD2    H211454   1.119   1.601  12.029  0.2572  1.1369  0.1100
  776MPD2    H311455   1.184   1.835  12.111 -0.6299  0.7250  2.1394
  776MPD2     N11456   0.827   2.026  11.922 -0.2898  0.3946 -0.9770
  776MPD2    H511457   0.876   2.114  11.933  2.1515 -1.1137  0.2330
  776MPD2    N111458   0.872   1.532  11.962  0.1229  0.2747 -0.0663
  776MPD2    H711459   0.935   1.452  11.961 -2.0749 -1.4344 -0.3831
  777MPD2     C11460   1.342   4.545   0.562  0.4214  0.0243  0.4319
  777MPD2    C111461   1.326   4.463   0.674  0.1864 -0.3236 -0.7021
  777MPD2    C211462   1.275   4.338   0.657  0.8475 -0.7649 -0.5300
  777MPD2    C311463   1.239   4.286   0.539 -0.0305  0.5642  0.2351
  777MPD2    C411464   1.255   4.360   0.431  0.3648 -0.5139 -0.1180
  777MPD2    C511465   1.318   4.482   0.444  0.0012  0.1519 -1.0108
  777MPD2     H11466   1.259   4.275   0.744  1.5419 -0.3154 -0.0768
  777MPD2    H111467   1.224   4.328   0.333  3.6478  1.3609 -1.7715
  777MPD2    H211468   1.370   4.649   0.569 -0.0986  0.2992 -1.6021
  777MPD2    H311469   1.337   4.550   0.362  3.1746  0.7968  0.2612
  777MPD2     N11470   1.172   4.157   0.542 -0.1996 -0.4682  0.1559
  777MPD2    H511471   1.174   4.098   0.624 -1.7403 -1.0022 -0.1891
  777MPD2    N111472   1.379   4.514   0.787  0.1023  0.1376 -0.3837
  777MPD2    H711473   1.429   4.603   0.789  0.3816 -0.0019 -1.4627
  778MPD2     C11474   1.733   4.275  15.407  0.7593 -0.3388  0.1063
  778MPD2    C111475   1.689   4.210  15.292 -0.0942 -0.1267 -0.5585
  778MPD2    C211476   1.730   4.261  15.175  0.4123  0.2577  0.2075
  778MPD2    C311477   1.821   4.365  15.166 -0.3639  0.2114  0.4811
  778MPD2    C411478   1.878   4.423  15.282  0.3528 -0.0013 -0.7392
  778MPD2    C511479   1.832   4.376  15.402 -0.4100  0.1889  0.1510
  778MPD2     H11480   1.692   4.210  15.087 -2.5126 -0.8768  2.1205
  778MPD2    H111481   1.966   4.486  15.284 -1.1038  1.9159  2.3234
  778MPD2    H211482   1.717   4.239  15.508 -1.8490 -2.1798 -0.9599
  778MPD2    H311483   1.874   4.411  15.495 -1.7144 -0.2891  0.9181
  778MPD2     N11484   1.865   4.398  15.032  0.5098  1.0508 -0.8607
  778MPD2    H511485   1.854   4.328  14.959  0.3585  0.3796 -0.1936
  778MPD2    N111486   1.594   4.093  15.292  0.3942  0.1956 -0.0483
  778MPD2    H711487   1.567   4.054  15.203  0.4496 -0.2248  0.1204
  779MPD2     C11488   1.303   3.072  14.581 -0.3017 -0.1057  0.0529
  779MPD2    C111489   1.426   3.099  14.522  0.4189  0.2881 -0.6928
  779MPD2    C211490   1.483   3.225  14.533 -0.0901 -0.4701  0.8453
  779MPD2    C311491   1.418   3.328  14.606 -0.1795 -0.3427 -0.5762
  779MPD2    C411492   1.290   3.299  14.661  0.2447 -0.0757 -0.7086
  779MPD2    C511493   1.240   3.174  14.647  0.5672 -0.1822  0.4882
  779MPD2     H11494   1.577   3.245  14.482 -0.8890  1.4623  0.1363
  779MPD2    H111495   1.231   3.373  14.714  0.4837 -0.0168 -0.5269
  779MPD2    H211496   1.252   2.977  14.574  1.0053 -0.9049  1.4919
  779MPD2    H311497   1.142   3.154  14.688  0.4361  0.3863  0.4522
  779MPD2     N11498   1.477   3.455  14.606 -0.1041 -0.3894  0.2662
  779MPD2    H511499   1.565   3.476  14.561 -1.0060 -0.8834 -1.7166
  779MPD2    N111500   1.494   3.006  14.438 -0.7975 -0.2971  0.8423
  779MPD2    H711501   1.587   3.037  14.415 -1.6774  2.1072  0.5459
  780MPD2     C11502   2.046   3.030   0.560 -0.3699  0.0445 -0.5518
  780MPD2    C111503   1.957   3.108   0.636 -0.0160  0.0528  0.3652
  780MPD2    C211504   1.825   3.107   0.596  0.2213  0.8275 -0.7893
  780MPD2    C311505   1.783   3.041   0.482 -0.5996  0.7483  0.0667
  780MPD2    C411506   1.874   2.982   0.397 -0.7471  0.1297  0.1016
  780MPD2    C511507   2.004   2.978   0.441  0.5455  0.3033 -0.4521
  780MPD2     H11508   1.751   3.169   0.645 -1.6990 -1.2042 -1.0960
  780MPD2    H111509   1.841   2.944   0.301  0.4775 -3.1248  1.0003
  780MPD2    H211510   2.149   3.018   0.591 -1.3935 -1.4290  2.3872
  780MPD2    H311511   2.078   2.923   0.384  2.2025  3.1687 -1.1318
  780MPD2     N11512   1.650   3.070   0.432 -0.8706  0.1570 -0.4719
  780MPD2    H511513   1.595   3.137   0.486  0.4742  1.1799 -0.3507
  780MPD2    N111514   2.001   3.164   0.757 -0.0022  0.1193 -0.0063
  780MPD2    H711515   2.093   3.133   0.786 -0.7755 -1.5321  0.6751
  781MPD2     C11516   2.757   1.035  11.825  0.9592  0.7016  0.3417
  781MPD2    C111517   2.837   0.923  11.806  0.0079  0.3613  0.4566
  781MPD2    C211518   2.909   0.906  11.687 -0.0839 -0.1271 -0.1915
  781MPD2    C311519   2.906   1.002  11.588 -0.0755  0.4759  0.3928
  781MPD2    C411520   2.828   1.113  11.606 -0.0440  0.1890  0.6699
  781MPD2    C511521   2.758   1.128  11.722  0.0400 -0.8801  0.4909
  781MPD2     H11522   2.975   0.820  11.672  0.2468  0.2352 -0.8202
  781MPD2    H111523   2.829   1.194  11.534  0.1199 -2.0136 -1.7738
  781MPD2    H211524   2.690   1.050  11.909  1.4817  1.9710  0.5312
  781MPD2    H311525   2.706   1.223  11.734  3.2190  0.8451  0.8173
  781MPD2     N11526   2.982   0.990  11.471  0.2682  0.8049 -0.5508
  781MPD2    H511527   2.969   1.063  11.401 -0.6791  1.6353  0.4859
  781MPD2    N111528   2.867   0.828  11.906  0.3642  0.0338  0.1859
  781MPD2    H711529   2.926   0.748  11.883  1.0443 -0.0106  2.0582
  782MPD2     C11530   1.268   0.977   9.961  1.0504  0.3580 -0.1323
  782MPD2    C111531   1.296   0.914  10.080  0.0170  0.5404  0.4849
  782MPD2    C211532   1.280   0.988  10.192 -0.7924  0.0340  0.2749
  782MPD2    C311533   1.244   1.119  10.193 -0.8037  0.1707  0.2614
  782MPD2    C411534   1.213   1.179  10.073  0.0864 -0.5140  0.3225
  782MPD2    C511535   1.224   1.104   9.959  0.3138  0.4105  0.0980
  782MPD2     H11536   1.295   0.941  10.288 -0.2480 -0.0885  0.1307
  782MPD2    H111537   1.182   1.282  10.065  1.3654 -0.1045  0.6054
  782MPD2    H211538   1.278   0.926   9.866 -2.5238  1.3244 -1.0251
  782MPD2    H311539   1.186   1.142   9.864  1.9499  0.2519 -0.6180
  782MPD2     N11540   1.271   1.174  10.321  0.0098 -0.4384 -0.3398
  782MPD2    H511541   1.316   1.115  10.390  0.9837  1.0073  0.2678
  782MPD2    N111542   1.360   0.787  10.095  0.5146 -0.3107  0.0853
  782MPD2    H711543   1.388   0.756  10.187 -0.9577  2.5888  1.5315
  783MPD2     C11544   1.055   0.391  10.704 -0.5953  0.1539  0.6550
  783MPD2    C111545   1.087   0.517  10.658  0.2726 -0.6990 -0.5985
  783MPD2    C211546   1.174   0.542  10.556 -0.1249  0.4834 -0.1889
  783MPD2    C311547   1.242   0.438  10.495  0.4543 -0.4796 -0.2434
  783MPD2    C411548   1.216   0.308  10.547  0.2917 -0.4019 -0.4413
  783MPD2    C511549   1.131   0.290  10.653 -0.4547 -0.0536  0.2773
  783MPD2     H11550   1.199   0.644  10.528  0.8146  0.4194  0.4006
  783MPD2    H111551   1.262   0.225  10.494  0.4829 -0.3798 -0.3107
  783MPD2    H211552   0.991   0.369  10.789  0.1834 -1.2583  0.8797
  783MPD2    H311553   1.118   0.190  10.694 -0.9297 -0.0373  0.1687
  783MPD2     N11554   1.326   0.460  10.383  0.6272  0.4569  0.7243
  783MPD2    H511555   1.341   0.556  10.351  0.1781 -0.0470 -0.9787
  783MPD2    N111556   1.009   0.616  10.724  0.2208 -0.5126 -0.0632
  783MPD2    H711557   0.932   0.591  10.786  0.4308 -0.6478  0.1444
  784MPD2     C11558   3.883   0.709   1.131  0.2008 -0.3977 -0.4006
  784MPD2    C111559   3.931   0.835   1.169  0.3671  0.4587  0.0713
  784MPD2    C211560   3.873   0.949   1.108 -0.1604 -0.1610 -0.5005
  784MPD2    C311561   3.776   0.942   1.008 -0.2191  0.2622  0.2263
  784MPD2    C411562   3.730   0.815   0.971  0.7047  0.2026  0.0016
  784MPD2    C511563   3.788   0.701   1.034  0.5876  0.3156  0.3052
  784MPD2     H11564   3.906   1.048   1.139  1.6852 -0.8950 -0.1734
  784MPD2    H111565   3.667   0.797   0.885  1.2602  0.5955 -0.4823
  784MPD2    H211566   3.932   0.617   1.160  0.9242  0.6068  1.5132
  784MPD2    H311567   3.755   0.604   0.998  0.1828  0.0635  1.3719
  784MPD2     N11568   3.736   1.061   0.939 -0.0652  0.2930  0.3993
  784MPD2    H511569   3.791   1.143   0.961 -3.6525  2.6022  0.7596
  784MPD2    N111570   4.037   0.853   1.257 -0.3291  0.1050  0.4194
  784MPD2    H711571   4.062   0.950   1.272  2.2046 -0.4586 -0.1764
  785MPD2     C11572   4.191   4.202  10.730  0.6400 -0.9207  0.5080
  785MPD2    C111573   4.080   4.276  10.757  0.2572 -0.0907  0.3639
  785MPD2    C211574   3.958   4.215  10.741  0.0910 -0.9706 -0.1382
  785MPD2    C311575   3.945   4.080  10.710  0.0946 -0.2801  0.5529
  785MPD2    C411576   4.055   4.002  10.696  0.1672 -0.0020  0.2933
  785MPD2    C511577   4.177   4.064  10.702 -0.2576  0.6536 -0.4497
  785MPD2     H11578   3.873   4.276  10.768  0.9032 -0.9630  2.3375
  785MPD2    H111579   4.052   3.894  10.692 -0.9691 -0.0113  1.5022
  785MPD2    H211580   4.289   4.247  10.720 -0.2678  0.6636 -1.3660
  785MPD2    H311581   4.261   3.999  10.679 -1.5105 -0.4658 -1.8262
  785MPD2     N11582   3.812   4.039  10.714  0.0731  0.4119  0.5671
  785MPD2    H511583   3.742   4.111  10.726  1.3913  1.8993 -0.7659
  785MPD2    N111584   4.105   4.406  10.792 -0.3240  0.9634 -0.3406
  785MPD2    H711585   4.203   4.428  10.803 -0.3681  1.1315 -0.2845
  786MPD2     C11586   2.139   2.545  15.084  0.5995 -1.1220 -0.0239
  786MPD2    C111587   2.264   2.569  15.023 -0.9048  0.2383  0.5119
  786MPD2    C211588   2.355   2.644  15.089  0.3305  0.4688 -0.1512
  786MPD2    C311589   2.341   2.685  15.223  0.1600 -0.1100  0.5507
  786MPD2    C411590   2.218   2.660  15.275  0.3965 -0.4523 -0.2290
  786MPD2    C511591   2.112   2.595  15.207  0.4899 -0.7398 -0.0571
  786MPD2     H11592   2.457   2.655  15.053  0.0784  1.9525 -0.4467
  786MPD2    H111593   2.189   2.690  15.375  0.6876  0.4487 -0.4139
  786MPD2    H211594   2.059   2.497  15.028 -0.7393 -0.3396  1.2074
  786MPD2    H311595   2.016   2.578  15.256  0.8898 -0.8535  0.6796
  786MPD2     N11596   2.448   2.730  15.309 -0.5038 -0.7739 -0.2879
  786MPD2    H511597   2.426   2.779  15.395  0.6210 -3.3029  1.4763
  786MPD2    N111598   2.305   2.520  14.899  0.1383  0.3940 -1.0027
  786MPD2    H711599   2.398   2.547  14.871  0.3712  0.5552 -0.0594
  787MPD2     C11600   2.476   1.889  14.861 -0.6642 -0.0159 -0.5031
  787MPD2    C111601   2.523   1.928  14.742  0.3555 -0.3173 -0.2973
  787MPD2    C211602   2.633   1.874  14.680 -0.2744  0.3275 -0.1868
  787MPD2    C311603   2.703   1.762  14.731 -0.1813 -0.3852  0.0271
  787MPD2    C411604   2.654   1.722  14.854  0.0346  0.1077  0.0204
  787MPD2    C511605   2.544   1.786  14.914  0.0450  0.1911 -0.9482
  787MPD2     H11606   2.672   1.913  14.587  0.6111  0.5330  0.2760
  787MPD2    H111607   2.695   1.644  14.917  0.6715 -0.9676 -1.7314
  787MPD2    H211608   2.401   1.944  14.917  0.7059  1.6044 -0.2649
  787MPD2    H311609   2.510   1.756  15.013  1.7718 -1.0031 -0.7221
  787MPD2     N11610   2.813   1.706  14.666  0.1447 -0.3515  0.3899
  787MPD2    H511611   2.854   1.753  14.586 -1.0812  0.7232  0.3835
  787MPD2    N111612   2.459   2.041  14.686  0.3738  0.8305 -0.4524
  787MPD2    H711613   2.383   2.086  14.736 -1.8114 -1.4161 -1.7080
  788MPD2     C11614   0.011   0.763   0.903  0.5995 -0.7964  0.0353
  788MPD2    C111615   4.697   0.629   0.919  0.0197  0.1659 -0.5989
  788MPD2    C211616   0.064   0.531   0.885 -0.3244  0.1584 -0.0627
  788MPD2    C311617   0.186   0.566   0.835 -0.4909 -0.5707  0.4333
  788MPD2    C411618   0.221   0.700   0.818  0.3618 -0.3531 -0.2843
  788MPD2    C511619   0.131   0.794   0.857  0.2419  0.7447  0.1391
  788MPD2     H11620   0.045   0.428   0.911  1.3207  0.2927  1.7748
  788MPD2    H111621   0.316   0.731   0.776  0.0775  0.0134 -0.6549
  788MPD2    H211622   4.674   0.851   0.932  0.9232 -0.9159  1.0420
  788MPD2    H311623   0.167   0.896   0.850  0.6342  0.6270  0.4307
  788MPD2     N11624   0.291   0.466   0.819  0.1843 -0.5604  0.3273
  788MPD2    H511625   0.378   0.505   0.782 -0.9328 -1.6188 -3.3983
  788MPD2    N111626   4.571   0.588   0.972 -0.0391 -1.4706  0.2147
  788MPD2    H711627   4.546   0.489   0.971 -3.2020 -0.6583  2.4416
  789MPD2     C11628   0.180   0.213  16.020 -0.0158  0.5247 -0.3179
  789MPD2    C111629   0.125   0.145  16.123  0.1877  0.2191 -0.2193
  789MPD2    C211630   0.004   0.193  16.172 -0.0940 -0.1883 -0.3520
  789MPD2    C311631   4.668   0.312  16.127  0.0916 -0.2537 -0.2561
  789MPD2    C411632   4.718   0.360  16.004  0.0287  0.6259  0.6192
  789MPD2    C511633   0.116   0.316  15.951 -0.0604 -0.1057 -0.5016
  789MPD2     H11634   4.675   0.141  16.253  0.8584 -0.4566  0.0550
  789MPD2    H111635   4.673   0.446  15.955 -0.1530 -0.4950 -1.1716
  789MPD2    H211636   0.268   0.169  15.974  1.0234  1.3996  0.8512
  789MPD2    H311637   0.152   0.363  15.861  0.8252  0.8766  0.3686
  789MPD2     N11638   4.551   0.372  16.188 -0.5745 -0.3516  0.1523
  789MPD2    H511639   4.518   0.459  16.147  0.7542 -0.2376 -0.6909
  789MPD2    N111640   0.180   0.024  16.182 -0.2178 -0.3534  0.0917
  789MPD2    H711641   0.125   4.706  16.258 -2.0547 -0.4986 -1.3119
  790MPD2     C11642   1.047   2.503  13.200  0.3150 -0.4471 -0.3559
  790MPD2    C111643   0.962   2.411  13.159 -0.1381  0.1115 -0.4119
  790MPD2    C211644   0.923   2.402  13.028 -0.1492 -0.2273  0.3609
  790MPD2    C311645   0.976   2.492  12.940  0.2740 -0.0629 -0.0798
  790MPD2    C411646   1.065   2.581  12.982  0.3891 -0.3103  0.6009
  790MPD2    C511647   1.091   2.595  13.111  0.1825 -0.2830  0.5828
  790MPD2     H11648   0.856   2.324  12.994 -0.3101 -0.3195  0.8937
  790MPD2    H111649   1.107   2.655  12.915 -0.0349 -0.5564  0.0601
  790MPD2    H211650   1.076   2.518  13.303  0.2736  0.8246 -0.5325
  790MPD2    H311651   1.172   2.663  13.137 -0.3348  0.3993  0.4291
  790MPD2     N11652   0.933   2.478  12.806 -0.2689  0.0015 -0.5983
  790MPD2    H511653   0.860   2.414  12.777 -2.5937  2.1663  0.4979
  790MPD2    N111654   0.925   2.314  13.258  0.2008 -0.2865  0.2271
  790MPD2    H711655   0.983   2.296  13.339  1.8044  2.5478 -0.3044
  791MPD2     C11656   0.306   2.681  12.265 -0.7858  0.4558  0.8839
  791MPD2    C111657   0.371   2.580  12.335  0.0903 -0.7156 -0.3584
  791MPD2    C211658   0.299   2.472  12.381  0.2928  0.1871 -0.2692
  791MPD2    C311659   0.166   2.462  12.353 -0.1039  0.4444 -0.2045
  791MPD2    C411660   0.102   2.562  12.280 -0.0483  1.1346 -0.4306
  791MPD2    C511661   0.176   2.664  12.232  0.4275  0.0492 -0.6284
  791MPD2     H11662   0.358   2.393  12.428 -0.9309 -1.6242 -1.7732
  791MPD2    H111663   0.007   2.549  12.229 -0.5486 -1.2108  1.0957
  791MPD2    H211664   0.363   2.762  12.221 -0.0454 -1.4060 -1.5883
  791MPD2    H311665   0.124   2.726  12.160 -0.9636  0.4591  0.7279
  791MPD2     N11666   0.100   2.352  12.407 -0.3025  0.4124 -0.0400
  791MPD2    H511667   0.155   2.287  12.462  0.1634  1.3583  0.5973
  791MPD2    N111668   0.519   2.593  12.360 -0.5834  0.0189  0.1130
  791MPD2    H711669   0.571   2.664  12.309 -0.4093 -1.0655 -1.2349
  792MPD2     C11670   1.245   2.102  11.587 -0.1771  0.7097 -0.3099
  792MPD2    C111671   1.178   2.155  11.479 -0.2134 -0.2318  0.6458
  792MPD2    C211672   1.048   2.111  11.459 -0.9690 -0.4340  0.0535
  792MPD2    C311673   0.988   2.016  11.545 -0.0015  0.6588  0.3714
  792MPD2    C411674   1.067   1.970  11.651  0.0146 -0.3135  0.1422
  792MPD2    C511675   1.192   2.019  11.679  0.0693  0.3001 -0.2365
  792MPD2     H11676   0.992   2.148  11.374 -1.3225 -1.5049 -0.1771
  792MPD2    H111677   1.023   1.902  11.722 -1.4189  2.4190  1.8673
  792MPD2    H211678   1.344   2.127  11.623 -0.9153  0.3524  1.9972
  792MPD2    H311679   1.253   1.980  11.759 -0.1782 -1.3727 -0.8638
  792MPD2     N11680   0.859   1.954  11.523 -0.2526  0.4680  0.3014
  792MPD2    H511681   0.833   1.873  11.578  1.4246 -1.6117 -2.0205
  792MPD2    N111682   1.256   2.222  11.384  0.4807 -0.5571  0.9541
  792MPD2    H711683   1.355   2.234  11.402  0.2040  3.8931 -0.3289
  793MPD2     C11684   0.343   1.846  10.697  0.1943 -0.0852  0.6763
  793MPD2    C111685   0.458   1.784  10.735 -0.4320  0.3446 -0.1447
  793MPD2    C211686   0.492   1.789  10.866 -0.7617 -0.9775 -0.0913
  793MPD2    C311687   0.414   1.851  10.967  0.3708  0.7564 -0.6171
  793MPD2    C411688   0.301   1.923  10.923  0.0043  0.3078  0.6997
  793MPD2    C511689   0.270   1.924  10.784  0.5384 -0.1803  0.0472
  793MPD2     H11690   0.581   1.735  10.896 -1.1098 -2.3863 -1.6179
  793MPD2    H111691   0.226   1.960  10.991 -0.5901 -0.3515  0.4114
  793MPD2    H211692   0.301   1.830  10.598  1.2874  0.8019  0.0706
  793MPD2    H311693   0.176   1.969  10.752  0.1707  0.3833  1.9238
  793MPD2     N11694   0.455   1.843  11.098 -0.3014  0.3175 -0.1004
  793MPD2    H511695   0.530   1.782  11.127 -0.0566  0.0771 -1.2839
  793MPD2    N111696   0.538   1.701  10.653 -0.3631  0.1583  0.3438
  793MPD2    H711697   0.621   1.663  10.696 -1.4706 -0.5946  1.8116
  794MPD2     C11698   0.893   1.496  17.240  0.1836  0.5371  0.9244
  794MPD2    C111699   0.849   1.386  17.167  0.2480  0.0041 -0.4546
  794MPD2    C211700   0.782   1.408  17.047  0.4777 -0.1102 -0.3767
  794MPD2    C311701   0.743   1.532  17.004  0.7017  0.6785 -0.3123
  794MPD2    C411702   0.782   1.633  17.082  0.5584 -0.1757  0.2103
  794MPD2    C511703   0.856   1.620  17.197  0.1015  0.4850  0.5459
  794MPD2     H11704   0.738   1.318  17.005 -0.3499  0.4475 -0.7050
  794MPD2    H111705   0.744   1.733  17.067 -0.4505 -0.3276  1.7275
  794MPD2    H211706   0.946   1.501  17.334  2.3430 -3.1962 -0.1179
  794MPD2    H311707   0.876   1.707  17.257 -0.8717  0.0099  1.5577
  794MPD2     N11708   0.637   1.552  16.912  0.4890 -0.5178  0.7672
  794MPD2    H511709   0.590   1.641  16.922  0.7135 -0.6361  2.9364
  794MPD2    N111710   0.873   1.252  17.206 -0.7566  0.1147 -0.2737
  794MPD2    H711711   0.821   1.183  17.153  0.4506  0.0580 -1.3910
  795MPD2     C11712   3.604   3.767  13.650  0.5487  0.0858 -0.2987
  795MPD2    C111713   3.533   3.671  13.580 -0.2426  0.0510  0.1719
  795MPD2    C211714   3.583   3.542  13.584 -0.2125 -0.1237 -0.5618
  795MPD2    C311715   3.699   3.507  13.644  0.0168 -0.4205 -0.1864
  795MPD2    C411716   3.772   3.604  13.706 -0.4437 -0.0011  0.4864
  795MPD2    C511717   3.727   3.738  13.704 -0.3317 -0.6924  0.1586
  795MPD2     H11718   3.532   3.465  13.527  1.1717 -1.2385 -0.2992
  795MPD2    H111719   3.858   3.582  13.769 -1.2739 -0.9691  1.2576
  795MPD2    H211720   3.581   3.873  13.638 -0.9699 -0.1045  0.9879
  795MPD2    H311721   3.791   3.811  13.752  0.3552 -1.4281  0.3538
  795MPD2     N11722   3.751   3.370  13.652  0.2610  0.0205 -0.0194
  795MPD2    H511723   3.833   3.360  13.711  1.8671 -3.0896 -2.8103
  795MPD2    N111724   3.405   3.692  13.512  0.6591  0.2855 -0.2632
  795MPD2    H711725   3.365   3.605  13.477 -0.1698 -0.4702  2.5271
  796MPD2     C11726   2.631   0.248  15.543 -0.2456  0.4324  0.2406
  796MPD2    C111727   2.706   0.311  15.634  0.0695 -0.0320 -0.1432
  796MPD2    C211728   2.688   0.446  15.643 -0.7549 -0.0270 -0.3804
  796MPD2    C311729   2.605   0.521  15.559  0.1764 -0.8468 -0.0466
  796MPD2    C411730   2.531   0.456  15.462  0.3878  0.6096 -0.2164
  796MPD2    C511731   2.548   0.318  15.458 -0.2122  0.2832 -0.7949
  796MPD2     H11732   2.730   0.496  15.729 -0.9399  0.6247 -0.6710
  796MPD2    H111733   2.455   0.504  15.400  0.5737  2.2986  0.8652
  796MPD2    H211734   2.632   0.140  15.529 -0.2157  0.0095  3.4822
  796MPD2    H311735   2.484   0.259  15.393 -0.4186  1.3576 -1.5627
  796MPD2     N11736   2.593   0.664  15.582 -1.1318  0.1167  0.7356
  796MPD2    H511737   2.642   0.702  15.662  4.2300 -2.2565 -1.4634
  796MPD2    N111738   2.791   0.230  15.718 -0.4042  0.0677  0.4222
  796MPD2    H711739   2.802   0.130  15.700 -1.1272  0.1627 -0.5951
  797MPD2     C11740   3.478   4.249  17.220  0.4761 -0.1718  0.1707
  797MPD2    C111741   3.591   4.327  17.236 -0.2827 -0.8544 -0.1152
  797MPD2    C211742   3.587   4.462  17.203  0.2714 -0.6662  0.0387
  797MPD2    C311743   3.480   4.516  17.138 -0.2564 -0.8675 -0.4429
  797MPD2    C411744   3.366   4.441  17.122 -0.2620  0.7223  0.4429
  797MPD2    C511745   3.367   4.310  17.167 -1.2806  0.7306  0.8854
  797MPD2     H11746   3.678   4.521  17.210  1.1726 -2.0739  0.0959
  797MPD2    H111747   3.271   4.478  17.085  0.9276  0.8894 -2.4094
  797MPD2    H211748   3.468   4.148  17.259  0.0262  0.2690  1.1952
  797MPD2    H311749   3.271   4.260  17.158 -0.5730 -0.7238  1.3960
  797MPD2     N11750   3.500   4.649  17.106 -0.0110  0.0108 -0.0525
  797MPD2    H511751   3.576   4.695  17.155  0.5704  0.0272 -0.9728
  797MPD2    N111752   3.711   4.279  17.283 -0.3540 -0.4018  0.4219
  797MPD2    H711753   3.789   4.342  17.269  0.0692 -1.2950 -1.2518
  798MPD2     C11754   4.147   0.036  16.864  0.1524 -0.7621  0.5241
  798MPD2    C111755   4.047   0.031  16.958  0.4282  0.0488  0.3990
  798MPD2    C211756   4.056   4.655  17.050 -0.5208 -0.3057 -0.7869
  798MPD2    C311757   4.132   4.545  17.032 -0.1050 -0.1384 -0.5486
  798MPD2    C411758   4.228   4.544  16.940 -0.4230 -0.5878  0.1346
  798MPD2    C511759   4.234   4.657  16.858 -0.3199  0.7472  0.3636
  798MPD2     H11760   3.994   4.658  17.139 -2.7847 -0.2918 -2.3843
  798MPD2    H111761   4.296   4.461  16.929  2.2264  1.7033 -0.6658
  798MPD2    H211762   4.159   0.117  16.793 -2.6237  0.0994  1.0391
  798MPD2    H311763   4.314   4.675  16.787 -0.3183 -1.2191 -0.1117
  798MPD2     N11764   4.102   4.440  17.117  0.3291 -0.1256 -1.2097
  798MPD2    H511765   4.014   4.445  17.168  1.5029  1.1519  0.6709
  798MPD2    N111766   3.932   0.117  16.944  0.4140  0.4187 -0.1564
  798MPD2    H711767   3.941   0.197  16.881  1.3269  0.9154  0.5919
  799MPD2     C11768   2.314   1.649  14.544  0.6471  0.1190  0.1397
  799MPD2    C111769   2.210   1.569  14.496  0.5995  0.1083 -0.2037
  799MPD2    C211770   2.110   1.643  14.434 -0.2285  0.0867  0.8098
  799MPD2    C311771   2.128   1.769  14.389 -0.2738  0.2500 -0.1105
  799MPD2    C411772   2.243   1.841  14.424  0.5504  0.3225 -0.1913
  799MPD2    C511773   2.336   1.777  14.502  0.1109  0.1269 -0.5836
  799MPD2     H11774   2.014   1.597  14.414 -0.9797  1.8867  0.2144
  799MPD2    H111775   2.274   1.938  14.388 -0.1474 -0.5162 -2.9935
  799MPD2    H211776   2.389   1.600  14.606 -1.4000 -1.8006  1.0788
  799MPD2    H311777   2.428   1.832  14.516  0.5456 -0.6952 -0.2624
  799MPD2     N11778   2.033   1.830  14.296 -0.7049 -0.0558 -0.0833
  799MPD2    H511779   2.052   1.919  14.252 -1.1235  0.4539  0.7812
  799MPD2    N111780   2.189   1.432  14.521 -0.2809  0.0161 -0.5836
  799MPD2    H711781   2.098   1.404  14.486 -0.3737 -1.7500  1.0498
  800MPD2     C11782   2.788   2.770  13.821  0.1333 -0.4003 -0.2868
  800MPD2    C111783   2.905   2.810  13.760 -0.0983  0.4465 -0.5652
  800MPD2    C211784   2.949   2.733  13.658 -0.0600 -0.6699 -0.3327
  800MPD2    C311785   2.885   2.616  13.616  0.2857 -0.7685 -0.3052
  800MPD2    C411786   2.760   2.586  13.677 -0.3964  0.1924 -1.1061
  800MPD2    C511787   2.711   2.660  13.782  0.1677 -0.1850 -0.3664
  800MPD2     H11788   3.041   2.762  13.608  0.7003 -1.2775  0.7252
  800MPD2    H111789   2.707   2.497  13.644 -0.8627 -0.2786  0.9530
  800MPD2    H211790   2.757   2.828  13.908  0.6192 -2.7850  1.4813
  800MPD2    H311791   2.615   2.633  13.825 -0.8299  1.9009 -1.3000
  800MPD2     N11792   2.954   2.545  13.515 -0.0402  0.5357  0.0818
  800MPD2    H511793   3.037   2.593  13.482  1.4792 -0.9796  1.7329
  800MPD2    N111794   2.960   2.926  13.815 -0.4538  0.1966  0.0644
  800MPD2    H711795   2.928   2.959  13.905  0.2191  1.9431 -0.3329
  801MPD2     C11796   3.201   3.471  14.425  1.1479  0.1601  0.1878
  801MPD2    C111797   3.099   3.439  14.339 -0.1123  0.6510  0.2973
  801MPD2    C211798   2.966   3.464  14.376  0.4810 -0.7349 -0.4694
  801MPD2    C311799   2.938   3.502  14.503 -0.3331  0.6253  0.4036
  801MPD2    C411800   3.039   3.537  14.589  0.0972  0.2513  0.2518
  801MPD2    C511801   3.172   3.523  14.553 -0.5308  0.6156 -0.2191
  801MPD2     H11802   2.885   3.427  14.314  0.7259 -1.1809 -0.5266
  801MPD2    H111803   3.012   3.571  14.688 -0.1768 -0.4032  0.3975
  801MPD2    H211804   3.301   3.477  14.384 -0.1139  1.2865 -2.7418
  801MPD2    H311805   3.246   3.553  14.626 -1.4944 -0.6895  1.2818
  801MPD2     N11806   2.809   3.509  14.559 -0.4546  0.0984  0.4291
  801MPD2    H511807   2.812   3.522  14.660 -1.1921  0.6959  0.3712
  801MPD2    N111808   3.140   3.371  14.216 -0.1000  0.1652 -0.5002
  801MPD2    H711809   3.240   3.355  14.211 -0.1326  0.1346 -1.0682
  802MPD2     C11810   2.592   3.524   0.299 -0.4737 -0.0076  0.3532
  802MPD2    C111811   2.517   3.585   0.202  0.1145 -0.0346  0.6043
  802MPD2    C211812   2.538   3.554   0.072  0.1403  0.3317  0.2518
  802MPD2    C311813   2.644   3.468   0.036 -0.6534  0.0128 -0.3245
  802MPD2    C411814   2.707   3.388   0.135  0.1061 -0.4257  0.0908
  802MPD2    C511815   2.678   3.421   0.269  0.4419 -0.4087  0.2640
  802MPD2     H11816   2.488   3.611  17.680 -2.3711 -2.9336 -0.4957
  802MPD2    H111817   2.774   3.306   0.115 -0.4282 -1.2068  1.4349
  802MPD2    H211818   2.579   3.549   0.404  2.8596  2.7861  0.0841
  802MPD2    H311819   2.734   3.384   0.354  1.6100  1.2120  0.1816
  802MPD2     N11820   2.659   3.447  17.585  0.3237 -0.9543 -0.3884
  802MPD2    H511821   2.611   3.509  17.520  0.7100  0.0026  0.2451
  802MPD2    N111822   2.408   3.666   0.227 -0.1342  0.0757  0.3500
  802MPD2    H711823   2.341   3.693   0.156  0.5460  0.3255 -0.1866
  803MPD2     C11824   3.841   2.314  11.516 -0.0988 -0.0229 -0.3200
  803MPD2    C111825   3.929   2.315  11.624  0.4051 -0.0865 -0.3512
  803MPD2    C211826   3.887   2.266  11.747  0.1696  0.1626 -0.4384
  803MPD2    C311827   3.763   2.224  11.764  0.1474 -0.2422 -0.3649
  803MPD2    C411828   3.669   2.233  11.664  0.2938 -0.3737  0.1065
  803MPD2    C511829   3.714   2.265  11.541 -0.7227  0.9090 -0.8527
  803MPD2     H11830   3.958   2.261  11.829 -0.4932 -0.2758  0.1061
  803MPD2    H111831   3.567   2.199  11.671  0.2610 -0.3658 -0.3118
  803MPD2    H211832   3.867   2.345  11.416  1.1629  3.3735  1.0695
  803MPD2    H311833   3.650   2.283  11.455 -0.0604 -0.7397 -1.7136
  803MPD2     N11834   3.718   2.163  11.881  0.4634  0.1472 -0.3598
  803MPD2    H511835   3.616   2.161  11.880  0.4408  1.0701  0.2723
  803MPD2    N111836   4.062   2.361  11.609 -0.2023 -0.0433 -0.4540
  803MPD2    H711837   4.115   2.351  11.695 -0.4744  2.5699  0.0004
  804MPD2     C11838   2.972   3.014  16.912 -0.4429 -0.2995  0.0968
  804MPD2    C111839   2.996   2.992  17.046  0.0081  0.0135  0.2845
  804MPD2    C211840   3.038   3.099  17.121 -0.8752 -0.1309 -0.4350
  804MPD2    C311841   3.044   3.224  17.065  0.1356  0.1546 -0.0516
  804MPD2    C411842   3.011   3.248  16.929 -1.1308  0.3825  0.3508
  804MPD2    C511843   2.976   3.141  16.853  0.6198 -0.7178 -1.0269
  804MPD2     H11844   3.071   3.087  17.224 -2.6893  2.0980  0.3780
  804MPD2    H111845   3.003   3.348  16.887  1.5315 -0.0039 -1.0700
  804MPD2    H211846   2.943   2.941  16.837  1.7432  0.6552 -1.6473
  804MPD2    H311847   2.957   3.148  16.747 -0.5560 -2.1407 -0.9071
  804MPD2     N11848   3.092   3.322  17.146 -0.3129 -0.5732  0.0204
  804MPD2    H511849   3.123   3.299  17.239  0.5018 -1.4931 -0.4800
  804MPD2    N111850   3.001   2.863  17.100  0.2144  0.1862 -0.3119
  804MPD2    H711851   3.043   2.850  17.191 -0.9626 -2.1024 -0.1029
  805MPD2     C11852   2.210   1.539  15.258 -0.0474  0.3074  0.4735
  805MPD2    C111853   2.250   1.668  15.279  0.8459  0.4245  0.0933
  805MPD2    C211854   2.369   1.695  15.326 -0.3890  0.3866 -0.1948
  805MPD2    C311855   2.461   1.597  15.364  0.0837  0.5533  0.9976
  805MPD2    C411856   2.427   1.470  15.338  0.0682  0.3718 -0.2141
  805MPD2    C511857   2.304   1.446  15.283  0.5608 -0.3034 -0.3364
  805MPD2     H11858   2.395   1.794  15.360 -1.0030 -0.1230  1.7793
  805MPD2    H111859   2.500   1.391  15.354  0.5355  0.3528 -2.4571
  805MPD2    H211860   2.119   1.508  15.208  1.0076 -0.4703 -0.9654
  805MPD2    H311861   2.272   1.344  15.263  1.7160 -0.8036  0.3502
  805MPD2     N11862   2.576   1.644  15.429  0.4819  0.3872 -0.6066
  805MPD2    H511863   2.594   1.743  15.445  1.6457 -0.1616  1.4339
  805MPD2    N111864   2.164   1.772  15.237 -0.8820  0.2736 -0.3757
  805MPD2    H711865   2.203   1.866  15.238 -0.1509 -0.0184 -0.8682
  806MPD2     C11866   3.415   3.850   0.020  0.5609 -0.2181 -0.5663
  806MPD2    C111867   3.417   3.872   0.158 -0.2109 -0.4784  0.3562
  806MPD2    C211868   3.299   3.903   0.223  0.9372  0.3220  0.0874
  806MPD2    C311869   3.185   3.928   0.144  0.3282 -0.1371  0.3025
  806MPD2    C411870   3.184   3.897   0.009  0.0316 -0.1092 -0.2945
  806MPD2    C511871   3.297   3.860  17.632  0.0883  0.6968  0.2072
  806MPD2     H11872   3.304   3.926   0.328  0.6936 -0.2660  0.2248
  806MPD2    H111873   3.099   3.915  17.629 -0.5102 -1.2218  0.1016
  806MPD2    H211874   3.508   3.830  17.653  0.6289 -1.6684  0.0847
  806MPD2    H311875   3.286   3.845  17.525  2.1558 -0.4345  0.1644
  806MPD2     N11876   3.074   3.990   0.209  0.4997 -0.2107  0.4840
  806MPD2    H511877   3.078   4.005   0.310  0.0440 -0.3569  0.5192
  806MPD2    N111878   3.539   3.877   0.236 -0.1687  0.5355 -0.2261
  806MPD2    H711879   3.623   3.896   0.182 -0.7335  4.5886  0.3398
  807MPD2     C11880   3.792   3.781   1.040 -0.0044  0.5459 -0.3850
  807MPD2    C111881   3.695   3.853   0.966  0.0136  0.4711 -0.3688
  807MPD2    C211882   3.578   3.896   1.022 -0.1957 -0.0121 -0.1716
  807MPD2    C311883   3.558   3.853   1.154  0.0844  0.1763  0.1509
  807MPD2    C411884   3.650   3.786   1.236  0.0957 -0.5223  0.0957
  807MPD2    C511885   3.766   3.756   1.171  0.1353 -0.7020  0.8765
  807MPD2     H11886   3.495   3.948   0.976  1.0649  0.2998 -2.0742
  807MPD2    H111887   3.635   3.758   1.340 -1.6350  0.9224  0.2339
  807MPD2    H211888   3.889   3.743   1.010 -0.7240 -0.8472 -0.9563
  807MPD2    H311889   3.844   3.708   1.228  0.4164  0.9816  1.8799
  807MPD2     N11890   3.437   3.888   1.208 -0.0108 -0.2781 -0.4388
  807MPD2    H511891   3.368   3.938   1.153 -0.7778 -0.5474  0.2933
  807MPD2    N111892   3.711   3.881   0.827 -0.0073 -0.4730  0.1839
  807MPD2    H711893   3.633   3.912   0.769  0.8968  2.3333  0.4884
  808MPD2     C11894   2.690   3.131   9.515  0.1501  0.2018 -0.0825
  808MPD2    C111895   2.785   3.050   9.453  0.4566  0.4285  0.1502
  808MPD2    C211896   2.917   3.083   9.461 -0.3858 -0.0699  0.3707
  808MPD2    C311897   2.953   3.204   9.522  0.0512 -0.0311 -0.5335
  808MPD2    C411898   2.853   3.283   9.583 -1.0183 -0.0280 -0.6000
  808MPD2    C511899   2.724   3.239   9.582 -0.6080 -0.1753 -0.0719
  808MPD2     H11900   2.982   3.009   9.415  0.3254  1.7871 -1.6229
  808MPD2    H111901   2.875   3.382   9.623  0.2689 -0.6609  0.2868
  808MPD2    H211902   2.589   3.092   9.523 -0.6743  2.0397 -1.4130
  808MPD2    H311903   2.650   3.306   9.623  0.2436  1.6426 -1.5011
  808MPD2     N11904   3.089   3.250   9.527 -0.1311  0.0857  0.7234
  808MPD2    H511905   3.104   3.329   9.589  1.4434 -0.1339  0.6157
  808MPD2    N111906   2.759   2.922   9.396 -0.4344  0.4095  0.1760
  808MPD2    H711907   2.835   2.865   9.362  0.9019  0.5939  2.8025
  809MPD2     C11908   3.959   2.992   9.015 -0.1620  0.9849  0.2522
  809MPD2    C111909   3.943   2.946   9.143 -0.4184 -0.0571 -0.7668
  809MPD2    C211910   3.847   3.001   9.219 -0.0090 -0.4411 -0.6364
  809MPD2    C311911   3.769   3.103   9.180 -0.3130  0.0583  0.4454
  809MPD2    C411912   3.783   3.149   9.052  0.1827 -0.1218  0.1052
  809MPD2    C511913   3.881   3.092   8.972 -0.1877  0.0406  0.4919
  809MPD2     H11914   3.822   2.958   9.315 -3.5385 -0.4413 -1.5419
  809MPD2    H111915   3.721   3.226   9.008 -1.1390 -0.4665  1.3667
  809MPD2    H211916   4.031   2.954   8.943 -1.1501  2.5323 -1.5635
  809MPD2    H311917   3.878   3.128   8.869  0.4199  0.2190  0.5321
  809MPD2     N11918   3.671   3.160   9.266 -0.4105 -0.2116  0.5228
  809MPD2    H511919   3.602   3.221   9.222  0.3418 -1.4358 -2.3772
  809MPD2    N111920   4.007   2.834   9.195  0.3929  0.0215  0.4061
  809MPD2    H711921   3.986   2.805   9.290 -0.7868 -3.1497 -0.8105
  810MPD2     C11922   2.917   1.928  10.373  0.3535  0.1058 -0.0447
  810MPD2    C111923   2.849   1.934  10.258  0.1130  1.1603 -0.1512
  810MPD2    C211924   2.805   2.059  10.209  0.1081 -0.3560  0.5786
  810MPD2    C311925   2.824   2.175  10.285 -0.0457 -0.5454  0.2651
  810MPD2    C411926   2.881   2.164  10.409 -0.6640 -0.0770  0.0102
  810MPD2    C511927   2.933   2.044  10.449  0.6008  0.8313 -0.2822
  810MPD2     H11928   2.756   2.068  10.113  1.2018 -0.1042  0.0415
  810MPD2    H111929   2.891   2.249  10.475 -1.4787  0.2956 -0.3405
  810MPD2    H211930   2.947   1.833  10.415 -1.4776 -0.2562  0.4544
  810MPD2    H311931   2.973   2.022  10.547  0.9361 -0.3436 -0.6737
  810MPD2     N11932   2.781   2.299  10.232 -0.4503 -0.0641 -0.3807
  810MPD2    H511933   2.727   2.288  10.146  1.3622  0.3595 -1.5654
  810MPD2    N111934   2.830   1.813  10.189  0.2524  0.1018 -0.6831
  810MPD2    H711935   2.862   1.731  10.238 -2.1647 -1.6733 -2.0569
  811MPD2     C11936   2.267   1.419   9.614 -0.2397  0.7669  0.2253
  811MPD2    C111937   2.382   1.491   9.626  0.1263  0.1534  0.2868
  811MPD2    C211938   2.397   1.607   9.549  0.4441 -0.5494  0.1627
  811MPD2    C311939   2.303   1.654   9.460 -0.1245 -0.3870 -0.3511
  811MPD2    C411940   2.187   1.579   9.459  0.0972 -0.6464 -0.1539
  811MPD2    C511941   2.172   1.457   9.524  0.2512  0.3825 -1.0609
  811MPD2     H11942   2.487   1.667   9.555  1.0165 -1.3452 -0.4608
  811MPD2    H111943   2.102   1.617   9.403  0.5712 -0.4044 -0.7132
  811MPD2    H211944   2.245   1.329   9.671 -0.9777  1.8340  1.6065
  811MPD2    H311945   2.078   1.405   9.513  1.1948 -1.6099  0.3785
  811MPD2     N11946   2.329   1.784   9.404 -0.1660  0.9925  0.0010
  811MPD2    H511947   2.422   1.823   9.408  1.5357 -3.1006  0.8546
  811MPD2    N111948   2.477   1.455   9.716 -0.3765  0.2699  0.5118
  811MPD2    H711949   2.453   1.384   9.785  3.4502  0.0481  1.6406
  812MPD2     C11950   2.011   2.473  12.468  0.0795 -0.1028 -0.4277
  812MPD2    C111951   1.894   2.418  12.423 -0.8808 -0.0622  0.1218
  812MPD2    C211952   1.817   2.345  12.519  0.3050  0.6993 -0.4716
  812MPD2    C311953   1.866   2.318  12.649  0.2603 -0.0080 -0.1315
  812MPD2    C411954   1.973   2.389  12.690  0.6668 -0.1165 -0.6039
  812MPD2    C511955   2.049   2.459  12.597  0.0197  0.1732  0.2155
  812MPD2     H11956   1.726   2.291  12.495  1.2993 -1.0191 -0.3584
  812MPD2    H111957   2.017   2.382  12.788  2.0121  1.7832 -1.0773
  812MPD2    H211958   2.081   2.523  12.402  1.0701 -1.0592 -0.0993
  812MPD2    H311959   2.144   2.493  12.638  1.1342 -1.5560 -0.9338
  812MPD2     N11960   1.805   2.235  12.740  0.4661  0.3143 -0.1850
  812MPD2    H511961   1.853   2.236  12.830  1.6835 -0.4542 -0.8345
  812MPD2    N111962   1.868   2.438  12.285  0.4018  0.3141  0.4155
  812MPD2    H711963   1.948   2.478  12.236 -0.3092  1.0429 -0.1527
  813MPD2     C11964   1.286   3.949  13.049  0.5325  0.2588  0.2242
  813MPD2    C111965   1.279   4.082  13.021  0.3008 -0.0086 -0.2433
  813MPD2    C211966   1.167   4.147  13.067  0.1710  0.5339 -0.2624
  813MPD2    C311967   1.058   4.072  13.117  0.0033 -0.0381 -0.3274
  813MPD2    C411968   1.067   3.937  13.138  0.8791  0.1821  0.3442
  813MPD2    C511969   1.185   3.875  13.102  0.1222 -0.5554  0.6814
  813MPD2     H11970   1.154   4.255  13.063 -1.6986  0.2483 -2.3306
  813MPD2    H111971   0.984   3.871  13.162  0.8837  1.0740  2.8147
  813MPD2    H211972   1.379   3.892  13.050 -0.2206 -0.9857 -1.6089
  813MPD2    H311973   1.187   3.767  13.110  0.3730 -0.7078 -1.4411
  813MPD2     N11974   0.940   4.144  13.141  0.3529  0.5456 -0.0855
  813MPD2    H511975   0.938   4.244  13.123  1.0461  0.3767 -1.1425
  813MPD2    N111976   1.390   4.154  12.962  0.6928  0.4873  0.2470
  813MPD2    H711977   1.483   4.126  12.991  0.7771  0.8406  0.3225
  814MPD2     C11978   1.314   0.110  11.864  0.6476  0.1998  0.4871
  814MPD2    C111979   1.301   0.198  11.755 -0.4526 -0.0979 -0.3235
  814MPD2    C211980   1.336   0.328  11.777  0.3524 -0.7307 -0.0862
  814MPD2    C311981   1.380   0.369  11.901 -0.4481  0.3060  0.2012
  814MPD2    C411982   1.385   0.279  12.012  0.2771 -0.1835 -0.1620
  814MPD2    C511983   1.360   0.153  11.984  0.2277 -0.2244  1.0736
  814MPD2     H11984   1.329   0.400  11.697 -0.7348 -0.3820  0.3272
  814MPD2    H111985   1.423   0.298  12.112 -0.4766 -1.3054  0.3369
  814MPD2    H211986   1.288   0.005  11.856 -1.0538  0.9639 -3.7219
  814MPD2    H311987   1.373   0.080  12.064  0.3868 -0.3340  0.9461
  814MPD2     N11988   1.408   0.495  11.942  0.5691 -0.5335 -0.1485
  814MPD2    H511989   1.449   0.516  12.032  0.5945 -0.5283 -0.1610
  814MPD2    N111990   1.254   0.167  11.629 -0.6894  0.1429  0.1356
  814MPD2    H711991   1.262   0.233  11.553  0.6748 -0.0109  0.1531
  815MPD2     C11992   2.089   3.910  11.306 -0.0669 -0.8914  0.1976
  815MPD2    C111993   2.027   3.793  11.277 -0.2181  0.4024 -0.4858
  815MPD2    C211994   1.928   3.742  11.362  0.5535  0.3134  0.1495
  815MPD2    C311995   1.896   3.799  11.483  0.7611 -0.2481 -0.8120
  815MPD2    C411996   1.955   3.922  11.509 -0.8596 -0.5419  0.0910
  815MPD2    C511997   2.042   3.974  11.420  0.4877  1.0292  0.0825
  815MPD2     H11998   1.875   3.650  11.337  0.4036  0.2815  0.5844
  815MPD2    H111999   1.940   3.981  11.599 -1.2293  1.2531 -1.1492
  815MPD2    H212000   2.176   3.946  11.253  0.6806 -2.6401  0.2543
  815MPD2    H312001   2.084   4.074  11.428  2.9626 -0.0441  0.4824
  815MPD2     N12002   1.791   3.743  11.560 -0.0489  0.2063 -0.7408
  815MPD2    H512003   1.757   3.656  11.521  0.1484  0.3455 -1.2363
  815MPD2    N112004   2.069   3.730  11.159  0.3543 -0.0483 -1.0095
  815MPD2    H712005   2.134   3.784  11.103  1.8433 -1.3421 -0.5210
  816MPD2     C12006   1.829   2.537  17.180  0.0205  0.3794  0.4276
  816MPD2    C112007   1.736   2.516  17.080  0.4623  0.2227  0.1141
  816MPD2    C212008   1.771   2.451  16.965 -0.4297  0.0487 -0.0969
  816MPD2    C312009   1.904   2.399  16.951  0.0994  0.7752 -0.0191
  816MPD2    C412010   1.997   2.418  17.055 -0.3408  0.0381  0.5029
  816MPD2    C512011   1.951   2.485  17.172  0.4376  0.0740  0.4234
  816MPD2     H12012   1.698   2.433  16.887  0.4444 -2.6647 -0.2919
  816MPD2    H112013   2.095   2.371  17.051  0.2457  1.5660 -3.3809
  816MPD2    H212014   1.805   2.605  17.261  0.8960 -0.3500  1.2951
  816MPD2    H312015   2.011   2.488  17.262  1.3906 -3.1780 -0.0899
  816MPD2     N12016   1.952   2.343  16.822  0.2362 -0.0125 -0.1496
  816MPD2    H512017   1.876   2.343  16.755  0.6689 -1.5787 -0.6373
  816MPD2    N112018   1.606   2.573  17.104 -0.0057  0.7824 -0.8447
  816MPD2    H712019   1.586   2.614  17.195 -1.4413  1.6803 -1.5751
  817MPD2     C12020   1.598   3.638   9.286 -0.4445 -0.3449 -0.6542
  817MPD2    C112021   1.479   3.570   9.298  0.5233  0.2826  0.1412
  817MPD2    C212022   1.367   3.638   9.252 -0.6357 -0.0449 -0.2113
  817MPD2    C312023   1.374   3.763   9.209  0.0575  0.0697 -0.0397
  817MPD2    C412024   1.488   3.828   9.205 -0.4909 -1.1471 -0.3060
  817MPD2    C512025   1.605   3.763   9.238  0.8250 -0.2752  0.3288
  817MPD2     H12026   1.271   3.588   9.264 -2.4547  3.3328 -0.5684
  817MPD2    H112027   1.499   3.933   9.180 -3.2999 -0.7294  0.2096
  817MPD2    H212028   1.686   3.582   9.317 -0.9498 -1.8025 -1.8148
  817MPD2    H312029   1.700   3.816   9.234  0.3784  0.6063  1.4409
  817MPD2     N12030   1.257   3.824   9.173 -0.2837 -0.3168  0.2563
  817MPD2    H512031   1.176   3.766   9.155 -1.1115 -0.0154  2.9570
  817MPD2    N112032   1.466   3.439   9.341  0.0883 -0.5639 -0.2104
  817MPD2    H712033   1.378   3.388   9.334  0.1697 -0.5447 -1.3527
  818MPD2     C12034   0.399   0.077  10.191 -0.0491  0.6381 -0.1647
  818MPD2    C112035   0.275   0.014  10.182 -0.5059 -0.2153 -1.2120
  818MPD2    C212036   0.288   4.599  10.140  0.1418  0.3701 -0.0647
  818MPD2    C312037   0.403   4.539  10.102 -0.0762  0.5804 -0.0922
  818MPD2    C412038   0.524   4.612  10.117 -0.5027 -0.0483 -0.2731
  818MPD2    C512039   0.516   0.018  10.152  0.7965 -0.4105  0.6204
  818MPD2     H12040   0.197   4.540  10.129 -0.5945  1.8463 -1.9766
  818MPD2    H112041   0.625   4.578  10.098 -0.2199  0.4929  0.2680
  818MPD2    H212042   0.423   0.180  10.217 -2.3204  1.3251 -0.7591
  818MPD2    H312043   0.614   0.065  10.161  0.8207  0.1712 -2.4423
  818MPD2     N12044   0.410   4.412  10.038  0.2862  0.2669  0.3172
  818MPD2    H512045   0.499   4.364  10.049  1.5785  2.2955 -1.2327
  818MPD2    N112046   0.153   0.066  10.201 -0.0943  0.0490 -0.8152
  818MPD2    H712047   0.076   4.721  10.202 -1.2762  1.4466  0.7047
  819MPD2     C12048   3.100   1.442  15.338 -0.1005  0.2898 -0.7070
  819MPD2    C112049   3.077   1.306  15.366  0.2286  0.1541  0.4524
  819MPD2    C212050   3.192   1.242  15.423  0.1521  0.0685  1.5196
  819MPD2    C312051   3.302   1.313  15.466  0.3808  0.0322  0.0113
  819MPD2    C412052   3.312   1.446  15.438 -0.5558  0.4314 -0.0606
  819MPD2    C512053   3.213   1.512  15.367 -0.3089  0.5708 -1.0517
  819MPD2     H12054   3.202   1.135  15.424  1.2496  0.1516 -1.0075
  819MPD2    H112055   3.397   1.509  15.461 -1.1885  1.3122 -0.1336
  819MPD2    H212056   3.017   1.500  15.300 -0.4638 -0.1559 -0.5920
  819MPD2    H312057   3.223   1.616  15.338  1.1809  0.9542  0.8632
  819MPD2     N12058   3.407   1.248  15.530 -0.2363  0.1877 -0.1693
  819MPD2    H512059   3.395   1.149  15.548 -1.1555  0.4229  0.4522
  819MPD2    N112060   2.967   1.239  15.314 -0.1020 -0.2552 -0.2128
  819MPD2    H712061   2.897   1.292  15.263  0.0985  1.6662  1.5015
  820MPD2     C12062   2.070   1.211  14.857  0.1016  0.1129 -0.5189
  820MPD2    C112063   2.164   1.298  14.900 -0.1949  0.7024  0.5643
  820MPD2    C212064   2.276   1.251  14.972 -0.2195 -0.2166  0.1100
  820MPD2    C312065   2.285   1.118  15.005 -0.5979 -0.2107  1.1582
  820MPD2    C412066   2.182   1.035  14.966  0.6157 -0.4979 -0.2974
  820MPD2    C512067   2.076   1.080  14.895  0.0055 -0.9641  0.0266
  820MPD2     H12068   2.347   1.322  15.013  1.2319 -1.0907 -0.8677
  820MPD2    H112069   2.179   0.928  14.986  1.7613 -0.7511 -1.4522
  820MPD2    H212070   1.987   1.249  14.799 -1.5986 -1.8157  0.6607
  820MPD2    H312071   1.999   1.014  14.858  0.4095 -1.5478  0.2184
  820MPD2     N12072   2.390   1.059  15.087  0.1079  0.4062  0.4590
  820MPD2    H512073   2.379   0.967  15.127  0.8604  0.9854  2.0198
  820MPD2    N112074   2.145   1.432  14.863 -0.3841 -0.0019  0.2558
  820MPD2    H712075   2.052   1.457  14.831  0.3810  1.6325 -0.7064
  821MPD2     C12076   3.101   2.391  12.745  0.1778  0.1504  0.1687
  821MPD2    C112077   3.188   2.376  12.850 -0.7497  0.3061  0.1268
  821MPD2    C212078   3.313   2.425  12.844 -0.3550 -0.0669  0.3425
  821MPD2    C312079   3.351   2.502  12.734 -0.2571  0.4491  0.3860
  821MPD2    C412080   3.269   2.510  12.631  0.2477 -0.2214 -0.4176
  821MPD2    C512081   3.144   2.456  12.635 -0.6199 -0.0438  0.6591
  821MPD2     H12082   3.384   2.403  12.924 -1.6179  0.3991  1.5934
  821MPD2    H112083   3.289   2.567  12.541  1.5680 -0.8766 -0.5396
  821MPD2    H212084   3.006   2.339  12.742  0.9998 -1.3060 -0.6734
  821MPD2    H312085   3.074   2.461  12.553  0.9181  2.0615 -0.5354
  821MPD2     N12086   3.482   2.564  12.727  0.2836 -0.5184  0.2328
  821MPD2    H512087   3.502   2.609  12.638 -3.7565  1.5818  0.4389
  821MPD2    N112088   3.154   2.316  12.970  0.5220  0.3276  0.2246
  821MPD2    H712089   3.225   2.303  13.042 -0.3973  1.2017  1.2669
  822MPD2     C12090   3.679   2.499  15.594  0.3058 -0.3301 -0.1701
  822MPD2    C112091   3.689   2.468  15.728  0.5756  0.7701 -0.0865
  822MPD2    C212092   3.594   2.525  15.813  0.1730  0.2683  0.4523
  822MPD2    C312093   3.505   2.624  15.777  0.7069 -0.6097 -0.0559
  822MPD2    C412094   3.499   2.657  15.641  0.1587 -0.4024  0.7734
  822MPD2    C512095   3.583   2.587  15.555 -0.0200 -0.5337  0.9732
  822MPD2     H12096   3.593   2.491  15.917 -0.0959 -2.3702 -0.4103
  822MPD2    H112097   3.424   2.720  15.595  0.4496  0.2573  1.2083
  822MPD2    H212098   3.737   2.452  15.516  1.1268 -1.8596  1.3602
  822MPD2    H312099   3.573   2.592  15.447  0.5344  0.9377  0.9936
  822MPD2     N12100   3.428   2.686  15.877 -0.3841  0.2683 -0.1184
  822MPD2    H512101   3.436   2.635  15.965 -0.6378  1.7395  0.7523
  822MPD2    N112102   3.776   2.376  15.781 -0.0742  0.1513  0.2591
  822MPD2    H712103   3.769   2.351  15.879  4.3181 -2.2805 -0.0172
  823MPD2     C12104   3.276   2.879  16.698 -0.2897  0.4642  0.7456
  823MPD2    C112105   3.303   2.797  16.594 -0.1204 -0.0652  0.4694
  823MPD2    C212106   3.332   2.662  16.623 -0.1691  0.2456  0.9963
  823MPD2    C312107   3.354   2.625  16.756 -0.6027 -0.6446  0.2997
  823MPD2    C412108   3.330   2.723  16.856  0.1758 -0.1009 -0.0918
  823MPD2    C512109   3.284   2.844  16.829 -0.8948 -0.5313  0.3655
  823MPD2     H12110   3.345   2.589  16.544 -1.9140 -0.7300  1.5969
  823MPD2    H112111   3.337   2.690  16.959  0.1586  0.2420  0.0183
  823MPD2    H212112   3.251   2.982  16.677 -2.0415 -0.4875 -1.8644
  823MPD2    H312113   3.257   2.919  16.903  0.7632  0.4718 -0.0500
  823MPD2     N12114   3.398   2.493  16.792 -0.2157  0.4855 -0.6070
  823MPD2    H512115   3.396   2.470  16.891 -3.0564 -0.2923 -0.8273
  823MPD2    N112116   3.296   2.849  16.463  0.2762 -0.3105 -0.2459
  823MPD2    H712117   3.273   2.944  16.436  0.5623 -0.6532 -1.7004
  824MPD2     C12118   4.215   1.627  15.686  0.5070  0.2693 -0.1072
  824MPD2    C112119   4.291   1.743  15.671  0.4929  0.0547 -0.5661
  824MPD2    C212120   4.417   1.737  15.611  0.0892  0.7233 -0.4819
  824MPD2    C312121   4.463   1.616  15.558  0.0282 -0.1667  0.4292
  824MPD2    C412122   4.382   1.506  15.577 -0.5537  0.3705 -0.0902
  824MPD2    C512123   4.257   1.514  15.630  0.1515 -0.0066  0.0658
  824MPD2     H12124   4.469   1.832  15.599  0.5497  0.3653 -1.3060
  824MPD2    H112125   4.414   1.404  15.559 -1.6728 -0.0020  0.0488
  824MPD2    H212126   4.128   1.630  15.751 -0.4379  0.0063 -1.3742
  824MPD2    H312127   4.195   1.428  15.649  0.6926 -0.0999  1.4240
  824MPD2     N12128   4.590   1.612  15.491 -0.4890 -0.4402 -0.2925
  824MPD2    H512129   4.631   1.698  15.456 -2.3388  1.0574  1.2013
  824MPD2    N112130   4.245   1.867  15.729  0.0654 -0.2319 -0.1518
  824MPD2    H712131   4.322   1.934  15.729 -0.9749  0.9683 -0.0873
  825MPD2     C12132   0.412   1.796  14.836 -0.2673 -0.3015 -0.5808
  825MPD2    C112133   0.318   1.822  14.933 -0.5198  0.5686 -0.3649
  825MPD2    C212134   0.258   1.949  14.930  0.0878  0.0585 -0.0085
  825MPD2    C312135   0.288   2.034  14.827 -0.0650  0.3868  0.3618
  825MPD2    C412136   0.391   2.010  14.733  0.1478 -0.7391 -0.3056
  825MPD2    C512137   0.446   1.887  14.737 -0.6171 -0.3475  0.0966
  825MPD2     H12138   0.167   1.964  14.987  0.5895  0.1783  0.7547
  825MPD2    H112139   0.415   2.084  14.657  0.7254  0.6385  1.2166
  825MPD2    H212140   0.457   1.698  14.829  0.8680 -0.0338  3.4644
  825MPD2    H312141   0.528   1.872  14.668  0.8934  1.2419  1.5253
  825MPD2     N12142   0.227   2.159  14.808 -0.6688 -0.3115 -0.2645
  825MPD2    H512143   0.247   2.212  14.723  0.2479 -0.3186 -0.0539
  825MPD2    N112144   0.281   1.718  15.024 -0.3492 -0.4234  0.1188
  825MPD2    H712145   0.309   1.626  14.993  1.1573 -0.3812  1.3716
  826MPD2     C12146   4.652   1.855  13.755  0.0034  0.1621  0.0796
  826MPD2    C112147   4.610   1.879  13.624  0.2250  0.4737  0.6162
  826MPD2    C212148   4.475   1.877  13.598  0.0768  0.1975 -0.2314
  826MPD2    C312149   4.382   1.852  13.698  0.0930 -0.1560 -0.4921
  826MPD2    C412150   4.429   1.814  13.824 -0.1965 -0.2187  0.1483
  826MPD2    C512151   4.564   1.811  13.848  0.0239 -0.2469  0.3711
  826MPD2     H12152   4.442   1.891  13.496  1.6605 -0.4281 -0.8278
  826MPD2    H112153   4.363   1.775  13.900 -1.8158  0.7918 -0.7321
  826MPD2    H212154   0.037   1.862  13.778  0.3819 -1.9174 -1.0037
  826MPD2    H312155   4.595   1.774  13.945  2.0402 -1.1958 -0.6465
  826MPD2     N12156   4.247   1.859  13.677  0.3925  0.3125  1.0829
  826MPD2    H512157   4.191   1.846  13.761 -1.4138  0.1464 -0.1498
  826MPD2    N112158   4.710   1.921  13.531 -0.3328 -0.3248  0.5734
  826MPD2    H712159   0.086   1.924  13.564 -0.6452  0.3399  1.4197
  827MPD2     C12160   0.480   2.999  10.162 -0.9455  0.5195  0.7585
  827MPD2    C112161   0.551   2.879  10.143 -0.3697 -0.6142 -0.0496
  827MPD2    C212162   0.484   2.776  10.069 -0.3660 -0.0303  0.9988
  827MPD2    C312163   0.354   2.791  10.023  0.0082 -0.5314 -0.0452
  827MPD2    C412164   0.293   2.916  10.041 -0.3303 -0.6751  0.2583
  827MPD2    C512165   0.353   3.013  10.115  0.2201 -0.1424 -0.6436
  827MPD2     H12166   0.527   2.676  10.068  2.1892  1.0718  0.3201
  827MPD2    H112167   0.192   2.938  10.008  0.2134 -1.4204 -1.9312
  827MPD2    H212168   0.526   3.078  10.221 -0.9598  0.2149  1.1763
  827MPD2    H312169   0.305   3.109  10.134 -0.2863 -0.1374 -1.9300
  827MPD2     N12170   0.293   2.690   9.943  0.2255 -0.3987 -0.3131
  827MPD2    H512171   0.333   2.599   9.964  0.1638 -0.8151 -2.0867
  827MPD2    N112172   0.678   2.866  10.197 -0.0811  0.9828 -0.4632
  827MPD2    H712173   0.718   2.957  10.218 -0.6499  1.1099  0.0558
  828MPD2     C12174   3.752   3.177  12.474 -1.1322  0.4357 -0.2704
  828MPD2    C112175   3.744   3.242  12.353  0.0439 -0.0333  0.7222
  828MPD2    C212176   3.856   3.244  12.276 -0.2702 -0.2725 -0.8012
  828MPD2    C312177   3.970   3.177  12.315  0.1983 -0.0239  0.0108
  828MPD2    C412178   3.976   3.112  12.436 -0.2946 -0.1369 -0.1128
  828MPD2    C512179   3.865   3.111  12.516 -0.5700  0.4777 -0.6116
  828MPD2     H12180   3.851   3.304  12.186 -0.2138  1.1207  0.1340
  828MPD2    H112181   4.067   3.076  12.484 -1.3498 -0.8534  1.3487
  828MPD2    H212182   3.661   3.179  12.534 -0.7119  1.6552  0.3209
  828MPD2    H312183   3.857   3.049  12.605  1.9117  0.7123 -0.2346
  828MPD2     N12184   4.093   3.184  12.246  0.6200  0.4803 -0.4214
  828MPD2    H512185   4.178   3.168  12.299 -1.4994  0.8361  3.1020
  828MPD2    N112186   3.625   3.305  12.317 -0.0190  0.2116 -0.4725
  828MPD2    H712187   3.624   3.363  12.234  0.6291  1.4146  0.3584
  829MPD2     C12188   3.213   4.084  11.851 -0.0576  0.1527  0.2816
  829MPD2    C112189   3.169   3.963  11.794 -0.2526  0.1570 -0.4836
  829MPD2    C212190   3.191   3.845  11.860  0.4189  0.3713 -0.4372
  829MPD2    C312191   3.252   3.840  11.984  0.3807  0.1547 -0.0526
  829MPD2    C412192   3.291   3.961  12.042  0.4342 -0.4481 -0.4906
  829MPD2    C512193   3.274   4.080  11.972 -0.4256 -0.4934 -0.2531
  829MPD2     H12194   3.164   3.750  11.815  2.4395 -0.1778 -0.4809
  829MPD2    H112195   3.336   3.964  12.141 -0.3010  0.8904 -0.1935
  829MPD2    H212196   3.201   4.182  11.808  0.9282 -0.3636 -1.1937
  829MPD2    H312197   3.301   4.173  12.020  1.0596 -1.5051  0.8480
  829MPD2     N12198   3.270   3.716  12.044  0.0578 -0.4085  0.3832
  829MPD2    H512199   3.236   3.642  11.984 -2.0807  0.0844  0.9927
  829MPD2    N112200   3.099   3.968  11.669 -0.0548 -0.3474 -0.0658
  829MPD2    H712201   3.078   4.061  11.634 -1.5232 -0.8561 -0.5447
  830MPD2     C12202   4.300   1.016  15.503 -0.4647  0.1643 -0.6405
  830MPD2    C112203   4.201   1.101  15.463  0.4382 -0.1477  0.2516
  830MPD2    C212204   4.229   1.190  15.358 -0.2730 -0.5157 -0.1109
  830MPD2    C312205   4.357   1.197  15.303  0.1473  0.1592  0.7252
  830MPD2    C412206   4.451   1.113  15.346 -0.2525 -0.9204 -1.5430
  830MPD2    C512207   4.425   1.031  15.451 -0.6831 -0.2368 -0.3594
  830MPD2     H12208   4.154   1.253  15.313 -1.9882 -2.2162  0.3389
  830MPD2    H112209   4.556   1.107  15.318  0.6874  3.3601  1.0651
  830MPD2    H212210   4.266   0.946  15.579  2.1427  0.4225  0.7769
  830MPD2    H312211   4.503   0.968  15.492  0.5913  0.6236 -1.4332
  830MPD2     N12212   4.379   1.284  15.197 -0.4408  0.0081  0.0206
  830MPD2    H512213   4.315   1.361  15.181 -1.8558 -0.8717  1.3115
  830MPD2    N112214   4.073   1.093  15.522 -0.0448  0.1775 -0.2444
  830MPD2    H712215   4.068   1.034  15.604 -0.5316  0.2904 -0.1948
  831MPD2     C12216   3.787   2.825  16.339  0.0500  0.2322 -0.0242
  831MPD2    C112217   3.780   2.746  16.230 -0.1710  0.7634  0.2205
  831MPD2    C212218   3.692   2.643  16.222  0.5917  0.1231  0.3245
  831MPD2    C312219   3.619   2.612  16.335  0.1951 -0.2656  0.0827
  831MPD2    C412220   3.635   2.680  16.456 -0.3291  0.5017  0.6529
  831MPD2    C512221   3.713   2.791  16.448 -0.2714  0.0480  0.1407
  831MPD2     H12222   3.701   2.585  16.131 -0.3829  2.3382 -1.1980
  831MPD2    H112223   3.599   2.641  16.551  1.5136 -2.1599  0.2467
  831MPD2    H212224   3.862   2.903  16.348  0.9327 -0.4986 -1.2300
  831MPD2    H312225   3.706   2.855  16.535 -0.2828  1.4550 -0.8969
  831MPD2     N12226   3.541   2.499  16.325 -0.3859  0.3763  0.2857
  831MPD2    H512227   3.546   2.440  16.408 -1.1680 -0.6998 -0.4152
  831MPD2    N112228   3.859   2.774  16.115 -0.0394 -0.1436 -0.0392
  831MPD2    H712229   3.888   2.867  16.084  0.0914  0.5832  2.2881
  832MPD2     C12230   2.049   3.549  16.995  0.0837  0.2382 -0.7847
  832MPD2    C112231   2.004   3.673  16.970 -0.0300  0.0584 -0.0911
  832MPD2    C212232   1.894   3.699  16.894 -0.1959 -0.3370  0.2170
  832MPD2    C312233   1.837   3.594  16.823  0.4426  0.0355 -1.6314
  832MPD2    C412234   1.878   3.467  16.835 -0.2347  0.2301 -0.0608
  832MPD2    C512235   1.981   3.452  16.923  0.8237  0.2872 -0.7549
  832MPD2     H12236   1.865   3.798  16.861  0.4991  0.1828  1.1861
  832MPD2    H112237   1.824   3.384  16.789  0.0449  0.4185 -0.7280
  832MPD2    H212238   2.137   3.526  17.054 -1.5663 -0.2470  1.4644
  832MPD2    H312239   2.014   3.350  16.942 -0.0482 -0.0877 -1.2565
  832MPD2     N12240   1.732   3.611  16.727 -0.0706 -0.4751 -0.2817
  832MPD2    H512241   1.699   3.530  16.676  1.7751  0.3717 -2.8340
  832MPD2    N112242   2.075   3.776  17.041  0.1346  0.0985  0.4083
  832MPD2    H712243   2.161   3.749  17.089 -0.8043 -2.6779  0.5151
  833MPD2     C12244   3.877   1.061  12.449  0.0008  0.2432  0.2989
  833MPD2    C112245   3.974   1.149  12.402  0.1923 -0.2315  0.3060
  833MPD2    C212246   4.086   1.100  12.327  0.3168  0.3605 -0.8393
  833MPD2    C312247   4.111   0.962  12.313 -0.2982  0.8811  0.0182
  833MPD2    C412248   4.017   0.872  12.364 -0.2802 -0.1467 -0.3797
  833MPD2    C512249   3.903   0.919  12.426  0.4894 -0.2741  0.6637
  833MPD2     H12250   4.157   1.166  12.279  4.0712 -3.4263 -0.3946
  833MPD2    H112251   4.019   0.764  12.353 -1.0635 -0.1985 -0.0842
  833MPD2    H212252   3.783   1.088  12.496 -0.0461 -0.2466  0.4880
  833MPD2    H312253   3.833   0.853  12.477 -0.7294  2.6478  2.8119
  833MPD2     N12254   4.220   0.909  12.239  0.7225 -0.4246  0.0639
  833MPD2    H512255   4.222   0.811  12.214 -1.0936 -0.3513 -0.3722
  833MPD2    N112256   3.937   1.286  12.400 -0.0556 -0.2476  0.0298
  833MPD2    H712257   3.871   1.312  12.473 -1.6132 -0.0444 -1.4650
  834MPD2     C12258   4.345   0.178  11.939 -0.3296 -0.2441 -0.6511
  834MPD2    C112259   4.323   0.254  11.828 -0.4325  0.6306 -0.2231
  834MPD2    C212260   4.367   0.384  11.826 -0.1773 -0.5328  0.1806
  834MPD2    C312261   4.418   0.440  11.948  0.0682  0.4598  0.2871
  834MPD2    C412262   4.435   0.360  12.057 -0.6957 -0.0212 -0.2943
  834MPD2    C512263   4.397   0.229  12.053  0.1395  0.2185  0.3253
  834MPD2     H12264   4.356   0.455  11.745  1.9228  1.2405  1.4500
  834MPD2    H112265   4.487   0.403  12.142  0.7066 -0.1333 -1.1025
  834MPD2    H212266   4.298   0.081  11.950 -1.1378  0.4260  2.0640
  834MPD2    H312267   4.392   0.168  12.143  1.7449 -0.5485 -0.1015
  834MPD2     N12268   4.456   0.569  11.963  0.5978 -0.5988  0.1134
  834MPD2    H512269   4.462   0.592  12.062 -1.1081  1.6723 -0.3075
  834MPD2    N112270   4.272   0.191  11.715  0.2447 -0.0890  0.0320
  834MPD2    H712271   4.273   0.089  11.718  1.2224 -0.1891 -2.9416
  835MPD2     C12272   4.179   3.494  11.963  0.1808  0.0429  0.2479
  835MPD2    C112273   4.297   3.488  11.886 -0.5822  0.2137 -0.4552
  835MPD2    C212274   4.422   3.502  11.941  0.3305 -0.2277 -0.1218
  835MPD2    C312275   4.432   3.554  12.069  0.5326 -0.2269 -0.1942
  835MPD2    C412276   4.315   3.573  12.138  0.1479  0.0951 -0.1739
  835MPD2    C512277   4.187   3.545  12.089 -0.6550  0.0434 -0.1167
  835MPD2     H12278   4.508   3.477  11.881  1.5018  0.2153  1.3902
  835MPD2    H112279   4.314   3.617  12.237  1.2680 -2.4149  0.9608
  835MPD2    H212280   4.085   3.451  11.931  1.0684 -0.9739 -1.0249
  835MPD2    H312281   4.103   3.545  12.158 -0.4994  1.4606  0.0727
  835MPD2     N12282   4.547   3.588  12.141 -0.2015  0.1596  0.3617
  835MPD2    H512283   4.537   3.619  12.238 -1.2816 -0.6072  0.5033
  835MPD2    N112284   4.297   3.436  11.754  0.2597  0.2721  0.2925
  835MPD2    H712285   4.391   3.417  11.721  0.1724 -1.5926  1.1421
  836MPD2     C12286   0.466   3.240  12.588  0.0888  0.5355  0.2419
  836MPD2    C112287   0.332   3.283  12.600 -0.2664 -0.1568 -0.1664
  836MPD2    C212288   0.254   3.239  12.703  0.2730 -0.2371  0.8470
  836MPD2    C312289   0.310   3.165  12.808 -0.0531  0.1539  0.7722
  836MPD2    C412290   0.444   3.135  12.799  0.0546 -0.6387 -0.0993
  836MPD2    C512291   0.522   3.181  12.699  0.7142  0.5854  0.3146
  836MPD2     H12292   0.149   3.267  12.706 -0.2450 -2.2308  0.7834
  836MPD2    H112293   0.487   3.080  12.882 -1.3319 -2.1842 -0.3863
  836MPD2    H212294   0.530   3.286  12.514 -0.1362  1.3593  0.5606
  836MPD2    H312295   0.628   3.160  12.706  0.7950  0.6738 -0.6361
  836MPD2     N12296   0.241   3.125  12.930  0.0106 -0.1098  0.1677
  836MPD2    H512297   0.288   3.073  13.003  1.0543 -0.1091 -0.5006
  836MPD2    N112298   0.282   3.368  12.493 -0.0259  0.5599  0.1419
  836MPD2    H712299   0.353   3.385  12.422  1.4534 -2.1149  0.9902
  837MPD2     C12300   2.755   2.414   9.493  0.2708  0.5679  0.4250
  837MPD2    C112301   2.630   2.394   9.567  0.5676 -0.6937 -0.3886
  837MPD2    C212302   2.596   2.495   9.650  0.0654  0.6522 -0.2072
  837MPD2    C312303   2.669   2.611   9.667 -0.0032  0.1342 -0.6885
  837MPD2    C412304   2.780   2.633   9.589 -0.2434  0.0378  0.1978
  837MPD2    C512305   2.823   2.535   9.511 -0.4730 -1.0283 -0.0078
  837MPD2     H12306   2.511   2.489   9.717  1.1640 -0.5869  1.0753
  837MPD2    H112307   2.831   2.729   9.592 -0.9796  0.4601 -0.9240
  837MPD2    H212308   2.803   2.335   9.436  1.3109  0.0076  2.0734
  837MPD2    H312309   2.910   2.551   9.448 -0.9878  2.6296  0.2182
  837MPD2     N12310   2.619   2.708   9.751  0.6540 -0.1540  0.3395
  837MPD2    H512311   2.528   2.691   9.793  0.9025 -1.5403  0.3237
  837MPD2    N112312   2.547   2.283   9.552 -0.4260  0.1405  0.1744
  837MPD2    H712313   2.468   2.283   9.616  0.2842 -0.3162  1.0431
  838MPD2     C12314   0.902   0.996  11.836  0.2182  0.6577 -0.6014
  838MPD2    C112315   0.911   0.933  11.712 -0.3002  0.6432  0.7956
  838MPD2    C212316   0.824   0.831  11.678  0.1157  0.4098  0.7795
  838MPD2    C312317   0.728   0.789  11.773  0.6080  0.1702  0.2302
  838MPD2    C412318   0.717   0.866  11.886 -0.3860  0.2072  0.3447
  838MPD2    C512319   0.800   0.960  11.920 -0.1287  0.2638  0.2592
  838MPD2     H12320   0.832   0.774  11.586 -0.2411  2.0589 -0.2728
  838MPD2    H112321   0.643   0.835  11.959 -1.6202  0.7260 -0.6804
  838MPD2    H212322   0.978   1.061  11.878 -0.9260  2.1437 -0.8482
  838MPD2    H312323   0.807   1.002  12.020 -0.8117 -2.4417  1.4261
  838MPD2     N12324   0.660   0.671  11.766 -1.0030 -0.2624 -0.7835
  838MPD2    H512325   0.603   0.643  11.845 -0.7023  1.4383  0.0243
  838MPD2    N112326   1.011   0.964  11.622 -0.0437  0.6064  0.3597
  838MPD2    H712327   1.014   0.915  11.533  0.4715 -0.6082  1.0470
  839MPD2     C12328   0.840   0.294  11.649  0.6352 -0.5650  0.8885
  839MPD2    C112329   0.841   0.358  11.525 -0.0319 -0.0596 -0.3082
  839MPD2    C212330   0.924   0.463  11.506 -0.1948 -0.2058  0.0025
  839MPD2    C312331   1.013   0.498  11.607 -0.0525  0.1826  0.0072
  839MPD2    C412332   1.012   0.430  11.732  0.6026 -0.6758  0.3913
  839MPD2    C512333   0.926   0.323  11.743 -1.0963  0.4862 -0.1137
  839MPD2     H12334   0.930   0.503  11.405 -2.5877  1.9851  0.7354
  839MPD2    H112335   1.082   0.444  11.814  1.3085  0.7223 -0.4428
  839MPD2    H212336   0.769   0.212  11.661  0.4483 -0.2307  2.0602
  839MPD2    H312337   0.916   0.270  11.837  2.3645  1.1627  0.6274
  839MPD2     N12338   1.114   0.600  11.586 -0.2945  0.4489 -0.0478
  839MPD2    H512339   1.180   0.622  11.659  1.0326  2.1235 -1.7386
  839MPD2    N112340   0.753   0.329  11.418 -0.9589  0.2350  0.1542
  839MPD2    H712341   0.776   0.379  11.333  1.1037  0.4038  0.8121
  840MPD2     C12342   1.030   3.269   9.997 -0.5897 -0.4314 -0.2842
  840MPD2    C112343   1.119   3.209  10.076 -0.4747 -0.5694  0.2780
  840MPD2    C212344   1.249   3.255  10.088  0.7025  0.2789 -0.5072
  840MPD2    C312345   1.283   3.377  10.037  0.6651  0.5771  0.1817
  840MPD2    C412346   1.186   3.450   9.961  0.6317 -0.4163  0.8423
  840MPD2    C512347   1.062   3.389   9.941  0.0992 -0.4529  1.0469
  840MPD2     H12348   1.320   3.196  10.146  0.2129  0.6345  0.4620
  840MPD2    H112349   1.205   3.547   9.917 -0.7748 -0.2245  0.6800
  840MPD2    H212350   0.931   3.225   9.986 -0.0993 -1.8634  1.1507
  840MPD2    H312351   0.991   3.447   9.884  0.5051  0.1172  1.1186
  840MPD2     N12352   1.411   3.443  10.053 -0.4349 -0.0224 -0.3905
  840MPD2    H512353   1.430   3.538  10.025  0.0529 -0.1683 -0.5493
  840MPD2    N112354   1.072   3.090  10.137  0.0059  0.1415 -0.1837
  840MPD2    H712355   0.978   3.064  10.110  0.3256 -1.8762  0.6301
  841MPD2     C12356   0.803   2.339  14.664  0.0402  0.4130 -0.1581
  841MPD2    C112357   0.785   2.467  14.626  0.5830  0.6281 -0.2442
  841MPD2    C212358   0.839   2.568  14.703 -0.0348 -0.9213  0.9681
  841MPD2    C312359   0.904   2.538  14.825  0.1049  0.6632 -0.0153
  841MPD2    C412360   0.929   2.401  14.851  0.2088  0.4271  0.0292
  841MPD2    C512361   0.882   2.306  14.770  0.1596 -0.3523  0.3134
  841MPD2     H12362   0.828   2.672  14.675  1.1750 -1.1828 -0.5158
  841MPD2    H112363   0.974   2.353  14.938 -0.1408  1.4773  0.7870
  841MPD2    H212364   0.754   2.264  14.603  1.0265 -0.9156  0.6937
  841MPD2    H312365   0.891   2.203  14.801 -0.6414  0.0098  1.7338
  841MPD2     N12366   0.934   2.643  14.920 -0.1570  0.1953  0.3420
  841MPD2    H512367   0.909   2.738  14.896  1.1555 -0.5126 -3.9382
  841MPD2    N112368   0.704   2.488  14.514 -0.0273  0.4973 -0.0360
  841MPD2    H712369   0.662   2.405  14.475  0.1341 -0.6082  2.1368
  842MPD2     C12370   1.247   4.041  16.336 -0.8557 -0.4444  0.4926
  842MPD2    C112371   1.162   3.940  16.384  0.4857 -0.4472 -0.1036
  842MPD2    C212372   1.185   3.899  16.516  0.2050 -0.2203  0.4828
  842MPD2    C312373   1.270   3.963  16.608  0.3560 -0.3512  0.2208
  842MPD2    C412374   1.357   4.054  16.552  0.5510 -0.7731 -0.9978
  842MPD2    C512375   1.345   4.096  16.416 -0.3956 -0.1823 -0.5991
  842MPD2     H12376   1.112   3.829  16.556 -0.9033 -0.4850 -2.0307
  842MPD2    H112377   1.437   4.099  16.610  0.1659 -1.1788 -0.1498
  842MPD2    H212378   1.231   4.093  16.242  1.0898 -0.5622  0.1065
  842MPD2    H312379   1.411   4.169  16.369  1.7040 -1.4459  0.3982
  842MPD2     N12380   1.290   3.922  16.745  0.0161  0.3100  0.2555
  842MPD2    H512381   1.353   3.981  16.798  2.3461 -1.2915 -0.7636
  842MPD2    N112382   1.063   3.893  16.301 -0.1699 -0.2330  0.2185
  842MPD2    H712383   1.044   3.936  16.212 -0.1383  0.0003  0.3252
  843MPD2     C12384   4.445   4.300   0.060 -0.4015 -1.0237  0.1235
  843MPD2    C112385   4.428   4.194   0.148  0.0441 -0.1831 -0.5944
  843MPD2    C212386   4.541   4.145   0.216  0.1028  0.6174 -0.7225
  843MPD2    C312387   4.660   4.217   0.202  0.4271 -0.5590  0.0487
  843MPD2    C412388   4.673   4.327   0.123  0.2180  0.8187  0.2002
  843MPD2    C512389   4.559   4.375   0.056 -0.0451  0.2988 -0.1856
  843MPD2     H12390   4.540   4.063   0.288  1.0533  1.3443  0.1231
  843MPD2    H112391   0.049   4.372   0.106  0.7856 -0.3992  0.1876
  843MPD2    H212392   4.362   4.330  17.683  1.3849  1.7196 -0.9113
  843MPD2    H312393   4.566   4.462  17.677  1.6079  1.1537  1.1658
  843MPD2     N12394   0.053   4.169   0.270  0.2151 -0.0270 -0.4772
  843MPD2    H512395   0.130   4.234   0.257  1.7055 -1.5921  0.6145
  843MPD2    N112396   4.302   4.130   0.134 -0.0939  0.3163 -0.1742
  843MPD2    H712397   4.232   4.154   0.065 -0.8643 -0.2515  0.4157
  844MPD2     C12398   1.419   3.029  16.267 -0.4597 -0.8449 -0.0197
  844MPD2    C112399   1.514   3.038  16.173  0.0946 -0.3113  0.1515
  844MPD2    C212400   1.605   3.143  16.190 -0.3306 -0.3097 -0.0272
  844MPD2    C312401   1.592   3.230  16.295 -0.0637  0.1278  0.4055
  844MPD2    C412402   1.499   3.210  16.389 -0.4585  0.8188 -0.2082
  844MPD2    C512403   1.416   3.105  16.385 -0.4262 -0.1606  0.2048
  844MPD2     H12404   1.681   3.173  16.119 -0.3703  0.7594  0.3923
  844MPD2    H112405   1.489   3.276  16.475  1.3232  0.7939  0.0218
  844MPD2    H212406   1.339   2.957  16.252 -0.3199 -0.8656 -0.6683
  844MPD2    H312407   1.331   3.103  16.453 -1.8146  0.1426 -1.5072
  844MPD2     N12408   1.691   3.324  16.312 -0.4242 -0.7677  0.6217
  844MPD2    H512409   1.747   3.344  16.230 -1.4017  1.3465  0.4465
  844MPD2    N112410   1.528   2.955  16.061 -0.2492  0.1146 -0.9295
  844MPD2    H712411   1.605   2.962  15.996  1.1125  0.7433  0.7431
  845MPD2     C12412   1.727   4.321  16.428  0.2331  0.2477  0.2579
  845MPD2    C112413   1.785   4.269  16.544 -0.0352 -0.6310 -0.1254
  845MPD2    C212414   1.826   4.134  16.546  0.0585  0.3360  0.1722
  845MPD2    C312415   1.812   4.048  16.431  0.3447  0.1444  0.9203
  845MPD2    C412416   1.753   4.115  16.319  0.1590 -0.9317  0.6891
  845MPD2    C512417   1.718   4.247  16.315  0.1732 -0.1976 -0.5754
  845MPD2     H12418   1.874   4.086  16.631  0.4484 -1.3372 -0.9992
  845MPD2    H112419   1.754   4.059  16.226 -0.3981  0.8130 -0.3568
  845MPD2    H212420   1.698   4.425  16.422 -0.2756  0.1220  0.5629
  845MPD2    H312421   1.683   4.287  16.221 -1.1510  1.1277  0.4762
  845MPD2     N12422   1.862   3.914  16.436  0.8376  0.2833  0.0804
  845MPD2    H512423   1.904   3.884  16.523  0.8770  0.1113  0.0041
  845MPD2    N112424   1.782   4.348  16.659  0.6078  0.0973 -0.0509
  845MPD2    H712425   1.742   4.441  16.665  2.2280  0.7714  0.3639
  846MPD2     C12426   3.379   0.442  13.463 -0.7196  0.4166  0.5904
  846MPD2    C112427   3.285   0.532  13.504  0.3314 -0.1017  0.5220
  846MPD2    C212428   3.228   0.512  13.631 -0.8707 -0.3560 -0.1725
  846MPD2    C312429   3.275   0.410  13.713 -0.7966  0.7649 -0.4127
  846MPD2    C412430   3.382   0.342  13.674 -0.0188 -0.0420 -0.0424
  846MPD2    C512431   3.440   0.359  13.552 -0.3014 -0.6496  0.1575
  846MPD2     H12432   3.150   0.576  13.669  0.6434  1.9033 -0.8252
  846MPD2    H112433   3.432   0.277  13.744 -0.8322  0.8334  1.3660
  846MPD2    H212434   3.427   0.455  13.367 -1.2090  3.4939  0.7535
  846MPD2    H312435   3.529   0.301  13.528 -0.6496 -1.5858  1.1458
  846MPD2     N12436   3.215   0.386  13.835 -0.0562 -0.0747  0.5981
  846MPD2    H512437   3.158   0.458  13.876  1.4082  0.7803  1.1234
  846MPD2    N112438   3.235   0.634  13.421 -0.4240 -0.3715  0.1770
  846MPD2    H712439   3.164   0.695  13.460 -1.4999 -1.2896 -0.3683
  847MPD2     C12440   3.554   1.318  14.183 -0.1836 -0.2227 -0.1166
  847MPD2    C112441   3.668   1.297  14.101 -0.1660  0.4191  0.7164
  847MPD2    C212442   3.752   1.194  14.140  0.6364  0.1620  0.2317
  847MPD2    C312443   3.730   1.119  14.254 -0.2902  1.1839 -0.3716
  847MPD2    C412444   3.623   1.145  14.338  0.0536 -0.1187 -0.4508
  847MPD2    C512445   3.531   1.242  14.296  0.3266 -0.1940 -0.2138
  847MPD2     H12446   3.833   1.170  14.071 -1.2798  2.8901 -2.9468
  847MPD2    H112447   3.603   1.086  14.427  0.7846  0.2849 -0.0217
  847MPD2    H212448   3.483   1.394  14.152 -1.4651 -0.9770  1.0229
  847MPD2    H312449   3.437   1.252  14.348  0.4365  1.3535 -0.3028
  847MPD2     N12450   3.826   1.011  14.262 -0.2127  0.0103 -0.6814
  847MPD2    H512451   3.894   1.002  14.187 -0.8773 -0.4137 -1.2241
  847MPD2    N112452   3.690   1.358  13.975  0.0656  0.3086  0.4119
  847MPD2    H712453   3.776   1.335  13.927 -0.4644 -0.3882 -0.2161
  848MPD2     C12454   1.450   3.808  16.007 -0.1957  0.2397  0.1301
  848MPD2    C112455   1.469   3.881  16.124 -0.2390  0.1002 -0.8316
  848MPD2    C212456   1.482   4.022  16.116 -0.1559  0.2766 -0.0294
  848MPD2    C312457   1.461   4.088  16.002 -0.3918  0.3602  0.2518
  848MPD2    C412458   1.446   4.015  15.884 -0.3143  0.3989 -0.3270
  848MPD2    C512459   1.445   3.877  15.883  0.2558 -0.5552 -0.4563
  848MPD2     H12460   1.494   4.073  16.211 -2.0063  1.0861 -0.2182
  848MPD2    H112461   1.434   4.062  15.788  0.4071 -1.1628 -1.1808
  848MPD2    H212462   1.434   3.701  16.008 -2.1010  0.5072 -2.4465
  848MPD2    H312463   1.431   3.820  15.791 -0.5487  1.0866 -1.3436
  848MPD2     N12464   1.448   4.230  15.982  0.1241  0.3869  0.1117
  848MPD2    H512465   1.449   4.269  15.888 -2.0222  3.3114  1.2651
  848MPD2    N112466   1.474   3.819  16.248 -0.5547  0.4478 -0.4807
  848MPD2    H712467   1.480   3.881  16.328 -1.0235 -0.7251  0.4614
  849MPD2     C12468   0.452   4.077  14.293  0.9513 -0.4891  0.0982
  849MPD2    C112469   0.584   4.032  14.261  0.3627  0.3429 -0.1757
  849MPD2    C212470   0.629   3.928  14.340  0.4459 -0.1853  0.5810
  849MPD2    C312471   0.571   3.894  14.454 -0.3101  0.4444 -0.2247
  849MPD2    C412472   0.451   3.955  14.493  0.0064  0.0167  0.4812
  849MPD2    C512473   0.382   4.042  14.409  0.3387  0.5966  0.4927
  849MPD2     H12474   0.722   3.882  14.310  0.1910  0.7898 -1.6858
  849MPD2    H112475   0.395   3.913  14.575 -1.6347  3.4060  1.0767
  849MPD2    H212476   0.397   4.140  14.224 -1.5341 -0.8238  1.7829
  849MPD2    H312477   0.283   4.070  14.443  0.2033  0.7784 -0.0671
  849MPD2     N12478   0.631   3.792  14.527  0.4229 -0.0197  0.3370
  849MPD2    H512479   0.708   3.740  14.486  0.6049 -0.3315  1.0802
  849MPD2    N112480   0.655   4.087  14.151 -0.0778  0.6531 -0.1896
  849MPD2    H712481   0.622   4.172  14.106 -2.1496  0.6531  1.3196
  850MPD2     C12482   3.641   1.881  14.550 -0.0413  0.2037  0.1427
  850MPD2    C112483   3.608   1.979  14.639  0.4561 -0.8774  0.1673
  850MPD2    C212484   3.708   2.067  14.681  0.3703 -0.9964 -0.3965
  850MPD2    C312485   3.838   2.056  14.636  0.2352  0.1012 -0.5760
  850MPD2    C412486   3.867   1.954  14.545 -0.1705 -0.1379  0.6669
  850MPD2    C512487   3.767   1.871  14.501  0.2257 -0.5596  0.1490
  850MPD2     H12488   3.693   2.149  14.750 -1.2309 -1.1583 -0.5419
  850MPD2    H112489   3.967   1.947  14.504 -0.8012 -0.5147 -0.8440
  850MPD2    H212490   3.567   1.808  14.518  0.5704 -0.8911  1.2200
  850MPD2    H312491   3.771   1.796  14.422  0.7243  0.3882 -0.7261
  850MPD2     N12492   3.947   2.131  14.692 -0.1244 -0.5231 -0.4075
  850MPD2    H512493   4.039   2.105  14.658  0.4758 -1.2296  1.7539
  850MPD2    N112494   3.473   1.994  14.677  0.1856 -0.2136 -0.1314
  850MPD2    H712495   3.413   1.929  14.629  0.2777  0.3661 -1.0244
  851MPD2     C12496   4.049   2.019  15.334 -0.0979  0.1766 -0.0766
  851MPD2    C112497   4.003   1.972  15.212 -0.6439  0.4511 -0.2234
  851MPD2    C212498   4.079   1.880  15.140  0.0419 -0.0298 -0.1038
  851MPD2    C312499   4.207   1.846  15.177  0.1755 -0.5514 -0.5257
  851MPD2    C412500   4.242   1.897  15.298  0.4055 -0.1798  0.3043
  851MPD2    C512501   4.162   1.970  15.383  0.2687  0.7422 -0.5787
  851MPD2     H12502   4.041   1.845  15.045 -1.2832  2.7129 -0.5643
  851MPD2    H112503   4.336   1.861  15.337  1.3182  2.7120  0.7535
  851MPD2    H212504   3.995   2.091  15.394  2.0388  1.9317 -0.2798
  851MPD2    H312505   4.202   1.998  15.480  2.2175 -1.1819 -0.8396
  851MPD2     N12506   4.295   1.771  15.093  0.1235  0.3852 -0.0089
  851MPD2    H512507   4.255   1.722  15.014  1.4184 -1.4581  0.4726
  851MPD2    N112508   3.876   2.014  15.175 -0.4873 -0.7957 -0.2948
  851MPD2    H712509   3.832   2.066  15.250 -0.8191 -2.2548  0.5191
  852MPD2     C12510   3.585   3.918  10.039 -0.5927  0.5528  0.4995
  852MPD2    C112511   3.647   4.000  10.137  0.3706 -0.4282  0.2184
  852MPD2    C212512   3.742   4.086  10.094  0.6794  0.4042 -0.4889
  852MPD2    C312513   3.797   4.079   9.969  0.1683  0.3637 -0.1527
  852MPD2    C412514   3.742   3.995   9.874 -0.6986 -0.2876 -0.3271
  852MPD2    C512515   3.639   3.908   9.916 -0.6179 -0.0549 -0.0824
  852MPD2     H12516   3.788   4.148  10.170 -1.2548  2.6502 -1.1754
  852MPD2    H112517   3.773   3.988   9.771  0.5059  0.8570 -0.0370
  852MPD2    H212518   3.496   3.863  10.069 -0.1672  0.6664  1.9903
  852MPD2    H312519   3.592   3.847   9.840  0.3547  0.4045 -1.0571
  852MPD2     N12520   3.886   4.186   9.937  0.3771  0.2557 -0.3962
  852MPD2    H512521   3.910   4.243  10.017  1.0188  0.0799 -0.4646
  852MPD2    N112522   3.609   4.016  10.271 -0.3006 -0.3765  0.0427
  852MPD2    H712523   3.669   4.070  10.332  2.1047 -0.1261 -2.5530
  853MPD2     C12524   1.024   4.237  12.053 -0.9881  0.4891  0.1697
  853MPD2    C112525   0.941   4.317  11.978  0.0944 -0.4992  0.0346
  853MPD2    C212526   0.941   4.312  11.839  0.0494 -0.8208 -0.5629
  853MPD2    C312527   1.040   4.240  11.770 -0.2982 -0.0333  0.7188
  853MPD2    C412528   1.130   4.172  11.850 -0.4398 -0.0547  0.2529
  853MPD2    C512529   1.126   4.170  11.985  0.5358 -0.3418  0.2085
  853MPD2     H12530   0.881   4.374  11.774  1.4965 -1.2212 -2.2735
  853MPD2    H112531   1.217   4.122  11.809  1.9683  2.1310  2.7661
  853MPD2    H212532   1.009   4.232  12.160  2.3230  0.6470  0.6518
  853MPD2    H312533   1.194   4.116  12.050  1.1316 -2.6418 -2.3364
  853MPD2     N12534   1.067   4.245  11.632  0.2528  0.1512 -0.0530
  853MPD2    H512535   1.133   4.180  11.592 -1.2331 -1.7334  0.5878
  853MPD2    N112536   0.845   4.394  12.048  0.1040 -0.0439 -0.1333
  853MPD2    H712537   0.860   4.393  12.149  1.7571 -0.1067 -0.3809
  854MPD2     C12538   2.386   0.178  12.751 -0.0094 -0.1077  0.1283
  854MPD2    C112539   2.393   0.052  12.688 -0.2078  0.2557 -0.1464
  854MPD2    C212540   2.502   4.690  12.716  0.3965 -0.5709  0.8595
  854MPD2    C312541   2.599   0.014  12.799  0.1304  0.3199  0.1692
  854MPD2    C412542   2.592   0.145  12.851  0.1428 -0.6231  0.1832
  854MPD2    C512543   2.482   0.231  12.828  0.2280  0.5317 -0.1945
  854MPD2     H12544   2.517   4.591  12.674  1.6648 -0.3492  0.8054
  854MPD2    H112545   2.678   0.182  12.905  1.4506  2.5503 -4.1469
  854MPD2    H212546   2.295   0.233  12.732  0.2008  0.1558 -0.1123
  854MPD2    H312547   2.466   0.326  12.878  1.2007  0.4751  0.2234
  854MPD2     N12548   2.708   4.658  12.847 -0.3324  1.0500  0.0552
  854MPD2    H512549   2.761   4.692  12.927  1.5180 -1.1768 -0.1843
  854MPD2    N112550   2.283   0.013  12.613 -0.6788 -0.3994 -0.0246
  854MPD2    H712551   2.208   0.081  12.610 -0.8188 -0.5702 -0.4649
  855MPD2     C12552   2.833   4.533  13.678 -0.2172 -0.0091 -0.0945
  855MPD2    C112553   2.916   4.426  13.640  0.3800 -0.8524  0.3848
  855MPD2    C212554   2.933   4.407  13.502 -0.7377  0.2598  0.2046
  855MPD2    C312555   2.882   4.496  13.410  0.4410 -0.4147  0.3062
  855MPD2    C412556   2.801   4.598  13.451 -0.1650 -0.4071  0.2540
  855MPD2    C512557   2.785   4.618  13.586  0.9002  0.5030  0.4389
  855MPD2     H12558   2.983   4.315  13.471 -0.3464 -0.1703  2.0837
  855MPD2    H112559   2.758   4.669  13.381 -2.3409  0.7960  2.7980
  855MPD2    H212560   2.808   4.548  13.783 -0.1144 -1.2373  0.1093
  855MPD2    H312561   2.734   4.708  13.618 -1.8239 -0.8343 -0.0853
  855MPD2     N12562   2.897   4.485  13.271  0.7387 -0.1607  0.3462
  855MPD2    H512563   2.837   4.545  13.216  0.9569  0.2286  0.5350
  855MPD2    N112564   2.953   4.317  13.724 -0.0208  0.1092  0.3802
  855MPD2    H712565   2.985   4.236  13.672 -1.2832 -0.7684  0.9814
  856MPD2     C12566   0.080   0.296  14.180 -0.5284  0.3210 -0.1852
  856MPD2    C112567   0.123   0.427  14.162 -0.2024 -0.1727 -0.6211
  856MPD2    C212568   0.041   0.499  14.069  0.1464  0.0522 -0.3310
  856MPD2    C312569   4.661   0.450  13.993  0.5014 -0.2553 -0.2847
  856MPD2    C412570   4.624   0.322  14.020 -0.3322 -0.6841  0.3283
  856MPD2    C512571   4.689   0.255  14.116  0.1533  0.5308  0.3392
  856MPD2     H12572   0.074   0.602  14.063 -1.6313  0.6191 -0.4104
  856MPD2    H112573   4.540   0.274  13.971  0.1365  0.9306 -2.0926
  856MPD2    H212574   0.142   0.222  14.230 -1.5496 -0.9625 -0.7894
  856MPD2    H312575   4.670   0.149  14.131  1.2855  0.2548 -0.2211
  856MPD2     N12576   4.591   0.522  13.892  0.3226  0.2736  0.7813
  856MPD2    H512577   4.506   0.479  13.858 -0.6880  1.4899  1.7339
  856MPD2    N112578   0.243   0.477  14.214  0.6435 -0.0672 -0.3875
  856MPD2    H712579   0.251   0.576  14.194 -0.8286  0.4159  1.4745
  857MPD2     C12580   1.671   3.085  12.789 -0.3188  0.4111 -0.1402
  857MPD2    C112581   1.791   3.047  12.734  0.6237  0.4232  0.3983
  857MPD2    C212582   1.892   3.146  12.730 -0.5938  0.6917 -0.4161
  857MPD2    C312583   1.873   3.271  12.795  0.0426  0.5628 -0.1257
  857MPD2    C412584   1.753   3.297  12.861  0.4327 -0.3605  0.4228
  857MPD2    C512585   1.652   3.204  12.851 -0.0601 -0.6564 -0.6593
  857MPD2     H12586   1.985   3.142  12.673 -0.1241 -1.6326  0.5242
  857MPD2    H112587   1.722   3.395  12.897 -0.9983 -1.2436  1.6311
  857MPD2    H212588   1.583   3.022  12.781 -1.3993  1.5216  2.7167
  857MPD2    H312589   1.552   3.220  12.889 -0.5178 -1.7528 -1.4215
  857MPD2     N12590   1.973   3.368  12.771 -0.8147  0.0564 -0.1062
  857MPD2    H512591   2.048   3.339  12.709 -0.5688  0.9917 -0.2522
  857MPD2    N112592   1.795   2.932  12.653  0.6815  0.5370 -0.1467
  857MPD2    H712593   1.709   2.880  12.637  0.1570  1.7015 -1.1380
  858MPD2     C12594   2.100   1.810  16.543 -0.5323 -0.5948  0.0581
  858MPD2    C112595   2.236   1.794  16.529  0.1122  0.2108 -0.6437
  858MPD2    C212596   2.325   1.805  16.637 -0.1283  0.0015 -0.3965
  858MPD2    C312597   2.268   1.838  16.764 -0.3782 -0.9377 -0.2417
  858MPD2    C412598   2.134   1.860  16.772  0.6158 -0.3413  0.8046
  858MPD2    C512599   2.048   1.845  16.666 -0.6596 -0.0209 -0.6823
  858MPD2     H12600   2.432   1.796  16.627 -0.3235 -1.3807 -1.2729
  858MPD2    H112601   2.088   1.895  16.864 -0.2832  0.9897 -0.1477
  858MPD2    H212602   2.032   1.792  16.461  0.4486 -0.9844 -0.6591
  858MPD2    H312603   1.940   1.852  16.667 -0.7481 -1.4620 -1.1367
  858MPD2     N12604   2.340   1.831  16.886  0.1090 -0.3514  0.6225
  858MPD2    H512605   2.289   1.867  16.965  1.3934  1.8507  0.4355
  858MPD2    N112606   2.278   1.773  16.394  0.2733 -0.6050  0.6676
  858MPD2    H712607   2.206   1.772  16.323  1.4181  2.2009 -0.5321
  859MPD2     C12608   0.144   3.895  15.270 -0.0160 -0.4463  0.3196
  859MPD2    C112609   0.268   3.838  15.275 -0.3320 -0.1481 -0.5135
  859MPD2    C212610   0.296   3.753  15.378 -0.5053 -0.3361 -0.4746
  859MPD2    C312611   0.199   3.715  15.465 -0.7771  0.2145  0.4591
  859MPD2    C412612   0.072   3.748  15.440  0.1049  0.2704  0.4442
  859MPD2    C512613   0.049   3.851  15.356 -0.2524  0.2834  0.3097
  859MPD2     H12614   0.401   3.733  15.400 -0.7275 -2.7570 -1.6741
  859MPD2    H112615   4.714   3.704  15.501 -1.4134  2.3255 -0.0476
  859MPD2    H212616   0.121   3.972  15.197  1.9270 -2.2977 -2.2649
  859MPD2    H312617   4.670   3.891  15.341  0.2833  1.5300 -0.0093
  859MPD2     N12618   0.220   3.620  15.567  0.4355  0.9823 -0.9323
  859MPD2    H512619   0.143   3.558  15.589  0.3009  1.7640  0.7794
  859MPD2    N112620   0.365   3.877  15.177 -0.2307 -0.0046 -0.3520
  859MPD2    H712621   0.331   3.953  15.119 -0.1890 -0.8815 -1.5299
  860MPD2     C12622   3.159   4.514  11.217  0.1585 -0.1202 -0.3114
  860MPD2    C112623   3.183   4.603  11.318  0.3075 -0.3232 -0.6322
  860MPD2    C212624   3.116   4.586  11.439 -0.4169 -0.2051 -0.0290
  860MPD2    C312625   3.039   4.478  11.464  0.2087  0.5348 -0.3940
  860MPD2    C412626   3.009   4.390  11.364  0.1085  0.2565  0.8256
  860MPD2    C512627   3.070   4.413  11.242  0.8669  0.3882 -0.5984
  860MPD2     H12628   3.147   4.656  11.515  3.2754  0.5388 -2.2177
  860MPD2    H112629   2.935   4.312  11.375  0.0733  0.1458 -0.2107
  860MPD2    H212630   3.200   4.535  11.119  0.1578  0.2319 -0.2351
  860MPD2    H312631   3.026   4.356  11.161  0.5309  0.4490 -0.4584
  860MPD2     N12632   2.984   4.467  11.596  0.0968 -0.2998 -0.2494
  860MPD2    H512633   2.976   4.547  11.659 -0.0265 -0.7332  0.2864
  860MPD2    N112634   3.262   4.716  11.305 -0.3244 -0.1836  0.2412
  860MPD2    H712635   3.253   0.070  11.373  3.3070 -0.3930  0.9516
  861MPD2     C12636   2.539   2.193  10.779 -0.2504 -0.1520 -0.2243
  861MPD2    C112637   2.478   2.301  10.844  0.3883 -0.4498 -0.8449
  861MPD2    C212638   2.343   2.328  10.809  0.4536  0.5811  0.2019
  861MPD2    C312639   2.283   2.259  10.705 -0.5852 -0.1484  0.1536
  861MPD2    C412640   2.344   2.161  10.629  0.6727 -0.2872 -0.0883
  861MPD2    C512641   2.467   2.119  10.685  0.1619  0.0005 -0.2836
  861MPD2     H12642   2.285   2.400  10.866 -1.0282 -0.4551  0.0047
  861MPD2    H112643   2.297   2.106  10.548 -0.5112  0.1550  0.2873
  861MPD2    H212644   2.641   2.165  10.801 -0.4392  0.7174  1.7434
  861MPD2    H312645   2.504   2.034  10.629  0.6940  1.3137 -1.9693
  861MPD2     N12646   2.155   2.303  10.666  0.2501  0.3915 -0.0828
  861MPD2    H512647   2.142   2.264  10.573  1.5552 -0.5437  0.1356
  861MPD2    N112648   2.542   2.385  10.945 -0.4406  0.0652 -0.0626
  861MPD2    H712649   2.479   2.441  11.002  1.2767  2.5383 -0.5946
  862MPD2     C12650   1.592   2.271  10.162 -0.1746  0.1262 -0.3871
  862MPD2    C112651   1.710   2.207  10.212  0.1141 -0.2002  0.6933
  862MPD2    C212652   1.734   2.073  10.192  0.3991 -0.3319  0.0249
  862MPD2    C312653   1.642   2.008  10.104  0.2677  0.4373 -0.3387
  862MPD2    C412654   1.535   2.073  10.053 -0.1144  0.9610 -0.0920
  862MPD2    C512655   1.505   2.198  10.094  0.0327 -0.4784  0.2698
  862MPD2     H12656   1.828   2.034  10.229  2.1448  1.7482 -2.2602
  862MPD2    H112657   1.470   2.029   9.978 -0.3357  0.6179  0.3039
  862MPD2    H212658   1.567   2.369  10.203  3.8496  0.9159  0.1508
  862MPD2    H312659   1.410   2.248  10.077  1.2028  0.4423 -3.4064
  862MPD2     N12660   1.666   1.873  10.059  0.5645  0.4570 -0.6628
  862MPD2    H512661   1.622   1.848   9.971 -0.2896 -0.0084 -0.1029
  862MPD2    N112662   1.786   2.275  10.307  0.0103 -0.1289  0.2623
  862MPD2    H712663   1.842   2.225  10.375 -2.9209 -2.3754  0.9940
  863MPD2     C12664   0.139   0.931  16.908  0.0184 -0.1924  0.7540
  863MPD2    C112665   0.214   0.879  16.808  0.4462 -1.3152  0.2002
  863MPD2    C212666   0.337   0.818  16.832 -0.2431 -0.1755 -0.4084
  863MPD2    C312667   0.385   0.825  16.962  0.6089 -0.3345  0.2951
  863MPD2    C412668   0.316   0.890  17.065 -0.2028  0.3626  0.4874
  863MPD2    C512669   0.191   0.935  17.034  0.5490 -0.0489 -0.5195
  863MPD2     H12670   0.386   0.759  16.756 -1.2099 -2.4154  0.7254
  863MPD2    H112671   0.351   0.919  17.163 -1.4542  0.5187  0.8853
  863MPD2    H212672   0.049   0.984  16.878  1.6062  2.0130 -0.1011
  863MPD2    H312673   0.131   0.991  17.104 -2.7916 -1.7121 -2.0410
  863MPD2     N12674   0.506   0.768  16.996  0.0548  0.3542  0.4837
  863MPD2    H512675   0.545   0.791  17.086 -1.0180  0.3523  0.9536
  863MPD2    N112676   0.157   0.873  16.676 -0.4064  0.1126  0.4992
  863MPD2    H712677   0.056   0.888  16.679 -1.0227 -3.7837 -0.7513
  864MPD2     C12678   0.935   2.217  16.895  0.0862  0.1295 -0.2694
  864MPD2    C112679   0.950   2.136  16.792  0.2964  0.4322  0.2204
  864MPD2    C212680   0.982   2.187  16.663 -0.0630  0.3263 -1.1574
  864MPD2    C312681   1.022   2.317  16.644 -0.4092 -0.6404  0.1515
  864MPD2    C412682   1.013   2.399  16.751 -0.4861 -0.4730 -0.1229
  864MPD2    C512683   0.971   2.345  16.875 -0.3586  0.6370  0.1654
  864MPD2     H12684   0.996   2.117  16.581 -3.8632 -0.8717 -0.7899
  864MPD2    H112685   1.035   2.504  16.744 -2.8693  0.0670  0.3149
  864MPD2    H212686   0.915   2.171  16.991  4.7398 -0.6893  0.3228
  864MPD2    H312687   0.970   2.413  16.959 -2.4457  0.0224  0.6392
  864MPD2     N12688   1.074   2.362  16.518  0.8165  0.3538 -0.2018
  864MPD2    H512689   1.132   2.445  16.517  0.5032  0.6058  2.1400
  864MPD2    N112690   0.946   1.999  16.820 -0.7555  0.1338  0.1522
  864MPD2    H712691   0.936   1.978  16.919 -4.3304 -0.6436 -0.3731
  865MPD2     C12692   0.887   1.879  15.691  0.7955 -0.0807 -0.3287
  865MPD2    C112693   0.989   1.835  15.773 -0.0077  0.1521 -0.7922
  865MPD2    C212694   1.057   1.925  15.846  0.7360 -0.0959 -0.2172
  865MPD2    C312695   1.011   2.058  15.854  0.0170 -0.5907 -0.7834
  865MPD2    C412696   0.909   2.095  15.766  0.1905  0.5032 -0.3229
  865MPD2    C512697   0.852   2.009  15.682 -0.6911  0.7477 -0.0823
  865MPD2     H12698   1.137   1.891  15.911  0.3010 -2.5748 -0.9731
  865MPD2    H112699   0.869   2.195  15.775 -0.0881  0.1003  3.2186
  865MPD2    H212700   0.831   1.815  15.624  1.2929 -1.8416  0.9181
  865MPD2    H312701   0.768   2.031  15.617 -2.5008  0.4632  2.1609
  865MPD2     N12702   1.059   2.161  15.943 -0.1350  0.7015  0.0631
  865MPD2    H512703   1.009   2.249  15.943 -0.0564  0.7443  2.3187
  865MPD2    N112704   1.032   1.702  15.782  0.3728 -0.2384  0.4136
  865MPD2    H712705   1.096   1.692  15.861  1.8329 -1.2847 -0.8823
  866MPD2     C12706   2.988   2.731  11.059  0.7397  0.2791 -0.3636
  866MPD2    C112707   2.980   2.663  10.939  0.0361 -0.2920  0.0853
  866MPD2    C212708   2.881   2.707  10.847  0.2472 -0.7574  0.0976
  866MPD2    C312709   2.792   2.813  10.878  0.1181 -0.0639  0.1832
  866MPD2    C412710   2.807   2.883  10.997 -0.4834 -0.7379 -0.6787
  866MPD2    C512711   2.906   2.838  11.083 -0.5836 -0.1646  0.1094
  866MPD2     H12712   2.860   2.638  10.766  2.5577 -0.7566 -0.4906
  866MPD2    H112713   2.762   2.980  11.017 -0.6381 -1.2186  1.2612
  866MPD2    H212714   3.063   2.713  11.135  0.5594 -2.2858 -0.7745
  866MPD2    H312715   2.916   2.899  11.173  0.4230  0.6854 -0.5773
  866MPD2     N12716   2.680   2.842  10.803 -0.2652  0.0675 -0.3686
  866MPD2    H512717   2.625   2.919  10.841 -0.4385  0.0394 -0.5651
  866MPD2    N112718   3.075   2.568  10.897  0.2588 -0.5395  0.1295
  866MPD2    H712719   3.075   2.549  10.798 -0.9272  0.3620 -0.0509
  867MPD2     C12720   4.519   1.505  16.831  0.3060 -0.1447 -0.7140
  867MPD2    C112721   4.632   1.568  16.888  0.9297  0.0450  0.3948
  867MPD2    C212722   4.621   1.626  17.011  0.1960  0.0138 -0.3418
  867MPD2    C312723   4.500   1.618  17.081  0.0496  0.4247 -0.0724
  867MPD2    C412724   4.390   1.558  17.019 -0.2081  0.1116 -0.0783
  867MPD2    C512725   4.399   1.502  16.893 -0.0800 -0.1799 -0.7184
  867MPD2     H12726   4.709   1.669  17.057 -0.4242  1.2566 -0.3203
  867MPD2    H112727   4.294   1.558  17.068 -0.2335 -3.5312 -0.1741
  867MPD2    H212728   4.521   1.464  16.731 -3.3852 -1.0755 -0.4108
  867MPD2    H312729   4.313   1.468  16.836 -0.6457 -0.1297  0.1083
  867MPD2     N12730   4.481   1.668  17.213  0.2232 -0.3850  0.7252
  867MPD2    H512731   4.393   1.644  17.256 -0.3846  1.0062  0.2394
  867MPD2    N112732   0.033   1.571  16.813 -0.0914  0.3570 -0.5151
  867MPD2    H712733   0.025   1.529  16.721  1.4812 -1.1048  0.0108
  868MPD2     C12734   1.666   0.682  12.650 -0.8790  0.8453 -0.6911
  868MPD2    C112735   1.710   0.746  12.767  0.8339 -0.1783 -0.6455
  868MPD2    C212736   1.613   0.770  12.864  0.8026  0.0515 -0.0807
  868MPD2    C312737   1.482   0.732  12.854  0.2629 -0.4661 -0.4747
  868MPD2    C412738   1.443   0.669  12.732  0.9994 -0.5713  0.8163
  868MPD2    C512739   1.539   0.646  12.638  0.0363  0.0594  0.3936
  868MPD2     H12740   1.644   0.810  12.960 -0.9837 -1.3274  1.0678
  868MPD2    H112741   1.339   0.640  12.722  1.1717 -1.4044  1.4388
  868MPD2    H212742   1.729   0.663  12.564  1.1164 -2.8025  1.5777
  868MPD2    H312743   1.506   0.593  12.549  1.1385 -1.3595  0.8202
  868MPD2     N12744   1.391   0.767  12.957 -0.0427 -0.5738 -0.0097
  868MPD2    H512745   1.428   0.827  13.030 -3.6345 -1.7665  2.8011
  868MPD2    N112746   1.848   0.777  12.795  0.0831  0.4276 -0.3249
  868MPD2    H712747   1.869   0.804  12.891 -0.8079  1.2875 -0.3775
  869MPD2     C12748   3.944   3.234   1.623 -0.1476 -0.3984  0.1048
  869MPD2    C112749   4.023   3.287   1.521  0.0507  0.2807  1.0876
  869MPD2    C212750   3.957   3.346   1.414 -0.5754  0.0447  0.3080
  869MPD2    C312751   3.819   3.340   1.396  0.6961 -0.4653  0.0452
  869MPD2    C412752   3.743   3.275   1.492  0.3580 -0.4525  0.2058
  869MPD2    C512753   3.809   3.235   1.610 -0.2356  0.4470 -0.0443
  869MPD2     H12754   4.021   3.404   1.349 -2.4459 -0.0017 -1.5954
  869MPD2    H112755   3.636   3.267   1.482  0.2930  1.5521 -0.7677
  869MPD2    H212756   3.986   3.190   1.712 -0.1318 -1.2423 -0.3213
  869MPD2    H312757   3.755   3.199   1.697 -0.4595 -0.2352 -0.4648
  869MPD2     N12758   3.745   3.387   1.282 -0.0735 -0.1592  0.2738
  869MPD2    H512759   3.644   3.378   1.275  0.0407 -2.2877  1.2998
  869MPD2    N112760   4.163   3.291   1.535  0.1720  0.2421  0.0507
  869MPD2    H712761   4.193   3.245   1.620 -0.6984  0.0423  0.2563
  870MPD2     C12762   3.451   1.877   1.826  0.5887  0.5091  0.4487
  870MPD2    C112763   3.519   1.912   1.717  0.6109 -0.3772 -0.4780
  870MPD2    C212764   3.511   2.047   1.674  0.1612 -0.3690 -0.0626
  870MPD2    C312765   3.430   2.142   1.741  0.8737 -0.3159  0.2386
  870MPD2    C412766   3.359   2.096   1.850 -0.4679 -0.4465 -0.4587
  870MPD2    C512767   3.362   1.961   1.883 -0.8697 -0.0772 -0.3523
  870MPD2     H12768   3.544   2.082   1.577  1.4572 -1.2733  0.0458
  870MPD2    H112769   3.292   2.155   1.913  1.6450  1.2061  0.2278
  870MPD2    H212770   3.451   1.776   1.865 -1.1431  1.1115  1.9943
  870MPD2    H312771   3.302   1.929   1.967  1.0395  1.7043  1.6912
  870MPD2     N12772   3.433   2.270   1.696 -0.0688  0.5446  0.0079
  870MPD2    H512773   3.481   2.277   1.606 -3.3074  1.2188 -1.6524
  870MPD2    N112774   3.593   1.817   1.648  0.2019 -0.1874  0.0933
  870MPD2    H712775   3.582   1.718   1.670 -0.3122 -0.1500  0.0155
  871MPD2     C12776   3.749   2.019  16.253 -0.6328  0.4243 -0.3372
  871MPD2    C112777   3.723   1.950  16.371  0.1639  0.0212 -0.3270
  871MPD2    C212778   3.770   1.818  16.378 -0.3818  0.2566  0.5983
  871MPD2    C312779   3.826   1.750  16.268  0.9208 -0.1816  0.3286
  871MPD2    C412780   3.838   1.823  16.153 -0.2572  0.5619  0.3533
  871MPD2    C512781   3.798   1.953  16.140  0.3885  0.2274  0.0563
  871MPD2     H12782   3.759   1.771  16.474 -0.2462 -0.3888  0.2944
  871MPD2    H112783   3.879   1.777  16.064  1.8258 -2.3559  2.8566
  871MPD2    H212784   3.730   2.125  16.239  0.2734  0.7899  1.1624
  871MPD2    H312785   3.812   2.008  16.048 -0.4705  0.5944  0.1408
  871MPD2     N12786   3.862   1.614  16.286 -0.2457 -0.1058 -0.2989
  871MPD2    H512787   3.847   1.569  16.376 -0.2664  1.7052  0.5899
  871MPD2    N112788   3.699   2.026  16.487 -0.4274 -0.5849 -0.0606
  871MPD2    H712789   3.694   2.126  16.470  0.4394 -0.3685  0.9426
  872MPD2     C12790   4.362   4.554  13.625  0.0424 -0.1411 -0.1929
  872MPD2    C112791   4.350   4.680  13.675  0.0975 -0.1417 -0.3115
  872MPD2    C212792   4.219   0.002  13.697 -0.1031 -0.0832  0.5921
  872MPD2    C312793   4.105   4.646  13.673  0.3545 -0.4794  0.4571
  872MPD2    C412794   4.124   4.518  13.636  0.2638  0.4421 -0.4011
  872MPD2    C512795   4.248   4.482  13.596 -0.0406 -0.0948 -1.1454
  872MPD2     H12796   4.209   0.108  13.718  2.9605  0.0287  1.4818
  872MPD2    H112797   4.046   4.445  13.617  1.2050  0.0479 -2.6950
  872MPD2    H212798   4.459   4.510  13.601 -1.5301 -4.1050  0.7932
  872MPD2    H312799   4.257   4.385  13.549 -1.4081 -0.3579 -0.8725
  872MPD2     N12800   3.974   4.699  13.697 -0.8607 -0.5195  0.6310
  872MPD2    H512801   3.896   4.638  13.674  0.9784 -3.0479  1.0649
  872MPD2    N112802   4.455   0.050  13.705 -0.0479 -0.6699 -0.0571
  872MPD2    H712803   4.428   0.143  13.734 -0.1861  0.2634 -3.2375
  873MPD2     C12804   1.656   4.339   0.632 -0.5617 -0.2565 -0.8074
  873MPD2    C112805   1.687   4.286   0.750 -1.5029 -0.7423 -0.5053
  873MPD2    C212806   1.654   4.149   0.771 -0.1067  0.3934  0.4230
  873MPD2    C312807   1.604   4.073   0.663 -0.4914 -0.6717 -0.0785
  873MPD2    C412808   1.560   4.139   0.546 -0.2142  0.6694  0.1033
  873MPD2    C512809   1.592   4.273   0.534  0.2086  0.2404  0.2233
  873MPD2     H12810   1.665   4.115   0.873 -3.3098  0.4263  0.7920
  873MPD2    H112811   1.533   4.086   0.455 -1.9839 -0.6537  1.3859
  873MPD2    H212812   1.669   4.443   0.603 -1.3854  0.4817  1.4946
  873MPD2    H312813   1.594   4.323   0.438 -0.4049  1.5668  0.8929
  873MPD2     N12814   1.594   3.938   0.672  0.0280 -0.0298 -0.6888
  873MPD2    H512815   1.639   3.888   0.749 -2.3182 -1.7139 -0.4240
  873MPD2    N112816   1.730   4.375   0.850  0.3747  0.4530 -0.1366
  873MPD2    H712817   1.737   4.474   0.828 -0.6658 -0.0151 -2.5932
  874MPD2     C12818   0.728   4.372  15.869 -0.5606  1.2811  0.4452
  874MPD2    C112819   0.820   4.292  15.931 -0.8747  0.6431  0.1347
  874MPD2    C212820   0.950   4.337  15.921  0.3878 -0.1314 -0.0774
  874MPD2    C312821   0.993   4.449  15.847  1.1631  0.3565  0.2445
  874MPD2    C412822   0.891   4.524  15.794  0.2598 -0.0821  0.1019
  874MPD2    C512823   0.759   4.487  15.807 -1.1291  0.1774  0.0323
  874MPD2     H12824   1.024   4.274  15.967 -2.2739 -2.5816  0.8684
  874MPD2    H112825   0.910   4.612  15.733  0.1493 -2.0320 -2.7606
  874MPD2    H212826   0.622   4.351  15.880 -0.5605  0.9593 -0.1771
  874MPD2    H312827   0.680   4.547  15.763 -2.7732 -1.3340  0.9408
  874MPD2     N12828   1.131   4.482  15.852  0.2513  0.1088  0.3627
  874MPD2    H512829   1.197   4.409  15.875  2.3991  1.5189 -1.2648
  874MPD2    N112830   0.784   4.174  16.000 -0.2438 -0.1468 -0.4582
  874MPD2    H712831   0.684   4.159  15.987 -0.3152 -1.2687  1.4838
  875MPD2     C12832   2.197   2.829  14.461 -0.0883  0.5460  0.1611
  875MPD2    C112833   2.077   2.846  14.531  0.2351 -1.2103 -1.2217
  875MPD2    C212834   2.076   2.888  14.667  0.2609  0.0541 -0.4444
  875MPD2    C312835   2.198   2.923  14.717 -0.2790  0.5138 -0.2592
  875MPD2    C412836   2.312   2.902  14.649 -0.5304  0.3716 -0.7975
  875MPD2    C512837   2.312   2.846  14.524  0.3920 -0.6854  0.5133
  875MPD2     H12838   1.983   2.906  14.719  2.5022  0.2567  3.4800
  875MPD2    H112839   2.413   2.894  14.688 -0.7373 -1.4838 -0.6301
  875MPD2    H212840   2.198   2.786  14.362  0.6136  0.6727  0.1096
  875MPD2    H312841   2.404   2.826  14.470  0.7663 -3.6101  2.1837
  875MPD2     N12842   2.213   2.965  14.852  0.4352  0.2124 -0.3446
  875MPD2    H512843   2.306   2.997  14.878  2.0988 -3.3759 -1.7341
  875MPD2    N112844   1.945   2.825  14.473 -0.3103 -0.1037 -0.1430
  875MPD2    H712845   1.867   2.861  14.527 -1.8414  0.1150 -2.4822
  876MPD2     C12846   0.550   3.774  15.870 -0.2029 -0.6459  0.9572
  876MPD2    C112847   0.682   3.777  15.837  0.5274 -0.0275 -0.0454
  876MPD2    C212848   0.765   3.678  15.885  0.1241  0.0910  0.0976
  876MPD2    C312849   0.726   3.579  15.968  0.1595 -0.1305 -0.3262
  876MPD2    C412850   0.586   3.573  15.998 -0.8526 -0.4781  0.5598
  876MPD2    C512851   0.502   3.670  15.946 -0.4219 -0.1952 -0.0351
  876MPD2     H12852   0.868   3.674  15.852 -0.6611 -0.2762 -2.2818
  876MPD2    H112853   0.538   3.503  16.065 -0.8158 -0.1646  0.9170
  876MPD2    H212854   0.477   3.849  15.841 -1.6783 -1.6453  2.0714
  876MPD2    H312855   0.399   3.660  15.979 -0.5695 -0.2692 -0.5201
  876MPD2     N12856   0.819   3.476  15.994 -0.7013  0.8680 -0.8991
  876MPD2    H512857   0.910   3.473  15.949 -0.3625 -0.4239 -0.1378
  876MPD2    N112858   0.729   3.888  15.753  0.0747  0.2535 -0.7660
  876MPD2    H712859   0.654   3.947  15.717  0.3293  0.0930 -1.5538
  877MPD2     C12860   0.667   4.469  15.211  1.1788 -0.0931  0.0441
  877MPD2    C112861   0.799   4.436  15.218 -0.2162 -0.3836 -0.1321
  877MPD2    C212862   0.883   4.476  15.115  0.8083 -0.2367 -0.3370
  877MPD2    C312863   0.831   4.549  15.007  0.1457  0.4335 -0.5251
  877MPD2    C412864   0.695   4.578  15.002  0.3673 -0.3103  0.5321
  877MPD2    C512865   0.614   4.542  15.109  0.3038  0.0206  0.1895
  877MPD2     H12866   0.987   4.447  15.121  0.7591 -0.4684 -0.5845
  877MPD2    H112867   0.664   4.640  14.918 -2.2086 -1.0899  0.9193
  877MPD2    H212868   0.597   4.447  15.291  1.2716  0.6939  0.3482
  877MPD2    H312869   0.507   4.562  15.107  0.0609 -1.2005  0.9803
  877MPD2     N12870   0.913   4.576  14.895 -0.1932  0.1585 -0.6309
  877MPD2    H512871   0.864   4.572  14.806  0.0044  3.3873 -0.8866
  877MPD2    N112872   0.846   4.365  15.325  0.4036  0.1590  0.4765
  877MPD2    H712873   0.947   4.358  15.337  0.1279 -1.5934  1.8144
  878MPD2     C12874   1.053   4.507  13.290  0.4822 -0.2590  0.2952
  878MPD2    C112875   1.171   4.441  13.324 -1.0850 -0.8443 -0.7127
  878MPD2    C212876   1.164   4.350  13.433  0.3004 -0.5024 -0.2503
  878MPD2    C312877   1.039   4.336  13.502 -0.3749  0.5987  0.1646
  878MPD2    C412878   0.928   4.403  13.453  0.2235  0.2695  0.2629
  878MPD2    C512879   0.942   4.499  13.363 -0.4654 -0.2005  0.7340
  878MPD2     H12880   1.253   4.304  13.476 -1.0405 -2.4896  0.3990
  878MPD2    H112881   0.837   4.410  13.512  0.0909 -2.4819  0.3894
  878MPD2    H212882   1.052   4.578  13.208  0.5776  0.8968  1.2952
  878MPD2    H312883   0.858   4.562  13.336 -0.5532  0.6727  3.0750
  878MPD2     N12884   1.028   4.255  13.617 -0.1642  0.2975  0.0229
  878MPD2    H512885   1.104   4.194  13.643 -0.1721 -0.1001 -0.9217
  878MPD2    N112886   1.293   4.466  13.254 -0.3987  0.5331 -0.4317
  878MPD2    H712887   1.273   4.521  13.171  0.3787 -0.4245 -1.2601
  879MPD2     C12888   1.371   0.900  16.766  0.2622  0.6382 -0.0266
  879MPD2    C112889   1.444   0.809  16.848  0.7860  0.3670 -0.0973
  879MPD2    C212890   1.398   0.684  16.879  0.4109  0.6022  0.6496
  879MPD2    C312891   1.271   0.651  16.819  0.6123 -0.1685 -0.6065
  879MPD2    C412892   1.191   0.744  16.748  0.1630 -0.1216 -0.6598
  879MPD2    C512893   1.246   0.862  16.720  0.5225 -0.7529 -0.3035
  879MPD2     H12894   1.463   0.613  16.930  0.3312 -0.6153 -0.9120
  879MPD2    H112895   1.095   0.720  16.705 -0.1159 -0.9103  0.4005
  879MPD2    H212896   1.423   0.989  16.732  2.0990  0.5237  2.4927
  879MPD2    H312897   1.193   0.934  16.660 -0.7257 -0.1571  1.5129
  879MPD2     N12898   1.208   0.527  16.833  0.5438  0.8365  0.1225
  879MPD2    H512899   1.123   0.510  16.781  1.6148 -2.3075 -0.5802
  879MPD2    N112900   1.563   0.862  16.902 -0.6064 -0.0969 -0.5443
  879MPD2    H712901   1.584   0.957  16.874  0.8216  0.0281  0.9544
  880MPD2     C12902   3.398   1.798   0.249 -0.6298 -0.9515 -0.3635
  880MPD2    C112903   3.380   1.839   0.379  0.0221 -1.4133 -0.4100
  880MPD2    C212904   3.387   1.747   0.482 -0.3379  0.6553  0.2432
  880MPD2    C312905   3.414   1.616   0.456 -0.3973 -0.7727  0.2519
  880MPD2    C412906   3.443   1.577   0.326  0.2447 -0.6903 -0.2897
  880MPD2    C512907   3.426   1.664   0.221 -1.1095 -0.4799  0.0458
  880MPD2     H12908   3.369   1.780   0.584 -3.0487  0.6443 -0.2351
  880MPD2    H112909   3.468   1.474   0.302 -0.2704 -1.2586  1.5654
  880MPD2    H212910   3.402   1.876   0.174  2.6928 -2.3782 -1.6543
  880MPD2    H312911   3.428   1.635   0.117  1.0525 -0.3129  0.0510
  880MPD2     N12912   3.406   1.528   0.571  0.0853  0.3110 -0.2428
  880MPD2    H512913   3.380   1.567   0.661  1.3052  0.2839  0.1276
  880MPD2    N112914   3.351   1.976   0.407 -0.0513 -0.5661  0.2457
  880MPD2    H712915   3.342   2.034   0.324  0.3496 -0.4253  0.3027
  881MPD2     C12916   2.919   2.808   0.043  0.2230 -0.0478  0.2642
  881MPD2    C112917   2.948   2.681  17.680 -0.3866  0.4689 -0.5846
  881MPD2    C212918   3.022   2.601   0.077 -0.4191  0.0758 -0.1397
  881MPD2    C312919   3.038   2.628   0.212  0.3685  0.0641 -0.1603
  881MPD2    C412920   2.988   2.751   0.265 -0.3763 -0.1709  0.4713
  881MPD2    C512921   2.923   2.837   0.177  0.6390  0.0909 -0.5145
  881MPD2     H12922   3.063   2.505   0.046 -2.2805 -0.7022 -0.2093
  881MPD2    H112923   2.989   2.763   0.373 -1.2422  0.6138  0.3955
  881MPD2    H212924   2.863   2.877  17.667 -0.1605 -1.2308 -0.7238
  881MPD2    H312925   2.892   2.933   0.216 -1.0872 -0.3828 -0.7087
  881MPD2     N12926   3.093   2.546   0.307  0.0141 -0.5778 -0.0654
  881MPD2    H512927   3.126   2.583   0.395  0.0948  1.3393 -0.8937
  881MPD2    N112928   2.937   2.653  17.535 -0.0471  0.0801 -0.6477
  881MPD2    H712929   2.898   2.729  17.479  0.5216 -0.7944 -2.2287
  882MPD2     C12930   1.185   4.528  14.099  0.0588  0.3356  0.4837
  882MPD2    C112931   1.085   4.547  14.185  0.7305  1.3885  0.4864
  882MPD2    C212932   0.954   4.552  14.144  0.1905  0.2874 -0.5986
  882MPD2    C312933   0.925   4.544  14.009 -0.6945  0.1694  0.7621
  882MPD2    C412934   1.032   4.512  13.917 -0.2195  0.4970  0.3466
  882MPD2    C512935   1.161   4.495  13.963 -0.5520 -0.7084  0.0334
  882MPD2     H12936   0.874   4.563  14.216  0.9590 -0.6481  0.4044
  882MPD2    H112937   1.016   4.504  13.810  3.6845 -0.7609 -0.1298
  882MPD2    H212938   1.287   4.530  14.135  0.7028  0.6470 -1.4180
  882MPD2    H312939   1.240   4.489  13.889 -0.1541  3.3548  0.1301
  882MPD2     N12940   0.796   4.559  13.958  0.0556 -0.0769 -0.0274
  882MPD2    H512941   0.782   4.516  13.868 -0.3920 -0.2684  0.1317
  882MPD2    N112942   1.125   4.545  14.321 -0.1272 -0.2554  0.5771
  882MPD2    H712943   1.222   4.525  14.345  0.2999 -0.7115 -1.5620
  883MPD2     C12944   3.245   4.575  16.504 -0.0302  0.0352 -0.8134
  883MPD2    C112945   3.320   4.595  16.391  0.4830  0.0519  0.4331
  883MPD2    C212946   3.456   4.605  16.401 -0.1416 -0.5263  0.0310
  883MPD2    C312947   3.521   4.613  16.520 -0.6564 -0.1107  0.4723
  883MPD2    C412948   3.439   4.607  16.634 -0.1521 -0.3869  0.9530
  883MPD2    C512949   3.304   4.577  16.629 -0.2721  0.2364  0.3947
  883MPD2     H12950   3.523   4.620  16.317 -0.3381 -1.3023 -0.2607
  883MPD2    H112951   3.481   4.612  16.734  0.3650 -1.2805  0.7810
  883MPD2    H212952   3.137   4.571  16.505  0.0993 -3.2513 -1.5620
  883MPD2    H312953   3.253   4.572  16.725 -0.5210 -0.6291  0.2136
  883MPD2     N12954   3.662   4.621  16.532  0.1271  0.5068 -0.1011
  883MPD2    H512955   3.714   4.609  16.446  1.3890 -0.9922  0.8700
  883MPD2    N112956   3.262   4.589  16.259 -0.0264  0.5693  0.3287
  883MPD2    H712957   3.332   4.591  16.186 -0.1852 -0.8157  0.1294
  884MPD2     C12958   0.527   0.206  15.042 -0.2359  0.9003 -0.2442
  884MPD2    C112959   0.546   0.339  15.006  0.5620 -0.5489 -0.1030
  884MPD2    C212960   0.433   0.415  14.980 -1.0163  0.0003  0.2413
  884MPD2    C312961   0.308   0.375  14.987 -0.6032  1.2096 -0.2542
  884MPD2    C412962   0.289   0.248  15.028 -0.0572  0.3607  0.4433
  884MPD2    C512963   0.394   0.163  15.051 -0.3662  0.0324 -0.9253
  884MPD2     H12964   0.443   0.522  14.962  2.4828 -0.5279 -0.9298
  884MPD2    H112965   0.191   0.202  15.036 -1.2527  2.8678  0.1615
  884MPD2    H212966   0.607   0.142  15.077 -2.8251 -1.7014  0.9626
  884MPD2    H312967   0.369   0.061  15.077 -2.4152  0.5148 -0.9951
  884MPD2     N12968   0.213   0.479  14.968 -0.1397 -0.4806  0.4687
  884MPD2    H512969   0.242   0.576  14.974  2.1006 -1.0412 -1.0451
  884MPD2    N112970   0.667   0.405  14.984  0.6806  0.3897  0.8047
  884MPD2    H712971   0.655   0.504  14.970  0.4963  0.1064 -1.0401
  885MPD2     C12972   3.281   0.070  17.392 -0.4421 -0.0336 -0.1956
  885MPD2    C112973   3.344   0.189  17.427  0.9121  0.9579 -0.0891
  885MPD2    C212974   3.347   0.296  17.340 -0.7616 -0.6098 -0.2574
  885MPD2    C312975   3.275   0.290  17.225  0.4057 -0.6520 -0.2657
  885MPD2    C412976   3.206   0.181  17.197 -0.7091  0.4705  0.5699
  885MPD2    C512977   3.209   0.071  17.281  0.6846  0.1218 -0.1862
  885MPD2     H12978   3.398   0.388  17.367 -3.3458  0.4230  1.0879
  885MPD2    H112979   3.159   0.164  17.101 -2.1989 -1.9558  1.7393
  885MPD2    H212980   3.277   4.704  17.458 -2.5233  1.0273  1.0662
  885MPD2    H312981   3.148   4.706  17.253  1.0645 -0.3013  0.2930
  885MPD2     N12982   3.280   0.402  17.140  0.4828 -0.2607  0.2371
  885MPD2    H512983   3.341   0.477  17.170 -0.6916 -0.2879  2.6787
  885MPD2    N112984   3.414   0.197  17.552 -0.5256 -0.0322  0.3323
  885MPD2    H712985   3.422   0.111  17.605 -0.2041  0.8216  1.6504
  886MPD2     C12986   4.116   3.791  15.198 -0.2982  0.1355  0.2237
  886MPD2    C112987   4.197   3.873  15.276  0.7163 -0.2568  0.3409
  886MPD2    C212988   4.231   4.001  15.227  0.1385  0.7740  0.0046
  886MPD2    C312989   4.175   4.060  15.115  0.5261 -0.1335 -0.0154
  886MPD2    C412990   4.079   3.983  15.055  0.3267 -0.8356 -0.6369
  886MPD2    C512991   4.055   3.853  15.095  0.6538  0.0161 -0.0645
  886MPD2     H12992   4.299   4.061  15.287 -0.7293  1.3869  0.3722
  886MPD2    H112993   4.038   4.031  14.967 -1.7505 -1.6405 -0.1214
  886MPD2    H212994   4.086   3.688  15.216 -1.4661  0.0468 -2.3079
  886MPD2    H312995   3.971   3.798  15.054  0.5108  0.3586 -0.2260
  886MPD2     N12996   4.215   4.188  15.058 -0.7548  0.0085 -0.2481
  886MPD2    H512997   4.156   4.228  14.986 -0.9953  0.7086  0.3388
  886MPD2    N112998   4.256   3.823  15.401 -0.5579 -0.4535 -0.0106
  886MPD2    H712999   4.323   3.889  15.440 -2.3957 -0.1050  2.5782
  887MPD2     C13000   0.141   3.809  15.986 -0.2010  0.2585 -0.6373
  887MPD2    C113001   0.074   3.854  15.876 -0.4335  0.5598  0.4116
  887MPD2    C213002   0.123   3.970  15.827 -0.0926  0.4617 -0.4551
  887MPD2    C313003   0.214   4.048  15.890  0.4807  0.2666 -0.7007
  887MPD2    C413004   0.269   4.011  16.011  0.2457  0.1189 -0.1218
  887MPD2    C513005   0.229   3.891  16.059  0.3434 -0.0642  0.0806
  887MPD2     H13006   0.086   4.001  15.729  1.7827  0.1601 -1.2567
  887MPD2    H113007   0.335   4.074  16.070 -1.4425  2.2121 -0.4535
  887MPD2    H213008   0.103   3.719  16.033  1.6146 -0.1054  0.1117
  887MPD2    H313009   0.278   3.856  16.149 -1.4301  0.5852  1.2852
  887MPD2     N13010   0.230   4.172  15.838 -0.3231  0.0503 -0.1887
  887MPD2    H513011   0.167   4.187  15.759 -0.1841  3.3160  0.2944
  887MPD2    N113012   4.691   3.773  15.828  0.2348  0.2119 -0.1429
  887MPD2    H713013   4.663   3.695  15.887  1.3595 -0.2532 -0.2304
  888MPD2     C13014   2.168   3.993  15.069  0.2862 -0.1489  0.1508
  888MPD2    C113015   2.141   4.086  15.165  0.6041 -0.8182 -0.1978
  888MPD2    C213016   2.177   4.216  15.120 -0.6382 -0.1721 -0.2249
  888MPD2    C313017   2.212   4.252  14.994  0.4843  0.1292 -0.1487
  888MPD2    C413018   2.210   4.155  14.900 -0.0030 -0.2064  0.3216
  888MPD2    C513019   2.182   4.025  14.938  0.1261 -0.0387 -0.8064
  888MPD2     H13020   2.171   4.298  15.191  1.8241 -0.9861  0.9083
  888MPD2    H113021   2.231   4.171  14.794 -1.3562  2.8520  0.5277
  888MPD2    H213022   2.146   3.890  15.096  1.6463 -0.0244  1.7525
  888MPD2    H313023   2.190   3.946  14.864 -0.2176  0.3293 -1.2394
  888MPD2     N13024   2.270   4.386  14.976  0.2040 -0.0656  0.0151
  888MPD2    H513025   2.281   4.443  15.059  2.0435 -2.0136  1.0877
  888MPD2    N113026   2.087   4.069  15.294  0.7038  0.3739  0.1514
  888MPD2    H713027   2.073   4.151  15.353 -1.3400 -0.5413  0.9461
  889MPD2     C13028   2.168   4.170  12.708  0.0905  0.1667 -0.6784
  889MPD2    C113029   2.136   4.107  12.823 -0.2640 -0.4361 -0.1562
  889MPD2    C213030   2.051   4.174  12.909  0.3020 -0.1536  0.3239
  889MPD2    C313031   2.024   4.306  12.903  0.4143  0.3531 -0.7164
  889MPD2    C413032   2.059   4.364  12.785  0.0954  0.3666 -0.5331
  889MPD2    C513033   2.122   4.297  12.686 -0.5403  0.6428 -0.0830
  889MPD2     H13034   2.018   4.119  12.997  0.4988  3.5831  2.7264
  889MPD2    H113035   2.039   4.469  12.772 -0.1893  0.6180  1.9587
  889MPD2    H213036   2.207   4.123  12.619  1.4967  1.4641 -0.7495
  889MPD2    H313037   2.166   4.344  12.599 -2.0720  0.4803 -0.9380
  889MPD2     N13038   1.948   4.366  13.005  0.1949 -0.4590 -0.3849
  889MPD2    H513039   1.916   4.296  13.071  1.0890 -1.7524 -1.3059
  889MPD2    N113040   2.155   3.965  12.838 -0.1517  0.0775  0.0365
  889MPD2    H713041   2.116   3.914  12.916  2.4950 -2.1675 -0.1004
  890MPD2     C13042   1.095   0.396  14.645 -0.4352  0.0493  0.5961
  890MPD2    C113043   1.206   0.420  14.721  0.6873 -0.3486 -0.1997
  890MPD2    C213044   1.222   0.356  14.844  0.4417  0.2784  0.3863
  890MPD2    C313045   1.139   0.255  14.877  0.2175  0.8925  0.1805
  890MPD2    C413046   1.038   0.223  14.789 -0.4053  0.3056  0.3680
  890MPD2    C513047   1.008   0.298  14.681  0.4160  0.4319  0.5105
  890MPD2     H13048   1.315   0.366  14.898  0.5457  1.0673  0.0664
  890MPD2    H113049   0.971   0.140  14.805  0.8415 -0.6317  0.7975
  890MPD2    H213050   1.078   0.436  14.546  2.0514 -0.1281  0.1051
  890MPD2    H313051   0.920   0.271  14.623 -0.0629  2.4768  0.2778
  890MPD2     N13052   1.153   0.167  14.992 -0.5225  0.7901 -0.5029
  890MPD2    H513053   1.081   0.096  15.000  0.8413 -0.5888 -0.4468
  890MPD2    N113054   1.300   0.528  14.676 -0.2047  0.1846  0.8411
  890MPD2    H713055   1.272   0.581  14.595  0.8244 -1.0597 -0.3459
  891MPD2     C13056   3.751   3.165  17.071  0.6851 -0.2294 -0.0356
  891MPD2    C113057   3.829   3.269  17.027  0.4408  0.0556 -0.0183
  891MPD2    C213058   3.962   3.278  17.072 -0.0802 -0.1940 -0.4195
  891MPD2    C313059   4.015   3.179  17.150  0.3552  0.0763  0.3628
  891MPD2    C413060   3.939   3.071  17.190 -0.4837  0.7475 -0.4647
  891MPD2    C513061   3.810   3.080  17.160  0.1618 -0.0919 -0.3999
  891MPD2     H13062   4.024   3.361  17.039  0.1126 -0.6851 -1.3014
  891MPD2    H113063   3.986   2.984  17.235  0.2891  1.0109 -0.7660
  891MPD2    H213064   3.649   3.146  17.040  0.2760 -1.6408  2.1190
  891MPD2    H313065   3.747   2.997  17.191  0.2275  0.1915  0.4728
  891MPD2     N13066   4.146   3.190  17.192 -0.0224 -0.4145  0.6760
  891MPD2    H513067   4.198   3.253  17.131  1.4877  0.6731  3.0814
  891MPD2    N113068   3.763   3.365  16.942 -0.7827 -0.0099  0.8598
  891MPD2    H713069   3.663   3.352  16.940 -0.5705 -1.6031  0.3288
  892MPD2     C13070   0.154   0.113  14.647 -0.7776  0.2022 -0.1867
  892MPD2    C113071   0.074   0.101  14.534 -0.2944  0.0077  0.1658
  892MPD2    C213072   0.124   0.031  14.422  0.0537 -0.5273  0.6909
  892MPD2    C313073   0.261   0.006  14.420 -0.6081  0.0262 -0.5553
  892MPD2    C413074   0.337   0.026  14.535 -0.2831 -0.0304 -0.2974
  892MPD2    C513075   0.283   0.061  14.647 -0.2779 -0.7642  0.5435
  892MPD2     H13076   0.074   0.029  14.327  1.9085  1.0894 -0.3243
  892MPD2    H113077   0.440   4.713  14.535 -0.6251 -1.1091 -1.4409
  892MPD2    H213078   0.124   0.161  14.740  0.1861  0.6787 -0.1328
  892MPD2    H313079   0.341   0.064  14.739 -0.6797  0.1531  0.7758
  892MPD2     N13080   0.325   4.674  14.307 -0.4065 -0.0867  0.3863
  892MPD2    H513081   0.421   4.642  14.317 -0.7630 -1.3687 -0.2746
  892MPD2    N113082   4.672   0.149  14.520  0.2475  0.2974  0.2338
  892MPD2    H713083   4.636   0.141  14.426 -1.1945  0.4050  0.7746
  893MPD2     C13084   4.385   1.996   1.867 -0.0156 -0.0015  0.0066
  893MPD2    C113085   4.259   1.990   1.816 -0.2280 -0.1007 -0.0449
  893MPD2    C213086   4.199   1.865   1.806  0.6035  0.1984  0.0610
  893MPD2    C313087   4.277   1.751   1.836  0.0124 -0.0524  0.1355
  893MPD2    C413088   4.400   1.758   1.895 -0.6965 -0.8196  0.0703
  893MPD2    C513089   4.455   1.886   1.905 -0.0847  0.1449  0.2039
  893MPD2     H13090   4.108   1.853   1.749 -0.3113  2.1329  1.1263
  893MPD2    H113091   4.458   1.673   1.927  0.1003 -0.1991  0.2948
  893MPD2    H213092   4.436   2.091   1.877  0.1239 -0.1937  1.0497
  893MPD2    H313093   4.553   1.896   1.952  1.1706  0.0912 -2.3951
  893MPD2     N13094   4.215   1.629   1.817  0.2878  0.2719 -0.5125
  893MPD2    H513095   4.281   1.551   1.817  1.5638  1.3508 -1.6441
  893MPD2    N113096   4.192   2.108   1.768 -0.4162  0.3634 -0.7492
  893MPD2    H713097   4.237   2.197   1.786  1.4936 -0.1952 -2.7952
  894MPD2     C13098   0.696   0.927   1.237  0.2938  0.5564 -0.1803
  894MPD2    C113099   0.797   0.906   1.336 -0.2323 -0.0450  0.1246
  894MPD2    C213100   0.911   0.977   1.327  0.4158  0.2567 -0.6140
  894MPD2    C313101   0.934   1.070   1.223 -0.8147 -0.0017  0.3309
  894MPD2    C413102   0.842   1.081   1.122 -0.3728  0.3183  0.0731
  894MPD2    C513103   0.721   1.019   1.134  0.1852 -0.0184 -0.6619
  894MPD2     H13104   0.996   0.956   1.392  0.5426 -1.9339 -1.5122
  894MPD2    H113105   0.848   1.138   1.030  1.2911  0.2466  0.1299
  894MPD2    H213106   0.604   0.871   1.246  0.2222  0.5325 -1.0852
  894MPD2    H313107   0.645   1.013   1.057  0.2036 -0.4239 -0.6531
  894MPD2     N13108   1.050   1.152   1.228  0.5514 -0.4735 -0.3687
  894MPD2    H513109   1.102   1.162   1.315  1.8569 -0.4286 -1.1562
  894MPD2    N113110   0.772   0.828   1.451 -0.1956 -0.2595  0.1634
  894MPD2    H713111   0.835   0.851   1.527  0.8233 -2.9827  0.1520
  895MPD2     C13112   4.256   4.265  13.261 -0.2872 -0.4452  0.0554
  895MPD2    C113113   4.199   4.173  13.174  0.1133  0.8463 -0.1989
  895MPD2    C213114   4.270   4.062  13.131  0.6136  0.4208  0.1877
  895MPD2    C313115   4.390   4.026  13.186  0.4693  0.4923 -0.8548
  895MPD2    C413116   4.440   4.120  13.277  1.1390 -0.8172 -0.3917
  895MPD2    C513117   4.381   4.237  13.315  0.5199  0.8507 -0.0871
  895MPD2     H13118   4.223   3.995  13.060  2.3268 -0.6444  0.0811
  895MPD2    H113119   4.533   4.095  13.326  0.3327 -2.6187  0.2598
  895MPD2    H213120   4.199   4.348  13.303 -0.1566 -0.5778  0.4947
  895MPD2    H313121   4.419   4.300  13.395  1.3830  2.5304 -1.8304
  895MPD2     N13122   4.451   3.903  13.147 -0.1277  0.2525 -0.2825
  895MPD2    H513123   4.409   3.841  13.079 -2.1464  1.8548 -0.4738
  895MPD2    N113124   4.075   4.198  13.107  0.0858 -0.1102  0.2582
  895MPD2    H713125   4.052   4.121  13.045  2.3170 -0.1633 -0.5316
  896MPD2     C13126   2.649   1.723   1.138  0.1711  0.4191 -1.0641
  896MPD2    C113127   2.598   1.597   1.134  0.0616 -0.1465 -0.0273
  896MPD2    C213128   2.463   1.578   1.155 -0.0528  0.3754  0.3623
  896MPD2    C313129   2.384   1.686   1.181 -0.1784 -0.4268 -0.1775
  896MPD2    C413130   2.435   1.811   1.175 -0.0753  0.0474 -0.0030
  896MPD2    C513131   2.570   1.831   1.151  0.2457 -0.4809  0.2614
  896MPD2     H13132   2.421   1.479   1.174  0.3400  0.0906 -0.2380
  896MPD2    H113133   2.366   1.892   1.196  0.6060  0.2977  1.2569
  896MPD2    H213134   2.757   1.737   1.140  0.1202  0.6073  0.1932
  896MPD2    H313135   2.626   1.924   1.154 -1.0787  0.3229  0.1144
  896MPD2     N13136   2.249   1.667   1.211 -0.2603 -0.3160 -0.2711
  896MPD2    H513137   2.204   1.580   1.185  0.3480 -0.4073 -1.0191
  896MPD2    N113138   2.687   1.493   1.126  0.0489  0.6753  0.0148
  896MPD2    H713139   2.785   1.518   1.121 -0.1280  1.2566 -0.4906
  897MPD2     C13140   3.255   3.680  10.462  0.0416 -0.4505  0.4453
  897MPD2    C113141   3.142   3.678  10.391 -0.0340 -0.5341  0.1228
  897MPD2    C213142   3.040   3.587  10.413  0.0463  0.7570 -0.1784
  897MPD2    C313143   3.046   3.507  10.524  0.2299  0.0376 -0.1921
  897MPD2    C413144   3.155   3.516  10.607 -0.0471 -0.0905  0.3990
  897MPD2    C513145   3.257   3.598  10.568  0.4640  0.3564 -0.7261
  897MPD2     H13146   2.946   3.603  10.361  1.1324  0.2331 -2.3004
  897MPD2    H113147   3.159   3.459  10.699 -0.9497  0.1033  0.5655
  897MPD2    H213148   3.343   3.734  10.428  0.9725  0.0964  3.6962
  897MPD2    H313149   3.350   3.588  10.623 -0.4112  0.3636  0.7655
  897MPD2     N13150   2.950   3.406  10.537  0.4700 -0.7690  0.3323
  897MPD2    H513151   2.965   3.358  10.625  0.9266 -0.9986  0.1307
  897MPD2    N113152   3.138   3.765  10.279  0.0621 -0.2129  0.0777
  897MPD2    H713153   3.212   3.835  10.272  0.0258 -0.4468 -2.6371
  898MPD2     C13154   0.070   3.919  17.660  0.3316  0.4716 -0.4430
  898MPD2    C113155   0.178   3.993  17.605 -0.3830  0.6274 -0.6246
  898MPD2    C213156   0.144   4.089  17.514 -0.0491  0.6902  0.1260
  898MPD2    C313157   0.014   4.120  17.481 -0.2028 -0.2788 -0.0785
  898MPD2    C413158   4.631   4.057  17.540 -0.0933  0.0301  0.2687
  898MPD2    C513159   4.661   3.952  17.625  0.5956  0.2679 -0.9632
  898MPD2     H13160   0.226   4.132  17.457  1.8673 -0.7334  1.7715
  898MPD2    H113161   4.527   4.085  17.532 -0.7098 -2.7277 -1.0902
  898MPD2    H213162   0.079   3.830   0.036  1.1299 -0.9269 -2.5858
  898MPD2    H313163   4.574   3.897  17.658  0.4901  0.9552 -0.0773
  898MPD2     N13164   4.720   4.218  17.383 -0.7202 -0.1843  0.3767
  898MPD2    H513165   0.085   4.253  17.341  1.0112 -1.7060  2.5902
  898MPD2    N113166   0.314   3.974  17.628 -0.6525  0.2063  0.0096
  898MPD2    H713167   0.382   4.023  17.572 -2.2168 -0.1839 -2.2638
  899MPD2     C13168   0.721   0.076  17.039 -0.1657 -0.1228 -0.1879
  899MPD2    C113169   0.804   0.164  17.105  0.1368 -0.0640  0.0765
  899MPD2    C213170   0.840   0.137  17.232 -0.6713  0.9183 -0.4694
  899MPD2    C313171   0.787   0.025  17.297 -0.2750  0.7223  0.1624
  899MPD2    C413172   0.706   4.659  17.231  0.4650 -0.7450  0.3296
  899MPD2    C513173   0.662   4.690  17.105 -0.4485 -0.6788 -0.4067
  899MPD2     H13174   0.900   0.200  17.296 -2.0804 -0.8844  2.6300
  899MPD2    H113175   0.659   4.576  17.283  1.1359 -0.8725  0.7346
  899MPD2    H213176   0.688   0.096  16.938  1.1910  0.8266 -0.4447
  899MPD2    H313177   0.594   4.621  17.056 -1.9295  0.0467  0.5969
  899MPD2     N13178   0.818   4.716  17.429 -0.3863 -0.0989 -0.5879
  899MPD2    H513179   0.757   4.647  17.471  2.4544 -2.5622 -0.5332
  899MPD2    N113180   0.832   0.289  17.037  0.1955  0.2981 -0.2280
  899MPD2    H713181   0.780   0.319  16.955  0.6528 -2.6922 -1.6255
  900MPD2     C13182   0.848   2.034  12.331 -0.3145 -0.6796 -0.1715
  900MPD2    C113183   0.752   1.946  12.286 -0.2940  0.6769 -0.9015
  900MPD2    C213184   0.648   2.002  12.214 -0.2302  0.1855  0.2824
  900MPD2    C313185   0.641   2.141  12.188 -0.1292  0.4810 -0.4879
  900MPD2    C413186   0.738   2.223  12.235 -0.6251  0.0652 -0.5527
  900MPD2    C513187   0.836   2.162  12.308 -0.1755 -0.7004 -0.1283
  900MPD2     H13188   0.572   1.939  12.169  1.1365  0.5419 -2.5552
  900MPD2    H113189   0.742   2.329  12.209  0.0410  0.2792  0.4334
  900MPD2    H213190   0.939   2.000  12.378  0.1288  0.3001 -0.3113
  900MPD2    H313191   0.912   2.235  12.332 -2.1327  0.9661  1.0336
  900MPD2     N13192   0.525   2.183  12.125 -0.1296  0.1758 -0.8051
  900MPD2    H513193   0.470   2.103  12.093  0.1096 -0.8000  1.1795
  900MPD2    N113194   0.763   1.804  12.324  0.4807 -0.7035 -0.1357
  900MPD2    H713195   0.844   1.778  12.379  0.2046 -0.4342  0.4023
  901MPD2     C13196   0.319   0.797  12.505 -0.2516  0.4394 -0.0910
  901MPD2    C113197   0.442   0.805  12.561 -0.2331 -0.3262 -0.0393
  901MPD2    C213198   0.508   0.928  12.562  0.2735 -0.3373 -0.5336
  901MPD2    C313199   0.450   1.045  12.507  1.4224  0.1895 -0.4063
  901MPD2    C413200   0.317   1.036  12.472  0.3586  0.8053 -0.1907
  901MPD2    C513201   0.259   0.912  12.472 -0.3444 -0.0515  0.0069
  901MPD2     H13202   0.613   0.931  12.586  0.2709  0.2367 -0.5944
  901MPD2    H113203   0.246   1.109  12.435  1.2285  1.8789  0.2431
  901MPD2    H213204   0.270   0.701  12.505 -0.1167  0.3749 -0.9850
  901MPD2    H313205   0.159   0.897  12.434 -1.1459  0.3419  1.9450
  901MPD2     N13206   0.530   1.160  12.491  0.1540 -0.1061 -0.1832
  901MPD2    H513207   0.628   1.137  12.503  0.4990  1.2613 -0.3581
  901MPD2    N113208   0.497   0.686  12.617  0.1709  0.5662  0.4244
  901MPD2    H713209   0.452   0.601  12.588  1.1242  0.0151  0.5567
  902MPD2     C13210   3.741   4.583  12.826 -0.1014  0.3007  0.5809
  902MPD2    C113211   3.662   4.610  12.717  0.0964 -0.4175 -0.1440
  902MPD2    C213212   3.727   4.585  12.599  0.3905  0.2288  0.5170
  902MPD2    C313213   3.858   4.550  12.586 -0.1605  0.4564  0.5691
  902MPD2    C413214   3.925   4.522  12.706 -0.1106 -0.1379  0.2007
  902MPD2    C513215   3.870   4.533  12.827 -0.4416 -0.7402  0.2537
  902MPD2     H13216   3.672   4.606  12.508  0.5954  1.8462  0.7619
  902MPD2    H113217   4.030   4.494  12.703 -0.6554 -2.5036  2.4108
  902MPD2    H213218   3.714   4.610  12.927 -1.3081  3.0093 -0.4700
  902MPD2    H313219   3.915   4.502  12.920  2.9072  3.5703  0.0525
  902MPD2     N13220   3.923   4.531  12.459  0.3062 -0.2454 -0.1622
  902MPD2    H513221   4.015   4.489  12.463  0.1603 -0.6736 -1.2758
  902MPD2    N113222   3.545   4.684  12.724 -0.2956  0.5258 -0.1688
  902MPD2    H713223   3.517   4.719  12.815 -1.0476 -0.6572  0.0593
  903MPD2     C13224   4.023   4.437  11.527  0.2439 -0.7265 -0.1973
  903MPD2    C113225   3.990   4.540  11.616  0.8133  0.0588 -0.0815
  903MPD2    C213226   3.922   4.648  11.563 -0.3560  0.4387  0.2372
  903MPD2    C313227   3.896   4.658  11.425  0.3478 -0.2161  1.0888
  903MPD2    C413228   3.926   4.547  11.345  0.9209  0.0624 -0.4607
  903MPD2    C513229   3.982   4.441  11.396  0.8356 -0.5843 -0.8095
  903MPD2     H13230   3.890   0.005  11.630 -1.4011  1.9179 -1.9811
  903MPD2    H113231   3.918   4.549  11.237 -0.4832 -1.1978 -0.3780
  903MPD2    H213232   4.068   4.345  11.564  1.3023 -0.3238 -0.4752
  903MPD2    H313233   4.002   4.357  11.330  1.1445 -0.7538 -0.4985
  903MPD2     N13234   3.831   0.048  11.378 -0.2878 -0.1780 -0.8119
  903MPD2    H513235   3.812   0.115  11.452 -1.7064  2.2611 -3.3837
  903MPD2    N113236   4.011   4.519  11.753  0.1923 -0.1532  0.5536
  903MPD2    H713237   4.044   4.428  11.786  0.6892 -0.6403 -1.2969
  904MPD2     C13238   3.983   3.539  13.209 -0.1879 -0.6797 -0.0695
  904MPD2    C113239   3.947   3.497  13.334  0.3037 -0.1146 -0.2190
  904MPD2    C213240   4.021   3.520  13.444 -0.4060  0.9486  0.4111
  904MPD2    C313241   4.140   3.590  13.429  0.1119 -0.4854 -0.1529
  904MPD2    C413242   4.178   3.631  13.300 -0.2344 -0.2492  0.6642
  904MPD2    C513243   4.090   3.611  13.192 -0.1966  0.5517 -0.2890
  904MPD2     H13244   3.996   3.483  13.542 -1.2285 -1.9413 -0.8934
  904MPD2    H113245   4.271   3.681  13.278 -0.3677  1.0828  3.1228
  904MPD2    H213246   3.924   3.509  13.123 -1.0330  0.8278 -0.0115
  904MPD2    H313247   4.119   3.647  13.094 -0.4547  2.9248  0.5119
  904MPD2     N13248   4.228   3.592  13.539  0.1761  0.1353  0.7592
  904MPD2    H513249   4.186   3.565  13.628  1.0327  1.7156  1.6403
  904MPD2    N113250   3.824   3.428  13.361 -0.4913  0.0667  0.6020
  904MPD2    H713251   3.808   3.385  13.451  1.7239  1.0244  1.4658
  905MPD2     C13252   3.959   3.301  12.819  0.7171  0.7721 -0.1808
  905MPD2    C113253   3.964   3.428  12.861  0.1455 -0.5123  0.3394
  905MPD2    C213254   4.084   3.490  12.866  0.2539 -0.2003  0.0709
  905MPD2    C313255   4.198   3.434  12.822  0.0485 -0.7786 -0.8686
  905MPD2    C413256   4.194   3.310  12.777  0.5052  0.0198 -0.2300
  905MPD2    C513257   4.079   3.239  12.788  0.0707 -0.4571 -0.1405
  905MPD2     H13258   4.086   3.591  12.907  2.0359 -0.3105  0.2378
  905MPD2    H113259   4.282   3.258  12.741 -1.2742 -1.7530 -2.0349
  905MPD2    H213260   3.866   3.246  12.811  0.4289  1.1146  0.7578
  905MPD2    H313261   4.078   3.133  12.768  1.8179 -0.6121  0.6355
  905MPD2     N13262   4.334   3.478  12.834  0.2289 -0.0481 -0.6979
  905MPD2    H513263   4.409   3.415  12.808 -0.3199 -0.8064 -0.4298
  905MPD2    N113264   3.836   3.494  12.877 -0.1651  0.5605 -0.3084
  905MPD2    H713265   3.750   3.441  12.873  0.1848  0.0228 -0.6380
  906MPD2     C13266   1.709   3.797  10.660 -0.0399 -0.4234  0.1448
  906MPD2    C113267   1.656   3.684  10.605  0.2831 -0.6851 -0.1941
  906MPD2    C213268   1.629   3.577  10.691 -0.0188  0.5510  0.1832
  906MPD2    C313269   1.666   3.582  10.824  0.5465 -0.0973  0.3323
  906MPD2    C413270   1.699   3.705  10.883  0.2295  0.1675 -0.5055
  906MPD2    C513271   1.735   3.798  10.795  0.2387 -0.1085 -0.7796
  906MPD2     H13272   1.589   3.486  10.647 -2.4546  1.0414  1.3924
  906MPD2    H113273   1.739   3.709  10.984  1.5105  2.8708 -1.1230
  906MPD2    H213274   1.724   3.891  10.608  0.1208  0.4571  1.7815
  906MPD2    H313275   1.778   3.887  10.839  0.7697 -1.5549  1.6510
  906MPD2     N13276   1.672   3.467  10.908 -0.3798 -0.2441 -0.0473
  906MPD2    H513277   1.720   3.467  10.997 -0.8115  1.1383  0.2024
  906MPD2    N113278   1.644   3.661  10.463  0.1696 -0.6805  0.7437
  906MPD2    H713279   1.596   3.577  10.433 -0.4212 -0.7684  1.9438
  907MPD2     C13280   0.006   2.887  15.185 -0.4564 -0.0412 -0.1890
  907MPD2    C113281   0.087   2.774  15.185  0.1445 -0.1433  0.0129
  907MPD2    C213282   0.196   2.769  15.271 -0.5157 -0.0194 -0.0318
  907MPD2    C313283   0.226   2.876  15.349  0.0695  0.2237  0.1916
  907MPD2    C413284   0.153   2.994  15.353  0.1446  0.1860  0.6748
  907MPD2    C513285   0.036   2.993  15.274 -0.2837  0.0209 -0.4907
  907MPD2     H13286   0.262   2.684  15.268 -0.8441 -0.2563 -0.4978
  907MPD2    H113287   0.164   3.073  15.426 -1.0962  3.0889 -2.2795
  907MPD2    H213288   4.640   2.902  15.122 -0.7832 -1.6936 -0.1251
  907MPD2    H313289   4.685   3.074  15.285 -0.1560 -0.2041  2.1388
  907MPD2     N13290   0.332   2.852  15.441  0.2571  0.2369  0.0683
  907MPD2    H513291   0.370   2.758  15.444 -2.6050 -0.9113 -0.2491
  907MPD2    N113292   0.086   2.673  15.083  0.0570  0.8439  0.0525
  907MPD2    H713293   0.160   2.604  15.094  0.0787  0.8321 -0.1775
  908MPD2     C13294   3.156   3.511   9.307  0.3030 -0.1322 -0.3192
  908MPD2    C113295   3.039   3.533   9.371  0.4178  0.0193 -0.2016
  908MPD2    C213296   3.036   3.597   9.495  0.7190  1.1246 -0.1929
  908MPD2    C313297   3.158   3.643   9.553  0.0554  0.4159 -0.2869
  908MPD2    C413298   3.276   3.616   9.483 -0.7583 -0.8521 -0.2021
  908MPD2    C513299   3.274   3.554   9.360 -0.3913 -0.2810 -0.3705
  908MPD2     H13300   2.940   3.613   9.544 -0.7028  1.2581 -3.0045
  908MPD2    H113301   3.374   3.642   9.520 -0.9397 -1.0044  0.3968
  908MPD2    H213302   3.166   3.459   9.213  2.9779  2.8625 -1.6895
  908MPD2    H313303   3.368   3.532   9.311  0.0893  2.7712 -0.8311
  908MPD2     N13304   3.144   3.711   9.683  0.3872  0.4455 -0.3924
  908MPD2    H513305   3.050   3.718   9.720  0.5252  2.2264 -0.3499
  908MPD2    N113306   2.921   3.480   9.312  0.2964  0.0924 -0.5009
  908MPD2    H713307   2.929   3.415   9.235  0.6010  0.1469 -0.5132
  909MPD2     C13308   3.167   1.356  11.609  0.0925 -0.1996 -0.8004
  909MPD2    C113309   3.181   1.492  11.586 -0.0478 -0.5628  0.5447
  909MPD2    C213310   3.107   1.580  11.658 -0.5791  0.5593  0.2293
  909MPD2    C313311   3.013   1.535  11.755  0.3029 -0.9425  0.2822
  909MPD2    C413312   3.002   1.398  11.772  0.5228 -0.2750  0.4014
  909MPD2    C513313   3.077   1.308  11.700  0.5285 -0.2051  0.1629
  909MPD2     H13314   3.100   1.687  11.640 -0.3288  0.4228 -0.6767
  909MPD2    H113315   2.920   1.355  11.829  0.4504 -0.3511  0.2396
  909MPD2    H213316   3.242   1.285  11.574  1.6802  1.2238 -0.3195
  909MPD2    H313317   3.066   1.204  11.730  3.2463 -0.5714 -0.1650
  909MPD2     N13318   2.932   1.630  11.812  0.3373  0.5371 -0.0472
  909MPD2    H513319   2.949   1.727  11.789  0.0312  0.5557 -0.2026
  909MPD2    N113320   3.274   1.552  11.499  0.3585 -0.4068  0.2350
  909MPD2    H713321   3.249   1.649  11.485 -0.7369 -0.5191  1.4494
  910MPD2     C13322   3.787   3.325  15.602  0.1226 -0.4193  0.4550
  910MPD2    C113323   3.899   3.315  15.518 -0.2324 -0.2433  1.3681
  910MPD2    C213324   3.891   3.371  15.387  0.2460 -0.1312  1.0182
  910MPD2    C313325   3.779   3.439  15.346  0.4909  0.3979 -0.1351
  910MPD2    C413326   3.679   3.466  15.437 -0.3833  0.8769 -0.3570
  910MPD2    C513327   3.683   3.404  15.559 -0.7384  0.5488 -1.0076
  910MPD2     H13328   3.982   3.368  15.329 -1.0975  0.2620 -1.0780
  910MPD2    H113329   3.598   3.534  15.411 -0.4317  0.5173 -1.1444
  910MPD2    H213330   3.777   3.291  15.704 -0.2496 -1.3560  0.0964
  910MPD2    H313331   3.602   3.418  15.630 -0.0992  0.0104 -0.1767
  910MPD2     N13332   3.756   3.496  15.216  0.0322  0.3818 -0.7100
  910MPD2    H513333   3.668   3.546  15.208  0.3315  1.3750  2.0079
  910MPD2    N113334   4.021   3.254  15.556 -0.0555 -0.4883  0.0454
  910MPD2    H713335   4.100   3.262  15.493 -0.9385 -0.6057 -1.0643
  911MPD2     C13336   2.274   3.340  16.377 -0.2594 -0.3898 -1.1203
  911MPD2    C113337   2.315   3.469  16.345  0.6138 -0.2305 -0.3729
  911MPD2    C213338   2.254   3.557  16.259  0.4763 -0.5090 -0.1019
  911MPD2    C313339   2.145   3.504  16.189  0.5565  0.6437 -0.3555
  911MPD2    C413340   2.098   3.380  16.226  0.3174  0.6459  0.1182
  911MPD2    C513341   2.152   3.299  16.325  0.9152 -0.5512 -0.3378
  911MPD2     H13342   2.293   3.654  16.231  0.9412 -0.6844 -0.0650
  911MPD2    H113343   2.010   3.344  16.172 -0.3255 -0.0995  1.6620
  911MPD2    H213344   2.320   3.274  16.449 -1.3850  2.1244  1.8924
  911MPD2    H313345   2.105   3.208  16.360 -1.7620  1.2351  0.6987
  911MPD2     N13346   2.086   3.567  16.078  0.0759  0.1778 -0.8416
  911MPD2    H513347   2.032   3.502  16.021  0.9551 -0.6288 -0.7587
  911MPD2    N113348   2.430   3.517  16.419  0.2053  0.0152  0.1937
  911MPD2    H713349   2.473   3.454  16.486 -1.1460  1.8034  2.7231
  912MPD2     C13350   1.807   3.287  15.372 -0.2806  0.2940  0.3862
  912MPD2    C113351   1.840   3.276  15.506  0.2800 -0.4033  0.1227
  912MPD2    C213352   1.793   3.176  15.580 -0.5292 -0.2376 -0.6209
  912MPD2    C313353   1.720   3.068  15.524 -0.1563 -0.6114  0.1416
  912MPD2    C413354   1.681   3.083  15.394 -0.1190 -0.5172  0.0692
  912MPD2    C513355   1.727   3.188  15.325 -0.4634 -0.0131  0.3340
  912MPD2     H13356   1.802   3.179  15.688  1.5994  1.0185 -0.8265
  912MPD2    H113357   1.621   3.005  15.349 -0.5120  0.5870 -1.3440
  912MPD2    H213358   1.847   3.373  15.318 -1.7052  0.3287 -0.6202
  912MPD2    H313359   1.701   3.185  15.220 -1.3911  0.2657  0.5606
  912MPD2     N13360   1.685   2.960  15.609  0.0213 -0.4276  0.7031
  912MPD2    H513361   1.711   2.976  15.706  0.8190  0.4286  0.3543
  912MPD2    N113362   1.906   3.383  15.564  0.2599  0.4582 -0.3424
  912MPD2    H713363   1.921   3.462  15.502  2.2608  0.7584  0.5057
  913MPD2     C13364   2.345   0.036  10.634 -0.0214 -0.4043 -0.7471
  913MPD2    C113365   2.446   0.085  10.557 -0.1377  0.2761  0.5769
  913MPD2    C213366   2.429   0.099  10.420 -0.0316 -0.2229  0.1183
  913MPD2    C313367   2.309   0.067  10.360 -0.6748  0.4522 -0.1144
  913MPD2    C413368   2.201   0.039  10.441  0.2666 -0.0411 -0.5146
  913MPD2    C513369   2.224   0.022  10.574  0.3599 -0.0044 -0.1112
  913MPD2     H13370   2.517   0.133  10.365 -0.0538  0.2621  0.3893
  913MPD2    H113371   2.105   0.005  10.406 -0.7634  4.5298 -2.0891
  913MPD2    H213372   2.353   0.010  10.739  0.9811 -2.0319 -1.2295
  913MPD2    H313373   2.135   0.001  10.633  0.9420  0.0067  0.7677
  913MPD2     N13374   2.282   0.066  10.215  0.2115 -0.1318 -0.0884
  913MPD2    H513375   2.184   0.055  10.190  0.2734  0.5663 -0.6121
  913MPD2    N113376   2.568   0.100  10.628 -0.6011 -0.2404 -0.4180
  913MPD2    H713377   2.562   0.112  10.728 -0.7559 -1.9437 -0.2139
  914MPD2     C13378   0.729   0.123  12.044 -0.1028 -0.2653 -0.0246
  914MPD2    C113379   0.620   0.203  12.067 -0.3051  0.3216  0.3639
  914MPD2    C213380   0.612   0.274  12.183  0.7447 -0.0835  0.3050
  914MPD2    C313381   0.684   0.227  12.295  0.6759  0.3542  0.2066
  914MPD2    C413382   0.785   0.132  12.274  0.6646 -0.1327 -0.2040
  914MPD2    C513383   0.807   0.081  12.150 -0.2002  0.2950  0.8942
  914MPD2     H13384   0.545   0.358  12.194 -0.4632 -0.9249 -0.7229
  914MPD2    H113385   0.855   0.109  12.354  1.0158 -0.6026 -0.6512
  914MPD2    H213386   0.751   0.100  11.941 -1.3871 -0.5304 -0.2361
  914MPD2    H313387   0.896   0.021  12.137  0.6461  1.7177  0.1590
  914MPD2     N13388   0.671   0.296  12.414  0.3444  0.1424  0.3153
  914MPD2    H513389   0.608   0.375  12.411 -1.1829 -1.0331  0.9380
  914MPD2    N113390   0.541   0.238  11.957 -0.7964 -0.1499 -0.2566
  914MPD2    H713391   0.563   0.203  11.865  1.7748 -1.1445  0.7223
  915MPD2     C13392   3.505   0.332  15.102  0.1542 -0.5202  0.2618
  915MPD2    C113393   3.432   0.449  15.088 -0.0691  0.0597 -0.2473
  915MPD2    C213394   3.403   0.523  15.201 -0.3148 -0.2751 -0.0910
  915MPD2    C313395   3.459   0.487  15.321  0.2207  0.1246 -0.1505
  915MPD2    C413396   3.543   0.374  15.330  0.2221  0.7070 -0.1309
  915MPD2    C513397   3.568   0.308  15.219 -0.4535 -1.0354  0.4885
  915MPD2     H13398   3.337   0.609  15.195  1.1084  0.8026 -0.2850
  915MPD2    H113399   3.594   0.341  15.420  2.8101 -1.1459 -2.2683
  915MPD2    H213400   3.527   0.263  15.021  1.4100  0.0118  0.1495
  915MPD2    H313401   3.624   0.216  15.229  1.3737  0.0081 -0.0900
  915MPD2     N13402   3.422   0.560  15.435  0.3728 -0.4708 -0.9180
  915MPD2    H513403   3.348   0.628  15.419  1.0785  0.8189  1.2848
  915MPD2    N113404   3.391   0.487  14.956  0.2514 -0.0028 -0.5522
  915MPD2    H713405   3.411   0.415  14.887 -0.4260 -1.9025  1.2209
  916MPD2     C13406   1.219   3.284  15.535 -0.6359  0.4893 -0.6502
  916MPD2    C113407   1.207   3.181  15.624  0.1574 -1.0494  0.5143
  916MPD2    C213408   1.255   3.059  15.579 -0.2781 -0.6059 -0.5770
  916MPD2    C313409   1.288   3.039  15.446 -0.5115 -0.2436  0.0395
  916MPD2    C413410   1.291   3.148  15.361  0.7691 -0.5834  0.2008
  916MPD2    C513411   1.265   3.275  15.409 -0.5631  0.1202  0.5036
  916MPD2     H13412   1.252   2.976  15.649  0.8323  1.2002  1.6037
  916MPD2    H113413   1.316   3.136  15.257  1.1598 -0.9302  0.3372
  916MPD2    H213414   1.178   3.381  15.560 -1.6696 -0.0313 -0.3263
  916MPD2    H313415   1.266   3.354  15.335 -0.9362 -0.8509 -0.5494
  916MPD2     N13416   1.322   2.911  15.405 -0.0212 -0.0840  0.6288
  916MPD2    H513417   1.335   2.842  15.479  1.3423 -2.3364 -1.6983
  916MPD2    N113418   1.149   3.198  15.755  0.7068 -0.0063  0.2821
  916MPD2    H713419   1.136   3.292  15.790 -1.6538 -0.3515  0.2945
  917MPD2     C13420   1.941   1.030  10.844 -0.4919  0.2816 -0.7735
  917MPD2    C113421   1.982   1.039  10.975  0.2221  0.6601 -0.2499
  917MPD2    C213422   2.100   1.099  11.009 -0.4552 -0.4344 -0.1094
  917MPD2    C313423   2.183   1.141  10.912 -0.2505  0.1944  1.2947
  917MPD2    C413424   2.148   1.127  10.782 -0.5702 -0.4098  0.5731
  917MPD2    C513425   2.025   1.075  10.743 -0.1916  0.7434 -0.4802
  917MPD2     H13426   2.136   1.089  11.111 -2.2637 -1.0778  0.4533
  917MPD2    H113427   2.219   1.172  10.714 -0.8024 -0.8673  0.0338
  917MPD2    H213428   1.855   0.974  10.810 -0.4687 -0.1259 -0.1409
  917MPD2    H313429   1.991   1.052  10.642 -0.2376  0.9120 -0.5037
  917MPD2     N13430   2.303   1.211  10.929 -0.1003  0.5711  0.2603
  917MPD2    H513431   2.343   1.253  10.845 -1.7924 -2.2289 -1.9554
  917MPD2    N113432   1.898   0.983  11.073 -0.6324  0.1625  0.4322
  917MPD2    H713433   1.820   0.924  11.047  0.0555 -1.6616  2.4956
  918MPD2     C13434   1.651   1.399  11.950 -0.0949 -0.1060 -0.1608
  918MPD2    C113435   1.779   1.357  11.927  0.3385  0.2406  0.2018
  918MPD2    C213436   1.809   1.265  11.833  0.2667 -0.0320  0.1262
  918MPD2    C313437   1.702   1.205  11.765 -0.2118  0.2998 -0.3689
  918MPD2    C413438   1.571   1.247  11.789  0.1737  0.5604 -0.1866
  918MPD2    C513439   1.547   1.341  11.882  0.3264  0.2305 -0.4065
  918MPD2     H13440   1.913   1.237  11.819  0.9394  2.2565  0.6591
  918MPD2    H113441   1.484   1.211  11.733 -0.1193  0.7107  0.1743
  918MPD2    H213442   1.640   1.479  12.023  0.4689 -0.5385  0.3952
  918MPD2    H313443   1.445   1.374  11.894  0.2446 -0.2197  0.1264
  918MPD2     N13444   1.734   1.112  11.668 -0.1475  0.4499  0.3439
  918MPD2    H513445   1.831   1.099  11.643  0.3590  0.9705  2.0229
  918MPD2    N113446   1.885   1.399  12.003 -0.1210  0.3312 -0.1259
  918MPD2    H713447   1.977   1.358  11.992 -0.8622 -0.8881 -1.7381
  919MPD2     C13448   2.418   0.286  11.691 -0.1305  0.2274  0.1724
  919MPD2    C113449   2.345   0.176  11.647 -0.2375  0.1126  0.3624
  919MPD2    C213450   2.257   0.190  11.538 -0.3202 -0.3425  0.6336
  919MPD2    C313451   2.236   0.306  11.470 -0.6239  0.5301  0.3513
  919MPD2    C413452   2.309   0.409  11.508 -0.7337 -0.2341 -0.8391
  919MPD2    C513453   2.403   0.400  11.611 -0.2319  0.3091  0.9639
  919MPD2     H13454   2.204   0.101  11.503  2.0522 -0.6390 -2.1556
  919MPD2    H113455   2.292   0.504  11.459  1.7643  1.0958  0.9179
  919MPD2    H213456   2.499   0.272  11.762 -1.2743 -1.5187  1.1290
  919MPD2    H313457   2.473   0.481  11.632  0.2947  0.0504  0.2127
  919MPD2     N13458   2.158   0.322  11.350  0.2592 -0.2887 -0.0500
  919MPD2    H513459   2.190   0.394  11.286  0.6405 -0.4344 -0.0233
  919MPD2    N113460   2.364   0.053  11.700 -0.6036 -0.1901 -0.1766
  919MPD2    H713461   2.333   4.695  11.643 -2.8566  0.6738 -0.1365
  920MPD2     C13462   2.525   0.499  10.499  0.4914 -0.4683  0.5877
  920MPD2    C113463   2.409   0.453  10.439  0.3798  0.5265  0.0233
  920MPD2    C213464   2.313   0.402  10.525  0.9738  0.4320 -0.2559
  920MPD2    C313465   2.328   0.391  10.662 -0.7096  0.5852 -0.2828
  920MPD2    C413466   2.445   0.448  10.709  0.5279  0.1224 -0.8279
  920MPD2    C513467   2.542   0.495  10.633 -0.7643  0.3359 -0.1834
  920MPD2     H13468   2.220   0.364  10.485  0.4371  1.4727  0.0061
  920MPD2    H113469   2.477   0.449  10.813  1.3126 -0.4394 -1.0645
  920MPD2    H213470   2.609   0.539  10.444  0.3098  0.4789  0.9937
  920MPD2    H313471   2.633   0.538  10.673 -0.4252 -1.6243  1.2166
  920MPD2     N13472   2.229   0.354  10.749 -0.1769  0.0557 -0.8764
  920MPD2    H513473   2.140   0.326  10.708 -1.6590  1.8359  1.1208
  920MPD2    N113474   2.375   0.460  10.299  0.4636  0.6658 -0.4077
  920MPD2    H713475   2.278   0.448  10.273  0.6999  1.7072 -1.7727
  921MPD2     C13476   3.257   4.028  16.931  0.5579 -0.0177 -0.0401
  921MPD2    C113477   3.279   3.912  16.858 -0.2072  0.2862  0.5434
  921MPD2    C213478   3.180   3.852  16.788 -0.2725 -0.4023  0.4155
  921MPD2    C313479   3.054   3.897  16.793  0.2309  0.8632 -0.2098
  921MPD2    C413480   3.023   4.011  16.864  0.0782  0.2758 -0.5040
  921MPD2    C513481   3.128   4.076  16.932  0.3985 -0.3714  0.1068
  921MPD2     H13482   3.208   3.768  16.725 -1.6069  1.7282 -3.0277
  921MPD2    H113483   2.923   4.052  16.852 -0.2572  0.3400  2.4234
  921MPD2    H213484   3.328   4.079  16.994  1.7886 -0.4325 -1.0915
  921MPD2    H313485   3.109   4.166  16.989  1.1926  1.2097 -2.1058
  921MPD2     N13486   2.960   3.829  16.714  0.0764 -0.8022 -0.1046
  921MPD2    H513487   3.000   3.749  16.664  0.1674  1.5482 -3.7977
  921MPD2    N113488   3.412   3.867  16.860  0.4228 -0.2864 -0.0051
  921MPD2    H713489   3.477   3.932  16.902  1.9739 -1.5158 -0.4732
  922MPD2     C13490   4.095   0.947   0.256 -0.2235 -0.6668  0.1485
  922MPD2    C113491   4.059   1.082   0.272  0.1961  0.5678 -0.0350
  922MPD2    C213492   4.028   1.151   0.154 -0.7622 -0.7237  0.1071
  922MPD2    C313493   4.017   1.085   0.029  0.2724 -0.5236  0.6347
  922MPD2    C413494   4.045   0.950   0.025 -0.0042 -0.8066 -0.0617
  922MPD2    C513495   4.085   0.878   0.138 -0.4434  0.0946 -0.0493
  922MPD2     H13496   4.016   1.259   0.156  3.6036 -0.2366  0.8761
  922MPD2    H113497   4.041   0.891  17.619 -1.9626 -0.5675 -0.1330
  922MPD2    H213498   4.119   0.891   0.346 -0.0890 -2.0910 -0.7768
  922MPD2    H313499   4.112   0.773   0.129 -0.0345  0.3074 -1.3691
  922MPD2     N13500   3.972   1.159  17.603 -0.2302  0.1964 -0.2537
  922MPD2    H513501   3.934   1.251  17.621  0.7160  0.3922  0.7299
  922MPD2    N113502   4.078   1.153   0.391  0.1947  0.6294  0.0345
  922MPD2    H713503   4.043   1.246   0.376 -1.8452 -0.2538 -0.5913
  923MPD2     C13504   0.653   2.740   9.402 -0.4238 -0.8276  0.4141
  923MPD2    C113505   0.698   2.865   9.414  0.3474  0.2042  0.0232
  923MPD2    C213506   0.816   2.887   9.480  0.4724 -0.2787 -1.0043
  923MPD2    C313507   0.896   2.790   9.530 -0.2379 -0.2782 -0.4479
  923MPD2    C413508   0.850   2.663   9.513  0.2929 -0.3000  0.2539
  923MPD2    C513509   0.725   2.636   9.456 -0.2712 -0.8292  0.7068
  923MPD2     H13510   0.852   2.989   9.479  0.0606 -0.1225 -0.2838
  923MPD2    H113511   0.904   2.579   9.555  2.1180  1.1351  0.7791
  923MPD2    H213512   0.562   2.713   9.349 -0.4092  1.2679 -0.7050
  923MPD2    H313513   0.688   2.535   9.447 -0.1432 -0.8858  0.8119
  923MPD2     N13514   1.019   2.814   9.596  0.6472 -0.7684 -0.6342
  923MPD2    H513515   1.067   2.737   9.642 -1.0071 -1.6174 -0.3288
  923MPD2    N113516   0.622   2.972   9.355 -0.7401 -0.7475  0.5311
  923MPD2    H713517   0.540   2.943   9.302 -0.9630 -0.7517  0.8763
  924MPD2     C13518   0.594   2.166  15.350 -0.1893  0.4470  0.0637
  924MPD2    C113519   0.551   2.190  15.475 -0.4064 -0.8211  0.4580
  924MPD2    C213520   0.591   2.302  15.541 -0.3201 -1.1432  0.0674
  924MPD2    C313521   0.669   2.397  15.478 -0.1639  0.5459 -0.5608
  924MPD2    C413522   0.711   2.372  15.350 -0.0301  0.2945  0.0975
  924MPD2    C513523   0.672   2.261  15.286 -0.1487  0.3982 -0.2086
  924MPD2     H13524   0.552   2.323  15.640  0.2808  0.3877 -0.0321
  924MPD2    H113525   0.772   2.444  15.297  0.1532  0.3838  0.4232
  924MPD2    H213526   0.558   2.082  15.291 -0.9466  2.3887 -2.2709
  924MPD2    H313527   0.706   2.238  15.186 -0.8497  1.0786 -0.5999
  924MPD2     N13528   0.684   2.530  15.540 -0.2691  0.7659 -0.4095
  924MPD2    H513529   0.708   2.609  15.481  0.4098  0.7218 -0.1886
  924MPD2    N113530   0.460   2.096  15.532 -0.4044 -0.1611  0.0363
  924MPD2    H713531   0.435   2.015  15.476  0.1933 -0.1855 -0.1981
  925MPD2     C13532   3.459   0.350  14.277  0.9204  0.2258 -0.2670
  925MPD2    C113533   3.477   0.214  14.260 -0.1425  1.3029 -0.5211
  925MPD2    C213534   3.470   0.139  14.373  0.2650 -0.0743  0.0861
  925MPD2    C313535   3.451   0.188  14.498  0.5042  0.7754  0.0179
  925MPD2    C413536   3.424   0.323  14.512  0.5450 -0.6778  0.1028
  925MPD2    C513537   3.418   0.398  14.395  0.2910  0.1994  0.7919
  925MPD2     H13538   3.496   0.034  14.365  1.7912  0.2441  0.8899
  925MPD2    H113539   3.413   0.374  14.607  0.0008 -0.1810 -0.2205
  925MPD2    H213540   3.450   0.418  14.193 -0.6774  2.0598  1.3853
  925MPD2    H313541   3.396   0.504  14.396 -2.1173 -0.2912  0.2999
  925MPD2     N13542   3.466   0.102  14.606  0.0465  0.0170  0.3431
  925MPD2    H513543   3.494   0.007  14.584 -1.3386  0.3517 -2.9410
  925MPD2    N113544   3.528   0.163  14.131  0.4020  0.2546 -0.2197
  925MPD2    H713545   3.566   0.069  14.127 -1.1129 -0.2979 -1.5947
  926MPD2     C13546   2.737   2.957  13.110  0.2583 -0.4353 -0.3076
  926MPD2    C113547   2.848   3.012  13.172 -0.1498  0.8544 -0.4706
  926MPD2    C213548   2.953   3.061  13.099 -0.3369 -0.0685  0.1228
  926MPD2    C313549   2.946   3.048  12.960 -0.6210  0.7282  0.9702
  926MPD2    C413550   2.829   2.995  12.897  0.2970 -0.3448  0.3951
  926MPD2    C513551   2.723   2.949  12.976 -0.1035 -0.7723  1.0353
  926MPD2     H13552   3.034   3.112  13.149  0.3958 -0.2206 -0.9174
  926MPD2    H113553   2.828   2.985  12.789 -1.5238  1.1151  0.2848
  926MPD2    H213554   2.649   2.918  13.160 -1.0502  2.2303 -0.5381
  926MPD2    H313555   2.634   2.908  12.930 -0.8651  1.9937  0.0768
  926MPD2     N13556   3.050   3.090  12.875 -0.1077 -0.4728 -0.1984
  926MPD2    H513557   3.026   3.089  12.777 -1.0837  1.0559  0.0218
  926MPD2    N113558   2.839   3.045  13.306 -0.0414  0.4849  0.0295
  926MPD2    H713559   2.916   3.102  13.341 -0.7834  2.3237 -1.3090
  927MPD2     C13560   2.267   0.577   0.302 -0.0338 -0.9358  0.3801
  927MPD2    C113561   2.283   0.446   0.264  0.7512  0.1536  0.7160
  927MPD2    C213562   2.281   0.415   0.128 -0.3761 -0.2888  0.9094
  927MPD2    C313563   2.262   0.517   0.033 -0.1554  0.1581  0.0772
  927MPD2    C413564   2.244   0.647   0.071  0.1270 -0.5660 -0.2667
  927MPD2    C513565   2.240   0.677   0.204 -0.2593  0.2798 -0.1343
  927MPD2     H13566   2.298   0.314   0.090 -1.7733 -0.5527  0.9621
  927MPD2    H113567   2.222   0.727   0.002 -1.3448 -0.5859  0.1920
  927MPD2    H213568   2.273   0.615   0.403  2.1269 -0.6939  0.1656
  927MPD2    H313569   2.221   0.780   0.234 -1.8238  0.3511 -1.3956
  927MPD2     N13570   2.267   0.470  17.588 -0.4144 -0.4310 -0.0029
  927MPD2    H513571   2.290   0.373  17.571  1.8950 -0.2268  1.8428
  927MPD2    N113572   2.310   0.351   0.372 -0.4436  0.2924  0.5738
  927MPD2    H713573   2.327   0.396   0.461  1.4484 -0.5669  0.6408
  928MPD2     C13574   1.082   3.268   0.949  0.7316  0.3753  0.1772
  928MPD2    C113575   1.177   3.366   0.947 -0.5084  0.8103 -0.6122
  928MPD2    C213576   1.137   3.484   0.885  0.0497  0.6636 -0.2093
  928MPD2    C313577   1.022   3.499   0.809  0.3058  0.5759  0.6506
  928MPD2    C413578   0.935   3.396   0.811 -0.3413  0.1276  0.2606
  928MPD2    C513579   0.965   3.283   0.886 -0.2088  0.2929 -0.2503
  928MPD2     H13580   1.203   3.569   0.893 -1.6072  1.6774  2.6431
  928MPD2    H113581   0.840   3.398   0.760  0.0540 -1.3107 -0.5420
  928MPD2    H213582   1.103   3.174   1.000 -0.6247  0.2037  0.4119
  928MPD2    H313583   0.898   3.198   0.893 -0.3853  0.4554  0.0142
  928MPD2     N13584   0.990   3.613   0.740  0.2179 -0.2665 -0.6825
  928MPD2    H513585   0.908   3.603   0.682  0.0319 -1.4131 -0.2136
  928MPD2    N113586   1.292   3.339   1.021  0.2379  0.1371 -0.0281
  928MPD2    H713587   1.302   3.253   1.074  1.7049  0.7526  0.7042
  929MPD2     C13588   1.069   3.863   9.973  0.2605 -0.1822 -0.4269
  929MPD2    C113589   0.969   3.794  10.051  0.9909  0.1604 -0.9037
  929MPD2    C213590   0.840   3.834  10.029 -0.1645  0.2342 -0.3465
  929MPD2    C313591   0.808   3.959   9.972  0.2863  0.0407 -0.4491
  929MPD2    C413592   0.907   4.029   9.906 -0.6264  0.5840  0.8915
  929MPD2    C513593   1.036   3.982   9.906  0.1325 -0.1592  0.7124
  929MPD2     H13594   0.760   3.786  10.083 -0.0218  0.2017 -0.1638
  929MPD2    H113595   0.877   4.118   9.851 -0.8926  0.2416  0.4888
  929MPD2    H213596   1.172   3.827   9.976  0.5592  0.6970 -0.0437
  929MPD2    H313597   1.123   4.032   9.865 -1.0452  1.2997 -0.0022
  929MPD2     N13598   0.665   4.005   9.964 -0.4077  0.0607 -0.0256
  929MPD2    H513599   0.649   4.101   9.938 -2.8123 -0.7921 -1.7465
  929MPD2    N113600   1.008   3.684  10.129  0.1221  0.3700 -0.0066
  929MPD2    H713601   1.106   3.661  10.135 -0.8779 -3.1073  2.9545
  930MPD2     C13602   1.830   1.089  14.077  0.0554  0.5225 -0.3205
  930MPD2    C113603   1.966   1.122  14.059 -0.0440  0.1505  0.5002
  930MPD2    C213604   2.022   1.091  13.939  0.9547 -0.0839  0.6971
  930MPD2    C313605   1.952   1.024  13.840  0.3534  0.8551  0.2299
  930MPD2    C413606   1.821   0.985  13.860  0.0980 -0.4352 -0.0802
  930MPD2    C513607   1.763   1.024  13.977 -0.0601 -0.0752  0.1600
  930MPD2     H13608   2.118   1.139  13.920  1.0930  0.3213  2.5038
  930MPD2    H113609   1.769   0.924  13.787 -1.6598  0.2652  0.5948
  930MPD2    H213610   1.774   1.113  14.166  1.3853  0.3671  0.5651
  930MPD2    H313611   1.661   1.000  14.005  0.0930  1.8133  2.3765
  930MPD2     N13612   2.021   1.001  13.719 -0.0735 -0.2011 -0.2010
  930MPD2    H513613   1.963   0.967  13.643  0.7206  0.7374 -1.2146
  930MPD2    N113614   2.023   1.206  14.154  0.2639  0.0327 -0.2678
  930MPD2    H713615   1.963   1.254  14.220  0.7638  0.0525  0.1729
  931MPD2     C13616   2.459   4.258   0.391  0.5990  0.5837 -0.0787
  931MPD2    C113617   2.459   4.320   0.519  0.4187  0.4770 -0.1431
  931MPD2    C213618   2.487   4.241   0.635 -1.0634  0.1571 -0.1658
  931MPD2    C313619   2.528   4.107   0.628 -0.2650 -0.5438  0.3729
  931MPD2    C413620   2.543   4.057   0.503 -0.0571 -0.1510 -0.1475
  931MPD2    C513621   2.501   4.130   0.391  0.1285  1.3624 -0.6717
  931MPD2     H13622   2.512   4.291   0.728 -0.0974 -0.7665  0.0700
  931MPD2    H113623   2.586   3.961   0.475  1.7943  0.9568 -1.0876
  931MPD2    H213624   2.423   4.311   0.304  0.7953 -1.9474 -1.6722
  931MPD2    H313625   2.511   4.076   0.297  2.9168  0.1063  0.3686
  931MPD2     N13626   2.557   4.028   0.747  0.5851  0.2374  0.5915
  931MPD2    H513627   2.615   3.946   0.733  0.5706  0.4793 -0.7942
  931MPD2    N113628   2.414   4.458   0.524  0.4748 -0.5841 -0.7126
  931MPD2    H713629   2.391   4.503   0.436 -1.7129  3.2526  1.8562
  932MPD2     C13630   4.479   4.319  11.519  0.1221 -0.2355 -0.4763
  932MPD2    C113631   4.378   4.341  11.428 -0.2085  0.1124  0.0460
  932MPD2    C213632   4.306   4.233  11.386  0.0219 -0.1087  0.3522
  932MPD2    C313633   4.319   4.107  11.443 -0.3885 -0.0181  0.1610
  932MPD2    C413634   4.420   4.085  11.536  0.4774  0.0382 -1.0917
  932MPD2    C513635   4.506   4.186  11.562  0.2780  0.2756  0.0755
  932MPD2     H13636   4.226   4.251  11.315 -0.3604  0.3258  0.8863
  932MPD2    H113637   4.447   3.994  11.588  2.8028  2.0553  1.2462
  932MPD2    H213638   4.536   4.397  11.569  0.4663  0.0756 -1.3314
  932MPD2    H313639   4.592   4.179  11.627  0.1956 -0.8045  0.0593
  932MPD2     N13640   4.227   4.002  11.428  0.5348  0.2219  0.3758
  932MPD2    H513641   4.227   3.919  11.488 -2.7008 -0.6238 -0.7664
  932MPD2    N113642   4.344   4.473  11.378 -0.3607 -0.0210  0.0308
  932MPD2    H713643   4.269   4.486  11.311 -0.2161  2.7895  0.4023
  933MPD2     C13644   1.382   3.529   1.720 -0.0501 -0.7190 -0.2342
  933MPD2    C113645   1.446   3.606   1.627  0.1383  0.0368 -0.7671
  933MPD2    C213646   1.461   3.743   1.647  0.3309  0.0634  0.6844
  933MPD2    C313647   1.413   3.798   1.764  0.6063  0.5680 -0.5444
  933MPD2    C413648   1.350   3.719   1.858  0.5993  0.5212 -0.7761
  933MPD2    C513649   1.341   3.585   1.841  0.4245 -1.0929  0.0689
  933MPD2     H13650   1.509   3.809   1.575  0.2758 -0.8440 -0.1898
  933MPD2    H113651   1.301   3.757   1.948 -1.9723  0.2284 -2.0460
  933MPD2    H213652   1.379   3.421   1.711  0.0945 -0.3032 -5.5852
  933MPD2    H313653   1.309   3.520   1.921 -2.6499  0.3055 -0.0179
  933MPD2     N13654   1.421   3.940   1.774  0.0983 -0.2039 -0.1079
  933MPD2    H513655   1.462   3.997   1.700  1.7916 -0.2464  0.7950
  933MPD2    N113656   1.497   3.547   1.507  0.1278 -0.1802  0.2866
  933MPD2    H713657   1.561   3.603   1.452 -0.4403  0.9017  0.7264
  934MPD2     C13658   2.521   0.408   1.703 -0.4245  1.0041  0.0883
  934MPD2    C113659   2.456   0.528   1.683  0.6240  0.3367 -1.0770
  934MPD2    C213660   2.358   0.537   1.589  0.4528 -0.3998 -0.1128
  934MPD2    C313661   2.314   0.429   1.514 -0.1300  0.2295 -0.8165
  934MPD2    C413662   2.382   0.311   1.536  0.0263  0.5564 -0.1340
  934MPD2    C513663   2.479   0.301   1.632  0.1446  0.5263  0.0918
  934MPD2     H13664   2.329   0.637   1.559 -0.4468 -0.3756  0.8233
  934MPD2    H113665   2.359   0.223   1.476  2.8958 -0.6949  0.5891
  934MPD2    H213666   2.609   0.401   1.767  0.0987 -2.2266 -1.0251
  934MPD2    H313667   2.534   0.209   1.645  0.6270  0.9406  1.0151
  934MPD2     N13668   2.215   0.440   1.414 -0.4783 -0.2252  0.8136
  934MPD2    H513669   2.187   0.352   1.371  0.7753  0.1252 -0.7334
  934MPD2    N113670   2.508   0.650   1.734  0.4969  0.0607  0.6890
  934MPD2    H713671   2.467   0.739   1.708 -1.1319 -0.9773 -0.2541
  935MPD2     C13672   2.074   4.618   0.851  0.0263  0.1352 -0.6561
  935MPD2    C113673   2.015   4.712   0.770  0.4967 -0.5645  0.3533
  935MPD2    C213674   1.994   0.119   0.826 -0.1033 -0.3195  0.8402
  935MPD2    C313675   2.053   0.155   0.949 -0.1676  0.4709  0.1908
  935MPD2    C413676   2.118   0.060   1.020 -0.0564 -0.2519  0.2235
  935MPD2    C513677   2.116   4.649   0.975  0.3225  0.1469  0.8032
  935MPD2     H13678   1.944   0.197   0.769 -1.1164 -2.2999 -0.9949
  935MPD2    H113679   2.151   0.080   1.122  1.3776  1.4687 -0.5854
  935MPD2    H213680   2.083   4.513   0.823  0.7073 -0.3613  1.4095
  935MPD2    H313681   2.158   4.571   1.038  1.6290 -0.5685 -0.9586
  935MPD2     N13682   2.047   0.281   1.015 -0.4780 -0.3188  0.3413
  935MPD2    H513683   2.079   0.277   1.111  1.4794  0.5812 -0.2648
  935MPD2    N113684   1.972   4.678   0.644 -0.0591 -0.7624 -0.3373
  935MPD2    H713685   1.924   0.033   0.598  3.0440  1.5730  0.2652
  936MPD2     C13686   0.087   2.990  12.107  0.1804 -0.3288  0.2765
  936MPD2    C113687   0.144   3.047  12.214 -0.6509  0.9678 -0.7458
  936MPD2    C213688   0.254   3.137  12.203 -0.1766 -0.2389 -0.1982
  936MPD2    C313689   0.316   3.158  12.084  0.0755 -0.1678 -0.0016
  936MPD2    C413690   0.267   3.092  11.973  0.4129 -0.5465  0.5764
  936MPD2    C513691   0.153   3.013  11.990  0.4335 -0.0446  0.1947
  936MPD2     H13692   0.300   3.186  12.288 -2.6596  1.0567  0.3971
  936MPD2    H113693   0.310   3.118  11.877 -0.0258 -0.6263  0.3578
  936MPD2    H213694   0.002   2.922  12.105  1.4216 -1.8592  0.3449
  936MPD2    H313695   0.115   2.971  11.897 -0.8889  0.5939  0.4461
  936MPD2     N13696   0.429   3.237  12.064 -0.2042 -0.4631 -0.0621
  936MPD2    H513697   0.472   3.235  11.972 -0.8861  1.7918 -0.4127
  936MPD2    N113698   0.101   3.011  12.345 -0.1763  0.7579  1.1875
  936MPD2    H713699   0.158   3.044  12.421  1.0860  2.0229 -0.3117
  937MPD2     C13700   2.668   4.227  11.325  0.1061 -0.3644  0.2606
  937MPD2    C113701   2.680   4.362  11.353  0.1335 -0.4791  0.7005
  937MPD2    C213702   2.715   4.448  11.252  0.3264  0.0869  0.1785
  937MPD2    C313703   2.755   4.410  11.124  0.0359  0.1381 -0.3794
  937MPD2    C413704   2.755   4.279  11.096 -0.9535 -0.0609 -0.0087
  937MPD2    C513705   2.716   4.189  11.202 -0.4077 -0.5294  0.3215
  937MPD2     H13706   2.709   4.556  11.262  0.3735  0.1097 -0.0504
  937MPD2    H113707   2.778   4.247  10.994  2.8038  1.4072  0.4073
  937MPD2    H213708   2.633   4.156  11.400 -0.2272  0.6760  1.0922
  937MPD2    H313709   2.709   4.086  11.170  1.8760  0.6379 -3.9931
  937MPD2     N13710   2.810   4.513  11.034  0.4232 -0.1429 -0.6293
  937MPD2    H513711   2.821   4.605  11.075 -1.0198 -0.8911  1.4475
  937MPD2    N113712   2.627   4.418  11.473 -0.3692 -0.2803  0.0465
  937MPD2    H713713   2.613   4.518  11.475 -0.1327 -0.2820  1.5313
  938MPD2     C13714   0.640   1.393   0.485 -0.1721 -0.2005 -0.3121
  938MPD2    C113715   0.743   1.397   0.576  0.1878 -0.0263 -0.5452
  938MPD2    C213716   0.787   1.281   0.635 -0.8812  0.5235  0.2331
  938MPD2    C313717   0.733   1.158   0.599 -0.2986 -0.2948 -0.2368
  938MPD2    C413718   0.630   1.157   0.509  0.2549 -0.9837 -0.1191
  938MPD2    C513719   0.580   1.276   0.452  0.1235 -0.0992 -0.0032
  938MPD2     H13720   0.857   1.286   0.718  1.1789 -0.7451 -1.4203
  938MPD2    H113721   0.588   1.064   0.473  1.0095 -0.9548 -1.0765
  938MPD2    H213722   0.596   1.489   0.458 -2.0622 -0.9012  0.3089
  938MPD2    H313723   0.496   1.268   0.384 -0.8557  3.2988  0.7849
  938MPD2     N13724   0.770   1.036   0.655 -0.5292  0.6498  0.5614
  938MPD2    H513725   0.712   0.958   0.626  1.0234 -0.2434 -0.1106
  938MPD2    N113726   0.806   1.509   0.622 -0.8075 -0.7695  0.2720
  938MPD2    H713727   0.875   1.492   0.694 -1.7873  0.8959  1.6146
  939MPD2     C13728   2.813   2.525   0.622 -0.2756 -0.0819 -0.0108
  939MPD2    C113729   2.834   2.453   0.740 -0.1277  0.7623  0.4060
  939MPD2    C213730   2.849   2.315   0.717  0.6102 -0.3269  0.0773
  939MPD2    C313731   2.845   2.254   0.585 -0.3177  0.1326  0.6871
  939MPD2    C413732   2.820   2.332   0.480  0.2231  0.6483 -0.6517
  939MPD2    C513733   2.796   2.469   0.500 -0.2808  0.6189  0.7351
  939MPD2     H13734   2.874   2.258   0.805 -0.0516  1.2207  1.2647
  939MPD2    H113735   2.827   2.301   0.376 -1.4790 -0.8803 -0.3226
  939MPD2    H213736   2.808   2.633   0.629  0.8999 -0.1370  1.8835
  939MPD2    H313737   2.765   2.529   0.415 -2.4957 -1.8593 -0.2029
  939MPD2     N13738   2.853   2.114   0.574  0.3432 -0.6479  0.0801
  939MPD2    H513739   2.855   2.055   0.657  0.4173 -1.2993 -0.3841
  939MPD2    N113740   2.831   2.512   0.862  0.0881 -0.2287 -0.3041
  939MPD2    H713741   2.782   2.601   0.865  1.2323  0.4132 -0.8099
  940MPD2     C13742   1.230   3.444  12.994 -0.2755 -0.7016  0.1108
  940MPD2    C113743   1.195   3.310  12.987  0.5770  0.0098 -0.6662
  940MPD2    C213744   1.232   3.234  12.874 -0.2474 -0.2432  0.3342
  940MPD2    C313745   1.293   3.300  12.768  0.6595  0.2252  0.1347
  940MPD2    C413746   1.333   3.435  12.785 -0.8817 -0.5675  0.0410
  940MPD2    C513747   1.304   3.506  12.896 -0.6414  0.5120 -0.5392
  940MPD2     H13748   1.216   3.127  12.872  0.3155 -0.3756  2.7836
  940MPD2    H113749   1.394   3.477  12.706 -1.3144 -0.9666 -0.5070
  940MPD2    H213750   1.204   3.495  13.086 -0.3905 -2.5193  1.0889
  940MPD2    H313751   1.320   3.612  12.912 -2.1689  0.8771 -1.3718
  940MPD2     N13752   1.341   3.248  12.649  0.3907 -0.3815 -0.6483
  940MPD2    H513753   1.399   3.308  12.590  1.7155 -1.5788 -0.5549
  940MPD2    N113754   1.103   3.255  13.082 -0.1051  0.3842 -0.2063
  940MPD2    H713755   1.090   3.154  13.082 -0.5243  0.4383 -0.3847
  941MPD2     C13756   4.609   1.592   9.283 -0.3520  0.1870 -0.2343
  941MPD2    C113757   4.697   1.538   9.373  0.7308  0.0002  0.1689
  941MPD2    C213758   4.699   1.400   9.389 -0.0496  0.3512  0.0383
  941MPD2    C313759   4.606   1.317   9.324  0.8391  0.3850  0.3697
  941MPD2    C413760   4.532   1.371   9.224  0.9242 -0.5259 -0.1522
  941MPD2    C513761   4.534   1.505   9.207  0.2199  0.6798  0.1259
  941MPD2     H13762   0.053   1.368   9.460 -0.5492 -0.6400  0.1130
  941MPD2    H113763   4.450   1.315   9.179  0.1438  0.5103 -0.0347
  941MPD2    H213764   4.589   1.699   9.281 -0.4779  0.2205  2.5859
  941MPD2    H313765   4.476   1.556   9.131 -0.6134 -0.3876  0.0406
  941MPD2     N13766   4.592   1.181   9.358  0.3450  0.4657 -0.4425
  941MPD2    H513767   4.527   1.125   9.305 -0.7290  0.9410  0.3711
  941MPD2    N113768   0.064   1.613   9.448 -0.2981  0.8167  0.6935
  941MPD2    H713769   0.126   1.562   9.509 -1.4472 -1.7500 -0.2910
  942MPD2     C13770   4.385   4.351   9.138 -0.2009 -0.1384  0.0240
  942MPD2    C113771   4.475   4.290   9.058  0.2775 -0.3391 -0.2643
  942MPD2    C213772   4.500   4.161   9.088  0.3162  0.3826 -0.6728
  942MPD2    C313773   4.436   4.094   9.192  0.1659 -1.2840  0.0387
  942MPD2    C413774   4.343   4.157   9.270  0.0085  0.1948 -0.1466
  942MPD2    C513775   4.314   4.287   9.238 -0.8730  0.0578 -0.4086
  942MPD2     H13776   4.585   4.114   9.038  1.3711  0.9201  0.6052
  942MPD2    H113777   4.294   4.119   9.358 -1.3973  1.8203 -0.2236
  942MPD2    H213778   4.366   4.458   9.133  0.4173 -0.0350 -0.1436
  942MPD2    H313779   4.242   4.345   9.295 -0.4599 -0.4768  0.6590
  942MPD2     N13780   4.482   3.963   9.236 -0.0939  0.0602  0.8482
  942MPD2    H513781   4.457   3.942   9.332 -2.6127  2.8335  0.7867
  942MPD2    N113782   4.555   4.364   8.966  0.4111  0.0619 -0.1251
  942MPD2    H713783   4.639   4.312   8.940 -0.5599 -0.7444 -1.6121
  943MPD2     C13784   2.136   1.430   9.151  0.4973  0.1790 -0.2439
  943MPD2    C113785   2.102   1.294   9.169 -0.1202 -0.6165  0.4592
  943MPD2    C213786   1.972   1.250   9.159  0.3104  0.5824  0.2032
  943MPD2    C313787   1.881   1.346   9.111 -0.1792 -0.3018 -0.2663
  943MPD2    C413788   1.917   1.476   9.088 -0.2965 -0.4473  0.1412
  943MPD2    C513789   2.044   1.520   9.110  0.0593 -0.0486 -0.0865
  943MPD2     H13790   1.944   1.146   9.169  1.9850  0.1850  0.7938
  943MPD2    H113791   1.840   1.544   9.052  0.1485 -0.7329 -1.3807
  943MPD2    H213792   2.239   1.450   9.178 -0.4377  1.2082  2.4670
  943MPD2    H313793   2.065   1.625   9.096 -1.7182  0.4512  0.9489
  943MPD2     N13794   1.748   1.315   9.076 -0.0907  0.3139 -0.4998
  943MPD2    H513795   1.694   1.378   9.018 -1.6358 -1.5861 -1.1487
  943MPD2    N113796   2.211   1.210   9.188  0.7631  0.4508  0.6428
  943MPD2    H713797   2.305   1.245   9.178  0.2590  1.7036  0.2989
  944MPD2     C13798   3.023   0.936  10.819 -0.0562 -0.3762  0.2371
  944MPD2    C113799   3.054   1.066  10.782  0.2805 -0.6167 -0.1213
  944MPD2    C213800   3.021   1.171  10.872  0.4849 -0.5137 -0.3795
  944MPD2    C313801   2.947   1.152  10.985  0.7607  0.8441 -0.4131
  944MPD2    C413802   2.922   1.018  11.024  0.1148  0.3334  0.1368
  944MPD2    C513803   2.956   0.914  10.940  0.1311 -0.0779 -0.0187
  944MPD2     H13804   3.042   1.275  10.850 -0.4782 -0.3083 -0.3173
  944MPD2    H113805   2.882   0.983  11.118  0.4307  2.2945  1.0031
  944MPD2    H213806   3.054   0.851  10.759 -0.4109 -2.0151  2.3855
  944MPD2    H313807   2.941   0.808  10.957  1.3065  0.0636  1.8353
  944MPD2     N13808   2.910   1.260  11.064  0.1834  0.1450  0.2785
  944MPD2    H513809   2.940   1.353  11.037 -0.3904  0.0652 -0.6154
  944MPD2    N113810   3.136   1.090  10.661 -0.2602 -0.4697  0.1891
  944MPD2    H713811   3.145   1.004  10.608 -1.6428  0.2184 -1.1671
    1TCq1    O113812   0.729   1.758  13.642  0.5862  0.3695  0.5302
    1TCq1    C113813   0.836   1.681  13.608 -0.2995  0.3908  0.3888
    1TCq1    O213814   0.846   1.610  13.511 -0.0706 -0.9390  0.3964
    1TCq1    C213815   0.957   1.721  13.681  0.2810  0.3592 -0.5524
    1TCq1    C313816   1.076   1.670  13.641 -0.1507 -0.6545 -0.1201
    1TCq1    C413817   1.185   1.675  13.715  0.4383 -0.5050  0.3524
    1TCq1    C513818   1.178   1.744  13.833 -0.2401 -0.5918 -0.6272
    1TCq1    C613819   1.057   1.791  13.877  0.0131  0.2099  0.6940
    1TCq1    C713820   0.951   1.790  13.795  0.3722 -0.4535  0.2385
    1TCq1    C813821   1.051   1.877  13.997  0.4974  0.4187  0.1739
    1TCq1    O413822   0.948   1.932  14.032  0.1538 -0.4231  0.3516
    1TCq1    C913823   1.314   1.640  13.657 -0.9037 -0.0366  0.6998
    1TCq1    O513824   1.318   1.589  13.544  0.3714 -0.1721 -0.5738
    1TCq1    O613825   1.407   1.644  13.736 -0.0615 -0.3442  0.7496
    1TCq1    H113826   0.750   1.824  13.713 -1.7044  0.7536  0.8328
    1TCq1    H213827   1.086   1.631  13.541 -0.9278  1.3186 -0.9573
    1TCq1    H313828   1.274   1.774  13.875 -0.3111 -0.7065 -0.3877
    1TCq1    H413829   0.858   1.819  13.844 -0.4684 -2.9251  0.1324
    2MPD2     C13830   1.207   2.066  14.438  0.4484 -0.0311 -0.2493
    2MPD2    C113831   1.128   2.120  14.340 -0.2210  0.0394  0.5168
    2MPD2    C213832   1.105   2.047  14.228  0.6844 -0.1268  0.2737
    2MPD2    C313833   1.169   1.928  14.203 -0.2833  0.6891  0.0255
    2MPD2    C413834   1.256   1.884  14.303 -0.2742  0.8049  0.2124
    2MPD2    C513835   1.272   1.947  14.420 -0.1979  0.1814  0.1394
    2MPD2     H13836   1.048   2.091  14.147  0.5384 -0.6474  0.0904
    2MPD2    H113837   1.323   1.802  14.279 -0.7201 -0.2599  2.5919
    2MPD2    H213838   1.222   2.126  14.527 -4.1432 -0.9990  1.1960
    2MPD2    H313839   1.335   1.904  14.497  1.2359 -0.3230 -1.3311
    2MPD2     N13840   1.153   1.858  14.081 -0.5530  0.0648  0.4539
    2MPD2    H513841   1.212   1.776  14.073  0.3302  0.9844 -2.4078
    2MPD2    N113842   1.094   2.254  14.350 -0.4796  0.0474 -0.3435
    2MPD2    H713843   1.139   2.298  14.430 -0.7256  2.1259 -1.3392
    3TMC2    C113844   1.017   2.473  14.298 -0.6312 -0.5721  0.0348
    3TMC2    C213845   1.049   2.508  14.421  0.1130  0.1488  0.1483
    3TMC2    C313846   1.047   2.646  14.448 -0.3554 -0.1202 -0.3025
    3TMC2    C413847   0.985   2.565  14.205  0.7449  0.3305  0.3784
    3TMC2    C513848   0.969   2.700  14.242 -0.5238  0.4450 -0.0729
    3TMC2    C613849   0.995   2.739  14.370  0.4728 -0.1612  0.7463
    3TMC2     C13850   1.031   2.332  14.248  0.2079 -0.3946  0.1295
    3TMC2     O13851   0.956   2.304  14.152  0.6817  0.5661  0.0275
    3TMC2     H13852   1.092   2.440  14.493  1.0166  0.7556  0.1760
    3TMC2    H113853   0.953   2.534  14.107 -1.3771  1.7435  0.6189
    3TMC2    H213854   0.979   2.841  14.404 -2.1394  0.3516 -2.0364
    3TMC2    C713855   0.998   2.806  14.139  0.1827  0.0353  0.5161
    3TMC2    C813856   1.105   2.699  14.571 -0.1850 -0.1603  0.0887
    3TMC2    O113857   0.965   2.923  14.170  0.2580  0.5246 -0.1903
    3TMC2    O213858   1.065   2.799  14.624  0.0493 -0.4818 -0.3513
    3TMC2    O513859   1.213   2.623  14.596 -0.6800 -0.6587 -0.1782
    3TMC2    H513860   1.236   2.557  14.528  1.8423 -2.1615  2.1403
    4MPD2     C13861   0.460   3.771  13.675 -0.5502 -0.7052 -0.2040
    4MPD2    C113862   0.519   3.659  13.627  0.0190 -0.0234 -0.4715
    4MPD2    C213863   0.641   3.619  13.680  0.2188  0.3295  0.3606
    4MPD2    C313864   0.714   3.699  13.760  0.6224  0.3514 -0.9582
    4MPD2    C413865   0.658   3.821  13.800 -0.6259 -0.5904 -0.3131
    4MPD2    C513866   0.530   3.850  13.764 -0.1766 -0.4663 -1.4607
    4MPD2     H13867   0.692   3.532  13.641  1.6090  1.1568  0.3245
    4MPD2    H113868   0.713   3.894  13.857 -1.2121  0.0752 -0.6043
    4MPD2    H213869   0.361   3.810  13.654  0.2138  2.3841  1.9842
    4MPD2    H313870   0.483   3.944  13.790  0.6421 -0.3287 -0.4442
    4MPD2     N13871   0.843   3.660  13.794  0.1697  0.1699  0.5328
    4MPD2    H513872   0.871   3.567  13.767 -1.2625 -0.5182  1.4191
    4MPD2    N113873   0.448   3.588  13.527  0.1954  0.7128 -1.0311
    4MPD2    H713874   0.361   3.633  13.502 -0.9503 -0.3249  1.0320
    5TCq2    C113875   0.938   3.739  13.842  0.1071 -0.5358  0.1146
    5TCq2    O213876   0.945   3.859  13.861 -0.4912  0.0031 -0.4037
    5TCq2    C213877   1.055   3.648  13.861  0.2888  0.1806 -0.3278
    5TCq2    C313878   1.171   3.692  13.818  0.2076 -0.2709 -1.1754
    5TCq2    C413879   1.274   3.610  13.808 -0.1980  0.1326  0.4333
    5TCq2    C513880   1.265   3.484  13.863  0.2091 -0.0521  0.5798
    5TCq2    C613881   1.143   3.440  13.900 -1.2931  0.4055  0.4797
    5TCq2    C713882   1.034   3.522  13.904  0.0277  0.4341  0.0809
    5TCq2    C813883   1.112   3.300  13.925  0.4114  0.2464 -0.5181
    5TCq2    O413884   1.018   3.271  13.998  0.2997  0.0600 -0.0251
    5TCq2    C913885   1.397   3.657  13.748  0.0665  0.6139  1.1884
    5TCq2    O513886   1.502   3.587  13.768  0.4942  0.1908 -0.1488
    5TCq2    O613887   1.388   3.753  13.665  0.5275 -0.0502 -0.3057
    5TCq2    H213888   1.179   3.798  13.796 -1.0126 -0.1893 -1.2248
    5TCq2    H313889   1.356   3.425  13.866 -0.7378 -1.6290 -1.8721
    5TCq2    H413890   0.939   3.497  13.950 -1.4033  1.8307 -2.0922
    6MPD1     C13891   1.739   4.137  12.562  1.2736  0.6331  0.1614
    6MPD1    C113892   1.727   4.024  12.634  0.3984  0.2763 -0.1635
    6MPD1    C213893   1.603   3.966  12.655  0.3051 -0.1148 -0.1018
    6MPD1    C313894   1.490   4.030  12.606 -0.7995  0.1362  0.4355
    6MPD1    C413895   1.505   4.152  12.546  0.0986  0.4378 -0.3762
    6MPD1    C513896   1.625   4.203  12.519  0.5390 -0.5001  0.4869
    6MPD1     H13897   1.590   3.870  12.704  0.6261  0.6329  1.4471
    6MPD1    H113898   1.425   4.214  12.507 -0.9066 -0.3087  0.5044
    6MPD1    H213899   1.837   4.175  12.535  0.6223  1.3233 -1.2824
    6MPD1    H313900   1.631   4.294  12.461  0.1383  1.1094  2.9372
    6MPD1     N13901   1.359   3.980  12.617  0.1032  0.2430 -0.1015
    6MPD1    H513902   1.289   4.050  12.590 -1.8210 -1.7950 -0.4085
    6MPD1    N113903   1.844   3.954  12.664 -1.0068  0.1910  0.2131
    6MPD1    H613904   1.834   3.898  12.748 -1.0371 -0.7676 -0.4364
    6MPD1    H713905   1.897   4.038  12.690  0.0269 -0.8492  1.4771
    7MPD2     C13906   0.593   4.003  12.896  0.2969  0.5704  0.4286
    7MPD2    C113907   0.661   3.891  12.915 -0.1650  0.3507  0.2281
    7MPD2    C213908   0.597   3.783  12.975 -0.6526 -0.5433  0.2600
    7MPD2    C313909   0.464   3.789  13.016  0.6033  0.1852  0.1591
    7MPD2    C413910   0.397   3.911  13.003 -0.2081 -0.7869  0.3316
    7MPD2    C513911   0.465   4.018  12.950 -0.2975  0.2157  0.5976
    7MPD2     H13912   0.646   3.689  12.996 -0.7225 -0.8145 -0.8331
    7MPD2    H113913   0.292   3.923  13.028 -0.2406 -1.4650  0.5154
    7MPD2    H213914   0.649   4.090  12.863 -1.2754  2.1993  2.0421
    7MPD2    H313915   0.418   4.114  12.929  1.1688  0.4727 -1.5059
    7MPD2     N13916   0.393   3.668  13.051  0.8087  0.7070 -0.1692
    7MPD2    H513917   0.446   3.583  13.033  0.7949  1.2094 -2.6433
    7MPD2    N113918   0.800   3.867  12.876 -0.5071 -0.4671  0.2718
    7MPD2    H713919   0.827   3.772  12.898  0.4192 -0.5154 -1.1272
    8TMC3    C113920   0.269   3.524  13.181  0.3923 -0.0283 -0.9207
    8TMC3    C213921   0.302   3.512  13.312  0.0996  0.6665  0.1934
    8TMC3    C313922   0.408   3.434  13.347  0.2155  1.2079  0.0683
    8TMC3    C413923   0.324   3.441  13.085  0.0312 -0.2900 -0.4486
    8TMC3    C513924   0.418   3.350  13.129  0.4149  0.0200 -0.1121
    8TMC3    C613925   0.462   3.340  13.264  0.0189  0.4038 -0.3646
    8TMC3     C13926   0.283   3.660  13.131  0.3999  0.7707  0.3340
    8TMC3     O13927   0.245   3.748  13.207 -0.2596  0.5064  0.8819
    8TMC3     H13928   0.257   3.584  13.380 -1.3830 -0.1599  0.0726
    8TMC3    H113929   0.295   3.446  12.981  2.2363 -4.1017 -1.2774
    8TMC3    H213930   0.551   3.286  13.292 -0.4288 -0.8272 -1.2981
    8TMC3    C713931   0.522   3.355  13.029  0.1528  0.3414 -0.0895
    8TMC3    C813932   0.490   3.468  13.463  0.4054 -0.4572 -0.3664
    8TMC3    O113933   0.511   3.445  12.950  0.2621  0.0964 -0.4076
    8TMC3    O213934   0.590   3.403  13.477  0.0693 -0.0226  0.2952
    9TMC3    C113935   1.188   3.821  12.654 -0.4879 -0.3305 -0.6378
    9TMC3    C213936   1.158   3.695  12.611 -0.0273 -0.1860 -0.5957
    9TMC3    C313937   1.032   3.647  12.637  0.4982 -0.0511  1.0192
    9TMC3    C413938   1.089   3.906  12.691 -0.0682  0.3775  0.0645
    9TMC3    C513939   0.973   3.857  12.731  0.4869  0.6021 -0.3770
    9TMC3    C613940   0.942   3.724  12.708 -0.3954 -0.3844 -0.5206
    9TMC3     C13941   1.326   3.851  12.651  0.0117 -0.2150  0.2524
    9TMC3     O13942   1.405   3.758  12.651  0.3179 -0.4791 -0.5351
    9TMC3     H13943   1.228   3.625  12.568  1.4928  0.1108  1.3824
    9TMC3    H113944   1.113   4.010  12.713  1.2673  0.1701 -0.4052
    9TMC3    H213945   0.837   3.702  12.723 -0.2516 -1.2402 -0.7653
    9TMC3    C713946   0.889   3.944  12.803 -0.3132 -0.7819  0.1910
    9TMC3    C813947   1.001   3.497  12.643 -0.5735 -0.7404 -0.6023
    9TMC3    O113948   0.898   4.062  12.783  0.2003  0.2289 -0.4808
    9TMC3    O213949   1.073   3.432  12.570  0.1306  0.2120 -0.2902
   10MPD2     C13950   0.789   3.128  12.926  0.3464  0.0306  1.0716
   10MPD2    C113951   0.723   3.248  12.954 -0.0896 -0.0097 -0.1506
   10MPD2    C213952   0.770   3.358  12.881 -0.3383 -0.0305  0.4535
   10MPD2    C313953   0.876   3.353  12.795  0.9753 -0.0360  0.5940
   10MPD2    C413954   0.923   3.235  12.754 -0.0291 -0.3127  0.0835
   10MPD2    C513955   0.881   3.125  12.825 -0.4755  0.1450  0.1350
   10MPD2     H13956   0.727   3.454  12.909  0.5668  0.9390 -1.4967
   10MPD2    H113957   0.992   3.244  12.671 -0.3769  5.1242  0.4159
   10MPD2    H213958   0.767   3.029  12.966  1.1648 -0.7778 -0.4831
   10MPD2    H313959   0.912   3.026  12.792  3.3037  0.1084  3.7726
   10MPD2     N13960   0.905   3.473  12.740  0.2970  0.0178 -0.0787
   10MPD2    H513961   0.878   3.556  12.792  0.3450 -0.3922  0.6038
   10MPD2    N113962   0.622   3.261  13.046 -0.4545  0.6051 -0.0033
   10MPD2    H713963   0.606   3.190  13.117 -0.1240 -0.4384 -0.9608
   11MPD2     C13964   1.214   2.794  13.836  1.0866  0.4926  0.3046
   11MPD2    C113965   1.140   2.857  13.937 -0.1227  0.0238 -0.2198
   11MPD2    C213966   1.127   2.990  13.936  0.8675  0.4718 -0.0108
   11MPD2    C313967   1.195   3.069  13.850  0.2349 -0.5625 -0.0531
   11MPD2    C413968   1.276   3.004  13.759  0.2589 -0.3962  0.4876
   11MPD2    C513969   1.284   2.871  13.749 -0.6713  0.1285 -0.5509
   11MPD2     H13970   1.064   3.040  14.008  1.0734 -2.0588  1.9250
   11MPD2    H113971   1.318   3.076  13.689 -2.4417 -0.8135 -1.5867
   11MPD2    H213972   1.227   2.687  13.842 -0.1541  0.2923 -0.5497
   11MPD2    H313973   1.334   2.820  13.668 -1.4460 -1.7066  0.1261
   11MPD2     N13974   1.193   3.209  13.853  0.1356  0.6836  0.2529
   11MPD2    H513975   1.244   3.254  13.778  1.8111  1.6557  1.9840
   11MPD2    N113976   1.083   2.768  14.035  0.0111  0.6174 -0.9181
   11MPD2    H713977   1.099   2.668  14.040 -1.7204  0.2897 -2.2701
    1MPD1     C13978   2.536   4.395  16.879  0.1140  0.1962  0.3066
    1MPD1    C113979   2.655   4.456  16.916  0.1891  0.7644  0.5640
    1MPD1    C213980   2.772   4.415  16.852 -0.4386 -0.1383  0.1739
    1MPD1    C313981   2.779   4.303  16.766  0.3720 -0.0109 -0.5267
    1MPD1    C413982   2.663   4.225  16.759 -0.7038  0.2167 -0.3292
    1MPD1    C513983   2.546   4.270  16.817 -0.0291  0.0560 -0.1097
    1MPD1     H13984   2.851   4.489  16.857 -2.0500  1.6789 -1.1957
    1MPD1    H113985   2.665   4.133  16.701 -1.4767 -0.1159  0.1767
    1MPD1    H213986   2.447   4.428  16.932 -1.5722 -2.3518 -0.9422
    1MPD1    H313987   2.460   4.206  16.803  0.6987 -1.0191  0.2943
    1MPD1     N13988   2.887   4.264  16.688 -0.3925 -0.2233  1.1398
    1MPD1    H513989   2.875   4.179  16.634 -0.4149 -0.9090  2.2233
    1MPD1    N113990   2.665   4.585  16.974  0.2952 -0.6062 -0.6127
    1MPD1    H613991   2.593   4.592  17.047 -0.6053 -1.1212 -1.4531
    1MPD1    H713992   2.758   4.597  17.014 -1.0034  1.3075  1.9266
    2MPD1     C13993   3.892   4.272  16.861 -0.1498 -0.2138  0.1058
    2MPD1    C113994   3.801   4.363  16.887 -0.2361  0.4182  0.2647
    2MPD1    C213995   3.670   4.338  16.847 -0.4978 -0.6635  0.2241
    2MPD1    C313996   3.631   4.241  16.765  0.4783 -0.5271 -0.4635
    2MPD1    C413997   3.732   4.153  16.734 -0.1081 -0.2234 -0.0028
    2MPD1    C513998   3.850   4.162  16.793  0.9320  0.8813 -0.1488
    2MPD1     H13999   3.587   4.400  16.878  0.5167  0.5790  0.4627
    2MPD1    H114000   3.708   4.072  16.667  1.2767 -0.3258 -0.3648
    2MPD1    H214001   3.997   4.273  16.887 -0.3497 -3.4173  1.0342
    2MPD1    H314002   3.917   4.082  16.763 -0.8828 -0.6558 -0.1312
    2MPD1     N14003   3.499   4.247  16.706 -0.3786  0.7788 -0.3624
    2MPD1    H514004   3.448   4.334  16.711  0.0039  1.0392 -0.9298
    2MPD1    N114005   3.826   4.453  16.992 -0.1389 -0.3820  0.5095
    2MPD1    H614006   3.920   4.489  16.973 -0.1706  0.3339  1.7453
    2MPD1    H714007   3.770   4.534  16.968  2.5198  1.2184 -0.3427
    3TMC3    C114008   3.302   4.162  16.599 -0.9752  0.7549  0.3187
    3TMC3    C214009   3.261   4.105  16.482  1.0351  0.2112 -0.4013
    3TMC3    C314010   3.142   4.148  16.428 -0.3088 -0.3913  0.1343
    3TMC3    C414011   3.234   4.260  16.658  0.2836  0.1149 -0.4818
    3TMC3    C514012   3.110   4.285  16.605 -0.1515 -0.2059 -0.2239
    3TMC3    C614013   3.060   4.227  16.497 -0.7184  0.2030  0.2619
    3TMC3     C14014   3.439   4.141  16.635 -0.1480  0.0870  0.0618
    3TMC3     O14015   3.495   4.038  16.591 -0.4206  0.2570  0.5337
    3TMC3     H14016   3.308   4.019  16.435 -0.6608 -0.0988 -1.5335
    3TMC3    H114017   3.263   4.291  16.758 -1.6876  1.8872 -0.4726
    3TMC3    H214018   2.968   4.265  16.454  0.5628  0.0747 -2.6275
    3TMC3    C714019   3.013   4.335  16.699  0.4453 -0.3586  0.1916
    3TMC3    C814020   3.147   4.162  16.287 -0.1048 -0.0095 -0.5506
    3TMC3    O114021   3.060   4.403  16.790  0.6418  0.2520  0.5475
    3TMC3    O214022   3.055   4.214  16.232 -0.3516 -0.1957 -0.4967
    4MPD1     C14023   3.425   4.255  15.875  0.0302  0.5222  0.6787
    4MPD1    C114024   3.520   4.208  15.962 -1.0671  1.0363 -0.1462
    4MPD1    C214025   3.463   4.164  16.085 -0.4291  0.3997  0.3690
    4MPD1    C314026   3.320   4.159  16.110 -0.0240  0.2371 -0.1650
    4MPD1    C414027   3.237   4.190  16.001  1.2686  0.0354 -0.6064
    4MPD1    C514028   3.290   4.239  15.888 -0.1910 -0.4344  0.0948
    4MPD1     H14029   3.528   4.133  16.165 -0.8239  0.3608  0.6765
    4MPD1    H114030   3.130   4.197  16.017  1.3123 -1.1303  0.2445
    4MPD1    H214031   3.462   4.299  15.783 -1.6342 -0.7848 -0.6107
    4MPD1    H314032   3.227   4.275  15.808  1.1255  3.3292  0.7643
    4MPD1     N14033   3.277   4.137  16.242 -0.2957  0.2593 -0.5339
    4MPD1    H514034   3.349   4.116  16.310 -2.2255 -0.5630  1.2650
    4MPD1    N114035   3.656   4.253  15.953 -0.0511  0.4616  0.0795
    4MPD1    H614036   3.694   4.247  15.859 -0.4059 -1.1731  0.0418
    4MPD1    H714037   3.726   4.199  16.003  0.6415  0.1792 -1.1810
    1TCq1    O114038   0.065   4.677  10.555  0.0785 -1.0781  0.5532
    1TCq1    C114039   4.705   4.664  10.660 -0.2728  0.0674  0.5035
    1TCq1    O214040   4.619   0.025  10.685 -0.0600 -0.1458 -0.1283
    1TCq1    C214041   4.667   4.519  10.661 -0.9596 -0.4750  0.1746
    1TCq1    C314042   4.545   4.495  10.708  0.3390 -0.3697 -0.3894
    1TCq1    C414043   4.530   4.372  10.772  0.1994  0.4694 -0.3962
    1TCq1    C514044   4.633   4.282  10.774 -0.5193  0.0997 -0.3794
    1TCq1    C614045   0.028   4.306  10.702  0.3467 -1.0841 -0.7496
    1TCq1    C714046   0.052   4.430  10.652  0.8819  0.2810 -0.2501
    1TCq1    C814047   0.141   4.219  10.730  0.0702  0.2563 -0.3317
    1TCq1    O414048   0.252   4.264  10.712 -0.1259  0.3977 -0.0107
    1TCq1    C914049   4.445   4.356  10.885 -0.1123  0.0087  0.1693
    1TCq1    O514050   4.357   4.444  10.895 -0.4944 -0.1445  0.0427
    1TCq1    O614051   4.476   4.276  10.976  0.0878  0.1634  0.2753
    1TCq1    H114052   0.114   4.596  10.531 -1.3767 -1.8323  0.1347
    1TCq1    H214053   4.491   4.579  10.750  1.0042  1.3932 -3.0617
    1TCq1    H314054   4.626   4.194  10.837  1.5041  0.0714 -0.1857
    1TCq1    H414055   0.153   4.468  10.643  0.5369  1.8886  2.7389
    2MPD1     C14056   0.369   3.847  10.998  0.2813  0.2400 -0.4034
    2MPD1    C114057   0.252   3.791  10.957  0.3835  0.0703  0.2651
    2MPD1    C214058   0.161   3.873  10.887  0.4389  0.1125  0.2714
    2MPD1    C314059   0.191   4.006  10.849  0.5459  0.4489  0.1481
    2MPD1    C414060   0.319   4.055  10.884 -0.1921  0.3104 -0.0428
    2MPD1    C514061   0.396   3.977  10.959  0.0086  0.0429 -0.7002
    2MPD1     H14062   0.062   3.832  10.873  0.1862  0.9692 -0.4481
    2MPD1    H114063   0.365   4.148  10.855 -0.1359  0.0573 -0.7608
    2MPD1    H214064   0.446   3.793  11.053 -0.0296  0.1082 -0.0977
    2MPD1    H314065   0.499   4.007  10.976  0.3592 -1.1024 -0.7746
    2MPD1     N14066   0.106   4.097  10.782 -0.4051 -0.1600 -0.2540
    2MPD1    H514067   0.008   4.072  10.773 -0.2081 -0.7165 -0.8990
    2MPD1    N114068   0.219   3.671  11.012  0.2957  0.3169 -0.6609
    2MPD1    H614069   0.133   3.638  10.968 -0.7467  0.6438  1.1261
    2MPD1    H714070   0.294   3.604  11.025 -0.6125 -0.5015  0.3033
    1TCq1    O114071   3.842   3.076   1.208  0.2407 -0.1116  0.1869
    1TCq1    C114072   3.890   2.996   1.300 -1.0799  0.1719  0.3447
    1TCq1    O214073   4.009   2.960   1.312  0.0202 -0.0939  0.2883
    1TCq1    C214074   3.773   2.925   1.357  0.4277  0.2396 -0.9083
    1TCq1    C314075   3.653   2.969   1.310 -0.2608  0.5205  0.9958
    1TCq1    C414076   3.547   2.970   1.393 -0.6197  0.0964  0.6069
    1TCq1    C514077   3.563   2.927   1.522  0.8815  0.1287 -0.0424
    1TCq1    C614078   3.684   2.886   1.577  0.1052  0.6043 -0.3142
    1TCq1    C714079   3.791   2.875   1.488  0.2888  0.3414 -0.2193
    1TCq1    C814080   3.695   2.824   1.713 -0.0870  0.3901  0.3838
    1TCq1    O414081   3.794   2.759   1.738 -0.8362  0.0878  0.2635
    1TCq1    C914082   3.415   2.974   1.337 -0.0740 -0.2377  0.8450
    1TCq1    O514083   3.327   2.916   1.407 -0.1883  0.0634 -0.2529
    1TCq1    O614084   3.396   3.043   1.233 -0.4157  0.2279  0.4502
    1TCq1    H114085   3.746   3.090   1.219  0.5396  1.1116  1.1931
    1TCq1    H214086   3.632   2.966   1.203  3.6068 -1.5088  0.2872
    1TCq1    H314087   3.476   2.932   1.585  1.3313  1.1106  0.5010
    1TCq1    H414088   3.890   2.850   1.526  1.3963  3.2095 -1.2027
    2MPD1     C14089   3.513   2.642   2.156  0.2468  0.7193 -0.3511
    2MPD1    C114090   3.422   2.731   2.115 -0.4434  0.0221 -1.0470
    2MPD1    C214091   3.451   2.792   1.996  0.1134  0.1763 -0.0974
    2MPD1    C314092   3.563   2.760   1.920 -0.1315 -0.3343  0.0712
    2MPD1    C414093   3.645   2.662   1.962  1.0210  0.6729 -0.3529
    2MPD1    C514094   3.618   2.603   2.080 -0.2166  0.3146 -0.2546
    2MPD1     H14095   3.390   2.869   1.950  0.3021  0.6185  0.3935
    2MPD1    H114096   3.724   2.617   1.902  1.2032  0.6391 -0.0848
    2MPD1    H214097   3.501   2.585   2.247  0.1734 -2.1611 -2.1798
    2MPD1    H314098   3.681   2.525   2.120 -2.9142 -0.7563  1.9026
    2MPD1     N14099   3.585   2.835   1.798  0.3527 -0.0990  0.3481
    2MPD1    H514100   3.515   2.904   1.775 -0.7047 -1.1725  0.3724
    2MPD1    N114101   3.319   2.780   2.206 -0.0570  0.4469 -0.0223
    2MPD1    H614102   3.291   2.692   2.250 -0.6997  1.3123  1.2960
    2MPD1    H714103   3.235   2.819   2.164 -0.9578  1.4623  2.7524
    1MPD1     C14104   1.756   3.411  11.957 -0.2233 -0.0713 -0.3750
    1MPD1    C114105   1.738   3.550  11.973  0.4743  0.5649 -0.3994
    1MPD1    C214106   1.834   3.639  11.923 -0.4944  0.0138 -0.1162
    1MPD1    C314107   1.939   3.593  11.843  0.6123  0.7610 -0.7047
    1MPD1    C414108   1.958   3.453  11.829 -0.2712  0.1560  0.0380
    1MPD1    C514109   1.865   3.363  11.886  0.3533  0.1979 -0.7728
    1MPD1     H14110   1.826   3.746  11.937 -3.1578 -0.4228  1.7229
    1MPD1    H114111   2.053   3.421  11.786 -1.3124 -1.3770 -1.0958
    1MPD1    H214112   1.687   3.339  11.999  0.4863 -0.0992  0.7172
    1MPD1    H314113   1.886   3.257  11.879 -0.0553  0.1149 -0.7112
    1MPD1     N14114   2.027   3.686  11.780 -0.7638  0.0660 -0.3592
    1MPD1    H514115   2.018   3.780  11.815 -3.7844 -0.3029 -0.1323
    1MPD1    N114116   1.659   3.596  12.079 -0.1079  0.1816  0.2508
    1MPD1    H614117   1.577   3.540  12.099  0.0109  0.6658  2.0713
    1MPD1    H714118   1.633   3.693  12.061  0.1409  0.0012 -1.1095
    2MPD1     C14119   3.053   4.195   9.776 -0.5576 -0.5760 -0.6589
    2MPD1    C114120   2.962   4.128   9.698  0.5470 -0.2653 -0.1954
    2MPD1    C214121   2.827   4.158   9.714  0.0528 -0.3279 -0.1723
    2MPD1    C314122   2.784   4.254   9.806 -0.0517 -0.2575 -0.1354
    2MPD1    C414123   2.877   4.330   9.875  0.4305 -0.7902  0.0345
    2MPD1    C514124   3.009   4.295   9.861 -0.4042 -0.1939  0.0043
    2MPD1     H14125   2.756   4.108   9.649 -2.0097  2.1992  0.1423
    2MPD1    H114126   2.846   4.420   9.927  3.9188  0.6091 -0.2571
    2MPD1    H214127   3.160   4.181   9.759 -0.7172 -1.2383 -1.0826
    2MPD1    H314128   3.080   4.362   9.908  2.1755 -3.2945  0.4606
    2MPD1     N14129   2.646   4.287   9.821 -0.1406 -0.4582  0.5061
    2MPD1    H514130   2.633   4.357   9.893  1.3833  0.6160 -0.2591
    2MPD1    N114131   3.005   4.019   9.617  0.5403  0.0707 -0.1406
    2MPD1    H614132   3.096   4.044   9.578  0.5787  0.7016  0.3538
    2MPD1    H714133   2.939   3.986   9.547  0.3444  0.5654 -0.1866
    3MPD1     C14134   1.872   3.750   9.525  0.2573 -0.3610  0.5101
    3MPD1    C114135   1.997   3.719   9.582  1.4045  0.8910  0.4354
    3MPD1    C214136   2.068   3.823   9.642 -0.2185 -0.2664 -0.2937
    3MPD1    C314137   2.014   3.948   9.653  0.3361 -0.3954 -0.1091
    3MPD1    C414138   1.885   3.972   9.612 -0.3466 -0.6095 -0.2998
    3MPD1    C514139   1.817   3.866   9.556  0.2948 -0.3581  0.2338
    3MPD1     H14140   2.169   3.816   9.680  0.0335 -2.2309 -1.3054
    3MPD1    H114141   1.837   4.069   9.615 -1.2458 -1.0040 -1.7453
    3MPD1    H214142   1.810   3.676   9.475  1.4113 -0.3285 -0.9357
    3MPD1    H314143   1.713   3.871   9.526  0.7787  0.3584 -1.3386
    3MPD1     N14144   2.096   4.045   9.712  0.5520 -0.0938  0.1575
    3MPD1    H514145   2.186   4.009   9.744  0.4333 -1.5838 -1.1604
    3MPD1    N114146   2.042   3.585   9.594 -0.1215  0.2328  0.1366
    3MPD1    H614147   2.142   3.570   9.591 -0.4286 -1.3968 -2.0601
    3MPD1    H714148   1.997   3.525   9.525  0.9262  0.5975 -0.8502
    4MPD2     C14149   2.199   4.387  11.571  0.7439 -0.0915 -0.7595
    4MPD2    C114150   2.276   4.289  11.506  0.0659  0.0992 -0.2532
    4MPD2    C214151   2.305   4.316  11.372  0.0528  0.6656  0.7192
    4MPD2    C314152   2.279   4.431  11.305 -0.4778  0.2683 -0.5216
    4MPD2    C414153   2.215   4.530  11.373 -0.2927 -0.0874 -0.3114
    4MPD2    C514154   2.169   4.506  11.501  0.3550 -0.3983  0.6185
    4MPD2     H14155   2.358   4.243  11.312  2.2744  1.0595  2.2421
    4MPD2    H114156   2.182   4.616  11.316  1.0600  2.2046  2.3350
    4MPD2    H214157   2.169   4.378  11.675  1.6022 -0.0199 -0.5101
    4MPD2    H314158   2.102   4.580  11.542  0.9530  0.8036 -0.5586
    4MPD2     N14159   2.315   4.434  11.165  0.6719 -0.2554  0.0631
    4MPD2    H514160   2.361   4.349  11.134 -0.7295 -1.5622  1.5610
    4MPD2    N114161   2.312   4.164  11.558 -0.2507 -0.4141  0.3787
    4MPD2    H714162   2.382   4.115  11.503  0.5467  0.1179  0.9135
    5TMC3    C114163   2.305   3.976  11.700 -0.1354 -0.3904 -0.2522
    5TMC3    C214164   2.203   3.884  11.718  0.1326  0.2641 -0.0451
    5TMC3    C314165   2.213   3.762  11.653 -0.6672  0.7861  0.0144
    5TMC3    C414166   2.405   3.948  11.616 -0.1425 -0.3830 -0.8211
    5TMC3    C514167   2.406   3.832  11.543 -0.1583 -0.1446  0.3729
    5TMC3    C614168   2.305   3.736  11.554  0.2004  0.1130 -0.0833
    5TMC3     C14169   2.247   4.104  11.661 -0.7181  0.1543 -0.9165
    5TMC3     O14170   2.159   4.146  11.735 -0.3915  0.5532  0.1027
    5TMC3     H14171   2.128   3.910  11.792  0.7707 -1.1243  1.0992
    5TMC3    H114172   2.492   4.012  11.609  0.8172 -1.6177 -0.3255
    5TMC3    H214173   2.296   3.650  11.488  2.2999 -2.2908  2.7660
    5TMC3    C714174   2.447   3.863  11.408 -0.2563 -0.1201  0.1504
    5TMC3    C814175   2.123   3.657  11.684 -0.1810 -0.6279  0.7787
    5TMC3    O114176   2.465   3.982  11.386  0.3093 -0.1707  0.4626
    5TMC3    O214177   2.134   3.553  11.615  0.4332  0.0870 -0.5792
    6TMC3    C114178   2.400   4.272   9.801 -0.0606 -0.0867  0.1232
    6TMC3    C214179   2.301   4.215   9.731 -0.6881 -0.4947  0.2943
    6TMC3    C314180   2.180   4.259   9.774 -0.4528 -0.0714  0.1578
    6TMC3    C414181   2.385   4.368   9.898  0.5419 -0.7570  0.1720
    6TMC3    C514182   2.260   4.395   9.943 -1.2338  0.9720 -0.0243
    6TMC3    C614183   2.147   4.344   9.876 -0.1464  0.0086 -0.1297
    6TMC3     C14184   2.537   4.212   9.773  0.0674  0.3660  0.5346
    6TMC3     O14185   2.545   4.098   9.732  0.6359 -0.3920 -0.4247
    6TMC3     H14186   2.313   4.137   9.656 -1.3203 -1.7109  1.4584
    6TMC3    H114187   2.466   4.406   9.959  1.5210 -1.1418 -0.8745
    6TMC3    H214188   2.042   4.352   9.902 -0.2555 -2.0896  0.0257
    6TMC3    C714189   2.238   4.422  10.087 -0.3376 -0.1538 -0.0674
    6TMC3    C814190   2.072   4.178   9.718 -0.3763  0.1244 -0.0232
    6TMC3    O114191   2.333   4.401  10.163 -0.2014 -0.2799  0.1079
    6TMC3    O214192   1.963   4.234   9.714  0.2034 -0.1789  0.8699
    7MPD2     C14193   2.507   3.809  10.897  0.2496  0.2734  0.7939
    7MPD2    C114194   2.491   3.924  10.974 -0.3560 -0.0205 -0.2637
    7MPD2    C214195   2.467   3.911  11.110 -0.0810  0.0811 -0.0648
    7MPD2    C314196   2.468   3.784  11.176 -0.2170 -1.0980  0.0905
    7MPD2    C414197   2.482   3.669  11.097  0.1640 -0.4140 -0.9455
    7MPD2    C514198   2.503   3.689  10.963  0.5324  0.3624  0.6694
    7MPD2     H14199   2.461   4.000  11.172 -1.0471 -0.1572  0.1856
    7MPD2    H114200   2.473   3.567  11.132 -0.5708 -0.0691 -0.1145
    7MPD2    H214201   2.540   3.815  10.794  1.8823 -0.6790  1.2625
    7MPD2    H314202   2.522   3.595  10.912 -0.6373  1.9488 -2.6709
    7MPD2     N14203   2.450   3.763  11.314  0.1605  0.2175  0.2332
    7MPD2    H514204   2.447   3.667  11.346  0.1067  0.9759  2.4925
    7MPD2    N114205   2.487   4.048  10.910 -0.6427  0.1778 -0.0600
    7MPD2    H714206   2.521   4.054  10.814  2.0312  3.0683  1.0726
    8TMC3    C114207   2.457   4.275  10.891  1.2941  0.6335  0.3931
    8TMC3    C214208   2.366   4.262  10.788  0.4884  0.6514  0.5154
    8TMC3    C314209   2.279   4.364  10.761 -0.1627 -0.3059  0.4221
    8TMC3    C414210   2.445   4.386  10.967 -1.0796 -0.8905 -0.0053
    8TMC3    C514211   2.348   4.480  10.951  0.4820  0.4392 -0.0514
    8TMC3    C614212   2.264   4.476  10.837  0.1384  0.6978 -0.1516
    8TMC3     C14213   2.446   4.164  10.973  0.6138  0.7350  0.2729
    8TMC3     O14214   2.383   4.191  11.075 -0.1155  0.8441 -0.0288
    8TMC3     H14215   2.378   4.173  10.728  1.0835  0.8560  0.3225
    8TMC3    H114216   2.507   4.395  11.055 -0.0896 -0.8556 -0.7047
    8TMC3    H214217   2.188   4.552  10.822 -1.7036 -1.0517  0.3006
    8TMC3    C714218   2.293   4.532  11.073 -0.0269  0.4176 -0.4017
    8TMC3    C814219   2.241   4.368  10.620 -0.2624 -0.7981  0.2514
    8TMC3    O114220   2.241   4.641  11.082  0.5992  0.5220  0.2164
    8TMC3    O214221   2.322   4.324  10.538 -0.3833 -0.3537  0.1482
    9MPD2     C14222   1.926   4.478  10.474 -0.4370  0.2102 -0.3046
    9MPD2    C114223   2.054   4.430  10.478  0.5422 -0.2235  0.2353
    9MPD2    C214224   2.120   4.423  10.355  0.4241 -0.4332  0.2090
    9MPD2    C314225   2.057   4.467  10.245 -1.0896 -0.5102 -0.5616
    9MPD2    C414226   1.933   4.529  10.247  0.2294 -0.2096  0.1477
    9MPD2    C514227   1.862   4.504  10.355 -0.0436 -0.6599 -0.2771
    9MPD2     H14228   2.222   4.387  10.351  1.8354  3.5058  0.2789
    9MPD2    H114229   1.874   4.551  10.159 -1.6556  0.7301  1.6418
    9MPD2    H214230   1.877   4.489  10.570 -0.6567 -0.5663 -0.3208
    9MPD2    H314231   1.765   4.552  10.357  1.4269  2.3343 -0.7561
    9MPD2     N14232   2.111   4.470  10.116 -0.0552 -0.0448  0.3916
    9MPD2    H514233   2.054   4.495  10.035 -0.0673  0.8831  0.6955
    9MPD2    N114234   2.117   4.423  10.603 -0.4194  0.3551 -0.4216
    9MPD2    H714235   2.060   4.448  10.684 -1.6794 -3.7006 -0.0867
    1MPD1     C14236   0.351   2.099   1.229 -0.2754 -0.2882  0.0115
    1MPD1    C114237   0.233   2.032   1.192 -0.8511 -0.0902  0.4203
    1MPD1    C214238   0.164   2.074   1.084  0.1949 -0.5940  1.1018
    1MPD1    C314239   0.200   2.190   1.010 -0.3796 -0.0089  0.5900
    1MPD1    C414240   0.314   2.262   1.056 -0.8613 -0.2421  0.1275
    1MPD1    C514241   0.387   2.212   1.162 -0.7087 -0.0040 -1.1701
    1MPD1     H14242   0.086   2.008   1.048  0.0075  0.6265 -0.7401
    1MPD1    H114243   0.352   2.346   0.999  0.4807  0.3416  1.8589
    1MPD1    H214244   0.406   2.071   1.317  1.0537  0.4149 -0.5846
    1MPD1    H314245   0.483   2.254   1.189  0.3384 -2.3141 -1.3332
    1MPD1     N14246   0.125   2.242   0.907  0.4491  0.2247 -0.4589
    1MPD1    H514247   0.160   2.330   0.870  0.6515  1.3350  2.3517
    1MPD1    N114248   0.184   1.935   1.286  0.2778 -0.1403  0.4381
    1MPD1    H614249   0.112   1.878   1.242  0.6167  0.4536 -0.8613
    1MPD1    H714250   0.258   1.875   1.321 -0.8715 -1.1644  1.1557
    2MPD1     C14251   3.872   2.478   0.762 -0.0221  0.7600  0.4921
    2MPD1    C114252   3.930   2.423   0.876 -0.8204  0.1778  0.5702
    2MPD1    C214253   4.073   2.409   0.869 -0.3922 -1.2948  0.4451
    2MPD1    C314254   4.147   2.462   0.762  0.9778 -0.2659  0.6057
    2MPD1    C414255   4.081   2.524   0.662 -0.4779  0.2235 -0.2532
    2MPD1    C514256   3.944   2.537   0.663 -0.9135 -0.8331 -0.1913
    2MPD1     H14257   4.129   2.351   0.941  0.1613 -1.3091  0.0057
    2MPD1    H114258   4.128   2.560   0.572 -0.0953  0.0693 -0.1155
    2MPD1    H214259   3.767   2.496   0.742 -0.3502 -0.5503  1.0219
    2MPD1    H314260   3.901   2.589   0.578 -0.7821  2.4429  1.7234
    2MPD1     N14261   4.285   2.423   0.753 -0.4638 -0.6715  0.1979
    2MPD1    H514262   4.316   2.343   0.808  3.1856  1.4590  1.2564
    2MPD1    N114263   3.848   2.356   0.973 -0.2966 -0.6939  0.3320
    2MPD1    H614264   3.753   2.390   0.980  0.5106  1.5637  0.5303
    2MPD1    H714265   3.904   2.328   1.053  1.2577  1.0047 -0.1408
    3TCq2    C114266   4.383   2.482   0.679 -0.0048 -0.1230  0.0836
    3TCq2    O214267   4.371   2.582   0.607  0.1901 -0.1297  0.2600
    3TCq2    C214268   4.513   2.424   0.684 -0.7603  0.2420 -1.1294
    3TCq2    C314269   4.601   2.475   0.592 -0.3490  0.0435 -0.4563
    3TCq2    C414270   0.014   2.442   0.584 -0.9603 -0.0878 -0.3160
    3TCq2    C514271   0.053   2.351   0.683  0.4131 -0.1833 -0.4919
    3TCq2    C614272   4.678   2.285   0.757  0.2497  0.7125  0.4482
    3TCq2    C714273   4.549   2.322   0.770  0.0820  0.1741 -0.0484
    3TCq2    C814274   0.007   2.187   0.855 -0.2346 -0.3351 -0.1335
    3TCq2    O414275   4.656   2.096   0.891  0.1238  0.8198  0.0351
    3TCq2    C914276   0.098   2.507   0.486  0.5202 -0.2046 -0.0424
    3TCq2    O514277   0.033   2.574   0.398  0.1944 -0.1643 -0.2722
    3TCq2    O614278   0.217   2.524   0.527 -0.1027  0.3663 -0.3184
    3TCq2    H214279   4.564   2.550   0.524  0.4945  0.7239 -0.1741
    3TCq2    H314280   0.152   2.308   0.678  1.1010  1.4565 -0.9803
    3TCq2    H414281   4.473   2.266   0.823  0.2284  0.5816  0.5896
    1TCq1    O114282   3.674   1.997  12.846 -0.2932  0.0437  0.0118
    1TCq1    C114283   3.796   2.009  12.794  0.1324  0.4358  0.3662
    1TCq1    O214284   3.833   2.084  12.705 -0.2342  0.2851  0.2501
    1TCq1    C214285   3.890   1.965  12.899 -0.3863  0.3101 -0.6315
    1TCq1    C314286   3.863   1.849  12.970  0.0445 -0.1073 -0.4128
    1TCq1    C414287   3.962   1.810  13.056  0.2419  0.8204 -0.6375
    1TCq1    C514288   4.088   1.872  13.066 -0.6490 -0.5276 -0.0184
    1TCq1    C614289   4.110   1.969  12.979  0.4199  0.0561 -0.3340
    1TCq1    C714290   4.013   2.027  12.900  0.2463  0.1791  0.1374
    1TCq1    C814291   4.232   2.047  12.999  0.2185  0.8234 -0.1545
    1TCq1    O414292   4.276   2.101  12.896  0.1823  0.2516  0.3242
    1TCq1    C914293   3.937   1.692  13.123 -0.2673 -0.4383 -0.9242
    1TCq1    O514294   4.040   1.631  13.166 -0.0905  0.2847  0.7760
    1TCq1    O614295   3.818   1.658  13.126  0.7650  0.3564 -0.3655
    1TCq1    H114296   3.658   1.933  12.918 -1.0375  0.6166  0.3517
    1TCq1    H214297   3.774   1.791  12.949  1.0875 -1.0355 -2.3004
    1TCq1    H314298   4.159   1.823  13.132  1.0344  2.0852  0.0830
    1TCq1    H414299   4.038   2.110  12.835  0.2839  0.1319  0.0903
    2MPD2     C14300   4.478   2.177  13.099 -0.3351  0.4986 -0.6853
    2MPD2    C114301   4.376   2.129  13.181 -0.1953 -0.5753 -0.6137
    2MPD2    C214302   4.388   2.140  13.323  1.0247  0.9295  0.4059
    2MPD2    C314303   4.496   2.215  13.379  0.1873  0.3350 -0.4871
    2MPD2    C414304   4.591   2.258  13.292 -0.0334 -0.3620  0.3947
    2MPD2    C514305   4.587   2.240  13.154 -0.4261  0.0706 -0.1763
    2MPD2     H14306   4.313   2.087  13.380  2.8818 -1.0520  0.9715
    2MPD2    H114307   4.679   2.307  13.332  0.6418 -0.9891 -0.3094
    2MPD2    H214308   4.473   2.168  12.991 -0.1164  2.0026 -0.8156
    2MPD2    H314309   4.668   2.279  13.094  0.7038 -1.2274  0.5080
    2MPD2     N14310   4.508   2.213  13.520 -0.2698 -0.7073 -0.1239
    2MPD2    H514311   4.430   2.169  13.567  1.8587 -1.6831  2.4800
    2MPD2    N114312   4.267   2.058  13.131 -0.3509 -0.0103 -0.2028
    2MPD2    H714313   4.208   2.004  13.193 -1.3416  2.0711  0.6524
    3TCq1    O114314   4.350   2.180  14.121 -0.1325  0.0522  0.1504
    3TCq1    C114315   4.342   2.240  13.998  0.4437  0.2797  0.2193
    3TCq1    O214316   4.249   2.310  13.964 -0.9434  0.4508 -0.3743
    3TCq1    C214317   4.465   2.210  13.923 -0.3738 -0.2429 -0.3736
    3TCq1    C314318   4.583   2.172  13.993  0.1595 -0.1504 -0.2927
    3TCq1    C414319   4.707   2.168  13.923  0.6595 -0.2075 -0.9013
    3TCq1    C514320   4.710   2.213  13.798 -0.9087  0.0610 -0.8196
    3TCq1    C614321   4.599   2.257  13.730 -0.3526 -0.3733 -0.1855
    3TCq1    C714322   4.473   2.254  13.790 -0.6556  0.5062  0.5103
    3TCq1    C814323   4.614   2.277  13.588 -1.0696 -0.0432 -0.0799
    3TCq1    O414324   4.719   2.328  13.553 -0.4695  0.3605  0.1023
    3TCq1    C914325   0.108   2.118  13.986 -0.2909  0.4957 -0.5109
    3TCq1    O514326   0.218   2.126  13.916 -0.1028 -0.7756 -0.1718
    3TCq1    O614327   0.093   2.066  14.095  0.4942 -0.4240 -0.1951
    3TCq1    H114328   4.417   2.108  14.120  1.3321  1.4077  0.2892
    3TCq1    H214329   4.591   2.154  14.099  2.8611  1.2201 -0.2666
    3TCq1    H314330   0.083   2.208  13.744  0.2674 -0.5720  1.2781
    3TCq1    H414331   4.386   2.288  13.735 -2.9110 -3.7157  1.4674
    1MPD2     C14332   4.073   3.025  14.582  0.8228  0.4394  0.8018
    1MPD2    C114333   3.952   2.963  14.555  0.0471  0.1974 -0.0905
    1MPD2    C214334   3.955   2.845  14.476 -0.1018  0.0321 -0.1206
    1MPD2    C314335   4.072   2.797  14.420  0.4689 -0.0096 -1.2423
    1MPD2    C414336   4.183   2.877  14.428  0.4441  1.1233  0.5274
    1MPD2    C514337   4.183   2.988  14.514  0.1219  0.6232 -0.5447
    1MPD2     H14338   3.862   2.799  14.448 -0.8529  1.9162 -0.6975
    1MPD2    H114339   4.274   2.854  14.373  0.0529 -0.1764  0.4232
    1MPD2    H214340   4.081   3.114  14.643 -2.1765  1.0230  0.3113
    1MPD2    H314341   4.278   3.040  14.526 -0.0415  0.8927 -0.4220
    1MPD2     N14342   4.062   2.675  14.361  0.1534 -0.1231 -0.0420
    1MPD2    H514343   3.968   2.639  14.365  0.5223 -1.0980 -0.0544
    1MPD2    N114344   3.832   3.010  14.610 -0.8754 -0.3143 -0.3372
    1MPD2    H714345   3.832   3.106  14.641  0.5850  0.0029 -1.3265
    2TMC3    C114346   3.592   3.033  14.613 -0.4207  0.4381  0.0990
    2TMC3    C214347   3.475   2.962  14.619  0.3521  0.1368  0.3792
    2TMC3    C314348   3.367   2.996  14.541  0.0778 -0.0595  0.1244
    2TMC3    C414349   3.595   3.152  14.535 -0.7411 -0.1734  0.0931
    2TMC3    C514350   3.477   3.190  14.466 -0.3764  0.1641 -0.3574
    2TMC3    C614351   3.364   3.116  14.473  0.0831  0.3396  0.1928
    2TMC3     C14352   3.706   2.950  14.590  0.0356 -0.5609  0.8492
    2TMC3     O14353   3.676   2.833  14.564 -0.3683  0.1024  0.2703
    2TMC3     H14354   3.465   2.871  14.677 -0.2050 -0.9629 -1.4336
    2TMC3    H114355   3.689   3.205  14.525  0.0616 -1.9805 -1.9706
    2TMC3    H214356   3.273   3.141  14.421  0.4999  0.0836 -0.6561
    2TMC3    C714357   3.491   3.283  14.359  0.4829  0.4456 -0.2318
    2TMC3    C814358   3.317   2.881  14.471 -0.0326 -0.0968  0.5384
    2TMC3    O114359   3.402   3.289  14.277 -0.3905  0.1189  0.6898
    2TMC3    O214360   3.229   2.912  14.396  0.2533 -0.7215  0.5541
    3TCq1    O114361   4.075   3.925  14.726  0.5269 -0.1081 -0.0940
    3TCq1    C114362   4.072   4.045  14.670  0.2888  0.3410 -0.5103
    3TCq1    O214363   4.111   4.151  14.725 -0.2522 -0.1183  0.8330
    3TCq1    C214364   4.088   4.029  14.526 -0.1360 -0.6231 -0.1350
    3TCq1    C314365   4.183   4.106  14.466 -0.1666 -0.0086 -0.2710
    3TCq1    C414366   4.191   4.103  14.326  0.6538  0.6528  0.0449
    3TCq1    C514367   4.105   4.031  14.254  0.3998 -0.5571  0.5156
    3TCq1    C614368   4.018   3.943  14.323 -0.0762 -0.2158 -0.3505
    3TCq1    C714369   4.008   3.943  14.456  0.1112 -0.0009  0.3834
    3TCq1    C814370   3.931   3.859  14.243  0.8031  0.2619 -0.3182
    3TCq1    O414371   3.914   3.901  14.127  0.1602  0.8021 -0.1713
    3TCq1    C914372   4.303   4.184  14.276 -0.1783 -0.5184 -0.1796
    3TCq1    O514373   4.413   4.174  14.334  0.8496  0.0077 -0.2768
    3TCq1    O614374   4.286   4.225  14.155 -0.1008 -0.9089  0.4222
    3TCq1    H114375   4.063   3.854  14.660  1.8929  0.5796 -1.0761
    3TCq1    H214376   4.234   4.191  14.511  0.0996 -0.8114  0.9356
    3TCq1    H314377   4.107   4.016  14.146 -0.5324 -3.0870  0.8299
    3TCq1    H414378   3.932   3.888  14.510 -0.2672 -0.4543 -0.6091
    4MPD2     C14379   3.723   3.681  14.116  0.6272  0.2333 -0.4864
    4MPD2    C114380   3.780   3.667  14.243 -0.3597  0.6579 -0.2369
    4MPD2    C214381   3.744   3.558  14.317  0.2345  0.1776 -0.7636
    4MPD2    C314382   3.648   3.469  14.275 -0.5925 -0.3403  1.3073
    4MPD2    C414383   3.589   3.480  14.149 -0.1279  0.7076 -0.2512
    4MPD2    C514384   3.631   3.586  14.078  0.0882 -0.1004 -0.4253
    4MPD2     H14385   3.784   3.551  14.417 -0.1593  0.6818 -0.5713
    4MPD2    H114386   3.513   3.416  14.106 -1.0431  1.1045  0.7906
    4MPD2    H214387   3.737   3.774  14.061 -0.4349  0.4195 -0.4370
    4MPD2    H314388   3.581   3.595  13.982 -0.8509  1.0923  0.1733
    4MPD2     N14389   3.601   3.369  14.369  0.3369 -0.1139 -0.3177
    4MPD2    H514390   3.656   3.354  14.453  0.0278  1.3114  0.1308
    4MPD2    N114391   3.875   3.749  14.307 -0.1579 -0.1789  0.5088
    4MPD2    H714392   3.915   3.716  14.394 -2.1806 -0.6745  1.2627
    5TMC2    C114393   3.876   2.398  14.248 -0.1046 -0.0728 -0.3506
    5TMC2    C214394   3.911   2.288  14.324 -0.0396 -0.3329  0.1375
    5TMC2    C314395   4.048   2.272  14.353 -0.1546 -0.3373  0.5881
    5TMC2    C414396   3.967   2.498  14.223 -0.2238 -0.4957 -0.3532
    5TMC2    C514397   4.092   2.482  14.252 -0.8272 -0.4409  0.0773
    5TMC2    C614398   4.135   2.364  14.311  0.0602  0.4166  0.0019
    5TMC2     C14399   3.767   2.462  14.311  0.8789 -0.6106 -0.4297
    5TMC2     O14400   3.808   2.552  14.376  0.1454  0.7858  0.0269
    5TMC2     H14401   3.839   2.220  14.369 -0.1313  1.1679  2.2425
    5TMC2    H114402   3.934   2.584  14.166  1.5511  1.4401  1.5508
    5TMC2    H214403   4.238   2.352  14.343 -0.1685 -0.0997  0.5452
    5TMC2    C714404   4.159   2.600  14.304 -0.4395  0.9264  0.3234
    5TMC2    C814405   4.098   2.140  14.372 -0.7115  0.0853 -0.0932
    5TMC2    O114406   4.281   2.617  14.299 -0.2569  0.4875 -0.1281
    5TMC2    O214407   4.169   2.100  14.463 -0.4385 -0.5091  0.3223
    5TMC2    O514408   4.013   2.073  14.289 -0.1470  0.2055  0.2083
    5TMC2    H514409   3.993   2.146  14.226  0.5194  1.2917  1.2589
    6MPD2     C14410   3.295   2.637  14.310 -0.3241 -0.0773 -0.2172
    6MPD2    C114411   3.395   2.665  14.396 -0.1159 -0.3118 -0.0959
    6MPD2    C214412   3.505   2.587  14.397  0.2235 -0.5392  0.0211
    6MPD2    C314413   3.514   2.480  14.312 -0.2152  0.2188  0.6774
    6MPD2    C414414   3.411   2.446  14.233  0.0916 -0.1891 -0.0519
    6MPD2    C514415   3.300   2.522  14.233 -0.0171  0.4830 -0.7658
    6MPD2     H14416   3.597   2.622  14.444 -0.4192 -1.0487  1.6539
    6MPD2    H114417   3.422   2.368  14.158 -0.1639 -0.8388  0.5821
    6MPD2    H214418   3.199   2.687  14.305 -0.6389 -0.3318  3.0255
    6MPD2    H314419   3.212   2.495  14.176  0.3467  0.4596 -1.3222
    6MPD2     N14420   3.641   2.413  14.286  0.3936  0.5655  0.2536
    6MPD2    H514421   3.636   2.334  14.223 -2.0728  0.8655  0.0687
    6MPD2    N114422   3.403   2.773  14.483 -0.1843  0.2705  0.0042
    6MPD2    H714423   3.488   2.785  14.537  0.1563 -0.7711 -0.2936
  945NH4     N114424   1.853   1.584   0.739  0.4493 -0.0607  0.5520
  945NH4     H214425   1.780   1.611   0.670  0.4314  0.6269  0.8485
  945NH4     H314426   1.918   1.515   0.696 -1.1274  0.3533 -2.5561
  945NH4     H414427   1.821   1.525   0.818  0.1415 -0.7222 -0.0631
  945NH4     H514428   1.902   1.669   0.773 -0.3010  1.4808 -2.2014
  946SOD     NA14429   4.567   1.708  10.351  0.7057  0.1341  0.0693
  947SOD     NA14430   0.601   2.094  13.931  0.1245 -0.3387  0.1012
  948SOD     NA14431   4.481   4.328  14.119 -0.2605 -0.3006 -0.0983
  949SOD     NA14432   3.459   0.051   1.916 -0.0465 -0.5979  0.2589
  950SOD     NA14433   2.499   3.877   9.727 -0.5678  0.2627 -0.1031
  951SOD     NA14434   0.080   1.200  11.660  0.0505  0.1032 -0.2109
  952SOD     NA14435   1.562   1.796   0.225 -0.2603 -0.1463  0.0213
  953SOD     NA14436   1.348   1.320  12.856  0.0714  0.0984  0.3232
  954SOD     NA14437   0.633   1.157  16.747  0.1622 -0.0917 -0.2497
  955SOD     NA14438   1.220   3.898   0.985 -0.2001 -0.4607 -0.9573
  956SOD     NA14439   1.574   1.512  13.743  0.3139 -0.1820 -0.2179
  957SOD     NA14440   4.468   1.736   9.745 -0.3692 -0.1977  0.1171
  958SOD     NA14441   1.485   0.458  15.048  0.3564 -0.1332  0.1792
  959SOD     NA14442   0.094   2.638  11.532  0.1235  0.4761  0.1451
  960SOD     NA14443   2.451   2.179  13.220  0.1320 -0.3026 -0.0004
  961SOD     NA14444   3.212   1.697   0.973 -0.3970  0.2003 -0.2752
  962SOD     NA14445   2.099   0.854   2.031  0.1410  0.0283 -0.1288
  963SOD     NA14446   2.825   4.278   4.008 -0.2339 -0.3767 -0.0451
  964SOD     NA14447   3.121   2.902   9.960 -0.2036 -0.2100 -0.2116
  965SOD     NA14448   2.713   0.114  10.232  0.0840 -0.3737 -0.3789
  966SOD     NA14449   0.102   1.150  11.363 -0.5288  0.1210  0.2274
  967SOD     NA14450   2.456   1.609  12.960 -0.3714  0.4490  0.2308
  968SOD     NA14451   0.887   2.376   0.600 -0.3771  0.0896  0.2305
  969SOD     NA14452   2.771   1.742   4.406  0.1803 -0.0514  0.2441
  970SOD     NA14453   4.022   1.476  10.207  0.0347  0.5327 -0.3876
  971SOD     NA14454   3.289   2.312   3.021 -0.5718 -0.0861 -0.5377
  972SOD     NA14455   0.370   2.291  13.861 -0.2239 -0.2184  0.2956
  973SOD     NA14456   2.524   1.994  17.677  0.1205  0.0793 -0.3123
  974SOD     NA14457   2.689   0.498  16.930 -0.2546 -0.3328  0.1700
  975SOD     NA14458   4.600   3.518  16.164  0.2051 -0.3330  0.1604
  976SOD     NA14459   0.335   2.075  14.100 -0.1139 -0.1506  0.1288
  977SOD     NA14460   3.377   2.339  10.313  0.2154 -0.1036 -0.3053
  978SOD     NA14461   0.890   3.064  10.977  0.2470  0.0631 -0.6020
  979SOD     NA14462   3.814   4.296   9.411  0.1534 -0.6955 -0.1319
  980SOD     NA14463   4.282   3.073  14.996  0.8167  0.3869 -0.1092
  981SOD     NA14464   4.157   3.797   0.777 -0.4797  0.4870 -0.2839
  982SOD     NA14465   3.685   4.126   8.602 -0.1133  0.3636  0.1729
  983SOD     NA14466   1.237   0.107  17.389 -0.1395 -0.1692  0.1031
  984SOD     NA14467   3.293   1.653   2.248 -0.0793 -0.1513  0.3127
  985SOD     NA14468   3.025   0.996   4.693  0.1059  0.1168  0.4274
  986SOD     NA14469   3.325   0.871  15.088 -0.5326 -0.2517  0.2788
  987SOD     NA14470   1.248   3.871  13.546 -0.6394 -0.1495  0.4329
  988SOD     NA14471   3.974   0.140   7.825 -0.3881  0.1179  0.3185
  989SOD     NA14472   0.185   3.485   1.972  0.1125 -0.6682  0.4137
  990SOD     NA14473   3.923   0.525  11.920 -0.5180  0.3219 -0.1858
  991SOD     NA14474   2.933   0.474   7.819  0.4401  0.3123  0.2272
  992SOD     NA14475   0.270   3.620  11.452  0.1128 -0.4276 -0.0534
  993SOD     NA14476   3.931   1.925   8.879  0.2759 -0.1165 -0.7514
  994SOD     NA14477   2.001   3.449  12.423 -0.5123 -0.4284  0.0492
  995SOD     NA14478   3.644   2.140  10.526  0.6037 -0.3222 -0.0155
  996SOD     NA14479   4.656   2.156  11.266  0.1610 -0.0595 -0.1648
  997SOD     NA14480   3.288   2.674  10.441 -0.2410  0.6705  0.0660
  998SOD     NA14481   0.733   2.059  10.323 -0.4596 -0.5445  0.0384
  999SOD     NA14482   0.231   4.555   9.804  0.2131  0.7396 -0.3987
 1000SOD     NA14483   0.335   2.273  12.898  0.0206 -0.3626 -0.2302
 1001SOD     NA14484   0.774   0.033  14.338  0.3380  0.1097  0.1619
 1002SOD     NA14485   0.806   3.210  13.929 -0.2558 -0.2833  0.0748
 1003SOD     NA14486   4.576   3.777  16.836  0.3141  0.0030 -0.0765
 1004SOD     NA14487   1.383   2.498  14.691 -0.5079 -0.3189  0.3260
 1005SOD     NA14488   0.277   3.551   0.486 -0.2837  0.1813 -0.1104
 1006SOD     NA14489   3.529   3.908  15.197 -0.0219 -0.3616 -0.0842
 1007SOD     NA14490   1.237   0.837   5.090 -0.1122  0.2636 -0.1240
 1008SOD     NA14491   3.542   3.989  11.877  0.4413 -0.4718  0.5142
 1009SOD     NA14492   0.150   2.320  11.572 -0.0962 -0.0394  0.3143
 1010SOD     NA14493   4.302   1.204   8.799  0.0790 -0.0591  0.0072
 1011SOL     OW14494   1.476   3.232  17.172  0.4234  0.9740 -0.0805
 1011SOL    HW114495   1.467   3.209  17.264  0.2848  1.3222 -0.0063
 1011SOL    HW214496   1.468   3.327  17.176 -0.8913  0.9121 -1.2888
 1012SOL     OW14497   4.480   1.677   7.933 -1.0337 -0.0370 -0.7281
 1012SOL    HW114498   4.508   1.710   8.018  1.1197 -0.4011 -1.2972
 1012SOL    HW214499   4.526   1.736   7.874  2.1118 -0.4890  1.3178
 1013SOL     OW14500   2.950   1.047   7.297  0.1219  0.4004 -0.4080
 1013SOL    HW114501   3.003   0.977   7.335  0.3190  0.4368 -0.6161
 1013SOL    HW214502   2.886   1.052   7.368 -1.8756 -0.0909 -2.1598
 1014SOL     OW14503   3.910   4.138   2.310  0.0287  0.2079 -0.4309
 1014SOL    HW114504   3.855   4.210   2.341 -0.9969 -2.1787  3.3282
 1014SOL    HW214505   3.988   4.133   2.366 -0.9449 -2.5500  0.6878
 1015SOL     OW14506   4.147   3.570   2.335 -0.6286 -0.1289  0.3131
 1015SOL    HW114507   4.237   3.600   2.323 -0.9307  1.1789  1.3104
 1015SOL    HW214508   4.105   3.566   2.249  0.4605 -0.9159 -0.1773
 1016SOL     OW14509   4.042   3.294   2.129  0.5258 -0.5878  0.2547
 1016SOL    HW114510   4.072   3.353   2.060  1.7105 -3.0023 -1.2854
 1016SOL    HW214511   3.951   3.314   2.104  0.4022 -1.2352  0.1870
 1017SOL     OW14512   2.531   3.586   7.057 -0.0326 -0.2704 -0.2785
 1017SOL    HW114513   2.543   3.680   7.071  0.5983 -0.1273 -1.7713
 1017SOL    HW214514   2.489   3.556   7.138 -0.1720 -1.5566 -0.8306
 1018SOL     OW14515   1.536   2.324   0.817  0.0996 -0.3362 -0.1177
 1018SOL    HW114516   1.452   2.293   0.783 -0.0615 -0.0631  0.0355
 1018SOL    HW214517   1.527   2.419   0.810 -0.8194 -0.3921  0.3616
 1019SOL     OW14518   1.546   1.690  11.754  0.1436  0.3855  0.0094
 1019SOL    HW114519   1.513   1.746  11.824  1.2574 -0.9713  1.6313
 1019SOL    HW214520   1.641   1.704  11.758  0.1626  0.6050 -1.2124
 1020SOL     OW14521   2.022   2.250   2.746 -0.5705 -0.0957 -0.0586
 1020SOL    HW114522   2.117   2.247   2.762 -0.2840  2.5737 -1.3810
 1020SOL    HW214523   2.026   2.280   2.655  0.1649 -0.0208 -0.0035
 1021SOL     OW14524   4.546   2.498   5.666 -0.4076 -0.0210  0.0122
 1021SOL    HW114525   4.586   2.461   5.587 -0.2587  0.2171 -0.0227
 1021SOL    HW214526   4.545   2.431   5.735 -4.9787 -0.6480 -0.6455
 1022SOL     OW14527   0.558   2.936   1.842 -0.3098 -0.4183 -0.1257
 1022SOL    HW114528   0.507   3.009   1.809 -0.5281 -0.7767 -0.5775
 1022SOL    HW214529   0.648   2.967   1.828 -1.4855  1.5397 -3.3653
 1023SOL     OW14530   2.984   1.030   2.316 -0.0191  0.1574  0.2309
 1023SOL    HW114531   2.910   0.975   2.288 -0.6193  0.3161  1.5301
 1023SOL    HW214532   3.007   1.060   2.228  1.3716 -0.9725  0.2220
 1024SOL     OW14533   1.198   0.642   6.295  0.4547  0.3557 -0.3939
 1024SOL    HW114534   1.119   0.695   6.286 -0.2145 -0.2973  1.6546
 1024SOL    HW214535   1.163   0.555   6.273  1.2106  0.0324 -0.3133
 1025SOL     OW14536   1.723   0.408   0.686 -0.6225  0.0984 -0.2124
 1025SOL    HW114537   1.758   0.431   0.772 -1.9493  1.7075 -0.0890
 1025SOL    HW214538   1.640   0.456   0.684 -1.2160 -0.9937 -1.3613
 1026SOL     OW14539   3.769   4.201   1.182  0.3293  0.1595 -0.4928
 1026SOL    HW114540   3.830   4.186   1.110 -0.2213 -1.8857 -0.5222
 1026SOL    HW214541   3.730   4.114   1.185  1.8813 -0.5598 -1.1658
 1027SOL     OW14542   0.667   1.180   3.630 -0.2067 -0.0519  0.1620
 1027SOL    HW114543   0.682   1.150   3.541 -1.9609  1.2096 -0.5644
 1027SOL    HW214544   0.593   1.241   3.621  0.7702  1.0885 -0.1673
 1028SOL     OW14545   3.069   1.866   4.885  0.1382  0.2455  0.3930
 1028SOL    HW114546   3.157   1.834   4.907 -0.3414 -1.1279  0.3272
 1028SOL    HW214547   3.016   1.787   4.891  1.9447 -1.0827 -0.9114
 1029SOL     OW14548   2.473   4.577  17.233  0.3051  0.1058 -0.7190
 1029SOL    HW114549   2.524   4.500  17.258  1.7219  0.8111 -1.4239
 1029SOL    HW214550   2.397   4.537  17.190  0.4774  2.8068 -3.5721
 1030SOL     OW14551   3.353   0.927  11.547  0.1073 -0.0135  0.2330
 1030SOL    HW114552   3.339   0.979  11.626  1.0740  2.6263 -1.3417
 1030SOL    HW214553   3.376   1.000  11.489  3.3581 -0.0513  1.4721
 1031SOL     OW14554   3.116   1.615   8.158  0.1664  0.7717  0.0718
 1031SOL    HW114555   3.027   1.642   8.135 -0.2040 -0.5275 -0.0395
 1031SOL    HW214556   3.164   1.694   8.181 -0.6842  1.4728 -0.5413
 1032SOL     OW14557   2.635   2.744   0.840  0.3191 -0.4366 -0.2555
 1032SOL    HW114558   2.547   2.707   0.832 -0.0716  0.5904 -0.7797
 1032SOL    HW214559   2.630   2.797   0.919 -1.4865 -2.2815  0.8552
 1033SOL     OW14560   2.872   2.274   1.658 -0.0502 -0.4935 -0.3192
 1033SOL    HW114561   2.778   2.268   1.641 -0.1208  0.8642 -0.3827
 1033SOL    HW214562   2.904   2.321   1.580 -0.6312  0.0926 -0.1998
 1034SOL     OW14563   0.598   3.617   0.977  0.0271 -0.0459  0.2563
 1034SOL    HW114564   0.512   3.614   1.020  0.6993  0.2056  1.6299
 1034SOL    HW214565   0.584   3.562   0.900  0.0895  1.4017 -0.7738
 1035SOL     OW14566   1.017   1.843   9.682 -0.1175  0.5407 -0.4005
 1035SOL    HW114567   1.051   1.812   9.766 -1.6200  1.8800  0.7076
 1035SOL    HW214568   0.957   1.770   9.665 -1.3589  1.0922  1.5491
 1036SOL     OW14569   1.335   1.043   2.333  0.1127 -0.0147 -0.7420
 1036SOL    HW114570   1.401   1.112   2.321 -1.0250  1.6859  2.8279
 1036SOL    HW214571   1.283   1.037   2.252  0.0179 -1.3003 -0.5907
 1037SOL     OW14572   1.858   4.422   8.192 -0.1260  0.0973 -0.3082
 1037SOL    HW114573   1.790   4.452   8.133  0.5054  1.3595 -0.3999
 1037SOL    HW214574   1.800   4.373   8.251 -1.4198  2.0114 -0.0072
 1038SOL     OW14575   3.220   4.464  15.585  0.7392  0.2703  0.2067
 1038SOL    HW114576   3.264   4.398  15.531  1.2626  0.4305  0.4404
 1038SOL    HW214577   3.148   4.416  15.627  2.4359 -2.5222 -0.0633
 1039SOL     OW14578   2.708   1.739  16.580  0.2304 -0.2338 -0.1240
 1039SOL    HW114579   2.643   1.780  16.524 -0.5851 -0.1536  0.8813
 1039SOL    HW214580   2.700   1.802  16.652  1.9620  0.5893 -0.6598
 1040SOL     OW14581   1.532   2.611   5.561 -0.3228 -0.2019  0.5228
 1040SOL    HW114582   1.589   2.682   5.591 -1.0701  0.7263 -0.2523
 1040SOL    HW214583   1.568   2.534   5.606  0.4263  0.3785  0.9231
 1041SOL     OW14584   4.715   1.088  10.384 -0.0283 -0.4552 -0.0800
 1041SOL    HW114585   0.041   1.154  10.436 -2.8202  0.5674  1.1362
 1041SOL    HW214586   0.007   1.009  10.435  1.5561 -2.4497 -3.5907
 1042SOL     OW14587   1.030   4.637   5.297 -0.3581  0.6258 -0.3043
 1042SOL    HW114588   1.094   4.584   5.249  0.3090  1.6716 -0.5732
 1042SOL    HW214589   0.957   4.641   5.236 -2.1048  0.9902  1.8095
 1043SOL     OW14590   0.335   0.149   8.337 -0.1723 -0.2676  0.1166
 1043SOL    HW114591   0.425   0.153   8.369  0.0789 -2.2667 -0.3568
 1043SOL    HW214592   0.312   0.240   8.319  0.9346 -0.2462 -1.1028
 1044SOL     OW14593   0.008   0.140   4.159 -0.1933 -0.1390  0.1312
 1044SOL    HW114594   4.707   0.227   4.127 -2.5203 -1.8327 -2.9696
 1044SOL    HW214595   0.076   0.161   4.222  0.1524 -1.1307  0.0901
 1045SOL     OW14596   0.547   0.927   4.511 -0.3864 -0.0121  0.6854
 1045SOL    HW114597   0.568   0.889   4.597  0.7848  0.0857  0.4457
 1045SOL    HW214598   0.589   1.013   4.511  1.1796 -0.7572  1.0050
 1046SOL     OW14599   2.776   2.535   8.626  0.3057 -0.7130  0.3708
 1046SOL    HW114600   2.815   2.477   8.690 -2.5132 -1.4195  1.4332
 1046SOL    HW214601   2.739   2.469   8.568 -0.7093  0.7589 -0.6676
 1047SOL     OW14602   2.857   3.356   2.039 -0.8916 -0.2600  0.1925
 1047SOL    HW114603   2.867   3.283   1.978  2.2137  1.2955 -1.1621
 1047SOL    HW214604   2.780   3.320   2.084  1.6118 -2.7407  2.4505
 1048SOL     OW14605   4.133   0.424   6.521 -0.1611  0.0093 -0.1961
 1048SOL    HW114606   4.173   0.342   6.492  0.7573  0.1224  0.7553
 1048SOL    HW214607   4.193   0.454   6.589 -1.9881  0.6656  1.1195
 1049SOL     OW14608   4.085   2.378   0.382 -0.4089 -0.5073  0.0526
 1049SOL    HW114609   4.000   2.412   0.356  0.5020  1.4991 -0.2910
 1049SOL    HW214610   4.056   2.308   0.442 -0.9369  0.9292  1.4672
 1050SOL     OW14611   1.196   0.647   9.302 -0.1396 -0.0671  0.3562
 1050SOL    HW114612   1.136   0.578   9.332 -1.5406  1.2972  0.7261
 1050SOL    HW214613   1.133   0.695   9.248  0.6007  0.3714 -0.0995
 1051SOL     OW14614   1.009   2.905   7.910 -0.5923 -0.5603  0.2223
 1051SOL    HW114615   1.015   2.883   8.003 -2.5912 -1.2056  0.2038
 1051SOL    HW214616   0.932   2.850   7.897  1.0240 -2.5875 -0.8000
 1052SOL     OW14617   3.457   1.979   3.573 -0.5495 -0.9331 -0.1290
 1052SOL    HW114618   3.516   1.904   3.567  0.4775 -0.2027  0.6530
 1052SOL    HW214619   3.408   1.959   3.652 -0.5668  0.3133  0.1819
 1053SOL     OW14620   0.273   3.607   1.597  0.2695  0.6135  0.3782
 1053SOL    HW114621   0.237   3.556   1.525 -0.0976 -1.0671  1.7418
 1053SOL    HW214622   0.196   3.661   1.610 -0.0180  0.1818  0.4651
 1054SOL     OW14623   1.470   2.612   6.736  0.1720 -0.6456 -0.3075
 1054SOL    HW114624   1.486   2.564   6.655  0.9038 -1.4808  0.3316
 1054SOL    HW214625   1.376   2.598   6.745  0.1426 -0.8504 -0.9498
 1055SOL     OW14626   2.980   0.122   4.279 -0.5927 -0.0192 -0.5018
 1055SOL    HW114627   2.956   0.101   4.369 -0.9942 -2.2362 -1.1191
 1055SOL    HW214628   3.075   0.116   4.288 -0.5485  1.0060 -0.1863
 1056SOL     OW14629   3.560   3.911   9.537  0.1602 -0.1321 -0.5902
 1056SOL    HW114630   3.635   3.855   9.556 -1.1918 -2.1547 -1.2490
 1056SOL    HW214631   3.504   3.902   9.614 -0.2939  2.4143 -0.6346
 1057SOL     OW14632   3.825   3.268  14.759 -0.2467 -0.2397  0.0876
 1057SOL    HW114633   3.745   3.317  14.740  0.7436  1.3191 -0.0444
 1057SOL    HW214634   3.814   3.238  14.850 -3.0882 -1.6349 -0.7217
 1058SOL     OW14635   0.436   3.371   0.436  0.2404  0.0391  0.2755
 1058SOL    HW114636   0.416   3.280   0.458  1.7427 -0.7638 -1.6778
 1058SOL    HW214637   0.505   3.352   0.372  0.4155  0.7063  0.2593
 1059SOL     OW14638   3.593   3.002   8.008 -0.0588  0.2486 -0.5794
 1059SOL    HW114639   3.612   2.920   7.964 -1.6106 -1.0831  1.1996
 1059SOL    HW214640   3.556   2.971   8.091 -0.6700  0.4167 -0.7890
 1060SOL     OW14641   4.434   2.356  12.118 -0.3581  0.0073 -0.4574
 1060SOL    HW114642   4.451   2.438  12.072 -1.7251  0.2250 -0.5551
 1060SOL    HW214643   4.480   2.365  12.202  0.4981 -3.5297 -0.5437
 1061SOL     OW14644   1.314   1.460   8.183  0.1632  0.4894 -0.6103
 1061SOL    HW114645   1.299   1.425   8.271 -1.6794 -0.9310 -1.4852
 1061SOL    HW214646   1.305   1.378   8.134  0.1743  0.8096 -1.1485
 1062SOL     OW14647   3.243   3.454   3.260  0.4342 -1.1260  0.1016
 1062SOL    HW114648   3.226   3.367   3.223 -2.7547 -1.2015  1.8029
 1062SOL    HW214649   3.338   3.463   3.248  0.5496 -0.2515  1.7780
 1063SOL     OW14650   0.584   2.419   5.986  0.7157 -0.9402  0.3582
 1063SOL    HW114651   0.574   2.327   6.008 -1.2395 -0.5247  1.1794
 1063SOL    HW214652   0.503   2.459   6.018  1.8642 -0.8634  3.1898
 1064SOL     OW14653   0.935   1.168  12.599  0.3608 -0.0814  0.3827
 1064SOL    HW114654   0.922   1.173  12.694  1.8261  0.9197  0.5208
 1064SOL    HW214655   0.985   1.244  12.571  0.8322  0.4517  2.6542
 1065SOL     OW14656   4.531   3.802   0.268 -0.0130  0.1254  0.4154
 1065SOL    HW114657   4.444   3.841   0.261 -0.2420 -0.4219  0.1878
 1065SOL    HW214658   4.581   3.883   0.277 -2.2334  1.3958  1.3305
 1066SOL     OW14659   3.349   1.106   2.505 -0.1100 -0.2208 -0.3265
 1066SOL    HW114660   3.342   1.070   2.417 -0.0487 -0.8296 -0.0811
 1066SOL    HW214661   3.258   1.087   2.527 -0.2199 -1.7233 -2.0970
 1067SOL     OW14662   0.844   3.483   4.036 -0.0490 -0.2617 -0.6895
 1067SOL    HW114663   0.867   3.477   4.129 -1.4163 -2.4805 -0.4937
 1067SOL    HW214664   0.929   3.479   3.992 -0.0067 -1.5148 -0.4957
 1068SOL     OW14665   1.661   2.705   0.092 -0.4207 -0.2596 -0.4927
 1068SOL    HW114666   1.686   2.756   0.169  1.0962  3.3465 -3.3395
 1068SOL    HW214667   1.736   2.646   0.089 -0.1043  0.0464  1.5360
 1069SOL     OW14668   2.107   1.934  15.964 -0.0680 -0.4045 -0.2416
 1069SOL    HW114669   2.117   1.880  15.886 -0.8682 -1.4869  0.4022
 1069SOL    HW214670   2.122   2.023  15.930  0.4317  0.4282  2.1421
 1070SOL     OW14671   1.076   2.183   2.898 -0.5692 -0.5265  0.1335
 1070SOL    HW114672   1.104   2.184   2.807 -1.2746  1.3512 -0.0596
 1070SOL    HW214673   1.015   2.109   2.898 -2.2410  0.8601  2.7401
 1071SOL     OW14674   3.350   0.764   2.763 -0.4046  0.1517 -0.7530
 1071SOL    HW114675   3.444   0.781   2.759 -0.4072 -0.0026 -1.4590
 1071SOL    HW214676   3.363   0.676   2.800 -1.1112 -0.7932 -2.7731
 1072SOL     OW14677   3.686   3.861  17.490  1.0459  0.0054  0.4727
 1072SOL    HW114678   3.683   3.919  17.567 -2.6402 -1.7225  1.6384
 1072SOL    HW214679   3.675   3.927  17.422  0.8596  1.3609  1.8183
 1073SOL     OW14680   4.385   0.327   1.382 -0.0051  0.0898 -0.8356
 1073SOL    HW114681   4.353   0.315   1.471  0.1886  0.8819 -0.6543
 1073SOL    HW214682   4.318   0.291   1.325 -0.7762 -0.8634  0.6726
 1074SOL     OW14683   0.615   0.771   6.120 -0.2664 -0.6027 -0.3785
 1074SOL    HW114684   0.640   0.860   6.143 -1.2835 -0.8354  1.6346
 1074SOL    HW214685   0.520   0.781   6.111 -0.0625  1.9312  0.4158
 1075SOL     OW14686   2.077   0.366   3.353 -0.0363  0.3935 -0.4174
 1075SOL    HW114687   1.991   0.408   3.359  0.1978  1.0317 -1.6140
 1075SOL    HW214688   2.139   0.437   3.336 -0.8089  0.8139 -1.5166
 1076SOL     OW14689   0.225   1.854   6.569  0.0659 -0.0187  0.0018
 1076SOL    HW114690   0.318   1.862   6.550  0.2823 -1.7773  0.2629
 1076SOL    HW214691   0.218   1.763   6.599  0.6841 -0.2193 -0.4908
 1077SOL     OW14692   4.239   0.983   5.111  0.1680  0.0466  0.0919
 1077SOL    HW114693   4.189   1.010   5.034  1.2341 -1.3711 -1.0795
 1077SOL    HW214694   4.180   1.014   5.180  0.2396  0.4005 -0.0066
 1078SOL     OW14695   0.083   0.220   3.796 -0.0505 -0.0521 -0.1058
 1078SOL    HW114696   0.076   0.240   3.889 -0.6436 -0.4692 -0.0613
 1078SOL    HW214697   4.711   0.221   3.772 -0.6544 -1.0966  2.1824
 1079SOL     OW14698   2.747   3.148   6.136  0.5243 -0.4389 -0.5406
 1079SOL    HW114699   2.815   3.109   6.081  2.4429  0.4896  1.1686
 1079SOL    HW214700   2.715   3.068   6.178  2.8085 -1.7965 -1.3766
 1080SOL     OW14701   1.738   2.541   5.962 -0.6449 -0.1920 -0.0659
 1080SOL    HW114702   1.799   2.476   5.926  0.2347  0.8140 -0.3884
 1080SOL    HW214703   1.732   2.506   6.051 -2.1858 -0.7591 -0.3932
 1081SOL     OW14704   3.338   3.886   2.076 -0.3519  0.0838  0.0436
 1081SOL    HW114705   3.375   3.837   2.003  2.5638 -1.3424  2.4525
 1081SOL    HW214706   3.407   3.870   2.141 -0.7600  0.6801  0.6287
 1082SOL     OW14707   0.797   2.325   9.164  0.5246  0.6320 -0.2038
 1082SOL    HW114708   0.721   2.366   9.206  2.4520  2.0248  1.9167
 1082SOL    HW214709   0.775   2.232   9.158 -1.0600  0.9482  0.7035
 1083SOL     OW14710   0.294   1.665   7.885  0.3150 -0.3720  0.3608
 1083SOL    HW114711   0.357   1.603   7.920 -0.9109 -2.1247 -0.5527
 1083SOL    HW214712   0.352   1.734   7.853  1.3482 -0.8969  1.1152
 1084SOL     OW14713   2.033   2.779   7.704  0.3727  0.2531 -0.0858
 1084SOL    HW114714   1.961   2.769   7.766  0.4681 -1.3954 -0.2378
 1084SOL    HW214715   2.078   2.855   7.742 -1.2554  0.0801  2.2077
 1085SOL     OW14716   4.622   2.302  16.956 -0.0316 -0.3604  0.1716
 1085SOL    HW114717   4.669   2.272  17.033  0.9569 -1.4905 -0.8707
 1085SOL    HW214718   4.651   2.393  16.955 -0.2163 -0.2962  0.6603
 1086SOL     OW14719   0.289   1.467  11.293 -0.2535 -0.3205 -0.2860
 1086SOL    HW114720   0.250   1.428  11.214  0.8413 -1.1586 -0.4086
 1086SOL    HW214721   0.210   1.486  11.343  0.8637  2.4943  0.3863
 1087SOL     OW14722   3.445   4.482   8.002  0.5994 -0.6336  0.0232
 1087SOL    HW114723   3.462   4.432   8.083 -1.9267  0.1022  1.0119
 1087SOL    HW214724   3.522   4.538   7.988  0.5353 -0.6135 -0.2383
 1088SOL     OW14725   3.317   4.492   0.064  0.3664 -0.2483  0.1274
 1088SOL    HW114726   3.338   4.480  17.657  0.4004 -0.4916  0.1666
 1088SOL    HW214727   3.281   4.405   0.080  2.0785 -1.1397 -0.9130
 1089SOL     OW14728   0.014   4.342   3.011  0.5529 -0.2878  0.6962
 1089SOL    HW114729   4.705   4.299   3.091  0.4473  1.1976  1.4488
 1089SOL    HW214730   4.682   4.304   2.941 -1.3575 -1.5496  2.8187
 1090SOL     OW14731   3.246   4.518   9.209  0.1583 -0.4624 -0.5444
 1090SOL    HW114732   3.234   4.539   9.116 -0.3315 -1.0831 -0.6262
 1090SOL    HW214733   3.204   4.433   9.222 -0.2692  0.0130  1.0775
 1091SOL     OW14734   4.395   2.354   4.612  0.0668  0.1964  0.1978
 1091SOL    HW114735   4.397   2.283   4.547 -0.5132 -0.3753  0.8016
 1091SOL    HW214736   4.432   2.316   4.692  1.9366  2.6477  0.4934
 1092SOL     OW14737   2.173   1.353   6.769 -0.7398 -0.3875  0.4171
 1092SOL    HW114738   2.113   1.427   6.766  0.3393  0.4385 -0.9844
 1092SOL    HW214739   2.237   1.383   6.704  0.5339  0.4535  2.0797
 1093SOL     OW14740   2.329   1.169   9.867  0.4198  0.2459 -0.1157
 1093SOL    HW114741   2.246   1.134   9.836  1.4011 -1.1295 -1.1756
 1093SOL    HW214742   2.392   1.107   9.830  1.0533  1.1542 -0.5651
 1094SOL     OW14743   0.424   3.664   0.628  0.0022 -0.5082 -0.3147
 1094SOL    HW114744   0.469   3.600   0.684  0.6981  0.1550 -0.1074
 1094SOL    HW214745   0.401   3.733   0.690 -1.3263 -1.9358  0.7822
 1095SOL     OW14746   1.948   0.155  15.889  0.3501 -0.2187 -0.3594
 1095SOL    HW114747   1.917   0.194  15.807  1.1243  0.3970 -0.3568
 1095SOL    HW214748   1.875   0.095  15.902  1.3915 -1.5698 -0.6417
 1096SOL     OW14749   2.070   3.841  13.065  0.0203 -0.2284  0.3475
 1096SOL    HW114750   2.091   3.888  13.146  1.0459 -0.4782  0.2169
 1096SOL    HW214751   2.081   3.752  13.100 -0.4882 -0.0788  0.8991
 1097SOL     OW14752   4.643   4.062  12.557 -0.2523 -0.4259 -0.3513
 1097SOL    HW114753   4.553   4.062  12.523 -1.0281 -1.4555  1.7185
 1097SOL    HW214754   4.658   4.154  12.579 -0.1608 -0.2588 -1.0956
 1098SOL     OW14755   3.434   0.410   6.774  0.4969 -0.2536  0.3003
 1098SOL    HW114756   3.520   0.421   6.732  0.6612  1.6286  1.1341
 1098SOL    HW214757   3.372   0.422   6.702  1.4867 -0.2578 -0.5717
 1099SOL     OW14758   1.367   1.854   4.754  0.0772 -0.1191 -0.1030
 1099SOL    HW114759   1.313   1.870   4.676  0.1598  0.5059 -0.0302
 1099SOL    HW214760   1.446   1.822   4.710  0.7407 -1.1724  1.8698
 1100SOL     OW14761   2.511   2.288  11.364  0.5406  0.3678  0.6376
 1100SOL    HW114762   2.589   2.243  11.331  1.8607  2.2587  1.1889
 1100SOL    HW214763   2.459   2.216  11.400  3.1775 -2.7980 -1.9374
 1101SOL     OW14764   2.904   2.294   7.866 -0.3726  0.1344  0.1332
 1101SOL    HW114765   2.819   2.326   7.836 -0.2758 -1.2243 -1.6111
 1101SOL    HW214766   2.956   2.374   7.854 -0.6529  0.1515 -1.0171
 1102SOL     OW14767   3.759   4.472   6.553  0.2896 -0.4221  0.3479
 1102SOL    HW114768   3.708   4.468   6.634  0.6110  0.4987  0.5995
 1102SOL    HW214769   3.695   4.458   6.484 -0.1928  0.6786  0.5692
 1103SOL     OW14770   4.428   4.095   4.189 -0.6692 -0.7135  0.1460
 1103SOL    HW114771   4.505   4.146   4.164 -0.4488 -1.2212 -0.2290
 1103SOL    HW214772   4.479   4.018   4.217 -1.2117 -1.3636 -0.6367
 1104SOL     OW14773   1.775   2.831   8.021 -0.1004  0.1275  0.6013
 1104SOL    HW114774   1.826   2.912   8.031 -0.6449  0.6212 -0.6961
 1104SOL    HW214775   1.687   2.859   8.046  0.1169  2.2910 -1.0686
 1105SOL     OW14776   2.598   2.958   2.514 -0.0425  0.3675  0.6399
 1105SOL    HW114777   2.663   2.994   2.574  1.0972  1.9189 -1.4976
 1105SOL    HW214778   2.533   3.028   2.514  0.6247  0.9572  5.0522
 1106SOL     OW14779   2.507   2.232   0.018 -0.4111 -0.0671  0.2993
 1106SOL    HW114780   2.506   2.279   0.102  1.6694  1.6837 -0.6299
 1106SOL    HW214781   2.571   2.282  17.652  0.5474  2.2084  3.6658
 1107SOL     OW14782   0.606   2.275   0.836 -0.1669 -0.3582 -0.2030
 1107SOL    HW114783   0.655   2.241   0.760 -1.2818 -1.8409 -0.2680
 1107SOL    HW214784   0.537   2.321   0.789 -0.8926 -1.4676 -0.2278
 1108SOL     OW14785   0.978   1.186   5.181 -0.1811 -0.4021 -0.1295
 1108SOL    HW114786   1.034   1.259   5.207  0.7483 -1.4153  0.7258
 1108SOL    HW214787   0.898   1.209   5.228  0.6915  0.4935  0.9243
 1109SOL     OW14788   1.659   1.849   2.622 -0.4402 -0.3933 -0.1186
 1109SOL    HW114789   1.731   1.795   2.588 -1.6109 -1.2702 -1.2020
 1109SOL    HW214790   1.591   1.783   2.638 -0.4781  0.1743  2.0030
 1110SOL     OW14791   1.268   0.913   2.572  0.1124  0.6416 -0.1312
 1110SOL    HW114792   1.173   0.926   2.577 -0.1829 -0.6088 -2.7791
 1110SOL    HW214793   1.300   0.968   2.501 -1.1001  1.5053 -0.0265
 1111SOL     OW14794   0.914   1.397   3.775 -0.1347  0.0903 -0.5278
 1111SOL    HW114795   0.928   1.310   3.811  0.8265  0.2152 -0.6163
 1111SOL    HW214796   0.999   1.440   3.773 -0.1926  0.3718  2.5625
 1112SOL     OW14797   3.549   4.076   1.846  0.5264  0.3703 -0.1600
 1112SOL    HW114798   3.519   3.991   1.876  0.2665 -0.3945 -2.5733
 1112SOL    HW214799   3.464   4.092   1.806  0.2397  2.0782  1.1192
 1113SOL     OW14800   0.528   3.201  11.806 -0.0882  0.3074 -0.0945
 1113SOL    HW114801   0.538   3.108  11.786 -1.6642 -0.2997  1.8725
 1113SOL    HW214802   0.555   3.255  11.732  0.9464  0.7908  0.6373
 1114SOL     OW14803   4.111   2.839   5.540 -0.2611 -0.4396  0.1611
 1114SOL    HW114804   4.116   2.843   5.445 -2.9439 -0.5852  0.0271
 1114SOL    HW214805   4.019   2.824   5.560 -0.8146 -0.3065 -2.3399
 1115SOL     OW14806   2.183   1.770   6.642 -0.8057 -0.2302 -0.6332
 1115SOL    HW114807   2.188   1.865   6.651 -0.4852 -0.2719 -0.3856
 1115SOL    HW214808   2.211   1.758   6.551 -0.3417  2.8318 -0.8840
 1116SOL     OW14809   4.181   0.385   5.302  0.2926  0.1231  0.8307
 1116SOL    HW114810   4.267   0.345   5.314  1.2702  1.9500 -0.2050
 1116SOL    HW214811   4.134   0.333   5.367 -1.4829  0.2676 -0.3434
 1117SOL     OW14812   0.842   1.624   9.379 -0.8123 -0.1019  0.4498
 1117SOL    HW114813   0.926   1.592   9.345 -1.3124  0.1666 -1.0432
 1117SOL    HW214814   0.861   1.622   9.473 -1.5221  0.7517  0.6066
 1118SOL     OW14815   1.442   1.917   0.664  0.3630  0.1755 -0.4190
 1118SOL    HW114816   1.403   1.889   0.747  0.4545 -0.9595 -0.7595
 1118SOL    HW214817   1.409   2.007   0.663  2.0440  0.7795 -1.3266
 1119SOL     OW14818   1.458   3.171   1.889  0.4257  0.1391 -0.7367
 1119SOL    HW114819   1.527   3.238   1.889  0.5303  0.0364  0.2716
 1119SOL    HW214820   1.506   3.089   1.898 -0.3887  0.0385  2.8648
 1120SOL     OW14821   0.661   3.238   4.710 -0.6176  0.5268 -0.1925
 1120SOL    HW114822   0.572   3.208   4.729 -0.3628 -0.9325 -1.2711
 1120SOL    HW214823   0.702   3.231   4.796  1.5170 -1.1752 -1.3480
 1121SOL     OW14824   4.618   0.987  10.131 -0.4031 -0.5964 -0.2999
 1121SOL    HW114825   4.587   0.898  10.150  0.8815 -1.0003 -0.1249
 1121SOL    HW214826   4.647   1.021  10.215  3.3529 -0.8274 -1.5051
 1122SOL     OW14827   4.137   4.386   8.513  0.2144  0.2055  0.2348
 1122SOL    HW114828   4.232   4.382   8.517  0.3450  0.6238 -2.0940
 1122SOL    HW214829   4.128   4.410   8.605  2.1769 -0.5348  0.6236
 1123SOL     OW14830   0.534   0.783   6.673 -0.4673  0.4933  0.3149
 1123SOL    HW114831   0.484   0.736   6.740  2.3107 -2.0276  0.6080
 1123SOL    HW214832   0.492   0.737   6.600  0.0764 -2.3741  1.8438
 1124SOL     OW14833   4.613   3.049   5.796 -0.1603  0.2529  0.2041
 1124SOL    HW114834   4.708   3.034   5.792 -0.5879 -1.4450 -3.2507
 1124SOL    HW214835   4.590   3.009   5.879  0.9944  0.2590  0.5379
 1125SOL     OW14836   3.431   2.937   4.693  0.0395 -0.0215  0.3449
 1125SOL    HW114837   3.392   2.892   4.618 -1.2907  0.3232  0.8225
 1125SOL    HW214838   3.356   2.990   4.721  1.2666  1.7426  0.2976
 1126SOL     OW14839   2.110   2.234   7.092  0.3645  0.0274  0.1484
 1126SOL    HW114840   2.028   2.248   7.140 -0.3532  0.5358 -1.2495
 1126SOL    HW214841   2.137   2.151   7.131 -0.1820 -0.0853  0.2792
 1127SOL     OW14842   2.254   2.629   1.601  0.3171  0.5202 -0.2296
 1127SOL    HW114843   2.233   2.630   1.694 -0.5839 -0.4540 -0.4259
 1127SOL    HW214844   2.180   2.679   1.566 -0.0164  1.7348  2.2446
 1128SOL     OW14845   4.277   1.744   2.447  0.3908 -0.5408  0.4024
 1128SOL    HW114846   4.182   1.756   2.452  0.4352 -0.9124  2.0158
 1128SOL    HW214847   4.313   1.825   2.482  1.7339 -0.4685 -1.1358
 1129SOL     OW14848   3.981   1.463   7.015  0.0904 -0.0010 -0.0713
 1129SOL    HW114849   3.988   1.557   6.995  0.4474  0.6208  3.0595
 1129SOL    HW214850   3.917   1.455   6.944  0.4573  0.9722 -0.5167
 1130SOL     OW14851   1.215   2.672   8.369 -0.2896 -0.3893 -0.0480
 1130SOL    HW114852   1.269   2.671   8.449 -1.0272  2.2543  0.5094
 1130SOL    HW214853   1.177   2.585   8.382  0.5252 -0.5171  1.4433
 1131SOL     OW14854   0.248   3.053   1.700  0.2034 -0.1218 -0.1970
 1131SOL    HW114855   0.208   3.133   1.666  0.0492 -1.6373 -3.6752
 1131SOL    HW214856   0.166   3.020   1.736  0.3185 -0.3274 -0.1245
 1132SOL     OW14857   3.544   1.359  15.203 -0.8896 -0.0582  0.0763
 1132SOL    HW114858   3.455   1.338  15.175 -0.3491 -1.3548 -0.6351
 1132SOL    HW214859   3.584   1.273  15.197  1.1044  0.9642 -0.9235
 1133SOL     OW14860   4.220   1.268   3.599 -0.2458  0.9884  0.0248
 1133SOL    HW114861   4.178   1.354   3.594 -0.0298  0.9922 -1.7581
 1133SOL    HW214862   4.302   1.284   3.552  0.3710  0.7933  1.0388
 1134SOL     OW14863   2.552   0.018   4.583  0.2395  0.2775  0.2862
 1134SOL    HW114864   2.532   0.096   4.634 -2.2186 -1.1165  1.4575
 1134SOL    HW214865   2.469   0.008   4.537  0.5145 -0.4520 -0.0526
 1135SOL     OW14866   2.560   3.827   5.216 -0.1867  0.1234 -0.2385
 1135SOL    HW114867   2.586   3.770   5.288 -2.3342  0.2991  0.6512
 1135SOL    HW214868   2.628   3.804   5.152 -0.7315  0.2089 -0.8515
 1136SOL     OW14869   2.466   1.047  10.088  0.7111 -0.2474 -0.5007
 1136SOL    HW114870   2.379   1.054  10.050  0.2065 -0.9788  0.5261
 1136SOL    HW214871   2.499   1.131  10.120  2.6853 -1.1687 -0.0923
 1137SOL     OW14872   0.906   1.282   0.231 -0.1248 -0.4955 -0.2953
 1137SOL    HW114873   0.849   1.308   0.304 -0.4364  1.0439 -1.0795
 1137SOL    HW214874   0.942   1.199   0.263 -0.6699  0.4128  2.6680
 1138SOL     OW14875   1.272   1.090  17.580  1.1940  0.1848 -0.2117
 1138SOL    HW114876   1.290   1.150  17.507 -2.5967 -2.0802 -2.9791
 1138SOL    HW214877   1.362   1.076  17.611  1.3608 -0.3034 -0.9099
 1139SOL     OW14878   0.295   2.838  11.627  0.1052  0.3024 -0.2241
 1139SOL    HW114879   0.381   2.867  11.659  0.5103 -0.9037 -0.2300
 1139SOL    HW214880   0.276   2.759  11.678 -0.5912  1.1375  0.7889
 1140SOL     OW14881   3.511   3.116   8.318  0.1842  0.8014 -0.1881
 1140SOL    HW114882   3.472   3.029   8.309 -0.2406  0.8828  0.9743
 1140SOL    HW214883   3.542   3.122   8.408 -0.9160  1.6734  0.1183
 1141SOL     OW14884   2.460   0.133   8.789  0.0445  0.0948  0.1961
 1141SOL    HW114885   2.418   0.216   8.765  0.6141  0.5755  0.8708
 1141SOL    HW214886   2.441   0.130   8.882 -2.0726  2.2000 -0.1718
 1142SOL     OW14887   3.811   2.604   9.648  0.2323 -0.6127  0.2081
 1142SOL    HW114888   3.733   2.562   9.614  0.0480  0.7838 -1.1128
 1142SOL    HW214889   3.868   2.532   9.675  1.3535 -0.0588 -0.6860
 1143SOL     OW14890   4.115   0.102   3.757 -0.4379  0.9947 -0.4193
 1143SOL    HW114891   4.081   0.119   3.845 -1.1893 -1.6105 -0.2013
 1143SOL    HW214892   4.203   0.070   3.778 -0.1739  0.3417 -2.5298
 1144SOL     OW14893   3.163   0.367   0.128 -0.5011 -0.3134  0.1263
 1144SOL    HW114894   3.107   0.357   0.051 -0.0852 -1.5636 -0.0097
 1144SOL    HW214895   3.148   0.458   0.153 -2.9915 -1.0274  1.2510
 1145SOL     OW14896   0.202   0.999   3.171 -0.0522  0.0165 -1.1318
 1145SOL    HW114897   0.199   1.023   3.263  1.8100  1.4817 -1.4561
 1145SOL    HW214898   0.294   1.018   3.152  0.5359 -1.5774  0.1696
 1146SOL     OW14899   2.309   0.408   4.485 -0.7588 -0.1232  0.7436
 1146SOL    HW114900   2.399   0.380   4.468 -0.3938  3.3669 -3.1075
 1146SOL    HW214901   2.313   0.410   4.580 -0.5832  1.3737  0.6943
 1147SOL     OW14902   2.414   0.145  15.862 -0.7128 -0.6563 -0.0488
 1147SOL    HW114903   2.384   0.132  15.952  1.3641  1.7377  0.9888
 1147SOL    HW214904   2.436   0.238  15.853 -0.6881 -0.7444 -0.8608
 1148SOL     OW14905   3.386   0.698   4.758  0.1118 -0.4334  0.5061
 1148SOL    HW114906   3.481   0.688   4.752  0.0638  0.0727 -1.1887
 1148SOL    HW214907   3.380   0.755   4.681 -2.9619  0.6097  1.5202
 1149SOL     OW14908   2.486   1.961   4.917 -0.5150 -0.4205 -0.1616
 1149SOL    HW114909   2.409   2.017   4.927  0.7339  1.5922 -1.8257
 1149SOL    HW214910   2.551   1.977   4.985 -1.1980  1.7433 -0.0470
 1150SOL     OW14911   2.870   1.405  15.069 -0.3117 -0.1682 -0.8799
 1150SOL    HW114912   2.854   1.414  14.975 -0.7340  0.4077 -0.7506
 1150SOL    HW214913   2.855   1.494  15.099  0.6695 -1.2872  3.0299
 1151SOL     OW14914   0.758   4.023  13.540  0.0874 -0.3364  0.0841
 1151SOL    HW114915   0.748   3.999  13.448 -0.8215 -1.4619  0.4655
 1151SOL    HW214916   0.689   3.973  13.584 -0.7739 -0.0998 -0.9924
 1152SOL     OW14917   3.442   0.483   4.932  0.1324  0.3445  0.1585
 1152SOL    HW114918   3.419   0.554   4.873 -1.2173 -0.3436 -0.1337
 1152SOL    HW214919   3.529   0.475   4.892 -1.4386 -0.6814 -3.0239
 1153SOL     OW14920   1.058   3.299   9.640 -0.0906  0.0284  0.5018
 1153SOL    HW114921   0.979   3.328   9.685  1.6034  3.6495  1.1559
 1153SOL    HW214922   1.025   3.211   9.619  0.9107 -0.5102  1.1571
 1154SOL     OW14923   2.837   3.976  10.442 -0.0174 -0.1333  0.1889
 1154SOL    HW114924   2.757   3.972  10.390  1.2466  0.1843 -1.7941
 1154SOL    HW214925   2.830   3.894  10.491 -0.2973 -1.4340 -2.0214
 1155SOL     OW14926   4.024   2.979  11.738  0.5061  0.0586 -0.0504
 1155SOL    HW114927   3.995   3.064  11.705 -2.6127 -0.4040  1.4937
 1155SOL    HW214928   3.961   2.961  11.808 -1.0295  2.2067 -0.8654
 1156SOL     OW14929   3.469   1.635   2.092  0.4473  0.3626 -0.5844
 1156SOL    HW114930   3.474   1.723   2.055  2.0277  0.6757  0.3548
 1156SOL    HW214931   3.557   1.603   2.072  0.8756  0.5381  0.9671
 1157SOL     OW14932   4.182   2.710   2.711  0.3738 -0.1590  0.2473
 1157SOL    HW114933   4.246   2.675   2.648  2.7719  1.2152  1.9351
 1157SOL    HW214934   4.150   2.769   2.643  0.6431 -0.4640 -0.1425
 1158SOL     OW14935   3.646   0.072   2.527  0.2906 -0.1323 -0.4381
 1158SOL    HW114936   3.592   4.715   2.539  0.7169 -0.4518 -0.5567
 1158SOL    HW214937   3.687   0.082   2.613  0.9919 -2.8188 -0.4595
 1159SOL     OW14938   1.330   2.060  10.793 -0.2690 -0.2790 -0.0376
 1159SOL    HW114939   1.294   1.988  10.846 -3.2930  0.4397 -1.1393
 1159SOL    HW214940   1.388   2.109  10.852 -0.1640 -0.1812 -0.2220
 1160SOL     OW14941   3.402   0.209   5.968  0.1419 -0.7709 -0.0188
 1160SOL    HW114942   3.459   0.277   5.933  1.2261 -3.1003 -2.7830
 1160SOL    HW214943   3.319   0.244   5.936 -1.2945 -2.3487  1.9706
 1161SOL     OW14944   2.856   2.373   7.413  0.1296  0.4077 -0.0299
 1161SOL    HW114945   2.898   2.438   7.470 -0.1265 -1.2430  2.0496
 1161SOL    HW214946   2.765   2.379   7.442 -0.0326  0.1410 -0.4754
 1162SOL     OW14947   2.039   4.431   2.637 -0.7267 -0.4063 -0.3015
 1162SOL    HW114948   2.070   4.483   2.710 -1.4718 -1.8499  1.0321
 1162SOL    HW214949   2.083   4.470   2.562  0.8524  0.1354  0.9336
 1163SOL     OW14950   0.476   2.286   0.077  0.1956 -0.1437 -0.4022
 1163SOL    HW114951   0.460   2.374   0.042  0.2669 -0.0611 -0.2292
 1163SOL    HW214952   0.428   2.227   0.019 -0.8019  1.2784 -1.0148
 1164SOL     OW14953   0.225   1.618   4.159  0.5686 -0.1166 -0.5211
 1164SOL    HW114954   0.257   1.632   4.070  0.8754  0.4297 -0.3256
 1164SOL    HW214955   0.214   1.523   4.164  0.4594 -0.2196 -2.8412
 1165SOL     OW14956   2.726   0.100   9.892 -0.3105  0.1333  0.0250
 1165SOL    HW114957   2.772   0.089   9.809  0.6571 -0.0927  0.5965
 1165SOL    HW214958   2.791   0.139   9.951 -0.4892 -1.3992  1.2298
 1166SOL     OW14959   0.516   2.699   4.055  0.0482 -0.2627  0.9217
 1166SOL    HW114960   0.530   2.610   4.023  0.5664 -0.4851  1.7850
 1166SOL    HW214961   0.573   2.694   4.131 -1.5803 -1.1065  2.0772
 1167SOL     OW14962   3.626   4.348   8.533 -0.5997  0.1231  0.3835
 1167SOL    HW114963   3.542   4.384   8.560 -0.4856  1.4712 -1.1125
 1167SOL    HW214964   3.677   4.416   8.489 -0.4922  0.6518  1.3225
 1168SOL     OW14965   2.097   4.155   7.612  0.2233 -0.2063  0.4772
 1168SOL    HW114966   2.069   4.203   7.534  0.6221  0.3839  0.6966
 1168SOL    HW214967   2.190   4.177   7.609  0.1002  0.1824 -0.3931
 1169SOL     OW14968   1.324   3.527   3.626  0.4847 -0.5431  0.0784
 1169SOL    HW114969   1.276   3.484   3.697  0.3583 -0.1427  0.2333
 1169SOL    HW214970   1.362   3.451   3.582 -2.8466 -2.8709  1.2349
 1170SOL     OW14971   2.244   3.900  12.421 -0.8190 -0.0275  0.0225
 1170SOL    HW114972   2.324   3.931  12.378  0.7264  2.7926  4.9002
 1170SOL    HW214973   2.283   3.897  12.508  3.0100 -2.3102 -1.7478
 1171SOL     OW14974   4.050   1.710   9.551 -0.2992 -0.7082 -0.1174
 1171SOL    HW114975   3.984   1.644   9.574 -1.5842  0.7630  0.3808
 1171SOL    HW214976   4.099   1.678   9.475 -0.6372  1.7933 -1.3783
 1172SOL     OW14977   1.609   4.478  10.646 -0.1006  0.3839 -0.1643
 1172SOL    HW114978   1.604   4.479  10.741  0.1041 -0.0355 -0.1474
 1172SOL    HW214979   1.567   4.561  10.625  3.4242  2.3037  0.3755
 1173SOL     OW14980   0.874   2.412   7.620  0.3703 -0.1729 -0.6125
 1173SOL    HW114981   0.848   2.331   7.665  1.6451  0.5086  1.3429
 1173SOL    HW214982   0.942   2.448   7.676  0.1024  0.3370 -0.6198
 1174SOL     OW14983   1.112   1.189   1.506  0.1233  0.6658 -0.0615
 1174SOL    HW114984   1.146   1.125   1.570  0.4622  0.5729 -0.3370
 1174SOL    HW214985   1.021   1.199   1.535 -0.0483 -0.7437 -0.0887
 1175SOL     OW14986   2.242   0.958   7.501 -0.5007 -0.7748  0.4938
 1175SOL    HW114987   2.176   0.902   7.460 -1.0697 -2.0830  3.2587
 1175SOL    HW214988   2.201   1.027   7.553  0.5792  0.0729  0.2270
 1176SOL     OW14989   1.258   4.159  10.040  0.9536 -0.5094 -0.2472
 1176SOL    HW114990   1.304   4.100   9.979 -2.0020 -1.6145 -1.4383
 1176SOL    HW214991   1.335   4.205  10.074  0.7903 -0.6573  0.3225
 1177SOL     OW14992   4.389   4.251   0.636 -0.5232  0.2091  0.1259
 1177SOL    HW114993   4.442   4.320   0.677 -2.4203  2.0477 -0.5308
 1177SOL    HW214994   4.376   4.297   0.553  2.2182  2.2291  0.7941
 1178SOL     OW14995   1.834   2.466   3.546  0.1696  0.1733  0.2959
 1178SOL    HW114996   1.809   2.478   3.455 -0.2312 -0.4617  0.3193
 1178SOL    HW214997   1.746   2.471   3.584  0.4744  1.6003  0.8224
 1179SOL     OW14998   3.914   2.716  10.596  0.1716 -0.0825  1.0092
 1179SOL    HW114999   4.008   2.730  10.600  0.2989 -0.4842 -0.4320
 1179SOL    HW215000   3.891   2.806  10.573  0.5149 -0.7047 -1.8496
 1180SOL     OW15001   0.969   0.428  17.532 -0.5081 -0.1384  0.4591
 1180SOL    HW115002   1.003   0.369  17.599  0.6735 -1.7284 -1.5521
 1180SOL    HW215003   0.956   0.372  17.455  0.5150 -0.1943  0.3379
 1181SOL     OW15004   4.296   1.744   0.754  0.1232 -0.0345 -0.2263
 1181SOL    HW115005   4.335   1.668   0.796  2.5103  1.4091  0.1722
 1181SOL    HW215006   4.369   1.801   0.778  0.3960 -0.5663  0.1953
 1182SOL     OW15007   4.239   2.274  17.106  0.2006 -0.1284 -0.1438
 1182SOL    HW115008   4.207   2.199  17.055  0.4493 -0.3157 -0.0274
 1182SOL    HW215009   4.333   2.265  17.090  0.0851 -0.0288 -0.8636
 1183SOL     OW15010   2.135   1.894   0.286 -0.5337  0.2511 -0.1051
 1183SOL    HW115011   2.146   1.799   0.283 -2.3386  0.0792 -1.5742
 1183SOL    HW215012   2.075   1.912   0.358  2.6396  1.0140  2.3342
 1184SOL     OW15013   3.795   3.107   7.163 -0.1422  0.3243 -0.2533
 1184SOL    HW115014   3.706   3.111   7.128  0.6675 -1.2040 -2.4920
 1184SOL    HW215015   3.826   3.189   7.124  2.2224 -0.7583 -0.6421
 1185SOL     OW15016   4.669   1.046   6.028  0.7811  0.2004 -0.5615
 1185SOL    HW115017   4.650   0.962   6.069 -0.4017 -0.2376 -2.0039
 1185SOL    HW215018   0.040   1.063   6.052 -0.0532  0.9413  2.0501
 1186SOL     OW15019   2.645   2.865   7.343 -0.9599  0.6623 -0.2483
 1186SOL    HW115020   2.573   2.841   7.400 -1.2262  1.6367 -0.1645
 1186SOL    HW215021   2.689   2.926   7.403 -0.1260  0.0263 -0.2197
 1187SOL     OW15022   1.548   2.315   2.061  0.1469 -0.0308 -0.6302
 1187SOL    HW115023   1.603   2.373   2.010  0.3330 -0.8257 -1.3359
 1187SOL    HW215024   1.613   2.257   2.100 -1.1366 -2.4740 -2.1370
 1188SOL     OW15025   1.130   2.501   2.578 -0.2601 -0.2799  0.2299
 1188SOL    HW115026   1.225   2.492   2.578 -0.2064  0.3016 -0.4027
 1188SOL    HW215027   1.124   2.519   2.672 -2.9476 -0.7224  0.1431
 1189SOL     OW15028   2.467   2.839   6.190 -0.4563  0.2792  0.0290
 1189SOL    HW115029   2.498   2.860   6.102  0.1490 -3.0127 -0.5556
 1189SOL    HW215030   2.535   2.878   6.244  0.4682  0.4160 -1.2373
 1190SOL     OW15031   4.717   2.036  17.120 -0.6284 -0.4848  0.3691
 1190SOL    HW115032   0.057   2.025  17.048  0.4559  1.5194  0.9907
 1190SOL    HW215033   0.007   1.958  17.175 -0.8677 -0.0760  0.9961
 1191SOL     OW15034   1.493   1.424   5.554 -0.1060 -0.5876 -1.0822
 1191SOL    HW115035   1.453   1.441   5.639  1.2489  0.6685 -0.6946
 1191SOL    HW215036   1.571   1.378   5.585 -0.6956 -0.9389 -0.1298
 1192SOL     OW15037   1.336   4.297   6.517 -0.8515  0.1678  0.0407
 1192SOL    HW115038   1.319   4.279   6.609 -0.0265  1.4479  0.4400
 1192SOL    HW215039   1.425   4.263   6.516 -0.4812  1.1398 -0.0039
 1193SOL     OW15040   0.423   3.766   3.857 -0.2231  0.1416 -0.2639
 1193SOL    HW115041   0.358   3.832   3.881 -0.8426 -0.2901 -0.7301
 1193SOL    HW215042   0.399   3.688   3.907 -1.4316 -0.2514 -1.4592
 1194SOL     OW15043   0.637   1.990  12.995  0.6563  0.3966  0.4981
 1194SOL    HW115044   0.611   2.082  12.998  0.0662  0.3559 -4.5564
 1194SOL    HW215045   0.619   1.966  12.904  0.4340  0.8484  0.4226
 1195SOL     OW15046   2.444   2.360   2.055 -0.2392 -0.0431 -0.1440
 1195SOL    HW115047   2.392   2.329   1.981 -0.2907  0.1369 -0.1828
 1195SOL    HW215048   2.502   2.424   2.015 -0.1010  0.6293  1.1278
 1196SOL     OW15049   3.761   3.861   8.183 -0.1401  0.3079 -0.4185
 1196SOL    HW115050   3.850   3.886   8.157  0.3920 -2.3778 -1.1658
 1196SOL    HW215051   3.766   3.874   8.278  0.7016  1.6840 -0.6561
 1197SOL     OW15052   0.434   1.922   7.291  0.3896  0.7987  0.0790
 1197SOL    HW115053   0.480   1.838   7.293  2.5560  1.9760 -0.4546
 1197SOL    HW215054   0.475   1.957   7.370  0.3094 -0.0847  0.5047
 1198SOL     OW15055   4.555   0.968   0.123  0.4304 -0.0553 -0.0038
 1198SOL    HW115056   4.619   0.898   0.134  2.1112  1.5168  0.3088
 1198SOL    HW215057   4.496   0.919   0.066  2.1298 -2.4820  0.3418
 1199SOL     OW15058   2.536   3.454   1.918 -0.2073  0.6466 -0.1600
 1199SOL    HW115059   2.615   3.507   1.910 -0.3479  0.8354 -0.2801
 1199SOL    HW215060   2.575   3.366   1.924  0.2790  0.9379  0.9215
 1200SOL     OW15061   0.929   2.904   8.182 -0.4248  0.3869 -0.2901
 1200SOL    HW115062   0.847   2.953   8.189 -0.8662 -0.5931  1.3927
 1200SOL    HW215063   0.985   2.971   8.222 -1.1532 -0.5092  2.1624
 1201SOL     OW15064   1.094   1.936   2.389 -0.4981 -0.7815 -0.1294
 1201SOL    HW115065   1.002   1.909   2.392 -0.3924 -0.7872  2.3892
 1201SOL    HW215066   1.105   1.974   2.302  2.4571 -0.7505  0.2531
 1202SOL     OW15067   0.269   3.662  10.130  0.4323  0.2468 -0.3462
 1202SOL    HW115068   0.212   3.585  10.139  1.3558 -0.0901  2.7332
 1202SOL    HW215069   0.349   3.620  10.161 -0.6092 -0.0912  1.8354
 1203SOL     OW15070   1.600   4.116   6.890 -0.1370 -0.2571  0.7005
 1203SOL    HW115071   1.523   4.164   6.920 -0.8707  0.3565 -2.1762
 1203SOL    HW215072   1.596   4.028   6.928  2.7113 -1.3061 -1.4593
 1204SOL     OW15073   4.193   3.007   5.887 -0.6361  0.5446 -0.1254
 1204SOL    HW115074   4.149   2.935   5.931 -0.3859 -0.6140 -1.7714
 1204SOL    HW215075   4.126   3.073   5.871  0.7720  1.9175 -0.3847
 1205SOL     OW15076   4.086   0.420   2.903 -0.4450 -0.5984 -0.7727
 1205SOL    HW115077   4.135   0.338   2.909  0.3880  0.0321  0.8954
 1205SOL    HW215078   4.140   0.478   2.957 -0.0333 -0.3427 -1.4560
 1206SOL     OW15079   3.682   3.609   7.998 -0.2908 -0.6587  0.3838
 1206SOL    HW115080   3.650   3.580   8.084  1.0757 -0.5213  0.9528
 1206SOL    HW215081   3.650   3.699   7.994 -0.6287 -0.7473  1.0900
 1207SOL     OW15082   1.117   0.294  16.060  1.3861  0.5330 -0.1814
 1207SOL    HW115083   1.189   0.244  16.098  1.0203 -0.4496 -0.7794
 1207SOL    HW215084   1.074   0.325  16.139  0.5179  1.0855 -0.8608
 1208SOL     OW15085   4.558   2.764   3.122 -0.1709  0.6448  0.1398
 1208SOL    HW115086   4.476   2.724   3.092  0.7039 -1.0083 -0.0251
 1208SOL    HW215087   4.624   2.696   3.110 -1.0502  0.2181 -2.2882
 1209SOL     OW15088   0.783   0.728   8.130  0.2984 -0.2206  0.0416
 1209SOL    HW115089   0.702   0.698   8.170 -0.2847 -1.2476 -1.9400
 1209SOL    HW215090   0.829   0.743   8.213  0.9614 -0.7881 -0.2260
 1210SOL     OW15091   4.446   1.588   7.303 -0.5859  0.0212  0.0442
 1210SOL    HW115092   4.397   1.632   7.233  1.4611 -0.0274 -1.4216
 1210SOL    HW215093   4.389   1.605   7.377  2.1935  2.1499  1.6815
 1211SOL     OW15094   4.189   3.868   2.065  0.2717 -0.5068  0.8165
 1211SOL    HW115095   4.276   3.836   2.043 -0.3906 -1.4246 -0.4368
 1211SOL    HW215096   4.209   3.958   2.091 -3.4004 -0.1823  2.6142
 1212SOL     OW15097   1.102   1.487   0.550 -0.2147  0.4157 -0.3200
 1212SOL    HW115098   1.158   1.411   0.536  0.3519  0.8020 -0.1280
 1212SOL    HW215099   1.065   1.490   0.462  0.4051  0.2174 -0.5827
 1213SOL     OW15100   2.376   4.474   7.476 -0.7815 -0.0826  0.4628
 1213SOL    HW115101   2.467   4.502   7.465 -0.3079 -2.0095 -0.3951
 1213SOL    HW215102   2.367   4.477   7.571 -0.5328  1.8403  0.4213
 1214SOL     OW15103   2.905   0.297   6.985 -0.1012  0.1352  0.4621
 1214SOL    HW115104   2.932   0.338   6.903  1.6452  0.8494  1.3770
 1214SOL    HW215105   2.979   0.244   7.015 -0.2993  1.0926  2.6242
 1215SOL     OW15106   1.017   1.815   3.079  0.5925 -0.2383 -0.1546
 1215SOL    HW115107   0.949   1.759   3.042  0.3688 -0.1519  0.1249
 1215SOL    HW215108   1.050   1.852   2.998  0.4665  1.1439  0.4225
 1216SOL     OW15109   2.900   3.541   6.937 -0.1161 -0.1719 -0.1878
 1216SOL    HW115110   2.840   3.468   6.951 -0.7004  0.5841  1.2415
 1216SOL    HW215111   2.964   3.518   7.004 -0.7521  0.1233  0.5172
 1217SOL     OW15112   4.222   4.201  10.112  0.2384  0.1775 -0.0462
 1217SOL    HW115113   4.230   4.107  10.129 -1.0681  0.2050  0.7781
 1217SOL    HW215114   4.306   4.235  10.082 -0.5712  0.8969 -1.5434
 1218SOL     OW15115   4.547   0.787  12.655 -0.0917 -0.4200  0.1982
 1218SOL    HW115116   4.597   0.843  12.715  1.0927  0.7837 -1.9275
 1218SOL    HW215117   4.461   0.828  12.662  0.1455 -0.1477  1.6526
 1219SOL     OW15118   2.351   2.558  16.993  0.0979 -0.2307 -0.0892
 1219SOL    HW115119   2.287   2.628  17.006  0.5798  0.0593  0.7043
 1219SOL    HW215120   2.427   2.609  17.021  1.0578 -2.3011  1.0490
 1220SOL     OW15121   4.186   1.686  16.726 -0.2953 -0.1291  0.1812
 1220SOL    HW115122   4.093   1.662  16.716  0.4549 -3.6399  1.3811
 1220SOL    HW215123   4.176   1.767  16.776  0.3329  0.9407 -1.4663
 1221SOL     OW15124   1.726   0.642  10.769 -0.2725  0.1188  0.5613
 1221SOL    HW115125   1.691   0.562  10.729  0.7535 -1.0323  1.9302
 1221SOL    HW215126   1.788   0.597  10.827  2.2608  0.5733 -1.7878
 1222SOL     OW15127   3.115   2.038   1.567 -0.1215 -0.0441 -0.0151
 1222SOL    HW115128   3.132   2.130   1.585 -0.6111 -0.2501  1.5269
 1222SOL    HW215129   3.052   2.050   1.496  0.3760  1.4490 -0.2003
 1223SOL     OW15130   4.457   3.358   2.164  0.3496  0.9899 -0.0868
 1223SOL    HW115131   4.382   3.338   2.219 -0.5149  1.8502 -0.9312
 1223SOL    HW215132   4.479   3.272   2.130 -1.9197  0.5879 -0.5144
 1224SOL     OW15133   1.237   2.899   4.372  0.8166 -0.5097  0.7688
 1224SOL    HW115134   1.332   2.904   4.361  0.8800  1.8015  2.3014
 1224SOL    HW215135   1.228   2.939   4.458  0.7502 -3.0910  1.9649
 1225SOL     OW15136   4.626   1.805  16.524 -0.4809  0.2955  0.4322
 1225SOL    HW115137   4.671   1.774  16.446  0.1634  0.4789  0.7330
 1225SOL    HW215138   4.647   1.734  16.585 -1.5475 -2.5496 -2.5293
 1226SOL     OW15139   3.948   3.767   6.699  0.0780  0.2022  0.5076
 1226SOL    HW115140   4.018   3.716   6.658 -0.6818 -0.3372 -0.1245
 1226SOL    HW215141   3.881   3.755   6.631  0.1307  1.7407  0.1957
 1227SOL     OW15142   4.149   3.488   6.661  0.0590  0.4351  0.4195
 1227SOL    HW115143   4.172   3.508   6.569  3.7503 -1.8955  0.8269
 1227SOL    HW215144   4.150   3.393   6.657  1.3993  0.3829  2.0742
 1228SOL     OW15145   4.291   2.894   9.930 -0.1248  0.1524 -0.8700
 1228SOL    HW115146   4.214   2.889   9.873  0.2017  0.3745 -1.3315
 1228SOL    HW215147   4.251   2.894  10.017  0.6211  0.3193 -0.5250
 1229SOL     OW15148   1.199   1.127   0.716 -0.6323  0.0361  0.3236
 1229SOL    HW115149   1.106   1.136   0.735 -1.2834  0.4016 -3.1503
 1229SOL    HW215150   1.224   1.054   0.773 -1.3375 -0.0040  0.5827
 1230SOL     OW15151   2.110   2.173  15.820 -0.4462 -0.1079 -0.1176
 1230SOL    HW115152   2.040   2.210  15.765 -1.9334 -0.8112  1.3172
 1230SOL    HW215153   2.143   2.107  15.759 -2.2646  0.0269 -1.2573
 1231SOL     OW15154   3.582   1.563   3.249  0.2644  0.0952  0.0376
 1231SOL    HW115155   3.643   1.537   3.180  0.2979 -1.6452  0.7333
 1231SOL    HW215156   3.640   1.537   3.320 -0.3634  1.8542  1.2260
 1232SOL     OW15157   4.277   1.790   6.184 -0.1845  0.6938 -0.5545
 1232SOL    HW115158   4.351   1.748   6.228 -0.3526  0.6020 -0.3600
 1232SOL    HW215159   4.325   1.856   6.133 -1.2653  2.1154  0.2750
 1233SOL     OW15160   1.830   3.856  12.922 -0.2684  0.2093  0.5927
 1233SOL    HW115161   1.780   3.793  12.974  1.8634 -1.8107  0.2212
 1233SOL    HW215162   1.919   3.836  12.952  0.1487  1.8378  0.4214
 1234SOL     OW15163   0.776   3.037   1.477 -0.2328  0.2890 -0.1861
 1234SOL    HW115164   0.851   3.094   1.456  0.0864 -0.5928 -1.4348
 1234SOL    HW215165   0.727   3.101   1.529  0.9283  0.2438  0.9658
 1235SOL     OW15166   3.995   4.160   8.977  0.2040  0.1233 -0.1531
 1235SOL    HW115167   4.053   4.088   9.003 -1.1525  0.3407  3.4970
 1235SOL    HW215168   4.053   4.232   8.951 -0.0211  0.9816  1.7403
 1236SOL     OW15169   0.218   0.181   5.282  0.1032 -0.1302  0.3102
 1236SOL    HW115170   0.258   0.100   5.252 -0.6590 -0.5295  0.3767
 1236SOL    HW215171   0.225   0.181   5.378  0.5501  1.2297  0.2778
 1237SOL     OW15172   0.342   3.550   2.401 -0.1677 -0.4749 -0.0392
 1237SOL    HW115173   0.393   3.620   2.440 -0.3373  1.1028 -2.6069
 1237SOL    HW215174   0.398   3.473   2.410 -1.3432 -1.5411 -1.6163
 1238SOL     OW15175   0.136   1.549   6.460 -0.2093  0.4317 -0.2580
 1238SOL    HW115176   0.188   1.539   6.380 -1.3808 -0.3316 -0.9260
 1238SOL    HW215177   0.060   1.600   6.430 -0.5032  1.7400  2.6781
 1239SOL     OW15178   3.286   0.357   4.741 -0.1530 -0.4842  0.0492
 1239SOL    HW115179   3.308   0.402   4.822  0.7334 -0.4483 -0.2188
 1239SOL    HW215180   3.196   0.330   4.762  0.6939 -0.5540  3.4936
 1240SOL     OW15181   0.654   2.674   4.562  0.2144  0.3516  0.2936
 1240SOL    HW115182   0.611   2.758   4.550 -0.6370 -0.3129 -1.3547
 1240SOL    HW215183   0.731   2.708   4.606 -1.0812  2.5004  0.8995
 1241SOL     OW15184   3.913   0.092  10.057  0.5051 -0.2206 -0.0009
 1241SOL    HW115185   3.886   0.025   9.995 -0.5385  1.2783 -1.1634
 1241SOL    HW215186   4.006   0.069  10.062 -0.0729 -2.5710 -0.3391
 1242SOL     OW15187   1.866   4.223   6.821  0.0715 -0.7399 -0.7022
 1242SOL    HW115188   1.868   4.173   6.740 -2.4049 -1.8410 -0.0751
 1242SOL    HW215189   1.776   4.203   6.848  0.5121  1.1335  2.1577
 1243SOL     OW15190   3.973   4.505   7.521 -0.3867 -0.8722 -0.3674
 1243SOL    HW115191   3.901   4.457   7.480  0.3137 -2.0161 -0.2501
 1243SOL    HW215192   4.028   4.528   7.445  1.6505  1.5840  1.8471
 1244SOL     OW15193   2.367   1.974  13.163  0.5914 -0.3197  0.0486
 1244SOL    HW115194   2.276   1.947  13.174  0.4365  0.3274  0.3219
 1244SOL    HW215195   2.405   1.887  13.154 -2.5573 -1.6444 -0.7502
 1245SOL     OW15196   4.661   3.722   1.622  0.0026  0.1236  0.4959
 1245SOL    HW115197   4.566   3.733   1.619  0.1451  0.6724 -2.1075
 1245SOL    HW215198   4.685   3.710   1.530 -0.4131  1.3992  0.2288
 1246SOL     OW15199   3.311   1.962  11.611  0.2472  0.3946 -0.2035
 1246SOL    HW115200   3.360   1.985  11.532  0.8621  0.8015  0.3011
 1246SOL    HW215201   3.239   2.025  11.605  0.3071  0.3060 -2.0378
 1247SOL     OW15202   1.093   1.423   3.059  0.0906 -0.5348 -0.2480
 1247SOL    HW115203   1.108   1.465   2.975 -1.1425  1.4947  0.5469
 1247SOL    HW215204   1.011   1.461   3.091 -0.2648  1.1734 -3.2811
 1248SOL     OW15205   2.329   1.350   3.857 -0.3564  0.0605  0.5707
 1248SOL    HW115206   2.330   1.315   3.768 -0.5967 -2.3602  1.5235
 1248SOL    HW215207   2.238   1.378   3.849  0.0655  0.6335 -2.2749
 1249SOL     OW15208   2.313   3.390   6.965 -0.3874 -0.3609 -0.2741
 1249SOL    HW115209   2.323   3.401   6.871  0.1030 -1.4243 -0.3531
 1249SOL    HW215210   2.360   3.468   6.992  2.7726 -1.2568 -3.1393
 1250SOL     OW15211   2.055   4.334   5.751 -0.1972 -0.3918 -0.0700
 1250SOL    HW115212   1.983   4.334   5.815 -0.0442 -1.0949  0.1076
 1250SOL    HW215213   2.043   4.243   5.725 -0.9589  0.0709 -1.3432
 1251SOL     OW15214   4.464   0.869  14.591  0.0070 -0.0010  0.0601
 1251SOL    HW115215   4.385   0.912  14.623  0.2912  1.9371 -1.7684
 1251SOL    HW215216   4.430   0.808  14.526  1.2484  0.1878 -0.7685
 1252SOL     OW15217   0.995   2.168   4.755  0.0566  0.2369 -0.2257
 1252SOL    HW115218   0.996   2.087   4.705 -1.2354 -0.8148  1.4387
 1252SOL    HW215219   0.998   2.143   4.848 -1.8825  1.2343  0.1020
 1253SOL     OW15220   3.248   2.243   3.831  0.2653 -0.1469  0.0279
 1253SOL    HW115221   3.191   2.306   3.789 -0.0172  0.1900  0.9088
 1253SOL    HW215222   3.331   2.246   3.784 -0.7938  2.3937 -1.6395
 1254SOL     OW15223   1.868   3.094   7.030  0.1904  0.4180 -0.2862
 1254SOL    HW115224   1.890   3.108   6.938 -0.6693 -1.9956 -0.8493
 1254SOL    HW215225   1.950   3.126   7.069  0.3440 -1.1656  0.7134
 1255SOL     OW15226   2.878   1.249   0.343  0.4994 -0.5400  0.2357
 1255SOL    HW115227   2.944   1.301   0.388 -0.9867  0.5897  1.0881
 1255SOL    HW215228   2.804   1.309   0.341  2.7274  2.1872  0.3051
 1256SOL     OW15229   0.462   0.655   2.812 -0.5503 -0.2478 -0.5504
 1256SOL    HW115230   0.408   0.576   2.801  1.6418 -1.6198 -1.4128
 1256SOL    HW215231   0.453   0.670   2.906 -0.2033  0.8442 -0.6989
 1257SOL     OW15232   4.665   4.305   6.810 -0.2232 -0.4583  0.1691
 1257SOL    HW115233   4.622   4.229   6.771 -0.8247 -0.1891  0.2981
 1257SOL    HW215234   4.715   4.329   6.732  0.2074  0.0131  0.5904
 1258SOL     OW15235   3.308   2.904   8.919  0.0167  0.1992 -0.0115
 1258SOL    HW115236   3.220   2.919   8.885 -0.4552  0.4740  1.3386
 1258SOL    HW215237   3.292   2.899   9.014 -0.0905  0.5759 -0.0112
 1259SOL     OW15238   1.986   2.556  16.557  0.0716 -0.4625 -0.0768
 1259SOL    HW115239   2.040   2.533  16.482  1.4532  2.9478 -0.1595
 1259SOL    HW215240   2.050   2.550  16.628 -0.3457  1.0296  0.4422
 1260SOL     OW15241   2.539   2.865  17.606  0.1540  0.1455  0.2523
 1260SOL    HW115242   2.453   2.873  17.647  1.0450 -0.5195  2.2594
 1260SOL    HW215243   2.575   2.804  17.671 -0.5558  0.7570  1.2090
 1261SOL     OW15244   2.791   2.271   8.407  0.4620 -0.3181 -0.7923
 1261SOL    HW115245   2.721   2.212   8.435  0.9460  0.0987  1.3278
 1261SOL    HW215246   2.748   2.291   8.324 -2.1291 -0.9399  0.3825
 1262SOL     OW15247   3.190   0.684  14.280 -0.2456  0.2322  0.2602
 1262SOL    HW115248   3.197   0.718  14.191 -3.4530 -1.8013 -0.7752
 1262SOL    HW215249   3.106   0.639  14.280  0.1869 -0.5689 -0.5996
 1263SOL     OW15250   3.405   4.074  12.605 -0.2409  0.2399  0.2132
 1263SOL    HW115251   3.401   4.162  12.568 -1.8187  0.7667  1.6647
 1263SOL    HW215252   3.478   4.082  12.667 -1.5726  1.0727  1.6912
 1264SOL     OW15253   0.769   1.790   6.645  0.5924  0.4316 -0.5239
 1264SOL    HW115254   0.835   1.859   6.651  1.4221 -0.5746  1.9063
 1264SOL    HW215255   0.819   1.710   6.661  0.3962  0.0191 -1.9843
 1265SOL     OW15256   3.322   1.344  15.054  0.3156  0.2971 -0.2440
 1265SOL    HW115257   3.264   1.296  14.995  2.1887 -1.3546 -0.7573
 1265SOL    HW215258   3.265   1.420  15.068  1.1079  0.9640 -0.6290
 1266SOL     OW15259   0.155   4.287   1.073 -0.6808 -0.0899 -0.3150
 1266SOL    HW115260   0.094   4.252   1.007 -2.3292  0.0264  1.1606
 1266SOL    HW215261   0.151   4.223   1.144  3.0450 -0.5863 -0.5436
 1267SOL     OW15262   3.364   4.306  11.627 -0.1725  0.6522 -0.5269
 1267SOL    HW115263   3.318   4.261  11.556  0.7222 -0.7876 -0.1967
 1267SOL    HW215264   3.400   4.383  11.582 -1.0862  1.3610 -0.0229
 1268SOL     OW15265   4.233   4.473   7.568 -0.3854 -0.2526  0.0952
 1268SOL    HW115266   4.259   4.547   7.623 -0.8949 -0.4983  0.6573
 1268SOL    HW215267   4.138   4.480   7.566 -0.3877 -0.1697  0.4881
 1269SOL     OW15268   1.480   4.441   8.545  0.4747  0.6396 -0.3838
 1269SOL    HW115269   1.390   4.447   8.575  0.3363 -2.1460 -0.2957
 1269SOL    HW215270   1.490   4.534   8.525 -0.6793  1.0990  1.1512
 1270SOL     OW15271   2.188   4.150   2.502 -0.6427  0.0880 -0.5409
 1270SOL    HW115272   2.250   4.162   2.574 -0.3898 -1.0606 -0.5704
 1270SOL    HW215273   2.190   4.056   2.485 -0.4391 -0.1668  0.9348
 1271SOL     OW15274   1.371   1.542   3.833  0.2721  0.1374  0.0860
 1271SOL    HW115275   1.433   1.578   3.896 -0.1972 -0.6996  1.0229
 1271SOL    HW215276   1.432   1.528   3.761  0.4473 -1.9437  0.6318
 1272SOL     OW15277   1.791   4.146   3.511  0.2155 -0.2939  0.1247
 1272SOL    HW115278   1.833   4.145   3.425  1.6112  0.8118  0.7896
 1272SOL    HW215279   1.793   4.055   3.540 -0.0700 -0.6256 -0.8992
 1273SOL     OW15280   2.359   1.311   6.245  0.2518  0.0850  0.3732
 1273SOL    HW115281   2.407   1.284   6.167 -0.0852 -0.3857  0.3321
 1273SOL    HW215282   2.342   1.405   6.235  1.2113 -0.2101 -3.7154
 1274SOL     OW15283   3.003   2.958   2.277  0.3490 -0.3582  0.3828
 1274SOL    HW115284   3.062   2.962   2.201  0.6832 -0.2939  0.6486
 1274SOL    HW215285   2.984   3.050   2.296  1.0947  0.2831 -1.9641
 1275SOL     OW15286   4.135   0.858   4.256  0.5262  0.5969  0.7281
 1275SOL    HW115287   4.093   0.778   4.288 -0.4793  1.8168  2.4770
 1275SOL    HW215288   4.063   0.898   4.206  0.2664 -1.9455 -0.9152
 1276SOL     OW15289   4.257   3.995   7.973  0.4025 -0.4212  0.2258
 1276SOL    HW115290   4.198   4.025   7.903 -1.9675 -0.1640  2.3307
 1276SOL    HW215291   4.328   3.964   7.918  0.1124 -2.7075  1.1393
 1277SOL     OW15292   4.242   3.004   7.358 -0.0673  0.1888 -0.1311
 1277SOL    HW115293   4.161   3.052   7.372  0.8860  1.6625  0.3409
 1277SOL    HW215294   4.306   3.061   7.400  0.3856  0.3841 -1.0727
 1278SOL     OW15295   1.120   1.222   3.766 -0.6115 -0.4809 -0.1974
 1278SOL    HW115296   1.055   1.210   3.697 -3.2026 -1.0960  2.3166
 1278SOL    HW215297   1.198   1.177   3.733 -1.0838 -1.5531  0.1673
 1279SOL     OW15298   4.685   3.930   4.619 -0.9299 -0.2198  0.1883
 1279SOL    HW115299   4.667   3.847   4.575  2.9135 -1.5198  1.0960
 1279SOL    HW215300   4.621   3.986   4.576 -0.0986  1.6898  1.4234
 1280SOL     OW15301   3.576   4.044  17.030 -0.1045 -0.4941  0.2034
 1280SOL    HW115302   3.616   4.130  17.017 -0.8586  0.3878  3.8706
 1280SOL    HW215303   3.576   4.034  17.125 -2.8104  1.2220  0.3741
 1281SOL     OW15304   2.371   3.292  17.010 -0.9337  0.9637 -0.3387
 1281SOL    HW115305   2.348   3.277  16.919 -2.2691 -1.1465  0.3642
 1281SOL    HW215306   2.306   3.230  17.042  1.3351 -1.5265 -0.5576
 1282SOL     OW15307   1.222   0.879   5.314  0.4482  0.2489 -0.4970
 1282SOL    HW115308   1.280   0.916   5.381 -0.5021  1.6896 -0.4520
 1282SOL    HW215309   1.189   0.810   5.371  0.8940  0.1539 -0.3554
 1283SOL     OW15310   2.803   3.006   8.668 -0.2584  0.9524  0.9883
 1283SOL    HW115311   2.778   3.008   8.576  1.1012 -1.1291  0.5805
 1283SOL    HW215312   2.864   2.933   8.668 -2.8353 -1.2302  0.4013
 1284SOL     OW15313   2.478   2.965   5.389 -0.4081 -0.2169  0.1802
 1284SOL    HW115314   2.437   3.043   5.425 -1.3682 -0.8191  0.3733
 1284SOL    HW215315   2.410   2.924   5.335 -0.3004 -0.8146  0.4973
 1285SOL     OW15316   3.986   4.252   3.901 -0.0710  0.2738  0.1072
 1285SOL    HW115317   4.009   4.343   3.920 -0.6944  0.6522 -0.9597
 1285SOL    HW215318   4.041   4.206   3.964 -1.0294  0.7843  1.3313
 1286SOL     OW15319   0.082   3.240  16.337 -0.5562  0.1482 -0.1418
 1286SOL    HW115320   0.018   3.198  16.280  1.0207 -1.0469 -1.0266
 1286SOL    HW215321   0.106   3.314  16.280 -4.6307  0.7565 -1.0642
 1287SOL     OW15322   4.367   1.760   4.217  0.0942 -0.7100 -0.0219
 1287SOL    HW115323   4.426   1.776   4.143  2.6099  0.6213  2.2546
 1287SOL    HW215324   4.304   1.700   4.178  0.2782 -1.1599  0.3648
 1288SOL     OW15325   4.717   0.387  16.614  0.0655 -0.3161 -0.3081
 1288SOL    HW115326   4.651   0.332  16.572 -0.0468  0.3515 -0.9909
 1288SOL    HW215327   4.677   0.415  16.697 -0.1907  0.1136 -0.5763
 1289SOL     OW15328   1.800   2.460  14.436 -0.2606 -0.5324 -0.2203
 1289SOL    HW115329   1.845   2.415  14.508  0.3221  0.5528  0.0797
 1289SOL    HW215330   1.792   2.390  14.371 -0.0430 -0.1716 -0.6352
 1290SOL     OW15331   0.302   2.356   8.481  0.0898 -0.3139 -0.2189
 1290SOL    HW115332   0.397   2.360   8.471  0.0669  2.5803  0.6295
 1290SOL    HW215333   0.293   2.271   8.523  0.3151 -0.1300  0.1968
 1291SOL     OW15334   2.329   0.054   9.071  0.3059  0.7884 -0.0699
 1291SOL    HW115335   2.243   0.042   9.110 -0.0024  0.5232 -0.8459
 1291SOL    HW215336   2.353   4.691   9.031  0.4878  0.7777  0.0588
 1292SOL     OW15337   3.624   1.232  16.245  0.1845 -0.4550 -0.1175
 1292SOL    HW115338   3.633   1.167  16.175 -3.1081 -0.3714 -0.5834
 1292SOL    HW215339   3.598   1.309  16.196 -3.4542 -1.0878  0.8281
 1293SOL     OW15340   3.595   1.243   3.385 -0.0727 -0.3189  0.1061
 1293SOL    HW115341   3.504   1.220   3.365  0.3653 -3.2842  1.5852
 1293SOL    HW215342   3.626   1.264   3.297  0.1083  0.0107  0.2490
 1294SOL     OW15343   3.374   1.002   9.575  0.0814 -0.2669  0.7550
 1294SOL    HW115344   3.315   0.928   9.559 -0.1749  0.5355 -2.0163
 1294SOL    HW215345   3.329   1.073   9.620 -0.1710  0.8061 -1.1769
 1295SOL     OW15346   0.115   3.812  13.426  0.7206 -0.3169  0.3919
 1295SOL    HW115347   0.160   3.780  13.347  1.4705  2.1856 -0.2076
 1295SOL    HW215348   0.052   3.865  13.375  1.4883 -0.8650 -1.1128
 1296SOL     OW15349   3.960   3.642   8.531  0.2633 -0.2178 -0.1240
 1296SOL    HW115350   3.973   3.720   8.584 -3.4876  2.2841 -2.8830
 1296SOL    HW215351   3.974   3.571   8.594 -1.3173  0.0256  0.5017
 1297SOL     OW15352   2.998   1.645  16.517  0.0868  0.1064  0.1593
 1297SOL    HW115353   2.985   1.557  16.483 -0.2035  0.8363 -1.6181
 1297SOL    HW215354   2.906   1.662  16.536  0.2488  1.3839 -0.1612
 1298SOL     OW15355   2.725   0.158   9.138 -0.1709  0.4561 -0.2730
 1298SOL    HW115356   2.682   0.103   9.072  0.1514  1.1215 -1.0357
 1298SOL    HW215357   2.770   0.226   9.089  1.2209  0.8241  1.5434
 1299SOL     OW15358   4.043   1.336   2.658 -0.4230  0.2053  0.6574
 1299SOL    HW115359   3.981   1.305   2.592 -2.7046  0.1020  2.8304
 1299SOL    HW215360   4.128   1.311   2.621  0.4486  1.4556  1.7874
 1300SOL     OW15361   0.391   3.809   1.967 -0.1044 -0.3566  0.0777
 1300SOL    HW115362   0.374   3.737   2.027 -3.0488  0.0659 -0.2749
 1300SOL    HW215363   0.303   3.846   1.976 -0.6634 -1.2359 -1.8298
 1301SOL     OW15364   4.093   2.704  11.678 -0.1179  0.5323 -0.0254
 1301SOL    HW115365   4.103   2.798  11.663 -0.3816  0.6660  0.6336
 1301SOL    HW215366   3.999   2.689  11.671 -0.0800  0.9201 -1.2771
 1302SOL     OW15367   2.127   4.087   0.225 -0.7768 -0.4674  0.0032
 1302SOL    HW115368   2.093   4.168   0.187 -1.3527 -0.7713 -0.1121
 1302SOL    HW215369   2.156   4.115   0.313 -1.8068  0.7661 -0.0427
 1303SOL     OW15370   1.194   3.097   4.880 -0.3373 -0.2200 -0.3908
 1303SOL    HW115371   1.217   3.056   4.964 -2.5973 -0.0643  0.2856
 1303SOL    HW215372   1.108   3.133   4.899 -0.6745 -1.2514  0.0591
 1304SOL     OW15373   3.705   2.273   3.753 -0.1011  0.1539 -0.0002
 1304SOL    HW115374   3.800   2.288   3.756 -0.0288 -0.4333  0.5731
 1304SOL    HW215375   3.694   2.328   3.830 -2.5113 -2.8047  1.7609
 1305SOL     OW15376   1.984   2.629   3.714  0.1857  0.9820 -0.2812
 1305SOL    HW115377   1.952   2.616   3.625  1.9184 -2.3827 -0.3962
 1305SOL    HW215378   2.049   2.559   3.709 -0.5639  0.1751  1.5035
 1306SOL     OW15379   0.741   2.276  12.731 -0.6300  0.0272  0.3270
 1306SOL    HW115380   0.688   2.236  12.662 -0.0562  0.3242 -0.2843
 1306SOL    HW215381   0.825   2.231  12.725 -0.2348  0.6079  1.5396
 1307SOL     OW15382   0.002   2.028   4.469 -0.0910  1.6781 -0.1119
 1307SOL    HW115383   0.069   1.988   4.523 -0.1319 -0.1304 -1.4259
 1307SOL    HW215384   0.006   1.968   4.395 -1.2689  1.3813  0.0535
 1308SOL     OW15385   3.703   3.880  11.092 -0.5540 -0.4965 -0.2419
 1308SOL    HW115386   3.686   3.891  11.186  0.4859  1.7146 -0.3096
 1308SOL    HW215387   3.723   3.968  11.060  4.5557 -1.1234  1.2976
 1309SOL     OW15388   4.041   0.572   7.152 -0.5474 -0.2638  0.2371
 1309SOL    HW115389   4.097   0.649   7.167  0.8380 -1.4626  1.1911
 1309SOL    HW215390   3.984   0.610   7.085  0.3123 -0.7232 -0.7584
 1310SOL     OW15391   2.629   2.426   5.011 -0.2378 -1.1172  0.0891
 1310SOL    HW115392   2.680   2.504   4.988 -2.3312  0.5234  0.9468
 1310SOL    HW215393   2.645   2.364   4.940 -1.9454 -0.5602 -0.7977
 1311SOL     OW15394   2.630   2.922   1.654  0.0002  0.1982  0.3735
 1311SOL    HW115395   2.601   2.851   1.712 -0.9254  0.5324  0.3231
 1311SOL    HW215396   2.560   2.925   1.589 -0.6924 -0.4947  1.0752
 1312SOL     OW15397   1.690   0.686   8.614 -0.2617  0.2088  0.2180
 1312SOL    HW115398   1.772   0.641   8.633 -0.7694 -1.6102 -1.9376
 1312SOL    HW215399   1.673   0.734   8.695  0.8679 -0.6304  0.9350
 1313SOL     OW15400   2.876   1.845  14.399  0.0396  0.1506 -0.6159
 1313SOL    HW115401   2.863   1.905  14.326 -1.8860 -0.9096 -1.1348
 1313SOL    HW215402   2.858   1.763  14.355  1.3243  0.3111 -1.4212
 1314SOL     OW15403   4.700   3.813  14.404 -0.0863  0.2286  0.0213
 1314SOL    HW115404   0.055   3.783  14.354  0.0069 -2.6138  1.8927
 1314SOL    HW215405   0.025   3.853  14.478 -0.9433  0.9216  0.1953
 1315SOL     OW15406   0.588   2.555   5.759 -0.5600  0.0070  0.2971
 1315SOL    HW115407   0.680   2.549   5.736 -0.3270 -1.0800  1.5064
 1315SOL    HW215408   0.575   2.490   5.828 -1.8130  0.8593  0.8650
 1316SOL     OW15409   4.582   0.160  15.002 -0.0992 -0.0411 -0.5756
 1316SOL    HW115410   4.630   0.240  15.023 -1.3457  0.6165 -0.2458
 1316SOL    HW215411   4.604   0.162  14.909 -2.1008 -0.2564 -1.0458
 1317SOL     OW15412   1.428   2.382   2.541  0.4548  0.0413 -0.7445
 1317SOL    HW115413   1.361   2.353   2.479  0.8043  0.0278 -1.1111
 1317SOL    HW215414   1.512   2.366   2.499  0.1268  1.1039 -1.8187
 1318SOL     OW15415   3.029   2.958   6.270 -0.3696 -0.0790 -0.1085
 1318SOL    HW115416   3.003   3.010   6.346 -0.4467 -0.0860 -0.1298
 1318SOL    HW215417   3.091   2.901   6.315  1.2427  1.7499 -0.0286
 1319SOL     OW15418   0.098   4.520  15.486  0.2252 -0.1388 -0.0863
 1319SOL    HW115419   0.172   4.470  15.521  0.3315  0.5540  0.6798
 1319SOL    HW215420   0.122   4.515  15.393  0.2329  1.1194 -0.1512
 1320SOL     OW15421   3.722   0.307   9.489  0.3200  0.2674 -0.4951
 1320SOL    HW115422   3.718   0.398   9.459  3.3301  0.0757 -1.5430
 1320SOL    HW215423   3.755   0.267   9.409 -0.6709 -2.2904  0.3782
 1321SOL     OW15424   4.143   3.227  15.098 -0.2121  0.0966 -0.1530
 1321SOL    HW115425   4.059   3.272  15.085 -0.4961  0.1615  1.9113
 1321SOL    HW215426   4.192   3.292  15.148  1.2994 -0.9665 -0.2590
 1322SOL     OW15427   0.536   2.924  11.278 -0.6293  0.3752  0.2418
 1322SOL    HW115428   0.574   2.897  11.195  0.7444  0.8807  0.6995
 1322SOL    HW215429   0.575   3.011  11.288 -0.2671  0.1880  0.4812
 1323SOL     OW15430   0.238   1.668   6.815  0.0374  0.0871  0.4791
 1323SOL    HW115431   0.181   1.614   6.869 -1.7889  2.3249  0.7710
 1323SOL    HW215432   0.291   1.702   6.888  2.9794 -0.8316 -1.1937
 1324SOL     OW15433   2.637   2.043   9.818  0.3210 -0.3232 -0.2286
 1324SOL    HW115434   2.683   1.979   9.872  1.0914  0.5366  0.1389
 1324SOL    HW215435   2.543   2.026   9.817  0.3668 -0.7323  1.6044
 1325SOL     OW15436   2.620   1.402   7.285 -0.3430 -0.0318  0.3213
 1325SOL    HW115437   2.661   1.355   7.211 -1.7076  0.6316 -0.8555
 1325SOL    HW215438   2.600   1.488   7.248  2.5979  0.3690 -0.4051
 1326SOL     OW15439   3.419   3.697   8.850  0.6213 -0.1149  0.4933
 1326SOL    HW115440   3.337   3.739   8.876 -0.3677 -2.0880  0.5531
 1326SOL    HW215441   3.401   3.681   8.757  2.0864 -1.5124  0.4549
 1327SOL     OW15442   0.858   0.114   3.472  0.3660 -0.4291  0.0127
 1327SOL    HW115443   0.849   0.139   3.380  2.8579 -2.9548 -0.9065
 1327SOL    HW215444   0.778   0.063   3.485  0.3268 -0.0026  1.5574
 1328SOL     OW15445   1.018   4.600   3.371 -0.6851  0.3786 -0.2512
 1328SOL    HW115446   0.957   4.580   3.441 -1.6935  2.1188 -0.6310
 1328SOL    HW215447   0.986   4.681   3.331  2.3501  2.2075  1.0601
 1329SOL     OW15448   0.292   3.729   6.946 -0.4351  0.5917 -0.1081
 1329SOL    HW115449   0.356   3.789   6.984 -1.7800  0.6587  2.0289
 1329SOL    HW215450   0.223   3.775   6.994 -1.2469  1.3706 -1.9829
 1330SOL     OW15451   0.590   3.796   7.827  0.0607  0.7949 -0.0886
 1330SOL    HW115452   0.652   3.764   7.762 -0.6845 -2.1883  0.6574
 1330SOL    HW215453   0.631   3.792   7.914  0.4733 -1.5187 -0.3907
 1331SOL     OW15454   1.117   3.614   3.042 -0.5783 -0.1484  0.3840
 1331SOL    HW115455   1.160   3.622   3.128  1.3747 -1.3850 -0.4628
 1331SOL    HW215456   1.039   3.665   3.061 -0.0746  0.0073  2.0619
 1332SOL     OW15457   1.363   2.307   4.296 -0.0102 -0.8767  0.1556
 1332SOL    HW115458   1.276   2.345   4.309 -0.5221 -2.2847  0.8915
 1332SOL    HW215459   1.374   2.255   4.375 -0.2914  0.1367  0.8527
 1333SOL     OW15460   4.474   1.979   5.994 -0.2484  0.4954 -0.4842
 1333SOL    HW115461   4.408   2.013   5.933 -1.7875 -1.8803 -0.1387
 1333SOL    HW215462   4.520   1.930   5.926 -0.0805  0.1499 -0.1230
 1334SOL     OW15463   0.991   0.402   9.219  0.0326  0.1332 -0.1816
 1334SOL    HW115464   0.999   0.424   9.126  0.6044  0.6946  0.0026
 1334SOL    HW215465   0.903   0.368   9.203 -0.1293 -0.8543  2.9205
 1335SOL     OW15466   0.820   0.421   1.337  0.1758  0.2784 -0.5174
 1335SOL    HW115467   0.780   0.352   1.389  0.8738 -0.3573 -0.8258
 1335SOL    HW215468   0.877   0.462   1.403 -0.1932 -0.2933  0.1574
 1336SOL     OW15469   2.945   3.887  15.277  0.5207 -0.7961  0.7461
 1336SOL    HW115470   3.036   3.917  15.270  0.1016  0.4076  0.3853
 1336SOL    HW215471   2.947   3.792  15.282  0.8885 -0.7365  1.6976
 1337SOL     OW15472   1.755   0.820   5.724 -0.0536 -0.2919  0.1877
 1337SOL    HW115473   1.661   0.836   5.730  0.1411  1.1345 -0.4977
 1337SOL    HW215474   1.778   0.802   5.632  0.5939 -1.2217  0.5273
 1338SOL     OW15475   4.495   4.692   0.945 -0.5903  0.2319  0.1303
 1338SOL    HW115476   4.587   4.678   0.969  0.2342 -0.1714 -3.2078
 1338SOL    HW215477   4.458   4.623   1.000 -2.1131 -0.3913 -1.6672
 1339SOL     OW15478   4.532   1.498   7.569  0.5350  0.0005  0.1230
 1339SOL    HW115479   4.473   1.496   7.645  0.3337  1.2003 -0.0076
 1339SOL    HW215480   4.552   1.592   7.574  0.3396  0.0188  0.5832
 1340SOL     OW15481   2.889   0.487   9.171  0.4299  0.6818  0.1581
 1340SOL    HW115482   2.832   0.431   9.223  0.0161 -1.1973 -2.3346
 1340SOL    HW215483   2.829   0.504   9.098 -1.8690 -1.4771  1.5682
 1341SOL     OW15484   3.787   4.596   5.244 -0.2229 -0.2864  0.1078
 1341SOL    HW115485   3.751   4.682   5.222 -0.2993 -0.9753 -2.4108
 1341SOL    HW215486   3.727   4.568   5.313  0.9297  0.3543  1.4036
 1342SOL     OW15487   0.866   1.530   3.303  0.2926  0.3328  0.2329
 1342SOL    HW115488   0.932   1.507   3.368  1.6311  3.3985 -0.0216
 1342SOL    HW215489   0.821   1.602   3.347 -0.1396 -0.1614  0.6009
 1343SOL     OW15490   1.313   1.036   5.598 -0.6685 -0.4275 -0.5002
 1343SOL    HW115491   1.228   1.070   5.625 -0.8255  0.4833 -2.1608
 1343SOL    HW215492   1.324   0.967   5.664 -2.9152 -1.3990 -1.1504
 1344SOL     OW15493   0.902   2.397   8.146  0.6444  0.4456 -0.2102
 1344SOL    HW115494   0.825   2.350   8.113  0.6428 -0.5748  1.2000
 1344SOL    HW215495   0.963   2.323   8.146  0.8186  0.5916 -0.7419
 1345SOL     OW15496   2.736   1.399   4.690  0.4095  0.6046 -0.2898
 1345SOL    HW115497   2.742   1.304   4.705  1.7691  0.2994 -2.7087
 1345SOL    HW215498   2.660   1.402   4.748  0.9855  2.0439  0.3887
 1346SOL     OW15499   1.602   2.972   0.922  0.3431 -0.2100  0.0093
 1346SOL    HW115500   1.525   2.934   0.965 -0.0481  1.4015  0.7423
 1346SOL    HW215501   1.636   2.892   0.881  3.5939  1.2597 -0.1661
 1347SOL     OW15502   1.577   4.037   7.533 -0.2327 -0.2162 -0.3923
 1347SOL    HW115503   1.655   4.092   7.539 -0.2248 -0.0632 -1.9222
 1347SOL    HW215504   1.521   4.086   7.472 -0.5311 -1.4228 -1.0951
 1348SOL     OW15505   3.870   0.410  10.294  0.0022  0.0729 -0.4506
 1348SOL    HW115506   3.907   0.375  10.212  3.0333 -1.4695  1.5746
 1348SOL    HW215507   3.830   0.494  10.269  0.3504 -0.0675 -1.4767
 1349SOL     OW15508   2.045   4.032   5.965 -0.1580  0.1125 -0.5435
 1349SOL    HW115509   1.989   4.042   5.888  0.5583  0.4439 -1.0181
 1349SOL    HW215510   2.120   3.996   5.917 -0.4272 -0.0626 -0.8328
 1350SOL     OW15511   0.382   4.416   7.498 -0.6296  0.0123 -0.3105
 1350SOL    HW115512   0.293   4.396   7.472 -0.6126  0.7103 -0.8945
 1350SOL    HW215513   0.434   4.358   7.442 -0.2505  0.6496 -0.6257
 1351SOL     OW15514   2.013   0.956   2.230 -0.2355 -0.0730  0.1466
 1351SOL    HW115515   2.086   0.945   2.290  0.4241  0.6809 -0.5166
 1351SOL    HW215516   1.942   0.912   2.277 -1.3200 -0.5318 -1.9156
 1352SOL     OW15517   0.861   2.542   5.712  0.0885 -0.1176 -0.1978
 1352SOL    HW115518   0.890   2.529   5.621  2.4953  1.2657  0.3498
 1352SOL    HW215519   0.938   2.583   5.752 -1.4509  1.1895  1.4162
 1353SOL     OW15520   4.326   1.127   6.553  0.0924  0.2685 -0.2220
 1353SOL    HW115521   4.380   1.196   6.589 -0.8367 -0.4042  2.4212
 1353SOL    HW215522   4.315   1.076   6.633  2.5286 -1.0078 -0.7079
 1354SOL     OW15523   2.563   3.348  11.603 -0.2884  0.0748  0.0127
 1354SOL    HW115524   2.574   3.421  11.664 -0.0132 -1.3129  1.6370
 1354SOL    HW215525   2.476   3.320  11.632  0.0167 -0.5004  0.3795
 1355SOL     OW15526   3.834   2.393   5.373  0.0455 -0.2117  0.0465
 1355SOL    HW115527   3.773   2.332   5.414 -0.7639  0.3444 -0.3460
 1355SOL    HW215528   3.773   2.465   5.386  0.0811 -0.0958 -0.4464
 1356SOL     OW15529   3.562   3.546   5.331  0.1109 -0.5000  0.1427
 1356SOL    HW115530   3.615   3.543   5.411 -0.7880 -0.0756  0.7499
 1356SOL    HW215531   3.504   3.472   5.347 -0.2567  0.2272  2.2433
 1357SOL     OW15532   4.246   0.520   0.530  0.1471  0.4472 -0.4448
 1357SOL    HW115533   4.251   0.615   0.540  1.7798  0.1580  1.3277
 1357SOL    HW215534   4.311   0.509   0.461  0.2802 -4.1363  0.3906
 1358SOL     OW15535   2.826   2.084   9.626  0.2193  0.3882 -0.8963
 1358SOL    HW115536   2.756   2.083   9.692 -0.1182 -1.5892 -1.2637
 1358SOL    HW215537   2.781   2.136   9.559  1.3940  2.5177  0.0029
 1359SOL     OW15538   1.710   2.548  11.572 -0.2606  0.3085 -0.1276
 1359SOL    HW115539   1.687   2.520  11.483  2.4627 -0.2133 -0.6578
 1359SOL    HW215540   1.773   2.482  11.601  0.8554  1.6765  0.5341
 1360SOL     OW15541   3.483   2.202   2.975 -0.0185  0.3516  0.3329
 1360SOL    HW115542   3.569   2.229   2.942 -0.1978  1.5872  0.8662
 1360SOL    HW215543   3.495   2.107   2.982  0.6473  0.4044 -0.0515
 1361SOL     OW15544   4.276   1.922   2.191  0.2918 -0.1915 -0.7483
 1361SOL    HW115545   4.309   1.887   2.109 -0.0742 -0.5144 -0.7570
 1361SOL    HW215546   4.233   1.840   2.217 -0.6660  0.3286 -0.6598
 1362SOL     OW15547   1.251   4.601   6.630  0.5164 -0.2262 -0.1670
 1362SOL    HW115548   1.247   4.515   6.590  0.1907 -0.0798 -0.4542
 1362SOL    HW215549   1.271   4.665   6.561  2.1036  0.3280  0.7889
 1363SOL     OW15550   2.739   1.205   7.086  0.0323 -0.1392 -0.6945
 1363SOL    HW115551   2.828   1.196   7.121  0.7641 -0.2848 -2.6156
 1363SOL    HW215552   2.720   1.112   7.081  1.3789 -0.6129  2.7156
 1364SOL     OW15553   4.595   3.556   6.829  0.3289  0.1176  0.6145
 1364SOL    HW115554   4.629   3.507   6.903 -0.1504 -1.2149 -0.0518
 1364SOL    HW215555   4.514   3.511   6.806  0.2610  0.4752  0.1411
 1365SOL     OW15556   3.861   3.043   5.595 -0.8201  0.2908 -0.2462
 1365SOL    HW115557   3.804   3.055   5.519 -1.1541 -1.9581 -0.3307
 1365SOL    HW215558   3.847   2.950   5.609  3.4705 -0.2132  0.6259
 1366SOL     OW15559   0.624   2.624  10.874  0.1149 -0.2207  0.5260
 1366SOL    HW115560   0.559   2.694  10.877 -0.7109 -1.1147  2.9212
 1366SOL    HW215561   0.669   2.655  10.952 -1.2023 -0.9970  1.6037
 1367SOL     OW15562   3.912   1.198   9.138  0.7095 -0.0487 -0.0152
 1367SOL    HW115563   3.919   1.269   9.203 -0.1983  0.1923 -0.1763
 1367SOL    HW215564   3.889   1.127   9.198  0.7185  0.4338  0.5612
 1368SOL     OW15565   2.359   3.273  17.306 -0.7432 -0.3320  0.1634
 1368SOL    HW115566   2.331   3.242  17.220  1.5918  3.0073 -1.7865
 1368SOL    HW215567   2.351   3.195  17.361 -2.8627  1.4818  2.4489
 1369SOL     OW15568   1.950   1.109   4.180  0.5322  0.3601  0.2242
 1369SOL    HW115569   1.985   1.083   4.095 -1.0383 -0.9610 -0.0133
 1369SOL    HW215570   1.973   1.201   4.191  0.6183  0.2638  0.8659
 1370SOL     OW15571   1.581   0.100   5.621  0.5477  0.2277  0.7772
 1370SOL    HW115572   1.488   0.077   5.620 -0.1718  3.3806 -2.7987
 1370SOL    HW215573   1.624   0.017   5.642  0.6672 -0.0955 -0.6996
 1371SOL     OW15574   2.410   4.398   0.995 -0.1343 -0.0012 -0.8682
 1371SOL    HW115575   2.434   4.454   0.922  1.7703  0.4083  0.0632
 1371SOL    HW215576   2.362   4.324   0.959  0.6550  0.2803 -2.5000
 1372SOL     OW15577   3.490   2.737   8.455 -0.1120 -0.8399  0.1323
 1372SOL    HW115578   3.452   2.649   8.447 -0.0181 -0.8927  0.2791
 1372SOL    HW215579   3.461   2.765   8.542 -1.9139  2.6060 -1.6083
 1373SOL     OW15580   2.471   3.625   8.682 -0.0631  0.3084  0.1347
 1373SOL    HW115581   2.565   3.645   8.684 -0.7694  3.5986  0.5677
 1373SOL    HW215582   2.442   3.700   8.630  1.0235 -1.0020 -2.4276
 1374SOL     OW15583   2.270   1.615   7.322  0.2440  0.4919  0.0823
 1374SOL    HW115584   2.262   1.645   7.413 -1.2740  1.9077 -0.5177
 1374SOL    HW215585   2.360   1.583   7.311  0.3102  0.0848  1.6548
 1375SOL     OW15586   1.960   2.308   6.457  0.1697 -0.8287 -0.2628
 1375SOL    HW115587   1.924   2.254   6.386  1.8976 -0.0152 -1.7487
 1375SOL    HW215588   2.038   2.338   6.409 -0.9302  1.2573 -0.7096
 1376SOL     OW15589   1.399   0.034   3.050  0.3205  0.1143  0.2488
 1376SOL    HW115590   1.381   0.112   3.102 -0.3948 -0.1108  0.3376
 1376SOL    HW215591   1.316   4.708   3.058 -0.6819  1.6080 -1.5049
 1377SOL     OW15592   4.001   0.280  12.530 -0.3807  0.6055 -0.4109
 1377SOL    HW115593   3.973   0.371  12.539 -0.3388  0.2505  3.2777
 1377SOL    HW215594   3.986   0.241  12.616 -0.1247 -0.7518 -0.9749
 1378SOL     OW15595   3.267   0.486   9.015  0.3017  0.3917  0.6391
 1378SOL    HW115596   3.185   0.456   8.975  0.9670  0.4840 -0.8005
 1378SOL    HW215597   3.229   0.507   9.100 -0.1493 -1.1302  0.8243
 1379SOL     OW15598   1.362   3.163   5.419 -0.2962  0.4887 -0.3246
 1379SOL    HW115599   1.307   3.234   5.453 -2.0390 -0.6983 -0.6341
 1379SOL    HW215600   1.445   3.207   5.403 -0.6130  1.8931  1.9108
 1380SOL     OW15601   1.957   0.139  10.161  0.2290  0.5001 -0.0004
 1380SOL    HW115602   2.001   0.191  10.095 -1.0988 -2.4180 -3.1875
 1380SOL    HW215603   1.866   0.132  10.132 -0.2312  0.3597  1.4611
 1381SOL     OW15604   4.575   0.808   6.104 -0.2419 -0.1597 -0.4083
 1381SOL    HW115605   4.536   0.740   6.160  0.9399 -0.7544 -0.3002
 1381SOL    HW215606   4.630   0.755   6.046  1.4600 -0.1354  1.1944
 1382SOL     OW15607   3.466   2.174   9.091 -0.3940 -0.0230  0.8863
 1382SOL    HW115608   3.529   2.104   9.108 -0.9729 -0.7017  0.2212
 1382SOL    HW215609   3.384   2.126   9.096 -0.8262  0.6188 -0.0735
 1383SOL     OW15610   3.404   0.028   6.591 -0.6204 -0.0260 -0.4254
 1383SOL    HW115611   3.406   0.075   6.508 -0.4261 -0.6800 -0.7877
 1383SOL    HW215612   3.343   4.679   6.564  0.3206 -1.3532  0.8931
 1384SOL     OW15613   0.026   0.161   2.511  0.3971  0.4567 -0.0198
 1384SOL    HW115614   0.103   0.147   2.457  0.6096  2.4072 -0.2197
 1384SOL    HW215615   4.719   0.070   2.501 -0.0664  0.4141  1.6635
 1385SOL     OW15616   1.201   1.988   0.156 -0.0386 -0.0212 -0.0102
 1385SOL    HW115617   1.252   1.931   0.098 -1.4047  0.7638 -1.9738
 1385SOL    HW215618   1.174   1.919   0.217 -0.6246 -0.3469 -0.6416
 1386SOL     OW15619   3.347   0.688   1.334  0.0044  0.0701  0.0787
 1386SOL    HW115620   3.330   0.668   1.242 -0.9316 -0.7029  0.4265
 1386SOL    HW215621   3.426   0.635   1.340 -0.4543 -0.7307 -1.0037
 1387SOL     OW15622   4.055   3.174  11.019 -0.6736 -0.9039 -0.1795
 1387SOL    HW115623   3.972   3.217  11.039  0.6647  1.3304  0.6041
 1387SOL    HW215624   4.080   3.201  10.931  2.4640 -0.2741  0.9018
 1388SOL     OW15625   0.863   4.435   7.417 -0.0303 -0.2094 -0.2710
 1388SOL    HW115626   0.814   4.422   7.498  0.7829 -1.4144  0.0405
 1388SOL    HW215627   0.930   4.366   7.422  0.1482 -0.0707 -0.7636
 1389SOL     OW15628   1.247   2.406   3.314 -0.1368  0.2229 -0.2343
 1389SOL    HW115629   1.246   2.501   3.327 -0.6470  0.5170 -2.4531
 1389SOL    HW215630   1.182   2.381   3.248  1.0340  2.3346 -2.1734
 1390SOL     OW15631   0.692   4.310  17.101  0.5243 -0.0768 -0.0915
 1390SOL    HW115632   0.706   4.373  17.171 -0.4411 -0.1416  0.1499
 1390SOL    HW215633   0.679   4.223  17.138 -1.9106  1.2369  2.1349
 1391SOL     OW15634   4.448   4.186   5.943 -0.7262  0.0043 -0.4108
 1391SOL    HW115635   4.510   4.254   5.918  1.7616 -0.4806  4.5248
 1391SOL    HW215636   4.512   4.115   5.946  0.9633  1.5194 -0.9734
 1392SOL     OW15637   3.243   2.932  13.171 -0.8076 -0.2599  0.1598
 1392SOL    HW115638   3.228   3.009  13.116  1.5068 -0.7828 -1.2293
 1392SOL    HW215639   3.280   2.970  13.251  0.1437 -1.2418  0.1883
 1393SOL     OW15640   1.008   1.374  17.669  0.0896  0.9925  0.3382
 1393SOL    HW115641   0.991   1.307   0.050 -0.9814  1.5018  0.5787
 1393SOL    HW215642   1.035   1.324  17.592 -0.1683 -0.3954  1.1423
 1394SOL     OW15643   4.079   0.087   8.379 -0.2085 -0.1077  0.6992
 1394SOL    HW115644   4.017   0.019   8.353 -1.9463  0.7534  2.6304
 1394SOL    HW215645   4.136   0.042   8.441  0.0956 -0.3819  0.2179
 1395SOL     OW15646   3.393   2.487   6.273 -0.2184 -0.2164  0.2243
 1395SOL    HW115647   3.339   2.488   6.352  0.3093 -0.2232  0.5897
 1395SOL    HW215648   3.455   2.555   6.297 -0.4542  0.5802 -1.4381
 1396SOL     OW15649   0.238   3.989  12.381  0.0353 -0.5213  0.0717
 1396SOL    HW115650   0.300   4.025  12.318 -0.9595  1.4842  0.2351
 1396SOL    HW215651   0.294   3.941  12.442 -0.7989 -2.2071 -0.5012
 1397SOL     OW15652   3.183   1.241   8.652 -0.5285 -0.0654 -0.0044
 1397SOL    HW115653   3.140   1.156   8.656 -1.8067  0.5060 -1.3737
 1397SOL    HW215654   3.276   1.220   8.646 -0.5730 -0.6058  1.1108
 1398SOL     OW15655   4.497   3.570  16.787 -0.1745  0.5304  0.3137
 1398SOL    HW115656   4.521   3.478  16.775 -0.1595  0.6648 -0.7405
 1398SOL    HW215657   4.401   3.569  16.789 -0.2052  1.1243 -0.7396
 1399SOL     OW15658   0.367   0.564  12.241  0.1311  0.5041  0.0106
 1399SOL    HW115659   0.431   0.565  12.169  0.4225  0.5664  0.2723
 1399SOL    HW215660   0.292   0.604  12.198  0.4742  0.5812 -0.5205
 1400SOL     OW15661   2.896   2.163   0.081  0.5063 -0.5543  0.6475
 1400SOL    HW115662   2.900   2.119   0.166  0.8331  0.6289  1.2443
 1400SOL    HW215663   2.985   2.200   0.079  0.1878  0.1583 -0.1639
 1401SOL     OW15664   4.315   1.448   8.710  0.1359  1.1945  0.1474
 1401SOL    HW115665   4.312   1.466   8.616 -1.4315  0.3229  0.0238
 1401SOL    HW215666   4.377   1.516   8.736  0.8652  0.6211 -0.0933
 1402SOL     OW15667   0.849   4.179   1.121 -0.1283  0.0224  0.1601
 1402SOL    HW115668   0.757   4.192   1.144  0.1423  1.5253  0.4289
 1402SOL    HW215669   0.893   4.211   1.200  0.0089 -0.8647  0.4325
 1403SOL     OW15670   2.906   3.887   7.132  0.3806 -0.4578 -0.7795
 1403SOL    HW115671   2.892   3.870   7.039  0.7289  0.4813 -1.0058
 1403SOL    HW215672   2.989   3.842   7.143  0.7882  0.6449  0.6446
 1404SOL     OW15673   0.933   0.739  12.607 -0.2250  0.7334  0.1985
 1404SOL    HW115674   0.975   0.661  12.645 -0.8761 -0.3369 -1.2842
 1404SOL    HW215675   0.846   0.730  12.646 -0.4858 -1.0177 -0.7848
 1405SOL     OW15676   2.758   3.591   4.959 -0.5978 -0.0111 -0.3599
 1405SOL    HW115677   2.854   3.590   4.962 -0.5522  2.2618 -1.6230
 1405SOL    HW215678   2.744   3.532   5.034  0.8792  1.5330  1.1342
 1406SOL     OW15679   2.028   3.907  16.687 -0.5654  0.8598 -0.3125
 1406SOL    HW115680   2.059   3.996  16.670  0.6721  0.6256  0.6734
 1406SOL    HW215681   1.972   3.897  16.764 -0.7101  0.0720 -0.5171
 1407SOL     OW15682   1.495   4.140   1.384  0.5139  0.0714 -0.1472
 1407SOL    HW115683   1.407   4.118   1.354  0.7086 -1.5920  0.5147
 1407SOL    HW215684   1.512   4.227   1.348  2.0813 -0.6509 -1.1683
 1408SOL     OW15685   3.258   0.439  11.449 -0.1734 -0.6939  0.1630
 1408SOL    HW115686   3.272   0.518  11.502 -0.4322 -1.8588  1.9788
 1408SOL    HW215687   3.309   0.466  11.373  0.5282  0.8837  1.1849
 1409SOL     OW15688   1.401   2.076   7.043  0.0563 -0.1930  0.4611
 1409SOL    HW115689   1.407   2.158   7.093 -0.5990  0.7500 -1.0234
 1409SOL    HW215690   1.457   2.017   7.094 -0.2922 -1.1861 -0.3176
 1410SOL     OW15691   1.989   2.219  11.843  0.4069  0.0767  0.1347
 1410SOL    HW115692   1.906   2.207  11.889 -0.0225  0.5185 -0.5133
 1410SOL    HW215693   1.988   2.144  11.783 -1.6179  1.1792 -1.2193
 1411SOL     OW15694   0.426   3.720   2.789  0.2975 -0.1507  0.2823
 1411SOL    HW115695   0.489   3.655   2.821  1.8052  0.9315 -0.5090
 1411SOL    HW215696   0.371   3.725   2.868 -0.1771 -2.7275  0.1230
 1412SOL     OW15697   3.226   3.050   2.842 -0.3720 -0.1087 -0.3667
 1412SOL    HW115698   3.266   3.136   2.830 -0.7972  0.2702  0.9562
 1412SOL    HW215699   3.149   3.067   2.787  0.1848  0.2996 -1.0230
 1413SOL     OW15700   1.187   2.561   9.627 -0.2135 -0.3913 -0.1110
 1413SOL    HW115701   1.272   2.528   9.599  0.7856  0.6515  1.6972
 1413SOL    HW215702   1.139   2.479   9.638 -1.3855  0.2041 -0.7027
 1414SOL     OW15703   4.287   3.005  17.662  0.4175  0.8879  0.0046
 1414SOL    HW115704   4.382   2.994  17.666  0.2839 -0.2323  0.0246
 1414SOL    HW215705   4.279   3.009  17.566 -0.6330  1.0948  0.1037
 1415SOL     OW15706   2.171   1.435   5.409  0.0089 -0.1026  0.1527
 1415SOL    HW115707   2.152   1.449   5.317 -1.5556 -1.0552  0.3309
 1415SOL    HW215708   2.149   1.342   5.416  1.4904 -0.6824 -2.7758
 1416SOL     OW15709   1.941   2.029   1.038 -1.1133 -0.3958 -0.1946
 1416SOL    HW115710   1.866   2.087   1.025  1.1097  2.5220 -0.0200
 1416SOL    HW215711   1.954   2.051   1.130  0.0115  0.8742 -0.6573
 1417SOL     OW15712   4.350   1.497   7.783 -0.1766  0.1953  0.1462
 1417SOL    HW115713   4.372   1.540   7.865  2.0080 -1.0476  0.1962
 1417SOL    HW215714   4.288   1.560   7.745  2.9593  3.9345  1.2731
 1418SOL     OW15715   3.459   2.718  10.593 -0.3291  0.5440 -0.4618
 1418SOL    HW115716   3.476   2.746  10.683  2.9660 -0.0852 -0.8596
 1418SOL    HW215717   3.545   2.681  10.574 -0.1799  0.9781 -0.6422
 1419SOL     OW15718   1.320   0.639   8.828  0.8141 -0.0588  0.4005
 1419SOL    HW115719   1.339   0.715   8.882  1.7059  0.6337 -0.8897
 1419SOL    HW215720   1.396   0.581   8.835  0.6317 -0.4438 -0.8755
 1420SOL     OW15721   3.638   0.533   7.012  0.1392  0.0935  0.1554
 1420SOL    HW115722   3.545   0.541   7.034  0.1029 -3.4093  1.2605
 1420SOL    HW215723   3.629   0.489   6.928 -1.7802  1.4377 -0.3507
 1421SOL     OW15724   2.220   1.941   3.856  0.0647 -0.1167 -0.0581
 1421SOL    HW115725   2.125   1.935   3.844  0.1602  0.0471 -0.8717
 1421SOL    HW215726   2.225   2.024   3.905 -4.2861 -0.2560  0.6500
 1422SOL     OW15727   0.374   1.618   3.388  0.5913 -0.0100 -0.2661
 1422SOL    HW115728   0.336   1.674   3.456  1.3195  0.2135 -0.0524
 1422SOL    HW215729   0.294   1.575   3.356 -0.6083  1.5142  0.6438
 1423SOL     OW15730   0.530   4.320  17.677 -0.3504 -0.4789  0.3809
 1423SOL    HW115731   0.495   4.240  17.638 -2.1030  0.7480 -0.5312
 1423SOL    HW215732   0.518   4.295   0.083 -0.7659  1.1031  0.7552
 1424SOL     OW15733   1.565   2.356   5.659 -0.3339  0.8310  0.1541
 1424SOL    HW115734   1.606   2.283   5.612 -2.2615 -0.9403  1.2495
 1424SOL    HW215735   1.592   2.316   5.742 -0.2587 -3.0282 -1.7347
 1425SOL     OW15736   3.911   2.277   9.116  0.2442  0.3603  0.9243
 1425SOL    HW115737   3.956   2.251   9.036  1.7059  1.9262  1.2426
 1425SOL    HW215738   3.822   2.244   9.101  0.4142  0.5997 -0.5339
 1426SOL     OW15739   2.962   3.684   9.053 -0.1130 -0.1314  0.2015
 1426SOL    HW115740   2.890   3.724   9.005 -0.0181 -1.8438 -1.3627
 1426SOL    HW215741   2.967   3.754   9.119 -0.7131  0.1550 -0.0574
 1427SOL     OW15742   3.103   1.116   3.450 -0.0887 -0.4052  0.0563
 1427SOL    HW115743   3.083   1.022   3.452 -0.0320 -0.4086  0.3815
 1427SOL    HW215744   3.013   1.148   3.448 -0.1836 -0.6852 -0.2548
 1428SOL     OW15745   3.492   1.901   3.085 -0.2481 -0.2578  0.7548
 1428SOL    HW115746   3.438   1.935   3.157  0.2869  1.9532  0.1246
 1428SOL    HW215747   3.420   1.868   3.032  0.1624 -0.6265  0.4318
 1429SOL     OW15748   3.577   3.188   3.741  0.2044 -0.1470 -0.2673
 1429SOL    HW115749   3.585   3.284   3.734  1.1671 -0.1662  0.5395
 1429SOL    HW215750   3.656   3.156   3.698 -0.1183  0.2280 -1.1419
 1430SOL     OW15751   0.043   2.209  16.719 -0.2143  0.1663  1.0611
 1430SOL    HW115752   0.001   2.229  16.802 -0.0270  0.4455  1.0898
 1430SOL    HW215753   4.684   2.170  16.682  1.1194 -2.6496  1.1849
 1431SOL     OW15754   3.879   3.287  10.268  0.9641 -0.1883  0.5375
 1431SOL    HW115755   3.956   3.340  10.246  1.7514 -1.9860 -1.0510
 1431SOL    HW215756   3.836   3.281  10.183 -1.9730  0.0087  2.0145
 1432SOL     OW15757   4.520   4.331  12.309 -0.7758 -0.1535 -0.2502
 1432SOL    HW115758   4.450   4.302  12.251 -0.3204 -1.0396 -0.3629
 1432SOL    HW215759   4.474   4.340  12.393 -0.5610 -0.9195 -0.0438
 1433SOL     OW15760   3.744   4.260   4.613 -0.1839  0.1491  0.7718
 1433SOL    HW115761   3.742   4.166   4.595  0.1340  0.5501 -1.3383
 1433SOL    HW215762   3.829   4.263   4.656 -0.1922 -0.6742  0.8477
 1434SOL     OW15763   2.175   0.969   3.694 -0.3540  0.5402 -0.2684
 1434SOL    HW115764   2.263   0.988   3.661 -0.6610 -1.4901 -2.1966
 1434SOL    HW215765   2.167   0.875   3.684  1.6923  0.1257  1.7221
 1435SOL     OW15766   0.575   0.978  11.324  0.5510  0.5701 -0.8314
 1435SOL    HW115767   0.634   0.960  11.250 -0.5308  0.7085 -1.7235
 1435SOL    HW215768   0.633   1.039  11.369  0.9396 -0.0757 -0.4533
 1436SOL     OW15769   4.562   3.419  11.651 -0.2816 -0.1264  0.4435
 1436SOL    HW115770   4.604   3.502  11.671 -0.8782  0.6910 -1.7908
 1436SOL    HW215771   4.581   3.393  11.561  2.0334 -2.3043  1.5567
 1437SOL     OW15772   1.040   0.329  12.040  0.0612 -0.4411  0.4163
 1437SOL    HW115773   1.128   0.344  12.074  0.5061 -2.4517  0.1681
 1437SOL    HW215774   1.046   0.238  12.010  1.0720 -1.0857  2.5157
 1438SOL     OW15775   2.867   2.637   5.838 -0.3307 -0.1886 -0.0585
 1438SOL    HW115776   2.872   2.560   5.781 -1.5744  2.2491 -3.4260
 1438SOL    HW215777   2.867   2.585   5.918  0.4089 -2.5990 -1.6338
 1439SOL     OW15778   2.986   1.016   1.365 -0.7685  0.5439  0.0989
 1439SOL    HW115779   2.990   0.922   1.349 -0.3257  0.6805 -0.6385
 1439SOL    HW215780   3.069   1.027   1.412 -0.8618 -2.1613  0.8833
 1440SOL     OW15781   2.125   1.517  10.779  0.1985  0.0527 -0.6300
 1440SOL    HW115782   2.103   1.582  10.712 -4.2895 -1.5119 -0.6711
 1440SOL    HW215783   2.206   1.473  10.753 -0.8917 -1.7496 -0.9818
 1441SOL     OW15784   2.732   0.638  12.962 -0.0133  0.0540 -0.3729
 1441SOL    HW115785   2.767   0.589  12.887  0.6424 -1.5859  1.0182
 1441SOL    HW215786   2.705   0.721  12.923 -1.2169  0.0526  0.4625
 1442SOL     OW15787   3.243   2.795   2.948  0.3511  0.1194 -0.1447
 1442SOL    HW115788   3.202   2.805   3.034 -1.1068 -2.2578 -0.5508
 1442SOL    HW215789   3.259   2.886   2.924  0.7265 -0.2906 -1.4774
 1443SOL     OW15790   3.301   0.641   4.441  0.5351  0.3500  0.8724
 1443SOL    HW115791   3.253   0.558   4.429 -0.7836  1.3026 -0.3878
 1443SOL    HW215792   3.391   0.613   4.461 -0.8400 -1.1641  4.8423
 1444SOL     OW15793   1.016   2.228   9.291  0.2018 -0.1736 -0.1812
 1444SOL    HW115794   0.970   2.207   9.372  0.7226  2.0743  0.7032
 1444SOL    HW215795   0.945   2.267   9.240  0.3884  1.7984  1.0495
 1445SOL     OW15796   1.450   0.899   4.721  0.2537  0.4066  0.1586
 1445SOL    HW115797   1.366   0.894   4.767 -0.0207  0.7826 -0.3014
 1445SOL    HW215798   1.478   0.815   4.755 -0.8301 -0.0712 -0.1214
 1446SOL     OW15799   2.888   2.032   4.799 -0.5253 -0.1835  0.0481
 1446SOL    HW115800   2.954   2.062   4.736  0.3295  2.1594  2.0367
 1446SOL    HW215801   2.950   1.973   4.842  0.6216  1.3176  0.4807
 1447SOL     OW15802   4.283   0.818   5.377  0.0017  0.4929  0.0254
 1447SOL    HW115803   4.226   0.891   5.352 -0.2590  0.1154 -0.4597
 1447SOL    HW215804   4.228   0.775   5.443 -0.7237  0.9628 -0.2651
 1448SOL     OW15805   3.470   3.900   6.375  0.4385  0.0697 -0.0144
 1448SOL    HW115806   3.468   3.995   6.376  1.9026  0.1071 -0.0998
 1448SOL    HW215807   3.433   3.876   6.290  0.2005 -2.5169  0.8019
 1449SOL     OW15808   1.409   2.179   0.535 -0.1646 -0.0359 -0.2632
 1449SOL    HW115809   1.335   2.162   0.477 -0.9522 -0.5513  0.8891
 1449SOL    HW215810   1.357   2.213   0.608  0.6724 -0.7957  0.7075
 1450SOL     OW15811   2.535   0.649   8.987  0.1312 -0.6277 -0.0244
 1450SOL    HW115812   2.552   0.590   9.061 -2.1337 -3.1048 -1.4838
 1450SOL    HW215813   2.442   0.669   8.996  0.6240  2.3319 -1.5699
 1451SOL     OW15814   2.011   0.651   9.354  0.6389  0.1457  0.1277
 1451SOL    HW115815   2.019   0.675   9.447  0.7735  0.4142  0.0493
 1451SOL    HW215816   1.948   0.722   9.339 -1.0367 -1.2518  0.6477
 1452SOL     OW15817   3.251   1.581   4.269  0.4398  0.6836  0.5347
 1452SOL    HW115818   3.311   1.649   4.297  1.2396  0.7192 -1.2651
 1452SOL    HW215819   3.296   1.505   4.306 -0.3357 -0.0964 -0.1112
 1453SOL     OW15820   4.004   1.161   1.352  0.3860  0.7915  0.0303
 1453SOL    HW115821   4.052   1.227   1.303  0.7144 -0.0558 -0.7967
 1453SOL    HW215822   3.937   1.224   1.380  1.2341  1.8088 -0.2344
 1454SOL     OW15823   0.390   1.111   7.898 -0.3494  0.0659 -0.3804
 1454SOL    HW115824   0.416   1.140   7.986  0.3138 -0.9295 -0.2460
 1454SOL    HW215825   0.389   1.194   7.850  0.8982 -0.0573 -0.6010
 1455SOL     OW15826   0.119   4.351   3.590  0.1039  0.2224 -0.2958
 1455SOL    HW115827   0.075   4.290   3.530 -0.7718 -1.1247  1.6797
 1455SOL    HW215828   0.109   4.427   3.534  3.5544  0.3301 -0.7711
 1456SOL     OW15829   2.580   1.702   1.465 -0.0436 -0.4394 -0.3853
 1456SOL    HW115830   2.541   1.669   1.384 -1.1149  0.2868 -0.1715
 1456SOL    HW215831   2.504   1.712   1.523 -0.3791 -0.6637 -0.7783
 1457SOL     OW15832   3.411   0.848   8.800 -0.0293 -0.1323 -0.1663
 1457SOL    HW115833   3.421   0.901   8.879 -0.9480 -0.3449  0.0816
 1457SOL    HW215834   3.428   0.758   8.828 -2.1720 -0.5312 -0.1687
 1458SOL     OW15835   2.676   1.469   2.555  0.0626  0.5422 -0.6579
 1458SOL    HW115836   2.619   1.473   2.632 -1.9356  1.1784 -2.1595
 1458SOL    HW215837   2.615   1.439   2.487  1.3385  1.9592 -2.4186
 1459SOL     OW15838   1.170   0.758   8.004 -0.5635 -1.2441  0.4857
 1459SOL    HW115839   1.115   0.687   8.037  0.1339 -2.1310 -0.3010
 1459SOL    HW215840   1.108   0.831   7.999  1.4046  0.4730  1.1016
 1460SOL     OW15841   0.440   0.212  16.643 -0.6260 -0.0582  0.3641
 1460SOL    HW115842   0.345   0.208  16.657 -0.4644  0.9368  1.7076
 1460SOL    HW215843   0.444   0.302  16.613  1.0643 -0.5320 -0.8028
 1461SOL     OW15844   3.308   2.751  11.235 -0.8337  0.1577  0.6414
 1461SOL    HW115845   3.299   2.662  11.200  0.4723  0.2785 -0.0096
 1461SOL    HW215846   3.289   2.795  11.152 -2.3383  0.3983  1.1101
 1462SOL     OW15847   0.079   3.897   6.578  0.6367 -0.2565 -0.0722
 1462SOL    HW115848   0.080   3.938   6.491 -2.2478 -0.6121 -0.2820
 1462SOL    HW215849   0.157   3.933   6.620 -1.0296  2.0148  1.1108
 1463SOL     OW15850   1.074   1.880   2.823  0.4874 -0.3699 -0.3680
 1463SOL    HW115851   1.006   1.847   2.765  1.2568 -2.1508 -0.2378
 1463SOL    HW215852   1.129   1.915   2.752  0.7625 -0.0820 -0.0135
 1464SOL     OW15853   0.245   0.769  14.176  0.1045 -0.1578 -0.4514
 1464SOL    HW115854   0.261   0.841  14.238 -0.9232 -0.2965 -0.0358
 1464SOL    HW215855   0.165   0.793  14.130 -0.8990 -1.9147  0.4231
 1465SOL     OW15856   1.531   2.725   3.151  0.5571  0.2994 -0.2693
 1465SOL    HW115857   1.495   2.799   3.102 -0.6312 -0.4788 -0.5614
 1465SOL    HW215858   1.599   2.770   3.202  0.6471 -1.7329  1.4155
 1466SOL     OW15859   1.652   0.377  15.470  0.3063  0.3127 -0.4613
 1466SOL    HW115860   1.731   0.397  15.421 -0.6608  1.0540 -1.7292
 1466SOL    HW215861   1.615   0.334  15.392 -1.9277  0.9737  0.2151
 1467SOL     OW15862   0.903   1.500   1.753 -0.2755  0.2273  0.3909
 1467SOL    HW115863   0.879   1.584   1.792 -0.1439  1.1241 -1.4473
 1467SOL    HW215864   0.987   1.519   1.712 -0.2340  0.2190  0.4713
 1468SOL     OW15865   1.131   2.378   4.667  0.1392 -0.1133  0.1294
 1468SOL    HW115866   1.079   2.302   4.694 -2.5026  1.2154 -1.2978
 1468SOL    HW215867   1.212   2.327   4.656  0.4647  0.2384  0.9005
 1469SOL     OW15868   0.737   3.998   4.876 -0.7611 -0.6055  0.6647
 1469SOL    HW115869   0.754   4.059   4.804 -0.7540 -1.5141 -0.1136
 1469SOL    HW215870   0.778   3.919   4.841 -0.0950  0.5161 -1.0712
 1470SOL     OW15871   2.161   2.068   5.237 -0.1177  0.1322 -0.0524
 1470SOL    HW115872   2.189   2.020   5.315 -2.5565 -2.1228 -0.5542
 1470SOL    HW215873   2.162   2.151   5.285 -0.7695  0.5663 -0.7948
 1471SOL     OW15874   4.154   3.431   7.760  0.2473 -0.0183 -0.1040
 1471SOL    HW115875   4.211   3.494   7.804  0.7272 -1.2863  1.0975
 1471SOL    HW215876   4.112   3.397   7.839 -0.3061 -1.9311 -1.2290
 1472SOL     OW15877   3.058   0.977   8.072 -0.0199 -0.7963 -0.2965
 1472SOL    HW115878   3.065   1.056   8.126 -0.6438 -0.6596 -0.4149
 1472SOL    HW215879   3.086   0.907   8.131  3.3077  0.2512 -0.6569
 1473SOL     OW15880   0.868   1.883  16.101 -0.0399  0.2502  0.2116
 1473SOL    HW115881   0.788   1.853  16.057 -0.4916 -0.5884  1.5992
 1473SOL    HW215882   0.881   1.963  16.050 -0.5351 -0.2790 -0.7570
 1474SOL     OW15883   1.639   1.756  12.205 -0.2136  0.8299 -0.4197
 1474SOL    HW115884   1.642   1.661  12.193  0.5240  0.9098 -0.9166
 1474SOL    HW215885   1.706   1.779  12.140 -1.0954  1.3074 -1.1432
 1475SOL     OW15886   4.324   3.025   5.051  0.1333 -0.2807 -0.0138
 1475SOL    HW115887   4.360   2.970   4.980  0.0508  0.2430 -0.4575
 1475SOL    HW215888   4.229   3.021   5.042  0.2979 -1.4322 -1.2680
 1476SOL     OW15889   1.481   4.423   3.628 -0.5219  0.3527 -0.2627
 1476SOL    HW115890   1.574   4.406   3.612 -0.4723  0.7573 -0.4010
 1476SOL    HW215891   1.455   4.486   3.561 -0.3448  1.2719  0.5518
 1477SOL     OW15892   3.984   1.274  10.120 -0.2870 -0.5192 -0.5643
 1477SOL    HW115893   3.916   1.207  10.129 -0.9491  0.3282  0.8941
 1477SOL    HW215894   4.054   1.224  10.078 -1.4688 -3.3684  0.8748
 1478SOL     OW15895   0.449   3.840   6.750 -0.5456 -0.8743 -0.3613
 1478SOL    HW115896   0.393   3.778   6.796 -1.4019  0.9785  1.0879
 1478SOL    HW215897   0.389   3.890   6.694  1.6109  1.2306 -0.8029
 1479SOL     OW15898   4.103   2.403   5.359 -0.2280 -0.0596 -0.8457
 1479SOL    HW115899   4.140   2.346   5.291 -1.3280 -0.2047 -1.3073
 1479SOL    HW215900   4.010   2.395   5.340 -0.6863  1.5523  0.7348
 1480SOL     OW15901   0.393   0.204   7.138 -0.3445 -0.3082 -0.2490
 1480SOL    HW115902   0.430   0.290   7.116  1.0492  0.1535  4.0054
 1480SOL    HW215903   0.426   0.141   7.074  0.0482 -1.4039  1.0303
 1481SOL     OW15904   3.959   1.563  11.481 -0.1776 -0.2580 -0.4471
 1481SOL    HW115905   3.892   1.555  11.413 -0.0023 -4.1371 -0.1607
 1481SOL    HW215906   3.950   1.481  11.530  0.4006 -0.1304 -0.1247
 1482SOL     OW15907   1.305   0.942  15.043 -0.0229  0.1439  0.6169
 1482SOL    HW115908   1.384   0.937  14.989 -0.4423  1.2741 -0.0998
 1482SOL    HW215909   1.334   0.930  15.133  1.3755  2.0168  0.4309
 1483SOL     OW15910   1.928   3.770   2.222 -0.1279 -0.0205  0.4102
 1483SOL    HW115911   1.847   3.754   2.173  0.2867  2.6118 -1.0731
 1483SOL    HW215912   1.931   3.865   2.227 -0.0878  0.0321 -0.8494
 1484SOL     OW15913   0.670   3.409  14.904  0.7867 -0.1915  0.1064
 1484SOL    HW115914   0.651   3.432  14.813 -1.4841 -1.2888  0.2863
 1484SOL    HW215915   0.584   3.423  14.944  1.4518 -2.6529  2.3519
 1485SOL     OW15916   3.874   3.731  15.431  0.9006  0.1806  0.8200
 1485SOL    HW115917   3.844   3.647  15.468 -1.9585  0.8714  0.0933
 1485SOL    HW215918   3.962   3.710  15.400 -0.0471  0.8989 -2.3982
 1486SOL     OW15919   2.199   0.255   7.046 -0.4950 -0.2748  0.7903
 1486SOL    HW115920   2.240   0.196   6.983 -0.8111  0.8662 -0.4855
 1486SOL    HW215921   2.209   0.330   6.988  0.1199 -1.3235 -0.4401
 1487SOL     OW15922   2.951   0.030   5.701 -0.7771  0.1128 -0.3747
 1487SOL    HW115923   2.860   0.047   5.726 -1.0194  0.9224 -1.8452
 1487SOL    HW215924   2.980   0.117   5.675 -2.2414  0.3490 -1.1624
 1488SOL     OW15925   3.743   0.338   9.793  0.7935 -0.0464 -0.0488
 1488SOL    HW115926   3.720   0.324   9.701 -3.5489 -2.9664  1.4825
 1488SOL    HW215927   3.664   0.339   9.847  0.9658  2.0838  0.1555
 1489SOL     OW15928   3.586   1.175  10.084  0.5480  0.3063 -0.7032
 1489SOL    HW115929   3.601   1.230  10.007  2.8382 -1.0090 -1.1828
 1489SOL    HW215930   3.667   1.125  10.088 -0.8319 -2.0125 -1.3265
 1490SOL     OW15931   3.096   1.050   2.554 -0.3240 -0.0704  0.2051
 1490SOL    HW115932   3.052   1.023   2.473 -0.0218 -0.3145  0.1212
 1490SOL    HW215933   3.019   1.095   2.589 -0.6440  1.4741 -2.4684
 1491SOL     OW15934   0.388   2.118  16.896  0.1959  0.3284  0.3284
 1491SOL    HW115935   0.431   2.203  16.884 -0.5460  0.6415 -0.1001
 1491SOL    HW215936   0.369   2.130  16.989  1.8046  0.0481  0.7005
 1492SOL     OW15937   2.796   0.317   4.277 -0.4991  1.0030 -0.6659
 1492SOL    HW115938   2.841   0.239   4.244 -1.2586 -0.4816  1.7434
 1492SOL    HW215939   2.864   0.352   4.334 -1.5019  0.7617  0.6928
 1493SOL     OW15940   0.313   1.101   0.656  0.6375 -0.0092 -0.3395
 1493SOL    HW115941   0.387   1.162   0.663  0.6950 -0.1964  0.5852
 1493SOL    HW215942   0.317   1.053   0.738  1.2214 -1.7674 -1.3906
 1494SOL     OW15943   3.669   2.798   3.972 -0.0037 -0.4986 -0.0329
 1494SOL    HW115944   3.604   2.865   3.994 -1.6463 -2.6282  1.5247
 1494SOL    HW215945   3.744   2.857   3.982 -0.1674 -0.0894 -1.2366
 1495SOL     OW15946   2.935   4.687  15.343  0.2749 -0.5135  0.2930
 1495SOL    HW115947   3.008   0.007  15.391  0.6422 -0.8518  0.0184
 1495SOL    HW215948   2.884   0.038  15.306  0.0914 -1.6840 -1.6770
 1496SOL     OW15949   0.471   2.777   8.261 -0.3024 -0.1562  0.1586
 1496SOL    HW115950   0.417   2.732   8.326  0.1729  1.0099  1.3741
 1496SOL    HW215951   0.447   2.866   8.287  2.5875  1.5082 -2.7976
 1497SOL     OW15952   3.864   4.611   5.793  0.5845  0.3385 -0.2899
 1497SOL    HW115953   3.883   4.586   5.703 -1.4852  0.2376 -0.6858
 1497SOL    HW215954   3.927   4.681   5.810 -1.8795  2.0935  1.5671
 1498SOL     OW15955   1.431   0.334  12.381 -0.2858  0.1660  0.3205
 1498SOL    HW115956   1.357   0.335  12.440 -0.6429 -0.9813 -0.0994
 1498SOL    HW215957   1.505   0.333  12.442 -1.3300  0.4994  1.5964
 1499SOL     OW15958   0.204   0.582  16.544 -0.7427  0.2414 -0.9804
 1499SOL    HW115959   0.292   0.563  16.575 -0.6306  1.3068 -0.6348
 1499SOL    HW215960   0.193   0.510  16.482 -2.5394 -2.4444  2.4727
 1500SOL     OW15961   2.028   2.600  12.935 -0.0582 -0.0423  0.0414
 1500SOL    HW115962   2.092   2.656  12.889 -1.5967 -0.9196 -3.1594
 1500SOL    HW215963   2.060   2.611  13.025  1.2481  1.0417 -0.5517
 1501SOL     OW15964   3.436   2.526   4.506 -0.4073 -0.0608  0.0271
 1501SOL    HW115965   3.353   2.481   4.495 -0.0658 -0.9421  0.9908
 1501SOL    HW215966   3.408   2.612   4.474  2.3826  1.5040  1.6825
 1502SOL     OW15967   0.153   0.320   5.044 -0.1674 -0.2881 -0.4785
 1502SOL    HW115968   0.133   0.268   5.122 -0.2091  2.0941  1.1147
 1502SOL    HW215969   0.136   0.409   5.075 -2.6806 -0.1223 -2.3796
 1503SOL     OW15970   4.700   3.599   4.724  0.2114 -0.8551  0.1498
 1503SOL    HW115971   0.044   3.666   4.742  0.5996 -1.1529 -0.1556
 1503SOL    HW215972   4.670   3.633   4.640  0.0510 -1.1799  0.0754
 1504SOL     OW15973   0.112   4.206   2.597 -0.4032  0.1556  0.4727
 1504SOL    HW115974   0.085   4.268   2.529  0.9921 -0.8554 -1.0169
 1504SOL    HW215975   0.164   4.264   2.652  0.1469  1.0472 -0.9668
 1505SOL     OW15976   3.896   4.423   4.878 -0.2905 -0.7715  0.3245
 1505SOL    HW115977   3.983   4.435   4.841 -0.0911 -1.1887  0.6581
 1505SOL    HW215978   3.919   4.353   4.940  1.2191 -1.9116 -1.5113
 1506SOL     OW15979   1.227   2.846  16.534 -0.3981 -0.0274 -0.2036
 1506SOL    HW115980   1.156   2.858  16.597  0.7306  0.0877  1.0336
 1506SOL    HW215981   1.187   2.883  16.455  0.4325 -1.3000 -1.2297
 1507SOL     OW15982   4.289   2.034  17.351  0.0034  0.4019  0.0167
 1507SOL    HW115983   4.323   2.067  17.435  0.1574  3.8262 -1.4127
 1507SOL    HW215984   4.340   2.081  17.285 -1.3717  0.2035 -1.1790
 1508SOL     OW15985   2.705   0.549   3.304  0.4037 -0.4925  0.0405
 1508SOL    HW115986   2.724   0.456   3.298 -2.7521 -0.9516 -2.9331
 1508SOL    HW215987   2.646   0.552   3.380 -1.2968  2.4278 -1.3805
 1509SOL     OW15988   1.513   0.165   5.199  0.6065 -0.4008  0.3697
 1509SOL    HW115989   1.486   0.192   5.111 -2.8828  0.8676  1.8529
 1509SOL    HW215990   1.605   0.147   5.179  0.2839 -1.1156 -0.5182
 1510SOL     OW15991   1.725   1.058   4.427 -0.1552 -0.3404 -0.5987
 1510SOL    HW115992   1.690   0.971   4.405 -1.2062  0.0608 -0.5385
 1510SOL    HW215993   1.773   1.030   4.505  0.1004 -0.1599 -0.6918
 1511SOL     OW15994   4.212   3.360   8.509  0.5316 -0.4030 -0.0117
 1511SOL    HW115995   4.248   3.339   8.595  0.0255  0.1260  0.3257
 1511SOL    HW215996   4.286   3.337   8.453 -0.8429 -1.9356 -1.2029
 1512SOL     OW15997   1.709   3.292   0.091  0.3436  0.0227 -0.4635
 1512SOL    HW115998   1.804   3.303   0.094  0.5801 -1.5158 -2.0348
 1512SOL    HW215999   1.708   3.196   0.083  0.7454  0.0131 -0.4177
 1513SOL     OW16000   3.501   3.783   1.871 -0.7010 -0.0880 -0.1458
 1513SOL    HW116001   3.521   3.751   1.783 -0.9367  1.4869 -0.7824
 1513SOL    HW216002   3.557   3.722   1.917  1.8229  2.6533  0.4117
 1514SOL     OW16003   4.513   1.884  16.877 -0.1225  0.0413  0.2995
 1514SOL    HW116004   4.577   1.867  16.947  0.4364 -1.7363 -0.6462
 1514SOL    HW216005   4.454   1.811  16.898 -0.6817  0.8327  1.4931
 1515SOL     OW16006   0.718   0.261   2.482 -0.2888  0.1347 -0.3357
 1515SOL    HW116007   0.707   0.252   2.387 -2.1414  1.0046 -0.1972
 1515SOL    HW216008   0.731   0.355   2.492  0.2646  0.3174 -2.5998
 1516SOL     OW16009   0.957   0.911   1.648 -0.5421  0.8326  0.4175
 1516SOL    HW116010   0.931   0.967   1.722  2.2621  0.1963  1.8988
 1516SOL    HW216011   1.051   0.926   1.657 -0.1994 -2.3951  2.2010
 1517SOL     OW16012   2.576   0.039   1.439 -0.3980  0.1345  0.1650
 1517SOL    HW116013   2.658   4.720   1.408 -0.9214  0.3513 -1.4997
 1517SOL    HW216014   2.584   0.120   1.387  2.1888  0.0262  0.3795
 1518SOL     OW16015   2.925   4.502   5.277  0.3414 -0.2700  0.9822
 1518SOL    HW116016   2.937   4.504   5.372 -0.7799  0.4816  1.1083
 1518SOL    HW216017   3.007   4.519   5.230 -0.4160  2.6615  0.7562
 1519SOL     OW16018   1.215   1.814  14.879 -0.0162 -0.3588  0.0439
 1519SOL    HW116019   1.136   1.768  14.853 -1.6768  1.8667  1.1708
 1519SOL    HW216020   1.244   1.768  14.958 -0.5249  0.0195  0.4510
 1520SOL     OW16021   1.046   2.345   3.131 -0.1076 -0.1575  0.7453
 1520SOL    HW116022   1.080   2.280   3.069 -0.7698 -2.3759  2.7170
 1520SOL    HW216023   1.010   2.407   3.068  1.8696  1.7512  1.4977
 1521SOL     OW16024   1.187   1.398   1.964 -0.1011 -0.1136 -0.1348
 1521SOL    HW116025   1.270   1.445   1.964  0.1595 -0.5756 -2.2084
 1521SOL    HW216026   1.236   1.325   2.001  0.5546 -0.0374 -0.8416
 1522SOL     OW16027   2.157   3.223   8.366  0.1361 -0.0961 -0.1326
 1522SOL    HW116028   2.172   3.130   8.379  2.8242  0.5849  1.6027
 1522SOL    HW216029   2.095   3.236   8.438  0.3164 -2.5015  0.4379
 1523SOL     OW16030   3.207   0.511   2.813 -0.4620  0.6133 -0.0349
 1523SOL    HW116031   3.117   0.537   2.833 -0.2458  1.3909 -0.0667
 1523SOL    HW216032   3.198   0.416   2.808  0.7783  0.4989 -0.1167
 1524SOL     OW16033   3.221   0.754   8.173  0.4615  0.1556  0.7962
 1524SOL    HW116034   3.265   0.760   8.258 -1.3820 -0.7462  1.8167
 1524SOL    HW216035   3.134   0.719   8.193  0.1697  1.3740  1.6249
 1525SOL     OW16036   3.260   1.674  12.643 -0.0351 -0.0369  0.5763
 1525SOL    HW116037   3.255   1.727  12.563  2.3022 -0.4839  0.1206
 1525SOL    HW216038   3.355   1.664  12.650  0.4087  2.9478 -0.9608
 1526SOL     OW16039   1.641   4.176   0.193  0.6320 -0.0575  0.2327
 1526SOL    HW116040   1.656   4.265   0.162 -0.5338 -0.2596 -0.8794
 1526SOL    HW216041   1.716   4.160   0.250 -0.3565 -0.6656  1.3816
 1527SOL     OW16042   0.495   4.656   7.472 -0.0581 -0.2293  0.1308
 1527SOL    HW116043   0.455   4.573   7.498  1.3490 -1.0107 -0.1791
 1527SOL    HW216044   0.423   4.697   7.423 -0.8661 -0.1652  1.3689
 1528SOL     OW16045   2.316   0.497   3.937  0.4070 -0.0018  0.5083
 1528SOL    HW116046   2.222   0.478   3.935  0.8569 -2.6141  3.5891
 1528SOL    HW216047   2.333   0.525   4.027  0.5266  0.0734  0.4626
 1529SOL     OW16048   2.715   3.900   8.259 -0.3133  0.1390  0.1638
 1529SOL    HW116049   2.637   3.855   8.226  1.5751 -1.1482 -2.5368
 1529SOL    HW216050   2.755   3.918   8.174  0.4671  0.2468  0.5495
 1530SOL     OW16051   2.879   3.964   4.606  0.4230 -0.4877 -0.3104
 1530SOL    HW116052   2.833   4.001   4.682 -0.3527  0.7306 -1.3687
 1530SOL    HW216053   2.896   3.875   4.637 -1.6597 -0.0825  1.9739
 1531SOL     OW16054   2.298   3.282   4.399  0.0585  0.2778 -0.0191
 1531SOL    HW116055   2.228   3.328   4.354  0.3614 -0.5901 -1.3591
 1531SOL    HW216056   2.378   3.335   4.393 -0.2014  0.5183 -1.2394
 1532SOL     OW16057   4.671   0.064   4.682 -0.4855 -1.2780  0.0585
 1532SOL    HW116058   0.003   0.118   4.623 -1.9670 -2.4571 -2.3510
 1532SOL    HW216059   0.009   0.047   4.756  2.1012 -0.1508 -1.7174
 1533SOL     OW16060   1.473   4.001   4.408  0.1897 -0.4018  0.8080
 1533SOL    HW116061   1.550   3.961   4.449  0.7710  1.2735  1.3307
 1533SOL    HW216062   1.402   3.982   4.469 -0.5086  1.4815  0.5762
 1534SOL     OW16063   0.819   4.032   7.878 -0.0666  0.0099 -0.1097
 1534SOL    HW116064   0.780   3.972   7.942 -0.3739 -0.0908 -0.3904
 1534SOL    HW216065   0.903   4.049   7.920  0.4851  0.3700 -1.3447
 1535SOL     OW16066   3.956   0.546   6.720 -0.3603  0.4194 -0.1494
 1535SOL    HW116067   3.983   0.459   6.691  0.4658  1.0348 -1.2154
 1535SOL    HW216068   4.037   0.590   6.748 -0.8060  0.6833  0.7507
 1536SOL     OW16069   3.169   2.310   8.686  0.0212 -0.2186  0.1790
 1536SOL    HW116070   3.207   2.265   8.761  1.2621  1.4580  0.5719
 1536SOL    HW216071   3.083   2.337   8.719 -0.3059  1.5066 -2.1015
 1537SOL     OW16072   0.989   2.870   2.545 -0.5218  0.2788 -0.4261
 1537SOL    HW116073   1.042   2.880   2.466 -0.5772 -1.5096 -0.6805
 1537SOL    HW216074   0.902   2.846   2.513 -1.1810  2.2997 -0.1512
 1538SOL     OW16075   4.342   3.974   8.388 -0.2559 -0.4994  0.1481
 1538SOL    HW116076   4.275   3.966   8.455 -0.9976  2.2360 -0.2364
 1538SOL    HW216077   4.416   3.997   8.444 -1.4688  1.7562  0.8209
 1539SOL     OW16078   3.319   3.031  12.576 -0.0060  0.0022  0.5835
 1539SOL    HW116079   3.238   3.032  12.524  1.6185  1.8251 -1.8921
 1539SOL    HW216080   3.382   3.086  12.530 -1.6323 -1.0250 -2.9137
 1540SOL     OW16081   0.662   3.567  16.604 -0.1579 -0.1844 -0.1211
 1540SOL    HW116082   0.639   3.531  16.518  0.1883  0.3670 -0.4383
 1540SOL    HW216083   0.751   3.534  16.617  0.0475  0.0667 -0.9428
 1541SOL     OW16084   1.452   3.451  12.204  0.0805 -0.3340 -0.7448
 1541SOL    HW116085   1.390   3.416  12.269 -0.3656  0.2490 -0.8610
 1541SOL    HW216086   1.473   3.536  12.242  0.0029 -0.2941 -0.7923
 1542SOL     OW16087   4.168   0.066   7.351 -0.2467  0.3706  0.6230
 1542SOL    HW116088   4.161   0.157   7.321 -0.9575 -0.2718 -1.1882
 1542SOL    HW216089   4.226   0.023   7.288  1.6547  1.2853  1.7525
 1543SOL     OW16090   2.736   1.439   3.602  0.1258 -0.2583  0.0524
 1543SOL    HW116091   2.804   1.472   3.660  0.7408  0.1545 -0.9020
 1543SOL    HW216092   2.793   1.429   3.525 -1.1550  1.3376 -1.1011
 1544SOL     OW16093   0.239   1.974   7.823  0.0322  0.1468  0.4346
 1544SOL    HW116094   0.326   1.981   7.863  0.2890  0.6693 -0.2178
 1544SOL    HW216095   0.207   2.064   7.826 -1.1415 -0.2328 -0.8084
 1545SOL     OW16096   1.219   1.148   6.131 -0.0542  0.4508 -0.0171
 1545SOL    HW116097   1.272   1.143   6.052 -0.1757 -0.2221 -0.0578
 1545SOL    HW216098   1.269   1.203   6.191  1.1503  0.4149 -0.9955
 1546SOL     OW16099   0.409   0.680   5.360  0.3436  0.4367  0.0991
 1546SOL    HW116100   0.503   0.696   5.359  0.1884  1.3813  0.3545
 1546SOL    HW216101   0.404   0.585   5.347  1.2010  0.2786  0.9119
 1547SOL     OW16102   2.910   1.018   4.479  0.3425 -0.2891  0.0684
 1547SOL    HW116103   2.954   1.004   4.395  0.6135 -1.5996  0.4347
 1547SOL    HW216104   2.862   1.098   4.456  0.8963  0.0169 -0.0412
 1548SOL     OW16105   2.180   0.806   6.419  0.0017 -0.0655 -0.1792
 1548SOL    HW116106   2.209   0.891   6.450 -0.8772  0.8169 -1.7700
 1548SOL    HW216107   2.092   0.827   6.388 -0.1327  0.1136  0.3282
 1549SOL     OW16108   2.320   1.620  17.185  0.6346 -0.2727 -0.0039
 1549SOL    HW116109   2.236   1.576  17.199  1.2792 -1.4126  0.3099
 1549SOL    HW216110   2.362   1.538  17.160  0.0672 -0.1088 -1.5434
 1550SOL     OW16111   2.581   0.154  14.071 -0.1120 -0.4348  0.1467
 1550SOL    HW116112   2.508   0.210  14.043 -0.1436 -0.3461  0.4044
 1550SOL    HW216113   2.559   0.154  14.164  1.4777 -1.3166  0.5148
 1551SOL     OW16114   1.170   1.829   4.080  0.3359  0.2793 -0.1312
 1551SOL    HW116115   1.163   1.755   4.140 -0.4726 -1.1223 -1.9404
 1551SOL    HW216116   1.095   1.824   4.020 -0.8983 -0.1610  1.4648
 1552SOL     OW16117   3.847   0.375  11.064  0.5148  0.1472  0.4428
 1552SOL    HW116118   3.921   0.327  11.102 -0.9558 -3.3665 -1.1360
 1552SOL    HW216119   3.833   0.308  10.997 -3.3327  1.1814  0.2538
 1553SOL     OW16120   2.041   2.320  11.349  0.4305 -0.2154 -0.4782
 1553SOL    HW116121   2.072   2.340  11.261  1.4995 -0.6580 -0.1997
 1553SOL    HW216122   2.112   2.353  11.403  0.0262  0.4406 -0.3424
 1554SOL     OW16123   3.109   0.432   8.374 -0.3036  0.7435 -0.4486
 1554SOL    HW116124   3.015   0.419   8.362 -0.1036 -1.4056  0.3653
 1554SOL    HW216125   3.146   0.392   8.295 -1.4598  1.9207 -1.5776
 1555SOL     OW16126   0.086   1.008  13.626 -0.3169 -0.0715 -0.0139
 1555SOL    HW116127   0.156   1.054  13.580 -1.0350  0.7765 -0.2342
 1555SOL    HW216128   0.124   0.920  13.623 -1.1869 -0.3968 -1.1820
 1556SOL     OW16129   3.873   1.985   8.660  0.0032 -0.3335  0.7810
 1556SOL    HW116130   3.939   1.962   8.595  0.0711  1.1950  0.3057
 1556SOL    HW216131   3.859   2.075   8.632 -2.3211 -2.3553 -4.3963
 1557SOL     OW16132   1.931   2.974   1.632 -0.8491 -0.1818 -0.5215
 1557SOL    HW116133   1.963   3.010   1.715 -4.0326 -1.9877  1.4689
 1557SOL    HW216134   1.907   3.051   1.581  3.0235  0.1231 -1.8932
 1558SOL     OW16135   0.779   0.645   3.281  0.3786  0.4911 -0.1616
 1558SOL    HW116136   0.801   0.711   3.215  0.6252  0.0757 -0.4963
 1558SOL    HW216137   0.802   0.695   3.360 -0.1801 -0.6567  0.7292
 1559SOL     OW16138   0.948   3.519   1.526  0.1831  0.1174  0.7227
 1559SOL    HW116139   1.015   3.584   1.509 -0.0285  0.1039 -0.2126
 1559SOL    HW216140   0.876   3.579   1.505  1.7698  0.8597 -2.6245
 1560SOL     OW16141   3.308   0.727  14.020  0.2397 -0.6259 -0.4574
 1560SOL    HW116142   3.375   0.700  13.958  1.5814  0.1946  0.6311
 1560SOL    HW216143   3.356   0.803  14.054  0.1838  0.2366 -2.3200
 1561SOL     OW16144   1.574   1.068   5.438  0.2618 -0.7277  0.0094
 1561SOL    HW116145   1.483   1.091   5.421  0.2433 -0.7706  0.0522
 1561SOL    HW216146   1.636   1.140   5.445 -1.4131  0.6887  0.2582
 1562SOL     OW16147   1.278   3.084   1.233 -0.0032 -0.7196  0.8326
 1562SOL    HW116148   1.291   3.078   1.327  0.2515  0.6888  0.8932
 1562SOL    HW216149   1.188   3.051   1.234 -0.8193  1.5424  1.6126
 1563SOL     OW16150   1.142   3.660   5.524 -0.4310  0.3446  0.2108
 1563SOL    HW116151   1.096   3.691   5.445 -2.0132 -1.5576  0.3803
 1563SOL    HW216152   1.066   3.667   5.582  0.4847  1.9694  1.1982
 1564SOL     OW16153   3.519   3.558  11.483 -0.5156 -0.2810  0.4660
 1564SOL    HW116154   3.549   3.648  11.498 -0.8342  0.0504 -0.8616
 1564SOL    HW216155   3.430   3.569  11.516 -1.2078 -3.8289 -0.1959
 1565SOL     OW16156   3.189   4.115   7.074 -0.4420 -0.4101 -0.0950
 1565SOL    HW116157   3.256   4.072   7.021  0.2490  0.5449  0.0095
 1565SOL    HW216158   3.109   4.119   7.021 -0.8182  0.0730  0.5072
 1566SOL     OW16159   2.156   1.182  10.106 -0.1053  0.5303  0.1725
 1566SOL    HW116160   2.093   1.197  10.036 -2.6491 -2.8736  1.7408
 1566SOL    HW216161   2.228   1.233  10.069  1.7235 -0.2189  2.7065
 1567SOL     OW16162   1.686   1.816   0.644 -0.1282  0.2819  0.2796
 1567SOL    HW116163   1.592   1.836   0.642 -0.1603  0.1060  0.0662
 1567SOL    HW216164   1.722   1.894   0.686  1.6662 -0.5749  0.3048
 1568SOL     OW16165   1.482   1.604   3.235 -0.1889  0.4294 -0.1055
 1568SOL    HW116166   1.419   1.659   3.190  0.4579  1.2476  0.0020
 1568SOL    HW216167   1.541   1.586   3.162  0.9292 -1.0774  1.1802
 1569SOL     OW16168   3.559   4.562  14.576  0.4543 -0.5537 -0.4430
 1569SOL    HW116169   3.504   4.492  14.611  0.0252  0.2323  0.4313
 1569SOL    HW216170   3.642   4.517  14.594 -0.1257 -1.6498 -0.5230
 1570SOL     OW16171   2.301   2.633   4.525  0.1104  0.7464 -0.4029
 1570SOL    HW116172   2.379   2.659   4.475 -0.0389  0.2052 -0.9172
 1570SOL    HW216173   2.243   2.625   4.450 -0.8573 -1.6772  0.6309
 1571SOL     OW16174   1.584   3.421   2.659 -0.1367 -0.0578 -0.3566
 1571SOL    HW116175   1.548   3.341   2.619  0.6689 -1.1339  1.0665
 1571SOL    HW216176   1.531   3.482   2.607 -0.2000  0.9294  0.8874
 1572SOL     OW16177   3.514   4.350   8.978  0.3257 -0.2807  0.0875
 1572SOL    HW116178   3.517   4.425   9.038  0.7850 -0.1265 -0.1327
 1572SOL    HW216179   3.602   4.313   8.980  0.6136  0.3271 -1.6453
 1573SOL     OW16180   4.303   4.225   2.677  0.3391 -0.9257 -0.0474
 1573SOL    HW116181   4.342   4.140   2.696 -0.4217 -0.6633  2.6804
 1573SOL    HW216182   4.231   4.209   2.616  1.5428  1.4742 -2.1512
 1574SOL     OW16183   4.675   0.416   7.170  0.2281 -0.4070  0.5322
 1574SOL    HW116184   4.716   0.477   7.231  0.5874  0.5974 -0.7177
 1574SOL    HW216185   4.678   0.332   7.216  0.9857  0.7584  2.6293
 1575SOL     OW16186   2.626   2.872   0.436 -0.5469 -0.2287  0.3656
 1575SOL    HW116187   2.555   2.910   0.487 -1.7431 -0.5228 -1.0866
 1575SOL    HW216188   2.614   2.778   0.449  0.3772 -0.7154 -2.2985
 1576SOL     OW16189   3.723   3.501  16.446  0.0131  0.3468  0.0497
 1576SOL    HW116190   3.697   3.577  16.393  0.5782  1.2522  1.0761
 1576SOL    HW216191   3.818   3.498  16.433 -0.2611 -2.5412 -1.2094
 1577SOL     OW16192   0.643   0.170   4.424  0.4474  0.3279  0.0198
 1577SOL    HW116193   0.700   0.235   4.465  1.3428  0.0713 -0.8212
 1577SOL    HW216194   0.622   0.218   4.345 -0.5688 -0.3779 -0.1322
 1578SOL     OW16195   4.620   3.966   5.948 -0.1579  0.6041 -0.0869
 1578SOL    HW116196   4.619   3.872   5.930  0.9838  0.1694  2.1728
 1578SOL    HW216197   4.618   3.981   6.042 -4.1513  1.2124 -0.2536
 1579SOL     OW16198   3.457   1.114   7.996 -0.2887  0.2037  0.0466
 1579SOL    HW116199   3.467   1.019   7.995 -1.1381  0.1097  1.1063
 1579SOL    HW216200   3.551   1.134   8.000 -0.3306  0.7027 -1.3281
 1580SOL     OW16201   4.697   0.588   8.986  0.1585  0.0012 -0.3616
 1580SOL    HW116202   0.070   0.595   9.004  0.3743 -0.1849 -1.4220
 1580SOL    HW216203   4.675   0.495   8.983  0.5624 -0.0584 -1.4779
 1581SOL     OW16204   1.419   4.431   2.375  0.3405 -0.3091 -0.2390
 1581SOL    HW116205   1.331   4.395   2.364 -0.0675 -0.4013  3.4103
 1581SOL    HW216206   1.458   4.432   2.287 -1.5906 -1.9318 -1.1198
 1582SOL     OW16207   1.311   4.294   6.808 -0.1020  0.0366 -0.2250
 1582SOL    HW116208   1.304   4.228   6.876 -0.2631  0.5607  0.2648
 1582SOL    HW216209   1.370   4.353   6.854  0.0557 -1.6928  1.7453
 1583SOL     OW16210   3.003   1.317   2.383 -0.2333 -0.2745 -0.2854
 1583SOL    HW116211   3.011   1.227   2.350 -1.2743 -0.1033 -1.0102
 1583SOL    HW216212   2.910   1.333   2.366 -0.7458 -2.6127  0.3029
 1584SOL     OW16213   2.437   3.227   0.191  0.4900  0.4187  0.2949
 1584SOL    HW116214   2.481   3.149   0.157  2.3841  1.5658  0.0988
 1584SOL    HW216215   2.504   3.295   0.184 -0.2687  1.2189  0.8675
 1585SOL     OW16216   1.005   1.579   2.157 -0.2314 -0.2053 -0.0228
 1585SOL    HW116217   0.992   1.506   2.096 -0.3658 -1.2086  1.1962
 1585SOL    HW216218   0.936   1.641   2.135 -0.2586 -0.0556  0.4754
 1586SOL     OW16219   0.090   2.247  16.369  0.1967  0.4953  0.1231
 1586SOL    HW116220   0.031   2.257  16.444  1.5270  2.2177  0.9267
 1586SOL    HW216221   0.147   2.172  16.387 -0.2904  0.3565  1.0700
 1587SOL     OW16222   1.300   1.835   3.796  0.4010 -0.6163 -0.3037
 1587SOL    HW116223   1.254   1.805   3.717 -1.0287 -3.6334  1.6992
 1587SOL    HW216224   1.230   1.827   3.861 -0.6789  0.9930 -1.2618
 1588SOL     OW16225   4.428   1.275   4.227 -0.0993  0.0746 -0.3218
 1588SOL    HW116226   4.344   1.255   4.186  1.2005 -0.8552 -2.5083
 1588SOL    HW216227   4.482   1.197   4.213 -0.3521 -0.1932  0.2273
 1589SOL     OW16228   1.782   3.718   8.067 -0.3158  0.0767 -0.5805
 1589SOL    HW116229   1.815   3.770   7.993  0.7935  0.0557 -0.0968
 1589SOL    HW216230   1.802   3.629   8.038  0.0040 -0.6842  2.0139
 1590SOL     OW16231   0.683   3.974  12.540  0.3466  0.1492 -0.5665
 1590SOL    HW116232   0.697   3.925  12.621  0.5083  0.7142 -0.2538
 1590SOL    HW216233   0.723   4.059  12.557  0.2954  0.2887 -1.1323
 1591SOL     OW16234   1.825   2.732   1.304 -0.2642  0.0811  0.0013
 1591SOL    HW116235   1.828   2.687   1.219 -0.5674 -0.7733  0.4464
 1591SOL    HW216236   1.852   2.817   1.269 -0.7733 -0.0539 -0.7417
 1592SOL     OW16237   0.685   0.801  13.127  0.0195 -0.0191 -0.0964
 1592SOL    HW116238   0.618   0.753  13.079 -0.4449 -0.6325  1.1494
 1592SOL    HW216239   0.636   0.843  13.197  0.9712 -0.8548  1.0820
 1593SOL     OW16240   1.802   4.454   8.649 -0.5304 -0.2075 -0.4446
 1593SOL    HW116241   1.712   4.452   8.616 -0.8688 -1.4872  0.5564
 1593SOL    HW216242   1.853   4.511   8.591 -2.6417  0.8825 -1.2392
 1594SOL     OW16243   2.863   1.235   1.650  0.0050  0.4298 -0.3978
 1594SOL    HW116244   2.821   1.273   1.573 -1.0292  1.1900  0.5344
 1594SOL    HW216245   2.945   1.286   1.643  1.4301 -1.6640  1.2066
 1595SOL     OW16246   2.316   1.704   3.795  0.1085 -0.0458 -0.7122
 1595SOL    HW116247   2.307   1.796   3.819  0.3479 -1.1700  3.5907
 1595SOL    HW216248   2.227   1.679   3.768 -0.5841  1.0245  0.6202
 1596SOL     OW16249   4.660   2.041  11.081 -0.5583 -0.1258 -0.4241
 1596SOL    HW116250   4.712   1.981  11.027  0.5242 -0.4321  0.9585
 1596SOL    HW216251   4.575   1.999  11.069  0.3463 -2.1991  0.3793
 1597SOL     OW16252   2.607   4.213  17.685  0.3333 -0.3247 -0.2590
 1597SOL    HW116253   2.625   4.120  17.668  1.4276 -0.3485  1.0239
 1597SOL    HW216254   2.513   4.213   0.018  0.2663 -0.0746 -0.5926
 1598SOL     OW16255   3.419   1.602   2.427  0.2791  0.2357 -0.2146
 1598SOL    HW116256   3.466   1.520   2.409 -1.3749 -0.3266 -1.9752
 1598SOL    HW216257   3.438   1.606   2.521  1.0801  0.6182 -0.3948
 1599SOL     OW16258   0.008   3.404   2.089  0.2636 -0.3154 -0.0786
 1599SOL    HW116259   4.648   3.452   2.110 -1.0248 -2.5629  0.0836
 1599SOL    HW216260   4.687   3.318   2.086 -2.9094  1.2984 -2.8690
 1600SOL     OW16261   1.943   4.642   3.502  0.3018  0.1006 -0.2538
 1600SOL    HW116262   1.978   4.709   3.444  2.1080  0.5451  1.3447
 1600SOL    HW216263   1.847   4.644   3.503  0.3280  1.5143 -2.1805
 1601SOL     OW16264   0.782   2.534   5.256 -0.1514 -0.1896  0.4118
 1601SOL    HW116265   0.717   2.541   5.186  2.7820  2.1079 -2.0472
 1601SOL    HW216266   0.750   2.605   5.311  1.4964 -0.1649  1.3331
 1602SOL     OW16267   4.304   3.680   7.456  0.0705 -0.3827 -0.2545
 1602SOL    HW116268   4.347   3.763   7.436 -1.0857  0.5672  1.2590
 1602SOL    HW216269   4.212   3.707   7.447 -0.2406 -1.2036  0.5368
 1603SOL     OW16270   4.601   3.237   4.245  0.0843 -0.5462 -0.1234
 1603SOL    HW116271   4.566   3.251   4.157 -0.9791  2.5831  0.7764
 1603SOL    HW216272   4.601   3.142   4.258  3.0129 -1.0209 -3.4907
 1604SOL     OW16273   1.407   3.319   6.173 -0.1042 -0.7021 -0.3357
 1604SOL    HW116274   1.456   3.298   6.094  0.8906  1.7073 -0.3642
 1604SOL    HW216275   1.444   3.250   6.229  3.2766 -0.7876 -2.7087
 1605SOL     OW16276   2.543   0.214   8.116  0.2648 -0.4998 -0.8623
 1605SOL    HW116277   2.475   0.249   8.174  0.8122  0.2088 -0.6286
 1605SOL    HW216278   2.501   0.225   8.031 -1.6000  0.9113  0.2410
 1606SOL     OW16279   0.757   3.163   8.505 -0.2204  0.1328  0.1716
 1606SOL    HW116280   0.846   3.133   8.484  0.5008  0.3756  2.9270
 1606SOL    HW216281   0.749   3.161   8.600  1.7145  2.7457  0.3945
 1607SOL     OW16282   0.929   2.470   0.806 -0.2738  0.0677  0.4384
 1607SOL    HW116283   0.870   2.526   0.857 -0.4686  2.0103 -1.9307
 1607SOL    HW216284   1.010   2.459   0.856 -0.1518  0.8253  0.4220
 1608SOL     OW16285   1.580   1.129  10.087  0.3213  0.0949 -0.6217
 1608SOL    HW116286   1.618   1.048  10.123  0.9840 -0.1517 -1.8861
 1608SOL    HW216287   1.487   1.114  10.100  0.0323  0.3958 -2.3388
 1609SOL     OW16288   3.576   1.559   8.412  0.3319  0.1409 -0.7737
 1609SOL    HW116289   3.603   1.477   8.370 -1.4979 -2.0368  2.3696
 1609SOL    HW216290   3.657   1.610   8.416  1.4557 -1.7470  0.6452
 1610SOL     OW16291   4.417   2.264  16.016 -0.1394 -0.1418  0.0331
 1610SOL    HW116292   4.387   2.345  15.974  1.1928  0.0774 -0.4949
 1610SOL    HW216293   4.500   2.296  16.052 -1.0253 -0.0145  1.9415
 1611SOL     OW16294   3.360   2.417  11.559  0.0658  0.4503  0.5564
 1611SOL    HW116295   3.411   2.497  11.542  0.0688  0.1677 -0.7748
 1611SOL    HW216296   3.290   2.443  11.499  1.3406  1.2618 -0.5663
 1612SOL     OW16297   4.298   3.335   7.527  0.0100  0.2360 -0.0092
 1612SOL    HW116298   4.227   3.371   7.474 -0.9498 -1.5771  0.0159
 1612SOL    HW216299   4.255   3.341   7.613  1.3153  0.1963  0.6523
 1613SOL     OW16300   0.864   3.671   8.381 -0.0209  0.3944  0.7760
 1613SOL    HW116301   0.783   3.658   8.430 -0.3223  0.8986  0.4183
 1613SOL    HW216302   0.908   3.738   8.434 -0.9088  1.5340  0.0623
 1614SOL     OW16303   3.083   1.068   8.453  0.2572  0.5210 -0.3657
 1614SOL    HW116304   3.081   1.018   8.534  1.6757  1.0285 -0.0185
 1614SOL    HW216305   3.167   1.038   8.419 -0.1484  0.8389 -1.6325
 1615SOL     OW16306   3.313   2.147   9.509  0.3856 -0.3774 -0.0755
 1615SOL    HW116307   3.346   2.075   9.563  3.1629  0.1711 -1.0337
 1615SOL    HW216308   3.225   2.116   9.486  0.7075  0.2857 -2.2167
 1616SOL     OW16309   1.140   1.400   5.259 -0.0595  0.5295  0.1227
 1616SOL    HW116310   1.087   1.417   5.337 -0.5299  0.9710 -0.2928
 1616SOL    HW216311   1.227   1.432   5.283  0.8993 -1.1637 -1.1366
 1617SOL     OW16312   4.323   1.302  12.893  0.4604 -0.4572 -0.4098
 1617SOL    HW116313   4.404   1.338  12.856  0.5726  1.2466  1.5380
 1617SOL    HW216314   4.270   1.381  12.893  0.2502 -0.5955 -0.8420
 1618SOL     OW16315   2.478   2.872   1.919 -1.0234  0.2529 -0.4024
 1618SOL    HW116316   2.432   2.794   1.949 -2.1150  0.9252 -0.3264
 1618SOL    HW216317   2.549   2.875   1.982  0.4556  3.1970 -2.2114
 1619SOL     OW16318   3.405   0.871   1.537  0.3042  0.1561  0.6644
 1619SOL    HW116319   3.406   0.812   1.461  2.9504 -0.8925  1.5171
 1619SOL    HW216320   3.372   0.951   1.496  3.1590 -0.5774 -3.0711
 1620SOL     OW16321   0.926   0.067   7.322 -0.0767 -0.0704  0.2090
 1620SOL    HW116322   0.840   0.089   7.284 -0.5438  0.6503  1.6722
 1620SOL    HW216323   0.995   0.120   7.283  2.2687 -2.4873  1.1283
 1621SOL     OW16324   0.145   0.010  13.069  0.0585 -0.0656 -0.6994
 1621SOL    HW116325   0.051   4.717  13.058  0.1444 -0.7577 -0.6239
 1621SOL    HW216326   0.169   4.665  13.135 -2.4265  1.6355  1.9345
 1622SOL     OW16327   0.050   4.055   7.652  0.3642 -0.1018 -0.8250
 1622SOL    HW116328   0.090   4.019   7.572  2.0050  0.1147 -0.0913
 1622SOL    HW216329   4.681   4.052   7.620  0.8693 -0.3233 -2.2426
 1623SOL     OW16330   1.719   1.590   3.404  0.0322 -0.3163 -0.1940
 1623SOL    HW116331   1.745   1.498   3.408  1.8067  0.2485  0.9471
 1623SOL    HW216332   1.645   1.591   3.343 -0.5838 -1.1925  0.5355
 1624SOL     OW16333   2.284   0.887   1.721 -0.1257 -0.0192 -0.0485
 1624SOL    HW116334   2.196   0.854   1.737 -0.6545  1.9841  1.1980
 1624SOL    HW216335   2.291   0.953   1.791  3.0401  0.2926 -0.6858
 1625SOL     OW16336   1.746   0.134   6.387  0.0588  0.2261  0.2822
 1625SOL    HW116337   1.779   0.130   6.298  1.5057 -0.8993  0.8640
 1625SOL    HW216338   1.823   0.156   6.439  0.7680 -2.1112  0.2259
 1626SOL     OW16339   1.433   3.710   9.969 -0.0973 -0.0470 -0.0410
 1626SOL    HW116340   1.529   3.716   9.975 -0.1507  0.2370  0.5564
 1626SOL    HW216341   1.408   3.796   9.936 -0.8363 -0.1473  0.2625
 1627SOL     OW16342   1.456   1.438   2.063 -0.1831 -0.0258 -0.0900
 1627SOL    HW116343   1.390   1.498   2.097  1.7079  0.6519  2.4114
 1627SOL    HW216344   1.534   1.493   2.056 -0.8335  1.1003  1.4008
 1628SOL     OW16345   3.960   3.527   4.151  0.1583  0.6769 -0.3498
 1628SOL    HW116346   3.912   3.483   4.082 -1.2730  0.9750  0.4615
 1628SOL    HW216347   3.995   3.601   4.101  1.4065  0.6579  0.4645
 1629SOL     OW16348   1.729   2.606   7.625 -0.2759 -0.3083 -0.6833
 1629SOL    HW116349   1.785   2.557   7.565  2.1699  1.4330  0.1758
 1629SOL    HW216350   1.776   2.602   7.709  0.9525 -0.1676 -1.3603
 1630SOL     OW16351   0.945   2.663   6.326  0.4864 -0.5622 -0.0528
 1630SOL    HW116352   0.903   2.629   6.247  0.5676 -0.5269 -0.1113
 1630SOL    HW216353   1.035   2.629   6.319 -1.0577 -4.5011 -0.6609
 1631SOL     OW16354   3.463   3.261   6.041  0.2953 -0.1655 -0.0552
 1631SOL    HW116355   3.400   3.288   6.107 -0.2715  0.0807 -0.7006
 1631SOL    HW216356   3.504   3.188   6.087 -1.4943 -1.6625 -0.8282
 1632SOL     OW16357   4.601   3.451   0.717  0.1432  0.3239 -0.3936
 1632SOL    HW116358   4.516   3.426   0.679  0.1111 -1.1893  0.7023
 1632SOL    HW216359   4.574   3.510   0.787 -0.4966 -2.5385  1.7723
 1633SOL     OW16360   0.600   2.698  12.034  0.6056 -0.1477 -0.0442
 1633SOL    HW116361   0.543   2.754  11.980  1.3357  0.4293 -0.2144
 1633SOL    HW216362   0.532   2.638  12.063  1.5154 -1.9378 -1.6390
 1634SOL     OW16363   2.427   1.843  11.387 -0.0850 -0.0080  0.3233
 1634SOL    HW116364   2.518   1.865  11.369 -1.6288  3.1932 -3.3979
 1634SOL    HW216365   2.420   1.760  11.339  1.5905 -0.6420  1.1605
 1635SOL     OW16366   2.124   2.490   3.345  0.9137  0.7413  0.2563
 1635SOL    HW116367   2.154   2.571   3.386 -1.3795  3.3418 -3.1485
 1635SOL    HW216368   2.143   2.427   3.414 -2.4603 -0.0883  0.4220
 1636SOL     OW16369   3.670   2.244   2.243  0.4234  0.3711  0.2775
 1636SOL    HW116370   3.660   2.292   2.161 -0.4140 -0.6804 -0.2386
 1636SOL    HW216371   3.579   2.237   2.272  0.0877  3.9097  0.0480
 1637SOL     OW16372   0.415   0.927   0.331 -1.0374 -0.5116 -0.2150
 1637SOL    HW116373   0.355   0.996   0.361 -1.1377 -0.9249  0.5326
 1637SOL    HW216374   0.429   0.940   0.237 -1.1510  0.6354 -0.0807
 1638SOL     OW16375   3.695   0.936   6.859 -0.4927  0.4636  0.1136
 1638SOL    HW116376   3.665   0.972   6.943  1.7829  2.0029  0.2595
 1638SOL    HW216377   3.617   0.890   6.827 -0.8040  1.1021 -0.0460
 1639SOL     OW16378   3.264   0.582   9.617 -0.0588 -0.3488  0.6827
 1639SOL    HW116379   3.313   0.615   9.693  2.5516 -2.5867  0.0018
 1639SOL    HW216380   3.235   0.665   9.582  0.1580  0.3540  2.1506
 1640SOL     OW16381   2.911   0.704   8.195  0.3356 -0.2744 -0.2660
 1640SOL    HW116382   2.900   0.798   8.203  1.2625 -0.0430 -1.7347
 1640SOL    HW216383   2.884   0.666   8.278  1.8676 -1.4920 -0.3147
 1641SOL     OW16384   0.680   1.328   7.092  0.2201  0.1110  0.4044
 1641SOL    HW116385   0.587   1.307   7.090  0.1145  0.4786  1.7615
 1641SOL    HW216386   0.692   1.360   7.181  0.4876  0.9978  0.0624
 1642SOL     OW16387   3.167   0.101   3.890  0.1021 -0.0213  0.1813
 1642SOL    HW116388   3.079   0.086   3.924 -0.2648 -0.9200 -1.1459
 1642SOL    HW216389   3.150   0.151   3.810 -0.2316  1.4052  1.1644
 1643SOL     OW16390   2.632   3.794   3.979 -0.4255  0.4148  0.0431
 1643SOL    HW116391   2.609   3.749   4.060 -0.9825  1.0957  0.2652
 1643SOL    HW216392   2.551   3.776   3.931 -1.5930  1.4065  1.6288
 1644SOL     OW16393   4.376   3.702   0.759 -0.5016  0.5396 -0.6898
 1644SOL    HW116394   4.446   3.692   0.824 -1.4920  0.4146  0.3634
 1644SOL    HW216395   4.415   3.779   0.718 -1.1622  2.2296  1.8157
 1645SOL     OW16396   2.716   0.817  10.495 -0.3879  0.3335 -0.0477
 1645SOL    HW116397   2.661   0.837  10.418 -0.6587 -3.5561 -0.8510
 1645SOL    HW216398   2.799   0.845  10.457 -0.5688 -0.4611 -1.0435
 1646SOL     OW16399   4.221   1.753  17.259 -0.3510 -0.0902  0.7382
 1646SOL    HW116400   4.252   1.841  17.279  1.5694 -0.8455  1.1094
 1646SOL    HW216401   4.145   1.771  17.203  1.6116  0.9978 -1.6028
 1647SOL     OW16402   2.283   0.523  16.313 -0.4198 -0.2283  0.3549
 1647SOL    HW116403   2.195   0.491  16.297  0.0450 -1.4939  0.3166
 1647SOL    HW216404   2.337   0.453  16.275  2.8645  1.3208  2.1027
 1648SOL     OW16405   3.373   4.276   1.665 -0.2706 -0.0509 -0.2045
 1648SOL    HW116406   3.380   4.296   1.572  1.3819  1.4922  0.2504
 1648SOL    HW216407   3.321   4.353   1.687  0.3840  0.5379 -0.7204
 1649SOL     OW16408   2.655   1.689   5.007 -0.2508  0.4035  0.1054
 1649SOL    HW116409   2.599   1.719   4.935 -0.6968 -0.6779 -0.0081
 1649SOL    HW216410   2.628   1.750   5.076 -1.6271  0.8111 -0.7981
 1650SOL     OW16411   2.935   0.036   4.042 -0.6430  0.3835  0.1872
 1650SOL    HW116412   2.914   0.124   4.009 -0.6508 -0.0391 -0.9277
 1650SOL    HW216413   2.945   0.056   4.136 -1.6595  2.3575 -0.1116
 1651SOL     OW16414   0.709   1.973   2.809 -0.0975 -0.4718 -0.1618
 1651SOL    HW116415   0.693   2.011   2.895  0.4772 -1.8733  0.5741
 1651SOL    HW216416   0.699   2.047   2.749  1.1221 -0.8402 -0.8322
 1652SOL     OW16417   3.914   1.902   6.677 -0.3380 -0.2926  0.1682
 1652SOL    HW116418   3.937   1.938   6.762 -0.0907  0.7105 -0.3229
 1652SOL    HW216419   3.821   1.924   6.675 -0.9250 -2.6977  0.7946
 1653SOL     OW16420   2.030   0.475  16.198  0.8009 -0.3908  0.1467
 1653SOL    HW116421   1.986   0.479  16.283  0.0621 -0.4346 -0.2408
 1653SOL    HW216422   2.039   0.379  16.193  1.0305 -0.3823  0.4105
 1654SOL     OW16423   0.742   1.591  14.939  0.4140  0.5033 -0.8192
 1654SOL    HW116424   0.796   1.606  15.016  2.0463  0.9377 -2.0493
 1654SOL    HW216425   0.795   1.540  14.879  1.3091 -0.3803  0.7304
 1655SOL     OW16426   2.559   1.505   6.883 -0.4314  0.0706  0.3046
 1655SOL    HW116427   2.605   1.440   6.831  0.8381  0.3216  1.0935
 1655SOL    HW216428   2.487   1.458   6.924 -0.7429  0.5192  0.2763
 1656SOL     OW16429   4.487   1.867   5.554  0.0230  0.6938  0.4855
 1656SOL    HW116430   4.535   1.839   5.632 -0.3449  1.1515  0.8835
 1656SOL    HW216431   4.545   1.936   5.521 -1.9623  0.0201 -4.4949
 1657SOL     OW16432   1.591   2.094   6.245 -0.3489  0.5604 -0.1798
 1657SOL    HW116433   1.670   2.146   6.230 -0.6537  1.1328  0.2045
 1657SOL    HW216434   1.618   2.004   6.225  3.0122  1.7964 -1.1057
 1658SOL     OW16435   4.114   2.883   9.738 -0.5531 -0.2136 -0.7088
 1658SOL    HW116436   4.039   2.909   9.685 -1.9819  0.8982  1.8816
 1658SOL    HW216437   4.148   2.813   9.682 -0.3978 -1.7625  1.3242
 1659SOL     OW16438   1.104   1.931  16.271  0.5632  0.4129  0.0305
 1659SOL    HW116439   1.104   1.955  16.178  0.4342  1.3101  0.2554
 1659SOL    HW216440   1.066   2.011  16.308 -1.0869 -0.3399 -0.0319
 1660SOL     OW16441   2.516   2.548   5.689  0.2078  0.2977  1.0667
 1660SOL    HW116442   2.459   2.608   5.738 -0.7424 -0.5556  1.0070
 1660SOL    HW216443   2.573   2.517   5.759 -0.1915  1.7039  2.0110
 1661SOL     OW16444   1.203   4.400   6.308 -0.0308 -0.1719 -0.0128
 1661SOL    HW116445   1.280   4.440   6.268 -0.6040  0.1272 -0.8108
 1661SOL    HW216446   1.244   4.358   6.384  0.5093  0.7872  0.2258
 1662SOL     OW16447   3.639   0.628   2.451 -0.5908  0.4170  0.3224
 1662SOL    HW116448   3.730   0.647   2.470 -1.1156  1.2705  2.0128
 1662SOL    HW216449   3.644   0.534   2.467  0.3792  0.8442  2.4656
 1663SOL     OW16450   3.766   2.906  16.854 -0.4234  0.0865  0.4003
 1663SOL    HW116451   3.790   2.996  16.880 -0.4566 -0.1583  1.2983
 1663SOL    HW216452   3.696   2.925  16.792  0.5177 -2.1084 -1.2823
 1664SOL     OW16453   1.132   3.983   5.037 -0.1968  0.0206 -0.2792
 1664SOL    HW116454   1.194   3.910   5.045 -0.8992 -0.5663 -0.2435
 1664SOL    HW216455   1.052   3.947   5.075  0.9199 -0.8308  1.2592
 1665SOL     OW16456   0.760   0.785   0.256 -0.2869  0.7952  0.2935
 1665SOL    HW116457   0.855   0.771   0.250 -0.5312 -0.4497 -0.4816
 1665SOL    HW216458   0.762   0.868   0.208  2.4856  0.7950  0.3728
 1666SOL     OW16459   0.476   0.012   2.224 -0.2993 -0.2802 -0.5401
 1666SOL    HW116460   0.455   4.653   2.175 -0.8533  0.7570 -1.9906
 1666SOL    HW216461   0.522   0.057   2.153 -0.2426 -1.7966 -1.4651
 1667SOL     OW16462   2.169   4.105  16.601  0.1889 -0.5371 -0.6576
 1667SOL    HW116463   2.188   4.043  16.531  0.1997 -0.6147 -0.5862
 1667SOL    HW216464   2.197   4.177  16.545 -1.2474  0.4258 -0.1092
 1668SOL     OW16465   4.603   3.673  11.741  0.1929 -0.3773  0.3599
 1668SOL    HW116466   4.616   3.652  11.834 -2.3713 -1.8882  0.3792
 1668SOL    HW216467   4.636   3.763  11.745 -2.9507  0.8756 -2.5242
 1669SOL     OW16468   1.370   1.489   2.397  0.1781 -0.5642  0.4250
 1669SOL    HW116469   1.460   1.515   2.383  0.1350  0.1056  1.3961
 1669SOL    HW216470   1.323   1.545   2.335  0.4422 -0.8581 -0.0396
 1670SOL     OW16471   1.385   3.549  17.269  0.2684 -0.6766 -0.3653
 1670SOL    HW116472   1.336   3.485  17.322  0.8571 -0.6318  0.2295
 1670SOL    HW216473   1.383   3.507  17.183 -1.2971 -1.6797  0.1501
 1671SOL     OW16474   1.749   4.593   9.878 -0.7111  0.5564 -0.2192
 1671SOL    HW116475   1.760   4.674   9.928  1.5058  1.4002 -2.0384
 1671SOL    HW216476   1.809   4.618   9.807 -0.7310  0.3564 -0.3069
 1672SOL     OW16477   2.734   3.105   0.335  0.0543 -0.1480  0.1387
 1672SOL    HW116478   2.730   3.013   0.360 -1.5150  0.0173  0.4748
 1672SOL    HW216479   2.704   3.109   0.244  0.0802 -3.8256 -0.0254
 1673SOL     OW16480   2.234   3.443  10.519 -0.0259 -0.2958  0.2229
 1673SOL    HW116481   2.265   3.353  10.502  0.4972  0.0761 -0.7989
 1673SOL    HW216482   2.159   3.441  10.460 -0.0472  1.6692  0.2104
 1674SOL     OW16483   2.160   4.294  16.800 -0.3073 -0.4976 -0.9948
 1674SOL    HW116484   2.068   4.270  16.803 -0.8073  1.9815  2.6747
 1674SOL    HW216485   2.193   4.220  16.749  1.6974 -0.2951  0.0214
 1675SOL     OW16486   0.828   4.372   8.266 -0.9723  0.4750  0.3844
 1675SOL    HW116487   0.842   4.425   8.187  1.2311  0.0640  0.4863
 1675SOL    HW216488   0.754   4.321   8.233 -0.3770  0.3979 -0.8470
 1676SOL     OW16489   2.560   3.917   4.659  0.2806 -0.2468 -0.3073
 1676SOL    HW116490   2.611   3.876   4.729  0.0471  0.2853  0.1731
 1676SOL    HW216491   2.513   3.837   4.636 -1.3477  0.9389 -1.1789
 1677SOL     OW16492   3.032   0.513   3.776  0.3469 -0.6417  0.4032
 1677SOL    HW116493   3.075   0.517   3.862  1.2339  1.8197 -0.1492
 1677SOL    HW216494   2.956   0.567   3.796  1.1629 -0.1798  2.2725
 1678SOL     OW16495   0.702   4.492   1.051 -0.2871 -0.2366 -0.5885
 1678SOL    HW116496   0.744   4.432   1.112  1.7388 -2.6661 -4.3618
 1678SOL    HW216497   0.669   4.558   1.112 -0.6842 -2.0173  1.0989
 1679SOL     OW16498   0.957   0.076   4.603  0.1770  0.2063  0.0957
 1679SOL    HW116499   0.958   4.702   4.617  1.6134  0.2960  0.6117
 1679SOL    HW216500   0.968   0.101   4.694 -3.0121 -2.0738  1.0642
 1680SOL     OW16501   1.112   4.471   6.058  0.1898  0.2473  0.2006
 1680SOL    HW116502   1.100   4.412   6.132  0.4697  0.5765  0.5047
 1680SOL    HW216503   1.202   4.450   6.033  0.4764  0.8142  0.7501
 1681SOL     OW16504   3.136   1.229   3.139 -0.2462  0.8193 -0.2021
 1681SOL    HW116505   3.202   1.267   3.080  1.7598  0.4748  1.8210
 1681SOL    HW216506   3.188   1.198   3.213  0.9341  2.0707 -0.5100
 1682SOL     OW16507   0.154   3.482   2.618  0.9316  0.0729 -0.3188
 1682SOL    HW116508   0.072   3.528   2.604  1.6363  1.2554 -0.5155
 1682SOL    HW216509   0.212   3.533   2.561  1.2668 -0.0435 -0.0864
 1683SOL     OW16510   1.050   0.538   3.043 -0.5381 -0.3108  0.0228
 1683SOL    HW116511   0.973   0.522   2.989 -1.6513 -2.6040  2.2837
 1683SOL    HW216512   1.066   0.621   2.998 -1.4447 -0.3904 -0.4367
 1684SOL     OW16513   0.316   3.080   3.077 -0.2074  0.1786  0.2157
 1684SOL    HW116514   0.307   3.082   3.172  0.3121  1.9283  0.2329
 1684SOL    HW216515   0.246   3.138   3.048 -2.2228 -1.2889  2.1381
 1685SOL     OW16516   0.450   2.831  10.876  0.3972 -0.0172  0.0530
 1685SOL    HW116517   0.375   2.869  10.922  0.4164 -0.7058  0.6544
 1685SOL    HW216518   0.423   2.842  10.785  0.6223  2.1307  0.2443
 1686SOL     OW16519   2.820   0.003  12.465  0.5473  0.3099 -0.5728
 1686SOL    HW116520   2.789   4.710  12.375  0.5139 -1.4983 -0.3016
 1686SOL    HW216521   2.740   0.032  12.509  0.8756 -0.5232  0.5892
 1687SOL     OW16522   0.993   3.760   5.346  0.4165  0.4096  0.1847
 1687SOL    HW116523   0.979   3.717   5.262 -0.8159 -0.0071  0.6093
 1687SOL    HW216524   0.911   3.754   5.395 -0.3471  2.2779 -0.8744
 1688SOL     OW16525   0.660   1.691   4.878  0.2127 -0.0296  0.1904
 1688SOL    HW116526   0.716   1.614   4.875  1.0220  0.5195  0.7618
 1688SOL    HW216527   0.621   1.680   4.965  1.0801 -0.5921  0.5083
 1689SOL     OW16528   3.738   1.991   5.687 -0.1306  0.4642 -0.6374
 1689SOL    HW116529   3.829   2.021   5.691 -0.5378  1.4994  0.8132
 1689SOL    HW216530   3.735   1.921   5.752  1.9260  0.8943 -0.0835
 1690SOL     OW16531   0.184   0.171  17.530  0.0904  0.0187  0.1439
 1690SOL    HW116532   0.131   0.094  17.514 -2.0123  1.4815  0.1031
 1690SOL    HW216533   0.217   0.190  17.442  0.3410  0.1211  0.2582
 1691SOL     OW16534   2.823   1.573   2.847  0.4555  0.0982  0.3207
 1691SOL    HW116535   2.848   1.536   2.763  0.3757  1.6765 -0.4086
 1691SOL    HW216536   2.730   1.587   2.831  0.3158 -1.4143 -0.1187
 1692SOL     OW16537   3.864   0.659   6.956 -0.0503  1.0262  0.0151
 1692SOL    HW116538   3.779   0.636   6.993 -0.8004  0.8230 -1.8281
 1692SOL    HW216539   3.851   0.639   6.863  0.4285  0.7507  0.0037
 1693SOL     OW16540   3.995   1.931   5.767 -0.5866  0.3038  0.6030
 1693SOL    HW116541   4.025   1.897   5.851 -2.8632 -0.7800  0.9593
 1693SOL    HW216542   3.939   1.860   5.736  0.3978 -0.2106  0.0166
 1694SOL     OW16543   2.009   0.801   7.413 -0.1625  0.0196  0.0291
 1694SOL    HW116544   1.952   0.732   7.446 -2.1172  0.4157 -2.4550
 1694SOL    HW216545   1.946   0.873   7.415  0.2325  0.3280  1.2935
 1695SOL     OW16546   4.220   1.861   9.349 -0.4475 -0.3231  0.1982
 1695SOL    HW116547   4.291   1.885   9.409 -1.1754 -1.2485  1.4419
 1695SOL    HW216548   4.235   1.767   9.346  0.2221 -0.1577 -1.5116
 1696SOL     OW16549   2.108   3.189   7.113 -0.2620 -0.2640 -0.1497
 1696SOL    HW116550   2.133   3.126   7.046  1.5599  0.3041 -0.0175
 1696SOL    HW216551   2.166   3.261   7.088  0.2471 -0.2479  1.0984
 1697SOL     OW16552   3.460   1.942   7.069  0.2961  0.0699  0.0825
 1697SOL    HW116553   3.376   1.908   7.102 -0.0156 -0.0363 -0.8050
 1697SOL    HW216554   3.432   1.958   6.978  2.1255  2.3169 -0.0703
 1698SOL     OW16555   1.321   2.304   7.722  0.3244 -0.3715  0.2552
 1698SOL    HW116556   1.233   2.299   7.758  0.4859  0.6794  0.8168
 1698SOL    HW216557   1.376   2.284   7.798  0.0333 -0.8272  0.3413
 1699SOL     OW16558   0.157   2.548   2.204 -0.1889  0.0481 -0.4650
 1699SOL    HW116559   0.069   2.571   2.234 -0.7247 -3.8281  0.8992
 1699SOL    HW216560   0.191   2.518   2.288 -0.9190  0.3112 -0.0740
 1700SOL     OW16561   1.866   4.160  17.301  0.3372 -0.5732  0.1606
 1700SOL    HW116562   1.831   4.071  17.303 -0.1873 -0.4933 -4.0418
 1700SOL    HW216563   1.883   4.178  17.393 -1.7232 -0.8923  0.5939
 1701SOL     OW16564   3.682   2.717   4.282 -1.2019  0.0010  0.2290
 1701SOL    HW116565   3.772   2.735   4.255 -1.2340  0.3562  0.3726
 1701SOL    HW216566   3.680   2.624   4.305  0.7653 -0.1514 -0.2078
 1702SOL     OW16567   3.467   4.288   4.568  0.0953  0.0943  0.1071
 1702SOL    HW116568   3.461   4.328   4.481 -1.2307  1.4733  0.8405
 1702SOL    HW216569   3.561   4.302   4.582  0.8075 -0.7726 -3.6527
 1703SOL     OW16570   3.076   4.194   5.270  0.1773 -0.2220  0.0411
 1703SOL    HW116571   3.044   4.211   5.182  1.9415 -2.0580 -0.9611
 1703SOL    HW216572   3.169   4.195   5.244  0.7988  0.9383  2.3030
 1704SOL     OW16573   3.743   2.058   8.940 -0.8276 -0.1803 -0.0850
 1704SOL    HW116574   3.687   2.007   8.998 -1.5144  0.9494  0.2412
 1704SOL    HW216575   3.685   2.103   8.878  1.2668  0.0254 -1.9021
 1705SOL     OW16576   2.015   3.041   4.353  0.0426  0.1968  0.9304
 1705SOL    HW116577   2.104   3.006   4.344 -0.3730 -0.7098  0.4047
 1705SOL    HW216578   1.994   3.040   4.260 -0.4498 -0.3491  1.0462
 1706SOL     OW16579   0.720   2.268   5.354 -0.3194 -0.3978  0.0338
 1706SOL    HW116580   0.739   2.349   5.306 -1.6625  0.9796  1.8495
 1706SOL    HW216581   0.669   2.226   5.285  0.0435 -0.1121 -0.4112
 1707SOL     OW16582   0.229   4.620   3.130 -0.0387  0.0439  0.0323
 1707SOL    HW116583   0.293   4.552   3.154 -1.7571 -1.8330 -0.7567
 1707SOL    HW216584   0.171   4.577   3.068 -2.5444  1.5704  1.3499
 1708SOL     OW16585   0.208   3.217   2.628 -0.1662  0.0503 -0.1158
 1708SOL    HW116586   0.300   3.200   2.609  0.0689  0.7754  0.3854
 1708SOL    HW216587   0.211   3.309   2.655  0.8456  0.5418 -1.9003
 1709SOL     OW16588   1.085   0.914  12.801  0.0994  0.5069  0.4286
 1709SOL    HW116589   1.001   0.871  12.814 -0.7928  0.9268 -3.9650
 1709SOL    HW216590   1.138   0.839  12.775  2.4871  2.1338  0.5899
 1710SOL     OW16591   1.657   1.570   3.038 -0.1424  0.9676  0.3044
 1710SOL    HW116592   1.615   1.531   2.961 -2.6738  0.3840  1.9910
 1710SOL    HW216593   1.709   1.494   3.063  0.3522  0.9457 -0.8038
 1711SOL     OW16594   3.926   4.295  14.975 -0.2881  0.1303  0.7208
 1711SOL    HW116595   3.847   4.240  14.975  0.6946 -1.2964 -0.9802
 1711SOL    HW216596   3.899   4.366  14.916 -0.1244 -0.5613 -0.1846
 1712SOL     OW16597   1.364   1.227   5.392  0.0593  0.4522 -0.7374
 1712SOL    HW116598   1.284   1.201   5.437  0.2506  0.7489 -0.2324
 1712SOL    HW216599   1.404   1.279   5.462 -1.1653  0.8344 -0.3117
 1713SOL     OW16600   2.970   2.022   7.701 -0.3158  0.0481 -0.6574
 1713SOL    HW116601   2.881   2.055   7.718  0.2977  1.8928 -1.0562
 1713SOL    HW216602   2.973   1.948   7.762 -1.7351  0.9041  0.4575
 1714SOL     OW16603   4.051   2.239   6.124 -0.1493  0.3068  0.3314
 1714SOL    HW116604   4.132   2.211   6.166  0.2681 -1.8797 -1.9638
 1714SOL    HW216605   3.993   2.165   6.139  0.6300 -0.0651  1.5349
 1715SOL     OW16606   2.935   3.142  12.565 -0.3392  0.6543 -0.0280
 1715SOL    HW116607   2.975   3.138  12.478 -0.2661 -2.8282  0.1729
 1715SOL    HW216608   2.868   3.076  12.551 -0.5785  1.2201 -1.6391
 1716SOL     OW16609   3.557   4.109  15.227  0.3260 -0.3715 -0.0135
 1716SOL    HW116610   3.651   4.130  15.229 -0.0122  1.0911  0.5812
 1716SOL    HW216611   3.508   4.191  15.234  1.0705 -0.0948  1.9640
 1717SOL     OW16612   0.906   1.652   5.163  0.6655 -0.4472  0.0720
 1717SOL    HW116613   0.910   1.591   5.090  0.4082  0.6437 -0.8617
 1717SOL    HW216614   0.972   1.613   5.221  0.8664 -0.3987 -0.1266
 1718SOL     OW16615   3.842   0.278  12.263 -0.8310  0.0638  0.3286
 1718SOL    HW116616   3.884   0.243  12.342 -0.7774 -0.7141 -0.0449
 1718SOL    HW216617   3.751   0.259  12.286 -1.2021  0.9498 -0.4155
 1719SOL     OW16618   3.130   0.639   8.663 -0.2480 -0.2636  0.0963
 1719SOL    HW116619   3.147   0.648   8.757 -1.8043  0.9957  0.2585
 1719SOL    HW216620   3.115   0.544   8.658 -1.4438 -0.1082  0.7652
 1720SOL     OW16621   3.433   3.943  14.011 -0.2805 -0.7686  0.6157
 1720SOL    HW116622   3.484   4.017  14.043 -1.1190  0.1527 -0.1642
 1720SOL    HW216623   3.421   3.972  13.921  0.4359  1.8283  1.3551
 1721SOL     OW16624   2.379   4.225   2.238  0.2831 -0.2248  0.2898
 1721SOL    HW116625   2.404   4.269   2.157 -0.9456  0.0110  0.0344
 1721SOL    HW216626   2.334   4.293   2.288 -0.5476  0.0516 -0.8310
 1722SOL     OW16627   3.920   4.009   2.845 -0.0914  0.3613 -0.1067
 1722SOL    HW116628   3.972   3.929   2.846  0.9456  0.9453 -4.5137
 1722SOL    HW216629   3.985   4.080   2.841  2.0280 -1.5401  0.4442
 1723SOL     OW16630   1.915   1.191   8.630 -0.1554 -0.3359  0.3043
 1723SOL    HW116631   1.947   1.150   8.550  1.5936  2.3558 -0.3630
 1723SOL    HW216632   1.939   1.284   8.629 -0.1660 -0.3239  0.9396
 1724SOL     OW16633   2.067   3.511   1.762 -0.1702  0.5705  0.4153
 1724SOL    HW116634   2.055   3.527   1.856 -0.1264 -3.2315  1.0942
 1724SOL    HW216635   2.159   3.487   1.764 -0.2023  0.5464  2.6783
 1725SOL     OW16636   0.324   0.516   6.731 -0.1206  0.4268  0.3453
 1725SOL    HW116637   0.229   0.519   6.717 -0.2782 -0.5511  1.2596
 1725SOL    HW216638   0.336   0.558   6.816  4.6994 -0.9095  0.3202
 1726SOL     OW16639   3.117   2.945  11.627  0.3121  0.5806  0.6124
 1726SOL    HW116640   3.153   2.985  11.548  0.3330  1.2835  0.9757
 1726SOL    HW216641   3.023   2.963  11.627  0.1912 -0.0593  0.3292
 1727SOL     OW16642   2.238   0.698   3.554 -0.6193  0.1015 -0.0474
 1727SOL    HW116643   2.254   0.638   3.481  1.5373  0.5809  0.0085
 1727SOL    HW216644   2.323   0.694   3.598 -0.1406 -2.9312 -1.3050
 1728SOL     OW16645   3.711   1.065   4.597 -0.2295 -0.2845  0.3803
 1728SOL    HW116646   3.789   1.010   4.592 -1.1648 -1.5489 -0.2027
 1728SOL    HW216647   3.748   1.153   4.598 -2.2950  0.5727  1.7470
 1729SOL     OW16648   1.498   2.524  16.579 -0.4414  0.4246 -0.1456
 1729SOL    HW116649   1.518   2.584  16.651 -1.0051  2.0552 -1.3496
 1729SOL    HW216650   1.434   2.574  16.529 -2.0395 -1.4108  0.0551
 1730SOL     OW16651   0.760   0.975   4.202  0.1499 -0.0113  0.6353
 1730SOL    HW116652   0.806   1.058   4.187 -1.6402  0.4328 -2.4590
 1730SOL    HW216653   0.786   0.925   4.125  0.8304  0.9307  0.2596
 1731SOL     OW16654   2.520   2.614   8.481 -0.0666 -0.1630 -0.3688
 1731SOL    HW116655   2.519   2.699   8.437  3.1092  1.4080  2.5696
 1731SOL    HW216656   2.586   2.629   8.549 -1.4726 -1.0713  1.1795
 1732SOL     OW16657   4.024   0.701  11.489 -0.3052  0.2384  0.1314
 1732SOL    HW116658   4.103   0.754  11.501  0.7225 -1.7009  1.9144
 1732SOL    HW216659   3.964   0.748  11.548  0.4149  1.2457  0.0486
 1733SOL     OW16660   0.602   2.529   5.013  0.5506 -0.0058 -0.1487
 1733SOL    HW116661   0.651   2.455   4.977  1.1389  1.0378 -1.4859
 1733SOL    HW216662   0.622   2.600   4.952 -1.5228  0.8689  0.1770
 1734SOL     OW16663   2.955   0.333  11.236  0.5289 -0.0209 -0.3725
 1734SOL    HW116664   2.890   0.267  11.262 -0.2972  1.3340  0.9550
 1734SOL    HW216665   3.021   0.285  11.185 -0.1209  0.2884 -1.5152
 1735SOL     OW16666   2.828   1.751   8.028 -0.0271  0.1027  0.1743
 1735SOL    HW116667   2.747   1.757   7.977 -0.1890 -0.2970  0.3787
 1735SOL    HW216668   2.810   1.828   8.081  1.7427 -0.3762  1.4640
 1736SOL     OW16669   3.221   1.020   4.542  0.1957 -0.2080 -0.4314
 1736SOL    HW116670   3.302   1.039   4.589  0.9234  1.2700 -2.2736
 1736SOL    HW216671   3.221   1.093   4.480 -0.4820  2.4036  2.7204
 1737SOL     OW16672   1.637   3.101   3.473  0.3429  0.6179 -0.2822
 1737SOL    HW116673   1.647   3.043   3.397 -0.8732  0.4287 -0.3040
 1737SOL    HW216674   1.629   3.045   3.550 -1.3457  1.5943  0.2542
 1738SOL     OW16675   1.614   1.182   7.400  0.9383  0.5510 -0.6545
 1738SOL    HW116676   1.600   1.195   7.306  0.4394  2.9030 -0.2505
 1738SOL    HW216677   1.561   1.106   7.420  2.2766 -0.5367 -1.2152
 1739SOL     OW16678   0.161   0.010  13.457 -0.0122  0.3114  0.1319
 1739SOL    HW116679   0.085   0.053  13.419 -0.7618 -0.4101  0.8127
 1739SOL    HW216680   0.172   4.663  13.390 -2.2903 -1.4908  1.5926
 1740SOL     OW16681   3.545   1.153  13.360  0.0398 -0.1392  0.0535
 1740SOL    HW116682   3.505   1.174  13.275  0.2216 -0.8811 -0.2163
 1740SOL    HW216683   3.628   1.199  13.347  0.8998 -1.1961  1.9220
 1741SOL     OW16684   2.501   4.017   7.391  0.0348 -0.2438  0.3950
 1741SOL    HW116685   2.464   4.097   7.429 -0.7019 -0.7500  0.7327
 1741SOL    HW216686   2.537   4.043   7.306 -0.0512 -2.7278 -0.3945
 1742SOL     OW16687   2.434   0.419   8.577 -0.0418  0.2724  0.4546
 1742SOL    HW116688   2.522   0.454   8.564 -0.3621  0.6211 -0.7651
 1742SOL    HW216689   2.437   0.421   8.672 -0.6003 -1.5798  0.5042
 1743SOL     OW16690   0.245   3.043   3.331  0.1378  0.0174  0.3618
 1743SOL    HW116691   0.168   3.079   3.375 -0.8548 -0.3903 -1.0435
 1743SOL    HW216692   0.224   2.950   3.347  0.5617  0.0505  1.1202
 1744SOL     OW16693   4.642   2.604   4.876 -0.7315 -0.5961  0.6959
 1744SOL    HW116694   4.553   2.638   4.864 -0.5147 -0.3703 -0.2719
 1744SOL    HW216695   4.641   2.511   4.855 -0.9858 -0.8630  1.9260
 1745SOL     OW16696   3.335   3.748   6.809 -0.3291  0.0803  0.5533
 1745SOL    HW116697   3.279   3.671   6.800 -0.3401  0.0527  0.8679
 1745SOL    HW216698   3.275   3.813   6.772 -0.5889 -0.6898 -0.3823
 1746SOL     OW16699   2.839   3.250  11.605 -0.4943 -0.1187  0.2105
 1746SOL    HW116700   2.830   3.156  11.624 -1.0067  0.1160  1.1440
 1746SOL    HW216701   2.751   3.280  11.585 -0.8033  0.9988  3.1996
 1747SOL     OW16702   0.156   2.594  17.637  0.3847  0.2178 -1.0077
 1747SOL    HW116703   0.138   2.652   0.025  1.2215  0.1694 -0.7683
 1747SOL    HW216704   0.091   2.525  17.647  0.0114  0.6356 -0.5622
 1748SOL     OW16705   1.320   3.168  10.691  0.1398 -0.1902 -0.2210
 1748SOL    HW116706   1.387   3.214  10.741 -0.9497  0.1434  0.9100
 1748SOL    HW216707   1.373   3.098  10.652 -2.1241 -0.9072 -1.9912
 1749SOL     OW16708   1.642   3.315   8.136  0.3315 -0.0916 -0.3896
 1749SOL    HW116709   1.666   3.304   8.228 -2.6050  1.0817  0.5277
 1749SOL    HW216710   1.697   3.389   8.110 -1.3802  1.5459  0.5809
 1750SOL     OW16711   0.471   0.733   5.022 -0.6263  0.4567  0.2075
 1750SOL    HW116712   0.478   0.640   5.042 -1.6629 -0.2679 -2.9061
 1750SOL    HW216713   0.404   0.742   5.089 -1.2179  0.2217 -0.3556
 1751SOL     OW16714   2.045   4.273  17.512 -0.1073  0.0468 -0.2881
 1751SOL    HW116715   2.002   4.273  17.597  0.5511  1.0054  0.0444
 1751SOL    HW216716   2.104   4.348  17.514 -2.2221  1.6707  0.7899
 1752SOL     OW16717   1.830   1.302   0.468 -0.6755 -0.2126  0.4650
 1752SOL    HW116718   1.886   1.374   0.440  0.7424 -1.2181  0.7301
 1752SOL    HW216719   1.890   1.257   0.527 -0.4740  0.8906  1.1045
 1753SOL     OW16720   4.154   2.181   5.191 -0.3677  0.2132 -0.2063
 1753SOL    HW116721   4.206   2.104   5.215  0.3198 -0.1832 -3.0584
 1753SOL    HW216722   4.071   2.137   5.170 -0.2452 -0.5686  0.9149
 1754SOL     OW16723   3.149   2.252  14.533 -0.2639  0.0351 -0.0572
 1754SOL    HW116724   3.061   2.224  14.510 -0.1969  0.1473 -0.4480
 1754SOL    HW216725   3.167   2.234  14.626  1.0112 -0.8749 -0.4776
 1755SOL     OW16726   2.496   1.146  12.996 -0.0809 -0.0720 -0.1341
 1755SOL    HW116727   2.590   1.127  13.000 -0.0652 -0.4941 -2.7086
 1755SOL    HW216728   2.476   1.206  13.068  1.6845  1.5326 -0.9824
 1756SOL     OW16729   3.507   2.753   6.829 -0.7055  0.4042  0.4484
 1756SOL    HW116730   3.520   2.667   6.869  0.1187 -0.4969 -1.7470
 1756SOL    HW216731   3.594   2.760   6.788  0.5127  1.6958  3.2454
 1757SOL     OW16732   3.065   1.846  16.282 -0.0639  0.3022  0.0075
 1757SOL    HW116733   3.127   1.865  16.352 -0.1300  0.6315 -0.0258
 1757SOL    HW216734   3.096   1.761  16.251  1.3844  0.7355  0.2868
 1758SOL     OW16735   2.435   3.828   9.118 -0.1316  0.0841 -0.2267
 1758SOL    HW116736   2.479   3.888   9.058 -0.3757  1.4689  0.9899
 1758SOL    HW216737   2.353   3.815   9.070 -0.9604 -0.9481  1.4666
 1759SOL     OW16738   4.093   4.249   6.069  0.0709  0.0430 -0.4667
 1759SOL    HW116739   3.998   4.247   6.083  0.2604 -0.4967  0.7498
 1759SOL    HW216740   4.109   4.307   5.994  2.1132  0.4672  0.3145
 1760SOL     OW16741   3.220   2.665   5.983 -0.2505  0.1577 -0.3612
 1760SOL    HW116742   3.257   2.601   5.922 -0.4584  1.2650 -1.6458
 1760SOL    HW216743   3.304   2.681   6.025 -0.9240 -0.6512  1.2911
 1761SOL     OW16744   1.992   2.561   2.252  0.3211  0.0487  0.4855
 1761SOL    HW116745   2.086   2.571   2.236  0.4505 -0.4457  0.9454
 1761SOL    HW216746   1.985   2.546   2.346 -0.1618 -0.5321  0.3534
 1762SOL     OW16747   4.501   0.299  16.974  0.4107  0.4182  0.0277
 1762SOL    HW116748   4.505   0.212  17.014 -0.5487  0.0386 -0.7017
 1762SOL    HW216749   4.469   0.345  17.052 -1.3088 -1.1309  0.2482
 1763SOL     OW16750   0.013   2.342  17.224  0.3681  0.2937 -0.4243
 1763SOL    HW116751   0.083   2.384  17.174  2.4713 -0.8156  1.5666
 1763SOL    HW216752   0.027   2.392  17.304  0.7458 -0.4561 -0.0185
 1764SOL     OW16753   3.366   3.529   6.150  0.3660 -0.0343 -0.0224
 1764SOL    HW116754   3.398   3.561   6.065  0.1483 -1.6757 -0.7310
 1764SOL    HW216755   3.272   3.548   6.145  0.4260  0.8053  2.2024
 1765SOL     OW16756   1.829   3.843  15.086  0.3951  0.4612  0.2237
 1765SOL    HW116757   1.892   3.817  15.154 -0.7126 -0.8660  0.7317
 1765SOL    HW216758   1.823   3.763  15.035  0.9510  0.4826  0.1202
 1766SOL     OW16759   3.555   2.130   8.767  0.1514 -0.3023 -0.1442
 1766SOL    HW116760   3.483   2.177   8.810 -0.4478 -1.0447 -0.3287
 1766SOL    HW216761   3.508   2.052   8.737  1.6183 -0.7075 -1.3923
 1767SOL     OW16762   2.345   0.877  17.311  0.4053 -0.1983  0.0400
 1767SOL    HW116763   2.413   0.830  17.358 -1.1767 -0.5260  1.9668
 1767SOL    HW216764   2.276   0.857  17.373  1.3432 -2.5279  0.3496
 1768SOL     OW16765   0.436   2.065   8.033  0.2919  0.0068  0.8229
 1768SOL    HW116766   0.437   2.107   8.119  0.4153  2.3807 -0.3366
 1768SOL    HW216767   0.529   2.047   8.022  1.2482  3.9468  2.4553
 1769SOL     OW16768   1.002   2.467   5.431 -0.0336  0.3645 -0.1604
 1769SOL    HW116769   0.938   2.483   5.362  2.0347 -0.4536 -2.2798
 1769SOL    HW216770   1.015   2.372   5.433 -0.8222  0.2990  2.0332
 1770SOL     OW16771   1.864   1.269   4.934 -0.6165  0.3334 -0.3830
 1770SOL    HW116772   1.835   1.227   4.853  2.0201 -3.1609  0.4467
 1770SOL    HW216773   1.957   1.277   4.912 -0.8794  1.8539 -0.8931
 1771SOL     OW16774   4.020   2.044   1.346  0.4123 -0.4904 -0.4800
 1771SOL    HW116775   3.945   2.051   1.406  1.2863 -1.5196  0.7312
 1771SOL    HW216776   4.012   2.132   1.308 -1.1537 -0.0533  0.8198
 1772SOL     OW16777   2.625   2.293   1.233 -0.0492 -0.1180  0.3678
 1772SOL    HW116778   2.662   2.249   1.156 -0.8969  0.6216 -0.4570
 1772SOL    HW216779   2.591   2.371   1.189  1.5752  0.3961  0.0172
 1773SOL     OW16780   4.105   0.769   2.185 -0.2547  0.0360 -0.1120
 1773SOL    HW116781   4.016   0.794   2.160 -0.8752 -1.1492  0.9451
 1773SOL    HW216782   4.104   0.822   2.265  0.4871 -0.8150  0.4729
 1774SOL     OW16783   2.777   0.167  15.287 -0.2302 -0.4526  0.4681
 1774SOL    HW116784   2.816   0.254  15.278  0.4389 -0.8140 -0.1294
 1774SOL    HW216785   2.700   0.198  15.336 -0.5200  2.0486 -1.5643
 1775SOL     OW16786   3.582   2.869   7.213 -0.2799 -0.4164 -0.2320
 1775SOL    HW116787   3.499   2.882   7.258 -0.6996 -1.4963 -0.7048
 1775SOL    HW216788   3.586   2.942   7.151  0.7306 -1.0753 -0.9379
 1776SOL     OW16789   3.357   3.173   7.219 -0.0393 -0.2637  0.2551
 1776SOL    HW116790   3.277   3.131   7.189  1.1102 -2.9839  0.9458
 1776SOL    HW216791   3.313   3.243   7.267 -0.2381  1.1033 -1.9044
 1777SOL     OW16792   0.035   3.909   4.884  0.2571 -0.1182  0.0769
 1777SOL    HW116793   0.129   3.894   4.879  0.1982 -1.2400  2.5592
 1777SOL    HW216794   0.010   3.899   4.792 -1.2677 -2.7725  0.7950
 1778SOL     OW16795   3.279   0.991  14.520  0.6447  0.0205  0.0703
 1778SOL    HW116796   3.286   1.068  14.577  0.5907  0.3667 -0.3846
 1778SOL    HW216797   3.354   0.937  14.545  1.5258  0.4745 -1.5281
 1779SOL     OW16798   0.677   1.787  15.960  1.0640 -0.4379 -0.1167
 1779SOL    HW116799   0.709   1.818  15.875  0.4504  1.0105  0.1843
 1779SOL    HW216800   0.583   1.773  15.946  1.5617 -1.7268 -2.2018
 1780SOL     OW16801   3.162   1.566   6.164 -0.5586  0.4222 -0.0276
 1780SOL    HW116802   3.139   1.535   6.252 -1.8874  0.8086 -0.2408
 1780SOL    HW216803   3.253   1.537   6.174 -0.8876 -1.2524 -1.9504
 1781SOL     OW16804   1.835   0.223   5.436  0.3743 -0.3901  0.2108
 1781SOL    HW116805   1.790   0.217   5.520  1.5656  1.4360  0.9896
 1781SOL    HW216806   1.787   0.301   5.406 -0.2270  0.0934  2.4229
 1782SOL     OW16807   1.169   3.134   1.517 -0.0684 -0.4570 -0.1134
 1782SOL    HW116808   1.081   3.172   1.520 -0.0322 -0.4082  0.2647
 1782SOL    HW216809   1.228   3.203   1.487 -0.9745  1.0077  1.4943
 1783SOL     OW16810   1.906   3.978   9.961  0.6902  0.2344 -0.6473
 1783SOL    HW116811   1.978   3.964   9.900  1.3001 -2.9364  0.8435
 1783SOL    HW216812   1.965   3.983  10.036 -1.4349 -1.4403  1.1600
 1784SOL     OW16813   0.770   2.864   6.281  0.0346 -0.4645 -0.3517
 1784SOL    HW116814   0.840   2.799   6.275 -0.2750 -0.6830 -1.5264
 1784SOL    HW216815   0.690   2.813   6.270 -0.7693  0.3724  1.5298
 1785SOL     OW16816   2.228   3.456  13.901 -0.1962  0.1893 -0.0053
 1785SOL    HW116817   2.137   3.458  13.872  0.3531 -2.4626 -1.9724
 1785SOL    HW216818   2.223   3.369  13.941  0.7404  0.4710  0.7331
 1786SOL     OW16819   3.325   4.301  15.215  0.3553  0.1875 -0.0323
 1786SOL    HW116820   3.316   4.297  15.120  2.2291  0.5745 -0.2391
 1786SOL    HW216821   3.269   4.375  15.238 -1.5684 -1.0258 -0.8670
 1787SOL     OW16822   0.045   3.137   4.778  0.0322 -0.4579  0.1968
 1787SOL    HW116823   0.039   3.045   4.805  1.7429 -1.0336 -1.3610
 1787SOL    HW216824   0.075   3.174   4.861  0.1864  1.4179 -0.7081
 1788SOL     OW16825   0.376   3.870   4.152 -0.0948  0.0588  0.2453
 1788SOL    HW116826   0.328   3.794   4.120 -0.2230 -0.1339  0.8840
 1788SOL    HW216827   0.311   3.926   4.195 -0.8246 -1.1965  0.7804
 1789SOL     OW16828   4.548   1.731   2.311  0.0953  0.3593  0.3482
 1789SOL    HW116829   4.455   1.749   2.328  0.0242  0.1303  0.2159
 1789SOL    HW216830   4.585   1.739   2.399 -1.1628  0.0859  0.9089
 1790SOL     OW16831   0.487   4.000   2.772  0.1534 -0.1951  1.1504
 1790SOL    HW116832   0.437   3.918   2.772  1.8052 -1.1894  0.5051
 1790SOL    HW216833   0.573   3.960   2.764 -0.3934 -0.3761 -3.5501
 1791SOL     OW16834   1.188   0.586   5.984  0.1229 -0.3054  0.2761
 1791SOL    HW116835   1.201   0.541   6.067  1.3499 -1.7814 -0.7239
 1791SOL    HW216836   1.098   0.615   6.001  0.5141  1.0291  0.0814
 1792SOL     OW16837   0.362   3.218  11.287  0.4650 -0.5851  0.2458
 1792SOL    HW116838   0.457   3.205  11.284  1.0914  4.0696 -0.2495
 1792SOL    HW216839   0.324   3.134  11.313  2.8514 -1.1528  1.8639
 1793SOL     OW16840   0.698   3.379   4.456  0.1996  0.1386 -0.7914
 1793SOL    HW116841   0.713   3.469   4.486 -0.2239 -0.1440  0.2654
 1793SOL    HW216842   0.653   3.338   4.530 -1.2655 -0.6627 -2.1358
 1794SOL     OW16843   0.958   3.419  14.926  0.2771 -0.0066 -0.3332
 1794SOL    HW116844   0.874   3.381  14.903  0.3222 -0.2758 -0.0690
 1794SOL    HW216845   0.982   3.363  15.001 -1.1736  0.6205  0.5991
 1795SOL     OW16846   1.066   3.146   6.403 -0.0119 -0.0051  0.3893
 1795SOL    HW116847   0.987   3.096   6.427  0.5951 -1.5885 -0.8991
 1795SOL    HW216848   1.081   3.188   6.488  2.0426 -0.5046  0.2623
 1796SOL     OW16849   1.895   1.853   5.336 -0.4802 -0.2663  0.3014
 1796SOL    HW116850   1.984   1.887   5.340 -0.2849 -0.6647 -0.5847
 1796SOL    HW216851   1.882   1.833   5.428 -1.9319  1.1695  0.3985
 1797SOL     OW16852   2.815   1.792   1.606  0.2556 -0.1458  0.3225
 1797SOL    HW116853   2.769   1.876   1.606 -0.7003 -0.6629  0.9435
 1797SOL    HW216854   2.752   1.725   1.579  0.3200 -0.8309  1.8691
 1798SOL     OW16855   2.733   3.489   5.612  0.0786 -0.0121 -1.1586
 1798SOL    HW116856   2.774   3.542   5.680 -2.3110 -0.8075  0.9215
 1798SOL    HW216857   2.805   3.430   5.592 -1.8140 -3.0556  0.9755
 1799SOL     OW16858   0.538   0.922  15.839 -0.1372  0.0908  0.3550
 1799SOL    HW116859   0.471   0.929  15.770 -1.0988  0.2671  1.3092
 1799SOL    HW216860   0.597   0.851  15.813  0.4650 -0.1773  2.5091
 1800SOL     OW16861   4.061   0.546  14.395  0.0874  0.5025 -0.1624
 1800SOL    HW116862   4.056   0.493  14.316  1.2809 -1.8054  1.2906
 1800SOL    HW216863   4.127   0.611  14.370 -0.2732  1.5601  1.6070
 1801SOL     OW16864   3.631   1.607   8.135  0.0242  0.3068  0.3587
 1801SOL    HW116865   3.573   1.531   8.123 -0.4421  0.9101 -1.1187
 1801SOL    HW216866   3.580   1.655   8.200 -0.2940  2.5679 -1.5745
 1802SOL     OW16867   0.921   1.983  17.107  0.2078 -0.2105  0.0937
 1802SOL    HW116868   0.945   2.067  17.146 -0.7860  0.4273 -0.6529
 1802SOL    HW216869   0.846   1.965  17.164  0.4561  0.4074  0.6161
 1803SOL     OW16870   0.503   4.242   2.927  0.1819  0.0783 -0.0305
 1803SOL    HW116871   0.501   4.160   2.877  1.1817  1.0933 -1.7235
 1803SOL    HW216872   0.452   4.217   3.004 -0.8185  1.7957 -0.1224
 1804SOL     OW16873   1.066   3.977   8.337 -0.1742 -0.3592 -0.2418
 1804SOL    HW116874   1.114   3.977   8.254 -0.7228 -0.8852 -0.5575
 1804SOL    HW216875   1.117   3.928   8.401  0.8151  2.8103  1.3708
 1805SOL     OW16876   3.261   4.574   7.266 -0.0771 -0.1401 -0.0163
 1805SOL    HW116877   3.274   4.491   7.220 -2.9250  0.4489 -1.8649
 1805SOL    HW216878   3.182   4.604   7.221 -0.3463  1.2647  1.3969
 1806SOL     OW16879   2.339   3.588  11.937  0.0444 -0.4862  0.3305
 1806SOL    HW116880   2.377   3.641  12.007  2.0599  0.1850 -1.2655
 1806SOL    HW216881   2.302   3.520  11.993  3.3957 -0.4960  2.5171
 1807SOL     OW16882   4.082   3.020  10.366 -0.3721  0.1114  0.1497
 1807SOL    HW116883   4.089   3.109  10.332  3.0644 -0.1122  0.2251
 1807SOL    HW216884   3.993   3.021  10.401 -0.5722  0.4136 -0.3735
 1808SOL     OW16885   2.810   1.288  16.342  0.6429  0.1249  0.0676
 1808SOL    HW116886   2.729   1.339  16.336  1.1314  0.7933 -0.7770
 1808SOL    HW216887   2.790   1.213  16.286 -1.4445  0.3206  0.5470
 1809SOL     OW16888   3.012   1.142   9.046  0.0303 -0.5421  0.7652
 1809SOL    HW116889   2.933   1.090   9.055 -0.0907 -0.0949  2.3358
 1809SOL    HW216890   3.060   1.115   9.124 -0.1790 -0.1124  1.0430
 1810SOL     OW16891   1.577   1.817   5.522  0.1534 -0.3927 -0.6269
 1810SOL    HW116892   1.662   1.785   5.492  0.3241  2.1693 -2.8455
 1810SOL    HW216893   1.567   1.763   5.601 -1.1480 -0.1936 -0.6487
 1811SOL     OW16894   2.516   1.507  13.655 -0.5238 -0.6005  0.3710
 1811SOL    HW116895   2.564   1.580  13.693 -2.4804 -0.1699  2.0454
 1811SOL    HW216896   2.557   1.438  13.708 -0.7875 -0.8982  0.1915
 1812SOL     OW16897   2.862   0.421   6.213 -0.1567  0.0790 -0.1844
 1812SOL    HW116898   2.796   0.416   6.143 -0.9685 -2.2462  0.7411
 1812SOL    HW216899   2.887   0.513   6.219 -1.0536  0.3172  0.0185
 1813SOL     OW16900   0.362   2.982   8.415  0.2738  0.0260 -0.6519
 1813SOL    HW116901   0.362   3.076   8.436 -1.8521 -0.5081  1.7340
 1813SOL    HW216902   0.330   2.949   8.499 -0.7319  1.0330 -0.6275
 1814SOL     OW16903   4.548   1.825  16.037 -0.3977  0.1748 -0.4933
 1814SOL    HW116904   4.511   1.741  16.067 -0.7711  0.4834 -0.0912
 1814SOL    HW216905   4.570   1.869  16.119 -0.2074  1.6810 -1.3593
 1815SOL     OW16906   4.302   2.091   5.825  0.0522 -0.4347 -0.2030
 1815SOL    HW116907   4.248   2.166   5.850  1.4238  0.2241  0.7980
 1815SOL    HW216908   4.284   2.098   5.731  1.2969 -3.4618 -0.6813
 1816SOL     OW16909   0.373   1.099  10.976  0.0450  0.1379  0.1185
 1816SOL    HW116910   0.338   1.184  10.950 -0.9100  0.6538  3.1605
 1816SOL    HW216911   0.353   1.093  11.069 -0.1920  0.0054  0.0594
 1817SOL     OW16912   0.733   4.559   1.960 -0.1465 -0.2944 -0.5319
 1817SOL    HW116913   0.657   4.507   1.986 -0.6405  0.3059 -0.7882
 1817SOL    HW216914   0.764   4.494   1.897  0.3891  0.2049 -0.7783
 1818SOL     OW16915   0.378   3.534   1.835 -0.1367  0.2647  0.3457
 1818SOL    HW116916   0.368   3.566   1.745  0.3902 -0.6817 -0.0518
 1818SOL    HW216917   0.474   3.531   1.835 -0.0767  1.9773  0.7719
 1819SOL     OW16918   3.776   2.004   4.835  0.2373  0.2601 -0.4299
 1819SOL    HW116919   3.744   2.059   4.907  1.4841 -0.0845  0.3808
 1819SOL    HW216920   3.717   1.929   4.843  0.9650 -0.2882 -0.1583
 1820SOL     OW16921   0.709   2.731  15.306  0.6974  0.8360  0.1462
 1820SOL    HW116922   0.656   2.810  15.313 -0.3084  0.2343 -0.6308
 1820SOL    HW216923   0.689   2.703  15.216 -0.6728  0.3382  0.5966
 1821SOL     OW16924   0.853   3.167  17.015  0.1199 -0.2029 -0.7314
 1821SOL    HW116925   0.876   3.205  16.930 -0.4360 -0.9557 -1.2137
 1821SOL    HW216926   0.759   3.179  17.032  0.3977 -0.6372  1.0655
 1822SOL     OW16927   2.402   0.465  15.871  0.4477  0.4205 -0.3231
 1822SOL    HW116928   2.404   0.530  15.801  2.2415  1.1084  0.3771
 1822SOL    HW216929   2.311   0.463  15.900  0.5762 -0.5189  0.0337
 1823SOL     OW16930   3.781   4.500   3.516  0.1391 -0.5587 -0.2619
 1823SOL    HW116931   3.802   4.554   3.440 -2.1720 -0.5495 -0.8683
 1823SOL    HW216932   3.693   4.465   3.510 -0.0202 -0.5212  1.9090
 1824SOL     OW16933   3.504   1.906   4.577  0.2362  0.6384 -0.0186
 1824SOL    HW116934   3.597   1.883   4.573  0.4449  1.5022 -0.1482
 1824SOL    HW216935   3.468   1.870   4.496 -0.1302 -1.7319  1.1854
 1825SOL     OW16936   2.891   3.873   3.785  0.0185 -0.1901  0.1567
 1825SOL    HW116937   2.945   3.806   3.826 -0.7424 -1.2620 -0.5892
 1825SOL    HW216938   2.810   3.861   3.836  0.6919  1.3815  1.5818
 1826SOL     OW16939   3.322   1.653  10.653 -0.0581 -0.2719 -0.0020
 1826SOL    HW116940   3.341   1.668  10.746  1.6151 -0.1763 -0.3558
 1826SOL    HW216941   3.377   1.576  10.636 -0.3949 -0.5749  0.2613
 1827SOL     OW16942   2.086   4.176   4.310  0.0955  0.1488 -0.1621
 1827SOL    HW116943   2.112   4.247   4.253  3.4799  0.1532  1.4158
 1827SOL    HW216944   2.005   4.224   4.328  0.5043  1.1068 -0.9213
 1828SOL     OW16945   2.896   3.105   5.856 -0.0987  0.5373  0.0266
 1828SOL    HW116946   2.978   3.072   5.891 -0.5310 -2.3024 -1.6382
 1828SOL    HW216947   2.851   3.026   5.826  1.0689 -0.1474  0.0796
 1829SOL     OW16948   0.735   2.304   4.910  0.6573  0.2444 -0.2434
 1829SOL    HW116949   0.794   2.357   4.855 -1.3858  3.0605  0.2842
 1829SOL    HW216950   0.766   2.214   4.900  1.1346  0.4446 -0.5652
 1830SOL     OW16951   1.632   1.730   6.792  0.4411 -0.0048 -0.3214
 1830SOL    HW116952   1.719   1.768   6.784 -0.9638  3.0059 -1.2000
 1830SOL    HW216953   1.583   1.811   6.806 -0.0751 -0.5465  0.9775
 1831SOL     OW16954   3.229   3.156  17.373 -0.6831 -0.0689  0.2228
 1831SOL    HW116955   3.277   3.142  17.454 -1.0099  1.7644  0.7224
 1831SOL    HW216956   3.151   3.102  17.388  1.1094 -2.7922 -0.3219
 1832SOL     OW16957   1.150   2.793  11.653 -0.3956  0.1115 -0.1992
 1832SOL    HW116958   1.214   2.829  11.592  0.1380 -2.8442 -1.3723
 1832SOL    HW216959   1.124   2.706  11.622 -2.1690  0.4839  0.2527
 1833SOL     OW16960   3.438   2.291   6.747 -0.6545  0.3800 -0.0329
 1833SOL    HW116961   3.514   2.347   6.734 -0.2426 -0.1126  0.2882
 1833SOL    HW216962   3.459   2.253   6.832 -2.3818 -1.8073 -0.5748
 1834SOL     OW16963   4.490   1.474   7.019 -0.0370 -0.3420  0.5718
 1834SOL    HW116964   4.452   1.514   7.098 -1.0282  1.5611 -0.8747
 1834SOL    HW216965   4.412   1.477   6.964 -0.1041  0.3814  0.7097
 1835SOL     OW16966   1.667   2.956   3.239  0.0018 -0.2662 -0.3091
 1835SOL    HW116967   1.763   2.961   3.241 -0.0841  1.6104 -1.2563
 1835SOL    HW216968   1.665   2.997   3.153  0.2340  0.8469  0.2187
 1836SOL     OW16969   3.446   1.123   4.649  0.1665 -0.0687  0.2525
 1836SOL    HW116970   3.468   1.216   4.640 -0.4695 -0.1118 -1.7122
 1836SOL    HW216971   3.532   1.081   4.656  0.3687  0.0312 -1.8407
 1837SOL     OW16972   4.389   4.469   7.917  0.4128  0.1946  0.0822
 1837SOL    HW116973   4.458   4.437   7.975  2.6858  3.9075 -0.5301
 1837SOL    HW216974   4.431   4.513   7.843  0.3672 -1.6270 -1.0366
 1838SOL     OW16975   4.321   1.811   4.990  0.2836  0.2886  0.1780
 1838SOL    HW116976   4.360   1.835   4.906 -1.8700  1.5929 -0.4224
 1838SOL    HW216977   4.387   1.847   5.049 -0.1947 -0.8695  1.4367
 1839SOL     OW16978   2.285   2.747   5.477  0.0459  0.0154  0.0240
 1839SOL    HW116979   2.300   2.761   5.383  0.1970  1.5411  0.2752
 1839SOL    HW216980   2.192   2.764   5.492 -0.3860 -2.0193 -0.3386
 1840SOL     OW16981   2.233   4.319   3.315  1.0661 -0.5266  0.3739
 1840SOL    HW116982   2.233   4.405   3.273 -2.0527 -1.1019 -0.7969
 1840SOL    HW216983   2.155   4.280   3.276 -0.5673  2.4508  0.5731
 1841SOL     OW16984   2.351   0.813   5.809 -0.0405 -0.1823  0.1877
 1841SOL    HW116985   2.369   0.867   5.732  1.5461 -1.1521 -0.1333
 1841SOL    HW216986   2.312   0.874   5.872  1.0125 -1.2478  1.8788
 1842SOL     OW16987   0.329   3.428   4.237 -0.7671  0.2723 -0.0629
 1842SOL    HW116988   0.386   3.351   4.234 -1.5268 -0.4429  4.2748
 1842SOL    HW216989   0.253   3.389   4.280 -0.6245 -0.9310 -0.8993
 1843SOL     OW16990   2.504   3.754   0.691  0.4005  0.4337  0.0330
 1843SOL    HW116991   2.597   3.737   0.676 -0.3630 -0.4759 -3.7265
 1843SOL    HW216992   2.480   3.746   0.599 -0.3717 -0.3926  0.3119
 1844SOL     OW16993   3.709   2.779   4.578 -0.0605  0.6913  0.2710
 1844SOL    HW116994   3.647   2.829   4.630  0.0104 -0.8114  1.8018
 1844SOL    HW216995   3.664   2.730   4.508  1.8353  0.8204 -1.0208
 1845SOL     OW16996   4.700   0.996  15.836 -0.1815 -0.1158 -0.3019
 1845SOL    HW116997   4.705   1.063  15.769 -0.0010 -0.2910 -0.4637
 1845SOL    HW216998   4.659   1.040  15.911  2.0174  1.4459 -0.0414
 1846SOL     OW16999   2.827   3.909  14.553 -0.3878  0.3301 -0.4096
 1846SOL    HW117000   2.836   3.885  14.461 -1.7828 -2.9766  0.2880
 1846SOL    HW217001   2.884   3.986  14.560 -0.0314  0.1146 -0.9082
 1847SOL     OW17002   2.360   3.377   6.091 -0.1692  0.1481 -0.2391
 1847SOL    HW117003   2.320   3.432   6.024 -0.6135 -0.8521 -0.7931
 1847SOL    HW217004   2.310   3.408   6.167  0.2988  0.5911 -0.1131
 1848SOL     OW17005   3.482   0.797   0.621  0.0279  0.1966 -0.1783
 1848SOL    HW117006   3.515   0.857   0.688 -0.4384 -0.2582  0.4619
 1848SOL    HW217007   3.538   0.819   0.547 -0.3197 -1.3322 -0.8853
 1849SOL     OW17008   0.909   1.615   2.891  0.2633 -0.1312 -0.0682
 1849SOL    HW117009   0.886   1.678   2.823 -0.4682 -1.1386 -0.7616
 1849SOL    HW217010   0.817   1.609   2.919 -0.3165  0.7643 -1.7962
 1850SOL     OW17011   3.961   0.462   1.402 -0.2390 -0.0247  0.0628
 1850SOL    HW117012   3.969   0.475   1.496  2.4485 -1.3543 -0.0066
 1850SOL    HW217013   4.026   0.521   1.365 -2.8294  2.3478 -0.7491
 1851SOL     OW17014   2.734   4.490   7.792  0.1159 -0.2020  0.1479
 1851SOL    HW117015   2.723   4.523   7.702 -0.4516  0.3364  0.4198
 1851SOL    HW217016   2.813   4.543   7.802 -0.4049  0.5802  0.0724
 1852SOL     OW17017   2.549   3.834   7.144 -0.4323 -0.1255  0.9396
 1852SOL    HW117018   2.587   3.922   7.133  3.3762 -1.6368  1.8640
 1852SOL    HW217019   2.457   3.853   7.161 -0.1561  1.6850  0.4604
 1853SOL     OW17020   0.477   1.308   4.260 -0.1479  0.5295  0.2059
 1853SOL    HW117021   0.389   1.323   4.294 -0.6940 -2.2191 -0.0439
 1853SOL    HW217022   0.477   1.213   4.255 -0.2430  0.5028  0.7514
 1854SOL     OW17023   4.717   3.233  14.302 -0.4135  0.2955  0.1138
 1854SOL    HW117024   0.003   3.328  14.312  0.8639  0.1071  1.2133
 1854SOL    HW217025   0.043   3.219  14.220  2.7868  0.8311  1.8062
 1855SOL     OW17026   4.384   3.069   6.499  0.0567  0.5711 -0.3048
 1855SOL    HW117027   4.476   3.088   6.517 -0.0901 -1.0257  2.2313
 1855SOL    HW217028   4.394   3.042   6.408  1.6002  1.8152 -0.5032
 1856SOL     OW17029   0.271   0.009   1.068 -0.3025 -1.2180  0.1617
 1856SOL    HW117030   0.210   4.711   0.997 -3.5739 -1.0905  2.9581
 1856SOL    HW217031   0.218   0.069   1.119  1.4045  0.5019 -0.0916
 1857SOL     OW17032   3.270   3.143   0.196  0.0356 -0.1137  0.1482
 1857SOL    HW117033   3.288   3.153   0.290  1.0614  1.2440 -0.1968
 1857SOL    HW217034   3.242   3.052   0.198  1.2666 -0.4818  0.3266
 1858SOL     OW17035   2.665   0.716  15.857  0.3927 -0.2481  0.3835
 1858SOL    HW117036   2.677   0.746  15.948 -0.3140 -0.1944  0.4564
 1858SOL    HW217037   2.573   0.692  15.867  0.3547 -0.5005 -0.6657
 1859SOL     OW17038   0.366   3.439   6.104 -0.4934 -0.1212  0.3984
 1859SOL    HW117039   0.451   3.403   6.079 -0.4351  2.0511 -2.5942
 1859SOL    HW217040   0.335   3.359   6.146  0.3655  0.2731  1.7733
 1860SOL     OW17041   4.582   1.942   3.472  0.1432 -0.0843  0.2640
 1860SOL    HW117042   4.582   1.964   3.379 -1.1563 -2.9594 -0.4068
 1860SOL    HW217043   4.567   1.850   3.455 -1.0981  0.3001 -0.6779
 1861SOL     OW17044   2.937   1.525  10.916  0.0053  0.4729  0.5905
 1861SOL    HW117045   2.905   1.537  10.826 -0.8214  0.4423  0.8851
 1861SOL    HW217046   2.880   1.585  10.963 -0.1043 -1.4402  2.8723
 1862SOL     OW17047   4.068   1.055   4.924  0.2324  0.2022  0.5107
 1862SOL    HW117048   4.070   0.977   4.868 -0.6122 -0.9674  2.0813
 1862SOL    HW217049   4.114   1.130   4.887 -0.4520  1.1914  1.6372
 1863SOL     OW17050   4.040   3.200   1.080 -0.2314 -0.0579  0.1001
 1863SOL    HW117051   3.984   3.139   1.127 -1.2362  0.9614  0.2181
 1863SOL    HW217052   3.999   3.283   1.101 -2.7692 -1.1092 -0.6904
 1864SOL     OW17053   0.541   1.133   7.640  0.1058  0.1154  0.2169
 1864SOL    HW117054   0.558   1.072   7.712 -2.8639 -0.3134  0.5703
 1864SOL    HW217055   0.510   1.212   7.684  2.0853  1.5436 -0.9450
 1865SOL     OW17056   0.404   4.668   3.527  0.2310 -0.6053 -0.0382
 1865SOL    HW117057   0.402   4.572   3.529 -1.0622 -0.5515  1.4758
 1865SOL    HW217058   0.313   4.682   3.499  0.4271  1.5186  0.4378
 1866SOL     OW17059   2.383   3.432   8.350 -0.0819  0.3948 -0.0963
 1866SOL    HW117060   2.293   3.408   8.327 -0.7659 -0.2627  3.3470
 1866SOL    HW217061   2.369   3.473   8.435  0.2764  0.6307 -0.1522
 1867SOL     OW17062   3.255   1.841   4.046 -0.1366 -0.3879  0.7343
 1867SOL    HW117063   3.297   1.831   4.131 -0.1879  1.9984  1.0449
 1867SOL    HW217064   3.273   1.761   3.997  1.5938 -0.1388  0.9437
 1868SOL     OW17065   1.444   2.509  12.674  0.1399 -0.5424 -0.6428
 1868SOL    HW117066   1.431   2.433  12.731 -1.6669  0.5289  0.3591
 1868SOL    HW217067   1.445   2.585  12.732  0.0105 -1.1891  0.1980
 1869SOL     OW17068   3.861   1.644  15.063  0.3759  0.0500 -0.0992
 1869SOL    HW117069   3.847   1.729  15.020  1.7873  0.0704 -0.5135
 1869SOL    HW217070   3.867   1.668  15.155  1.0186 -1.9232  0.3723
 1870SOL     OW17071   2.981   3.081  10.290 -0.5602  0.3717  0.2019
 1870SOL    HW117072   2.922   3.007  10.300 -2.2447  1.5608 -0.8655
 1870SOL    HW217073   2.946   3.122  10.211 -1.2117  1.9634  1.3014
 1871SOL     OW17074   0.835   3.348   5.772 -0.5279 -0.1813  0.0613
 1871SOL    HW117075   0.819   3.287   5.844 -0.7963 -0.7907 -0.5138
 1871SOL    HW217076   0.921   3.384   5.794 -0.8809  1.1042 -0.6586
 1872SOL     OW17077   4.474   0.813   4.924 -0.4982 -0.8019  0.1821
 1872SOL    HW117078   4.432   0.855   5.000  0.6459  0.0950  0.3243
 1872SOL    HW217079   4.471   0.724   4.957 -0.2765 -0.3527  1.4223
 1873SOL     OW17080   1.424   1.021   1.922 -0.2011  0.8228  0.1539
 1873SOL    HW117081   1.488   0.967   1.968 -0.3147  1.5782  1.2168
 1873SOL    HW217082   1.474   1.102   1.910  2.4833 -0.9228 -0.3724
 1874SOL     OW17083   1.462   3.751   3.700 -0.2271 -0.9066  0.1894
 1874SOL    HW117084   1.544   3.713   3.732  1.1408 -0.0767 -2.3000
 1874SOL    HW217085   1.413   3.670   3.686 -1.1494 -0.3182 -0.0286
 1875SOL     OW17086   2.266   3.389   0.023  0.0654  0.9137 -0.3656
 1875SOL    HW117087   2.322   3.328   0.071 -1.7998 -0.8258 -0.3995
 1875SOL    HW217088   2.339   3.440  17.674  0.1107  1.7141  0.9034
 1876SOL     OW17089   3.401   1.229  17.138  0.4385 -0.2349 -0.3917
 1876SOL    HW117090   3.346   1.168  17.188  1.7323  0.1058  1.4720
 1876SOL    HW217091   3.386   1.313  17.181  0.9124 -1.2083  1.7283
 1877SOL     OW17092   4.045   0.850  10.025 -0.3937 -0.8444 -0.3505
 1877SOL    HW117093   4.041   0.809   9.938 -0.7098 -1.4971 -0.0322
 1877SOL    HW217094   4.111   0.791  10.063 -1.3535 -0.6361  1.6286
 1878SOL     OW17095   2.701   2.908   4.774 -0.3126  0.2573 -0.2181
 1878SOL    HW117096   2.653   2.828   4.750 -1.3270  0.2715  1.7428
 1878SOL    HW217097   2.772   2.869   4.824  0.0538  0.1137 -0.8492
 1879SOL     OW17098   2.549   2.979   5.970 -0.2835  0.3648  0.1036
 1879SOL    HW117099   2.520   3.049   5.911  0.3809  0.2503 -0.3689
 1879SOL    HW217100   2.618   2.945   5.913  1.6383  1.9545  1.4659
 1880SOL     OW17101   0.697   2.689   8.143 -0.3976 -0.3434  0.6948
 1880SOL    HW117102   0.609   2.700   8.180 -0.7557  0.2424 -0.3416
 1880SOL    HW217103   0.747   2.714   8.220 -1.4988  0.1463  1.2585
 1881SOL     OW17104   1.655   1.922   5.201 -0.1164  0.2923 -0.0644
 1881SOL    HW117105   1.642   2.002   5.252 -1.1582 -0.0445  0.1850
 1881SOL    HW217106   1.742   1.900   5.234 -0.0812  3.2345  1.7348
 1882SOL     OW17107   3.349   0.160   1.036 -0.1599 -0.2547  0.0114
 1882SOL    HW117108   3.394   0.243   1.048  0.3205 -0.5315  0.0970
 1882SOL    HW217109   3.360   0.114   1.119  1.4316 -1.2908 -0.7805
 1883SOL     OW17110   3.311   0.894  16.137  0.3149 -0.6686 -0.0452
 1883SOL    HW117111   3.226   0.868  16.173  0.3561  1.4310  1.5522
 1883SOL    HW217112   3.370   0.834  16.183 -1.3797 -2.6530 -0.4382
 1884SOL     OW17113   3.641   2.594   2.896  0.0117 -0.1046 -0.0949
 1884SOL    HW117114   3.595   2.539   2.832 -0.8860  0.6879 -0.1288
 1884SOL    HW217115   3.672   2.664   2.838 -0.6019 -0.0835 -0.4064
 1885SOL     OW17116   2.264   3.507   7.477 -0.2260  0.0178  0.2133
 1885SOL    HW117117   2.217   3.426   7.455  1.5946 -1.3694  1.4705
 1885SOL    HW217118   2.197   3.572   7.458 -0.6325 -0.0058  1.6138
 1886SOL     OW17119   4.644   0.610  16.473 -0.9545  0.0476 -0.2081
 1886SOL    HW117120   4.633   0.519  16.502  1.6874 -0.2657 -0.1630
 1886SOL    HW217121   0.017   0.625  16.483 -0.4674 -2.5779 -0.7753
 1887SOL     OW17122   0.225   4.526   2.383 -0.2371  0.0571 -0.1880
 1887SOL    HW117123   0.157   4.460   2.370  1.3334 -1.8253  1.1097
 1887SOL    HW217124   0.226   4.558   2.292 -0.6373 -0.8561 -0.5112
 1888SOL     OW17125   4.483   4.525   5.276  0.9335 -0.3516 -0.1886
 1888SOL    HW117126   4.484   4.585   5.351  1.4971  0.4057 -0.8041
 1888SOL    HW217127   4.542   4.460   5.314 -1.1104 -0.6533  2.4927
 1889SOL     OW17128   3.480   4.315   3.262  0.4813 -0.2598  0.0215
 1889SOL    HW117129   3.454   4.280   3.177 -2.0588  0.1566  0.6355
 1889SOL    HW217130   3.562   4.357   3.236  1.7921 -2.1413  1.0393
 1890SOL     OW17131   1.049   0.281   9.777  0.2337 -0.4918 -0.0663
 1890SOL    HW117132   0.986   0.303   9.845 -0.1672  2.9267 -1.5669
 1890SOL    HW217133   1.005   0.325   9.704 -1.3336 -0.9664  0.5901
 1891SOL     OW17134   4.272   0.276   1.619  0.0523  0.7635 -0.3633
 1891SOL    HW117135   4.234   0.320   1.695  0.8683 -1.4041  1.2845
 1891SOL    HW217136   4.219   0.196   1.620  2.6555 -0.9860 -2.6211
 1892SOL     OW17137   3.843   2.766   5.605 -0.2886  0.1941  0.1533
 1892SOL    HW117138   3.774   2.717   5.560 -1.4743  0.9973  1.1031
 1892SOL    HW217139   3.889   2.694   5.648 -0.6331 -1.3281 -2.0743
 1893SOL     OW17140   1.609   3.529   3.170 -0.4569 -0.0540 -0.5158
 1893SOL    HW117141   1.610   3.441   3.207 -0.2775 -0.1249 -0.6944
 1893SOL    HW217142   1.586   3.515   3.078  2.7576  3.1018 -1.7898
 1894SOL     OW17143   3.318   1.371   7.529 -0.6096 -0.6922 -0.3172
 1894SOL    HW117144   3.326   1.293   7.583 -1.7549 -0.3386  0.3653
 1894SOL    HW217145   3.242   1.355   7.474 -0.7980 -1.6431  0.2213
 1895SOL     OW17146   1.954   1.077  10.251 -0.8814  0.1774 -0.0256
 1895SOL    HW117147   2.029   1.054  10.196 -0.3996  1.6655  0.0120
 1895SOL    HW217148   1.952   1.172  10.242  0.1010  0.0406 -1.7176
 1896SOL     OW17149   4.049   4.519   5.282  0.5057 -0.2295  0.3265
 1896SOL    HW117150   3.971   4.573   5.270 -0.1662 -0.8505  1.9142
 1896SOL    HW217151   4.019   4.440   5.238  1.4412 -1.1458  1.3359
 1897SOL     OW17152   3.958   1.913   7.777  0.0756 -0.2359  0.6189
 1897SOL    HW117153   3.901   1.893   7.851 -1.1857  1.4043  0.0903
 1897SOL    HW217154   3.982   2.005   7.793  1.3956 -0.3856 -0.4744
 1898SOL     OW17155   3.558   0.873   4.491 -0.2382 -0.4436  0.2483
 1898SOL    HW117156   3.620   0.942   4.512  0.3970 -0.9928  0.1776
 1898SOL    HW217157   3.577   0.870   4.397  0.8892 -0.3174  0.4785
 1899SOL     OW17158   2.907   1.233   5.580 -0.3902 -0.0845  0.4352
 1899SOL    HW117159   2.889   1.159   5.639 -0.5247  0.5010  1.1363
 1899SOL    HW217160   2.957   1.194   5.509  0.6093 -0.3034  1.2571
 1900SOL     OW17161   2.634   2.289  17.209  0.3354  0.9781  0.0718
 1900SOL    HW117162   2.677   2.293  17.123  0.7530 -3.0929  0.0695
 1900SOL    HW217163   2.550   2.260  17.172  0.8372 -2.0156  1.3005
 1901SOL     OW17164   2.627   1.485  16.320  0.0365 -0.0326  0.0028
 1901SOL    HW117165   2.638   1.578  16.340 -0.0657  0.2939 -1.4880
 1901SOL    HW217166   2.537   1.476  16.351 -0.4347 -0.6634 -1.5577
 1902SOL     OW17167   2.213   1.521   0.685 -0.1715 -0.2676  0.0271
 1902SOL    HW117168   2.142   1.459   0.700 -0.1360  0.0408  1.3968
 1902SOL    HW217169   2.283   1.494   0.743 -1.8610 -2.7938  0.9120
 1903SOL     OW17170   3.514   4.377  13.850 -0.0602  0.3291 -0.0526
 1903SOL    HW117171   3.423   4.398  13.833 -1.0674 -2.3797  1.9518
 1903SOL    HW217172   3.522   4.291  13.809  0.4283  0.2613  0.1831
 1904SOL     OW17173   2.149   3.344   4.633  0.2456 -0.7402 -0.1985
 1904SOL    HW117174   2.214   3.321   4.567 -1.5659 -1.5655 -1.6996
 1904SOL    HW217175   2.164   3.287   4.708  0.0110 -0.3035  0.1833
 1905SOL     OW17176   0.251   3.012  15.054  0.0241 -0.4679  1.0480
 1905SOL    HW117177   0.174   2.994  15.109  2.2978 -1.3708  3.9458
 1905SOL    HW217178   0.304   2.934  15.073  1.6417  0.0864 -1.3395
 1906SOL     OW17179   2.329   1.231   2.608 -0.8178  0.2351 -0.1220
 1906SOL    HW117180   2.312   1.227   2.514  0.9684 -0.2670 -0.4232
 1906SOL    HW217181   2.416   1.191   2.604 -1.3652 -0.8354 -1.2184
 1907SOL     OW17182   0.121   4.369   5.430 -0.2769  0.4562 -0.1329
 1907SOL    HW117183   0.041   4.323   5.404  2.1885 -1.8729 -3.4823
 1907SOL    HW217184   0.188   4.304   5.407  1.0909  1.4478  1.0496
 1908SOL     OW17185   2.074   2.643   8.647  0.3647 -0.1467 -0.6898
 1908SOL    HW117186   2.009   2.584   8.685 -0.7908  0.5184 -1.6431
 1908SOL    HW217187   2.144   2.581   8.670  1.1201  1.1950  0.6115
 1909SOL     OW17188   0.559   2.436   8.641  0.2554 -0.0112 -0.2044
 1909SOL    HW117189   0.584   2.513   8.692 -1.4572  0.0595  0.5280
 1909SOL    HW217190   0.502   2.403   8.710  0.6838 -0.8412 -0.2554
 1910SOL     OW17191   1.866   0.672   4.968 -0.0352  0.4890  0.5410
 1910SOL    HW117192   1.848   0.718   4.886 -3.0556 -0.2402  0.7864
 1910SOL    HW217193   1.926   0.733   5.011  0.1150  0.2694  0.6393
 1911SOL     OW17194   3.209   4.463   7.866 -0.0278 -0.5372 -0.2193
 1911SOL    HW117195   3.280   4.454   7.929 -0.4011 -0.7896  0.1654
 1911SOL    HW217196   3.259   4.469   7.785 -2.4184  2.5015 -1.4660
 1912SOL     OW17197   3.707   2.094   3.984 -0.0008 -0.0000 -0.4825
 1912SOL    HW117198   3.701   2.187   3.961 -0.4915 -0.3818 -1.9206
 1912SOL    HW217199   3.613   2.084   4.001  0.3520 -1.6497  0.4668
 1913SOL     OW17200   3.521   3.355   4.794  0.0845 -0.3229 -0.5685
 1913SOL    HW117201   3.504   3.445   4.769 -2.7994 -0.2285  1.6309
 1913SOL    HW217202   3.614   3.349   4.774  0.6368 -0.8609  2.1253
 1914SOL     OW17203   3.271   2.669   5.036  0.1277  0.6376  0.4608
 1914SOL    HW117204   3.296   2.599   4.975  0.3432  0.3701  0.8489
 1914SOL    HW217205   3.325   2.741   5.005 -0.7042  0.7476 -0.7184
 1915SOL     OW17206   0.741   0.353   3.551 -0.1708 -0.0424 -0.1097
 1915SOL    HW117207   0.738   0.270   3.503  0.3486 -0.6726  0.9484
 1915SOL    HW217208   0.813   0.395   3.505  0.3094 -0.7426 -0.0036
 1916SOL     OW17209   2.099   0.188   1.318  0.1820  0.9662  0.0874
 1916SOL    HW117210   2.167   0.125   1.342 -1.7534 -1.8783 -1.8516
 1916SOL    HW217211   2.046   0.187   1.397  1.5145 -1.2850  0.9679
 1917SOL     OW17212   0.987   4.028   5.416 -0.0377  0.0460 -0.2472
 1917SOL    HW117213   0.898   3.994   5.424 -0.8628  1.8362 -1.8015
 1917SOL    HW217214   1.019   3.972   5.346 -0.4806  1.5457 -1.6632
 1918SOL     OW17215   4.720   3.073   2.490 -0.1254  0.0353  0.4933
 1918SOL    HW117216   0.048   3.114   2.418 -1.8534  1.0402 -0.1142
 1918SOL    HW217217   0.050   3.112   2.560  3.3847 -0.6448 -1.6771
 1919SOL     OW17218   3.819   2.926   6.104 -0.1331  0.2134 -0.5107
 1919SOL    HW117219   3.887   2.900   6.166 -3.3448 -1.1648  2.3741
 1919SOL    HW217220   3.820   2.853   6.042 -2.0658 -0.3668  0.1563
 1920SOL     OW17221   4.518   3.602   2.843 -0.4887 -0.0927  0.1744
 1920SOL    HW117222   4.458   3.577   2.772 -1.5223  3.6010 -0.2323
 1920SOL    HW217223   4.563   3.673   2.797  1.5046 -1.3143  0.2399
 1921SOL     OW17224   4.597   1.967  16.266 -0.3713 -0.5452 -0.2623
 1921SOL    HW117225   4.536   2.033  16.299  1.7044  1.8013 -1.0467
 1921SOL    HW217226   4.668   1.975  16.330 -0.7049 -0.6586  0.1174
 1922SOL     OW17227   0.037   1.409  10.093  0.1231  0.0835  0.1846
 1922SOL    HW117228   0.079   1.325  10.077  0.6351  0.2165  0.7900
 1922SOL    HW217229   0.108   1.473  10.081  0.4564 -0.3596 -0.1729
 1923SOL     OW17230   3.738   4.088  13.776  0.0611 -0.3551  0.0315
 1923SOL    HW117231   3.679   4.038  13.833  1.2748 -1.7115  0.0883
 1923SOL    HW217232   3.720   4.049  13.690 -2.6073  1.7649 -0.3916
 1924SOL     OW17233   3.544   4.305   0.569 -0.0329  0.0304  0.3128
 1924SOL    HW117234   3.508   4.325   0.482 -0.4104 -2.3464 -0.0713
 1924SOL    HW217235   3.554   4.386   0.618 -0.0439 -1.5106  2.8163
 1925SOL     OW17236   2.527   2.474   1.050  0.5978 -0.3721 -0.4211
 1925SOL    HW117237   2.475   2.463   0.970 -0.9710  0.4376  0.4864
 1925SOL    HW217238   2.533   2.569   1.058  0.6629 -0.1879 -2.6453
 1926SOL     OW17239   4.252   2.131   0.796 -0.2186 -0.7786  0.0572
 1926SOL    HW117240   4.212   2.143   0.710  2.2149 -0.5075 -1.0449
 1926SOL    HW217241   4.286   2.041   0.795 -0.4009 -0.8596  1.6324
 1927SOL     OW17242   3.852   2.222   6.693  0.4758 -0.2532  0.6919
 1927SOL    HW117243   3.920   2.164   6.728  0.8726 -0.2270 -0.0394
 1927SOL    HW217244   3.887   2.244   6.607 -1.8056  1.4223  0.1923
 1928SOL     OW17245   1.643   0.792   8.378  0.4499 -0.3166  0.4416
 1928SOL    HW117246   1.733   0.815   8.354  0.6223 -0.2108  1.1664
 1928SOL    HW217247   1.665   0.763   8.467  1.2016  1.2464  0.7812
 1929SOL     OW17248   2.506   4.653   1.700 -0.3175  0.4175 -0.7765
 1929SOL    HW117249   2.537   4.705   1.626 -1.7151  2.2813 -0.0744
 1929SOL    HW217250   2.577   4.601   1.736 -2.2777 -2.4934 -1.1340
 1930SOL     OW17251   2.737   2.346  17.583  0.1036 -0.5237 -0.2525
 1930SOL    HW117252   2.823   2.385  17.565 -0.0604 -0.5068 -0.9835
 1930SOL    HW217253   2.754   2.269  17.639 -1.6857  0.8161  2.1153
 1931SOL     OW17254   3.547   1.059   3.593  0.4769 -0.4354 -0.5277
 1931SOL    HW117255   3.533   1.115   3.517 -0.2394 -0.8652 -0.7103
 1931SOL    HW217256   3.520   0.974   3.558 -0.4763  0.0463 -0.9407
 1932SOL     OW17257   0.986   3.870   2.824  0.0911 -0.5784  0.1558
 1932SOL    HW117258   0.966   3.817   2.902  4.2726 -0.0503  1.5623
 1932SOL    HW217259   0.995   3.959   2.859  0.9614 -0.7264  0.2856
 1933SOL     OW17260   0.016   0.250   3.129  0.2151  0.1483  0.7680
 1933SOL    HW117261   0.029   0.336   3.168  0.3381  1.9297 -3.1569
 1933SOL    HW217262   0.102   0.214   3.109  1.3203  2.2850  1.6866
 1934SOL     OW17263   1.926   2.172   5.099 -0.2171 -0.2429 -0.0718
 1934SOL    HW117264   2.001   2.137   5.148 -0.0150 -0.3959 -0.4906
 1934SOL    HW217265   1.909   2.100   5.039 -0.2043 -0.7786  0.5748
 1935SOL     OW17266   3.318   1.884   0.879  0.0791 -0.5026 -0.0457
 1935SOL    HW117267   3.346   1.952   0.939 -0.0637  1.0613 -1.7274
 1935SOL    HW217268   3.339   1.924   0.794 -2.5703 -1.7712 -1.3282
 1936SOL     OW17269   3.236   3.963  13.141  0.3480 -0.6463 -0.7187
 1936SOL    HW117270   3.245   3.997  13.052 -0.3819  2.2515  0.3158
 1936SOL    HW217271   3.317   4.005  13.170  0.7919 -2.5340  0.7666
 1937SOL     OW17272   0.916   1.708  16.430  0.0660 -0.0332 -0.5174
 1937SOL    HW117273   0.941   1.770  16.498 -2.9981 -0.6750  1.1830
 1937SOL    HW217274   0.973   1.743  16.361 -0.2279 -1.3168 -1.4147
 1938SOL     OW17275   3.756   3.645   5.763 -0.3155 -0.1495  0.1006
 1938SOL    HW117276   3.851   3.636   5.755 -0.2825  0.7908 -0.5477
 1938SOL    HW217277   3.732   3.563   5.806 -1.6288 -0.6221 -1.5328
 1939SOL     OW17278   1.730   2.876  17.209  0.1365 -0.2438  0.7186
 1939SOL    HW117279   1.665   2.924  17.260  0.8620 -0.4750  1.8740
 1939SOL    HW217280   1.789   2.846  17.278 -0.0244  0.7818  1.2999
 1940SOL     OW17281   0.031   0.514   2.196  0.0418 -0.0436  0.4028
 1940SOL    HW117282   0.081   0.565   2.133 -1.1215  1.4024  0.6390
 1940SOL    HW217283   0.018   0.429   2.154 -1.5324 -0.1270  1.0661
 1941SOL     OW17284   0.532   2.126   3.999 -0.8036  0.1550 -0.3349
 1941SOL    HW117285   0.462   2.162   3.946 -0.9537  1.8504  1.0088
 1941SOL    HW217286   0.574   2.087   3.922  1.4024  1.2514  0.3169
 1942SOL     OW17287   4.562   3.168   3.124 -0.3128  0.2881 -0.6884
 1942SOL    HW117288   4.477   3.131   3.098 -2.0546  1.3506  3.4781
 1942SOL    HW217289   4.619   3.136   3.054 -2.3088 -0.1521 -2.1156
 1943SOL     OW17290   2.240   4.315   6.286  0.2332  0.1397  0.4578
 1943SOL    HW117291   2.306   4.246   6.284  0.3853  0.2843  0.5080
 1943SOL    HW217292   2.180   4.289   6.216  1.4061  1.0997 -0.8793
 1944SOL     OW17293   2.552   4.675   6.303  0.4777 -0.2858 -0.1622
 1944SOL    HW117294   2.627   4.710   6.255 -0.4974  0.2350 -1.2982
 1944SOL    HW217295   2.594   4.614   6.365 -0.1430  0.9739  1.5032
 1945SOL     OW17296   3.308   0.212   7.671 -0.0654  0.3234  0.0384
 1945SOL    HW117297   3.304   0.156   7.593  1.4242  0.3610 -0.0696
 1945SOL    HW217298   3.306   0.288   7.613 -0.5906 -0.8726 -1.5329
 1946SOL     OW17299   3.957   0.498   1.686 -0.8068 -0.3493  0.1394
 1946SOL    HW117300   3.944   0.404   1.698  1.5908 -0.3708  2.5401
 1946SOL    HW217301   3.875   0.529   1.725 -0.7584  0.9451 -0.7608
 1947SOL     OW17302   0.910   1.829  17.630 -0.3067 -0.1866  0.1624
 1947SOL    HW117303   0.978   1.778  17.585 -2.8565 -2.9971 -0.4890
 1947SOL    HW217304   0.963   1.868   0.014 -0.7767  0.4387  0.1666
 1948SOL     OW17305   4.648   2.640  16.936  0.3124  0.0901  0.1750
 1948SOL    HW117306   4.600   2.626  16.854 -0.7294  1.1426  0.5894
 1948SOL    HW217307   4.583   2.690  16.986 -0.0495  1.8839 -2.0498
 1949SOL     OW17308   3.571   3.890   4.692 -0.0492  1.0038 -0.0502
 1949SOL    HW117309   3.494   3.946   4.686 -1.4535 -0.7466  1.4953
 1949SOL    HW217310   3.625   3.952   4.741  1.5912  0.9637 -1.7953
 1950SOL     OW17311   1.583   4.423   7.802 -0.1594 -0.4111  0.1877
 1950SOL    HW117312   1.592   4.396   7.893  0.7285  1.6060  0.6809
 1950SOL    HW217313   1.520   4.494   7.815  1.1020  0.9468 -1.1274
 1951SOL     OW17314   0.428   1.609   2.459  0.0032  0.1040 -0.3524
 1951SOL    HW117315   0.365   1.634   2.391 -0.6586  0.9018  0.5576
 1951SOL    HW217316   0.391   1.644   2.540 -0.8671  0.2207 -0.8000
 1952SOL     OW17317   4.541   2.147   0.377  0.4026  0.2693  0.2615
 1952SOL    HW117318   4.548   2.238   0.348  0.6539 -0.4783 -1.9634
 1952SOL    HW217319   4.622   2.104   0.349 -0.5317 -0.9315 -0.6027
 1953SOL     OW17320   1.860   2.386  13.939 -0.4050  0.2814  0.3278
 1953SOL    HW117321   1.788   2.450  13.941 -0.8755 -0.2142 -1.3778
 1953SOL    HW217322   1.935   2.446  13.945  0.5345 -0.9034  0.3994
 1954SOL     OW17323   2.838   2.591  14.766 -0.4955 -0.3296  0.1104
 1954SOL    HW117324   2.873   2.536  14.697 -2.1466 -1.6912  0.3384
 1954SOL    HW217325   2.810   2.675  14.729  2.0667 -0.3119 -1.7363
 1955SOL     OW17326   2.663   0.034  13.849 -0.3554 -0.2316 -0.6919
 1955SOL    HW117327   2.754   0.063  13.850 -0.7932  1.0895  0.8788
 1955SOL    HW217328   2.642   0.069  13.935 -0.4571 -0.1748 -0.7404
 1956SOL     OW17329   1.498   2.074  11.005  0.2413  0.6318  0.1230
 1956SOL    HW117330   1.503   2.062  11.100 -3.3434 -0.0811  0.2433
 1956SOL    HW217331   1.517   1.986  10.970 -0.2256  0.6619 -0.2214
 1957SOL     OW17332   3.017   2.625   2.012  0.1843  0.1036  0.4681
 1957SOL    HW117333   3.026   2.703   1.956 -1.5896  0.1904  0.3030
 1957SOL    HW217334   2.963   2.577   1.949 -1.1536  1.8387  0.2753
 1958SOL     OW17335   0.530   4.348   1.898 -0.1497  0.1538  0.2641
 1958SOL    HW117336   0.527   4.258   1.928  1.3468 -0.7213 -2.2195
 1958SOL    HW217337   0.499   4.324   1.811 -0.6206 -0.6811  0.6699
 1959SOL     OW17338   1.826   2.340   1.522 -0.1261  0.2647 -0.4665
 1959SOL    HW117339   1.840   2.258   1.568  1.6161  1.3597  0.9606
 1959SOL    HW217340   1.865   2.403   1.583  0.4840 -0.6511  0.0770
 1960SOL     OW17341   4.232   0.169   5.962 -0.0124 -0.1388 -0.2395
 1960SOL    HW117342   4.307   0.211   5.920  0.1414  0.4108  0.5773
 1960SOL    HW217343   4.218   0.228   6.036 -0.8717 -0.1505 -0.3937
 1961SOL     OW17344   3.378   0.775   3.783 -0.3627  0.3668  0.4400
 1961SOL    HW117345   3.384   0.690   3.740  1.6969  1.0685 -0.7066
 1961SOL    HW217346   3.464   0.786   3.824  0.7236 -0.1884 -1.7095
 1962SOL     OW17347   2.882   3.180   7.772 -0.3120 -0.1170  0.0045
 1962SOL    HW117348   2.929   3.184   7.856 -0.6110  1.0532  0.1146
 1962SOL    HW217349   2.933   3.248   7.728  0.0536  1.8019  3.3874
 1963SOL     OW17350   4.120   1.282   5.193  0.5094 -0.4273 -0.2052
 1963SOL    HW117351   4.079   1.354   5.145  1.8374  2.4933  3.0133
 1963SOL    HW217352   4.213   1.302   5.181  0.7897 -2.6617 -1.7940
 1964SOL     OW17353   2.417   3.446   8.892  0.1401  0.6494 -0.2003
 1964SOL    HW117354   2.469   3.380   8.848 -0.0941 -0.4804  1.2270
 1964SOL    HW217355   2.438   3.520   8.835  1.9635  0.5079  0.2952
 1965SOL     OW17356   1.753   3.124   3.900 -0.3157 -0.0253  0.1367
 1965SOL    HW117357   1.817   3.056   3.924  0.9376  0.7614 -0.9849
 1965SOL    HW217358   1.712   3.079   3.827 -0.0352 -0.4061  0.2096
 1966SOL     OW17359   2.374   3.976   5.920  0.4162 -0.1128 -0.1202
 1966SOL    HW117360   2.436   4.001   5.989 -1.2558  0.7342  1.0655
 1966SOL    HW217361   2.393   3.882   5.921  0.8147 -0.0370 -0.4876
 1967SOL     OW17362   4.415   1.286   0.414 -0.8532 -0.1299  0.5733
 1967SOL    HW117363   4.381   1.198   0.432  0.2437 -0.5203  0.7412
 1967SOL    HW217364   4.334   1.337   0.410  0.7225  2.1483 -2.1320
 1968SOL     OW17365   1.251   4.689   8.848  0.2074 -0.7029 -0.2601
 1968SOL    HW117366   1.157   4.674   8.844  0.5517 -3.4041  1.9420
 1968SOL    HW217367   1.269   0.053   8.890 -0.6467 -0.7008  0.0907
 1969SOL     OW17368   1.947   4.358   2.982  0.1562 -0.1375 -0.0643
 1969SOL    HW117369   1.942   4.430   3.045 -1.5298  0.4544 -0.8594
 1969SOL    HW217370   1.897   4.398   2.911 -1.8358 -2.7646 -0.1237
 1970SOL     OW17371   0.034   4.674   3.733 -0.3469 -0.4531  0.1023
 1970SOL    HW117372   0.118   4.630   3.745 -0.3935 -0.5437  0.0961
 1970SOL    HW217373   0.042   0.015   3.806 -0.2897  2.0389 -1.9880
 1971SOL     OW17374   4.125   3.403  15.956 -0.7920  0.0300  0.0447
 1971SOL    HW117375   4.051   3.384  15.899 -1.5398  3.3155 -0.0822
 1971SOL    HW217376   4.127   3.498  15.948  2.4597 -0.1285 -1.1355
 1972SOL     OW17377   0.623   3.129   2.784  0.2535  0.6012 -0.7220
 1972SOL    HW117378   0.710   3.134   2.825 -1.2186  1.8507  2.2036
 1972SOL    HW217379   0.646   3.094   2.698  1.8032  0.7457 -0.3793
 1973SOL     OW17380   0.830   1.180   2.149 -0.4360  0.3343 -0.9610
 1973SOL    HW117381   0.744   1.173   2.107 -0.6066 -1.6840 -0.2667
 1973SOL    HW217382   0.859   1.266   2.118 -1.7213  0.6612 -1.2804
 1974SOL     OW17383   2.706   4.703   0.542 -0.3036 -0.0063  0.2194
 1974SOL    HW117384   2.787   4.669   0.579  0.0869  0.2740 -0.3903
 1974SOL    HW217385   2.700   4.651   0.462 -0.5572  0.4169 -0.0413
 1975SOL     OW17386   0.365   1.237   6.273  0.4117 -0.0247 -0.3467
 1975SOL    HW117387   0.403   1.283   6.347 -0.5305  0.2294 -0.0118
 1975SOL    HW217388   0.316   1.313   6.241  1.0337 -0.5076 -2.4772
 1976SOL     OW17389   1.417   2.228   5.036  0.0881  0.0313 -0.0662
 1976SOL    HW117390   1.369   2.145   5.045  3.0713 -1.8078 -0.8130
 1976SOL    HW217391   1.347   2.292   5.036 -0.9313 -1.0689  1.9516
 1977SOL     OW17392   0.322   1.100   3.422 -0.2086 -0.1040  0.4271
 1977SOL    HW117393   0.385   1.045   3.374  1.6886  2.3634  0.1188
 1977SOL    HW217394   0.348   1.188   3.397  1.6263 -1.1407 -1.4016
 1978SOL     OW17395   1.295   2.974   3.859 -0.2882  0.5257 -0.4538
 1978SOL    HW117396   1.291   2.915   3.935 -0.6895  0.2025 -0.7281
 1978SOL    HW217397   1.227   2.934   3.806  2.1863 -2.4890 -1.3613
 1979SOL     OW17398   0.619   2.380   4.066 -0.2867 -0.0681 -0.4453
 1979SOL    HW117399   0.582   2.294   4.045  3.8424 -2.5922  2.7611
 1979SOL    HW217400   0.608   2.387   4.161 -0.9387 -3.3904 -0.2709
 1980SOL     OW17401   4.020   1.416   3.224 -0.3056  0.1855  0.4040
 1980SOL    HW117402   4.004   1.323   3.239  0.9847 -0.0629  0.2695
 1980SOL    HW217403   4.021   1.416   3.129 -2.9421 -0.2726  0.4007
 1981SOL     OW17404   1.855   1.914   7.623  0.0716  0.2754 -0.9042
 1981SOL    HW117405   1.797   1.979   7.663 -1.3864 -1.1557 -0.6672
 1981SOL    HW217406   1.932   1.966   7.600  2.2542 -1.5453  2.1650
 1982SOL     OW17407   3.903   0.538  12.569  0.2808 -0.2296 -0.0841
 1982SOL    HW117408   3.848   0.572  12.640  1.3174  1.7537 -0.2328
 1982SOL    HW217409   3.989   0.569  12.596 -0.4194  1.4898  0.2024
 1983SOL     OW17410   0.907   2.188   5.828  0.7091 -0.0523  0.5315
 1983SOL    HW117411   0.993   2.162   5.794 -0.1756  0.1710 -1.8416
 1983SOL    HW217412   0.918   2.282   5.843  0.9943 -0.3077  1.8862
 1984SOL     OW17413   2.027   0.197   4.719 -0.5160 -1.0750  0.5682
 1984SOL    HW117414   2.103   0.190   4.660 -0.5786 -1.6894  0.5636
 1984SOL    HW217415   1.967   0.167   4.651 -1.0229  0.9433  0.1325
 1985SOL     OW17416   1.607   3.281   5.774 -0.3378 -0.4666  0.0087
 1985SOL    HW117417   1.663   3.352   5.804 -1.3632  0.6055 -0.6644
 1985SOL    HW217418   1.570   3.243   5.853  0.7067 -0.5037  0.4828
 1986SOL     OW17419   1.075   2.033   5.010 -0.7748  0.2807  0.1687
 1986SOL    HW117420   1.001   1.982   5.042 -0.2103  0.6602  2.0505
 1986SOL    HW217421   1.145   1.968   5.016 -1.2513 -0.3096 -0.6028
 1987SOL     OW17422   0.558   1.751   3.605 -0.1847 -0.0288 -0.0582
 1987SOL    HW117423   0.475   1.709   3.627  0.4894 -1.1964  0.2564
 1987SOL    HW217424   0.615   1.674   3.600  0.6651  0.4257  2.6899
 1988SOL     OW17425   4.540   3.611  11.343 -0.0339  0.0792 -0.1475
 1988SOL    HW117426   4.576   3.696  11.315  2.6135 -1.8347 -2.5432
 1988SOL    HW217427   4.591   3.555  11.285  2.1515  2.5852 -0.6384
 1989SOL     OW17428   2.727   1.381   1.465 -0.1744 -0.5448 -0.1498
 1989SOL    HW117429   2.763   1.456   1.417  0.7192  0.8224  2.6355
 1989SOL    HW217430   2.640   1.414   1.488 -0.5211 -0.2084 -1.9737
 1990SOL     OW17431   3.947   2.032  10.183 -0.2363 -0.3848 -0.1562
 1990SOL    HW117432   3.995   2.083  10.249 -0.4238 -1.2325  0.6213
 1990SOL    HW217433   3.858   2.028  10.216  0.2374 -0.2895  1.1067
 1991SOL     OW17434   3.659   2.513   7.019 -0.3713 -0.4671  0.5029
 1991SOL    HW117435   3.708   2.431   7.024 -0.8453 -0.7110  1.1353
 1991SOL    HW217436   3.707   2.564   7.085 -1.9629 -0.3919  1.6073
 1992SOL     OW17437   4.104   0.316   7.887  0.0510 -0.2000 -0.7986
 1992SOL    HW117438   4.189   0.297   7.847  0.3364  0.0416 -0.3180
 1992SOL    HW217439   4.120   0.319   7.981  1.2821  0.6000 -1.0235
 1993SOL     OW17440   2.836   0.706   3.794  0.0826  0.4042  0.0726
 1993SOL    HW117441   2.904   0.773   3.791  0.0044  0.5136  0.8605
 1993SOL    HW217442   2.758   0.742   3.836 -0.1322  3.4270 -2.9233
 1994SOL     OW17443   3.791   3.482   4.556  0.1342 -0.2966 -0.5435
 1994SOL    HW117444   3.842   3.545   4.506  0.9067  0.6410  1.4297
 1994SOL    HW217445   3.702   3.514   4.538 -0.1941  0.6100  2.6595
 1995SOL     OW17446   1.713   2.102   2.170  0.0503 -0.6708 -0.1790
 1995SOL    HW117447   1.782   2.114   2.105 -0.7301 -0.8319 -1.0306
 1995SOL    HW217448   1.753   2.044   2.235  1.0311 -1.1541 -1.2110
 1996SOL     OW17449   2.834   1.468   8.599 -0.4804 -0.2824 -0.4060
 1996SOL    HW117450   2.887   1.421   8.535  0.4754  0.0714  0.1223
 1996SOL    HW217451   2.778   1.395   8.624 -0.1185  0.4117  2.4494
 1997SOL     OW17452   1.897   0.846   4.763 -0.4175 -0.1542  0.0144
 1997SOL    HW117453   1.841   0.818   4.691  0.8800 -0.0922 -1.0227
 1997SOL    HW217454   1.844   0.925   4.774  0.0831  0.0982  0.5790
 1998SOL     OW17455   4.138   1.799  16.075 -0.0584  0.3712  0.0702
 1998SOL    HW117456   4.080   1.727  16.053  0.8064  0.4374 -2.4652
 1998SOL    HW217457   4.186   1.766  16.151 -1.1375  0.6562  0.8845
 1999SOL     OW17458   0.999   3.297  14.341 -0.2487  0.6636  0.6903
 1999SOL    HW117459   1.060   3.223  14.347 -2.0599 -1.2397 -4.3107
 1999SOL    HW217460   1.024   3.329  14.255  1.1493 -0.7894  0.5586
 2000SOL     OW17461   3.203   4.017   4.088  0.3294 -0.0924 -0.3144
 2000SOL    HW117462   3.108   4.026   4.091  0.3565 -0.2243  1.1639
 2000SOL    HW217463   3.217   4.026   4.182 -3.2034 -2.0251  0.4230
 2001SOL     OW17464   0.327   3.637   1.108 -0.0366 -0.8740  0.1495
 2001SOL    HW117465   0.323   3.677   1.195 -0.1246  0.4527 -0.4573
 2001SOL    HW217466   0.259   3.570   1.115  0.5602 -1.3508  1.3750
 2002SOL     OW17467   1.050   0.379   6.574  0.1640  0.0095 -0.3938
 2002SOL    HW117468   1.089   0.412   6.656  1.6169  0.1494 -1.1437
 2002SOL    HW217469   1.019   0.290   6.594  0.5873  0.2487  1.3978
 2003SOL     OW17470   3.278   1.597   2.973  1.1215 -0.1925  0.0703
 2003SOL    HW117471   3.286   1.588   2.878  1.7665  0.8643  0.0285
 2003SOL    HW217472   3.203   1.537   2.976  1.0430 -0.0967  0.0209
 2004SOL     OW17473   3.442   3.625   6.487 -0.7531 -0.3319  0.0659
 2004SOL    HW117474   3.457   3.710   6.527  2.4659 -1.0396  0.4146
 2004SOL    HW217475   3.361   3.630   6.435 -0.0418  0.2211 -0.9987
 2005SOL     OW17476   1.761   3.913   8.481  0.6792 -0.1096  0.4602
 2005SOL    HW117477   1.843   3.883   8.442 -1.1678 -2.0597 -1.9145
 2005SOL    HW217478   1.704   3.939   8.410  2.6578  0.5315 -0.9007
 2006SOL     OW17479   2.926   2.539  16.743 -0.0819 -0.0255 -0.3385
 2006SOL    HW117480   2.932   2.616  16.800 -1.1777 -0.5917  0.5335
 2006SOL    HW217481   2.928   2.575  16.654 -1.8011  0.2569 -0.2686
 2007SOL     OW17482   3.835   0.446  16.457 -0.3938  0.6671  0.0316
 2007SOL    HW117483   3.815   0.364  16.502 -2.2918 -0.8825 -3.6213
 2007SOL    HW217484   3.752   0.492  16.452 -1.1286 -0.6714 -0.1762
 2008SOL     OW17485   3.730   0.017   7.015 -0.2832 -0.0667 -0.2916
 2008SOL    HW117486   3.805   0.068   7.044  1.9520 -1.7074 -3.1794
 2008SOL    HW217487   3.668   0.032   7.086 -0.3306  1.6835 -0.7023
 2009SOL     OW17488   2.000   3.575  15.338  0.0893 -0.1392 -0.3136
 2009SOL    HW117489   2.062   3.517  15.294  0.8706 -0.6799  1.5144
 2009SOL    HW217490   2.036   3.663  15.328 -1.7005  0.9133  2.3919
 2010SOL     OW17491   2.132   4.022   3.530 -0.2427  0.1516 -0.1161
 2010SOL    HW117492   2.195   3.974   3.477  0.2526  0.7989 -0.1056
 2010SOL    HW217493   2.060   4.017   3.467  0.1704  0.5228 -0.6239
 2011SOL     OW17494   1.297   3.299   8.657 -0.1013 -0.1484 -0.2181
 2011SOL    HW117495   1.275   3.390   8.640  0.5512  0.0821  0.1746
 2011SOL    HW217496   1.207   3.267   8.651 -0.1305  0.3745 -2.7015
 2012SOL     OW17497   1.743   1.136  12.737  0.4866 -0.1991  0.4290
 2012SOL    HW117498   1.772   1.196  12.668 -3.2481 -0.9065 -1.7305
 2012SOL    HW217499   1.813   1.138  12.803 -0.0774 -0.6176  1.0276
 2013SOL     OW17500   4.153   4.236  13.939  0.3142 -0.1558  0.1088
 2013SOL    HW117501   4.224   4.271  13.886  1.1133 -1.4010  0.3614
 2013SOL    HW217502   4.186   4.238  14.029  0.6386 -0.2031 -0.0086
 2014SOL     OW17503   1.761   3.572   6.484  0.4290 -0.0169 -0.0741
 2014SOL    HW117504   1.700   3.592   6.413 -0.2295 -0.7097  0.2915
 2014SOL    HW217505   1.748   3.648   6.541  1.7602  0.4407 -0.3938
 2015SOL     OW17506   2.560   0.823   0.735 -0.2730 -0.4865  0.3764
 2015SOL    HW117507   2.573   0.755   0.801  1.3240 -0.5299  0.0239
 2015SOL    HW217508   2.623   0.886   0.769  0.2614 -0.6239 -0.3472
 2016SOL     OW17509   4.266   0.119  12.611 -0.0602  0.5004  0.2282
 2016SOL    HW117510   4.238   0.201  12.653  2.6179  1.4268  0.2424
 2016SOL    HW217511   4.331   0.171  12.564 -0.7195  0.0805 -1.1212
 2017SOL     OW17512   3.886   3.873   4.247 -0.1306  0.6210  0.2372
 2017SOL    HW117513   3.874   3.925   4.168 -0.5418  1.6865  1.0110
 2017SOL    HW217514   3.799   3.881   4.284  0.3408 -0.0244  1.4733
 2018SOL     OW17515   2.626   1.522  16.689  0.2534 -0.2707 -0.1069
 2018SOL    HW117516   2.626   1.605  16.642  1.0331 -1.3435 -2.0088
 2018SOL    HW217517   2.715   1.527  16.723 -0.3333  2.6382  0.9779
 2019SOL     OW17518   1.333   3.368   5.771  0.4968  0.3557 -0.1180
 2019SOL    HW117519   1.343   3.280   5.806 -1.0301 -0.2110 -1.0993
 2019SOL    HW217520   1.421   3.384   5.737 -0.1362  0.4483 -1.7388
 2020SOL     OW17521   0.526   4.465   6.586  0.4039  0.4190 -0.1868
 2020SOL    HW117522   0.490   4.553   6.584  1.1085  0.7285  0.4162
 2020SOL    HW217523   0.580   4.463   6.665 -0.6617  0.9583  0.5452
 2021SOL     OW17524   3.714   0.369   2.814 -0.6328  0.1197 -0.4588
 2021SOL    HW117525   3.626   0.405   2.829 -0.3361  0.7252 -0.1559
 2021SOL    HW217526   3.715   0.319   2.895  0.1787  1.4681  0.3757
 2022SOL     OW17527   0.493   1.817   2.686 -0.3553 -0.4172 -0.5823
 2022SOL    HW117528   0.473   1.910   2.695 -3.7089 -1.0183 -1.9444
 2022SOL    HW217529   0.580   1.805   2.723 -0.5315 -1.8851 -0.6609
 2023SOL     OW17530   3.846   0.837   2.137 -0.2389 -0.7883 -0.3836
 2023SOL    HW117531   3.760   0.843   2.178 -0.2157  0.2012 -0.4859
 2023SOL    HW217532   3.833   0.891   2.059 -0.2975 -1.6314 -0.9566
 2024SOL     OW17533   3.577   0.873   9.412 -0.8098  0.2148 -0.6587
 2024SOL    HW117534   3.511   0.933   9.447 -0.2388  1.1178 -1.1189
 2024SOL    HW217535   3.588   0.800   9.474  2.9315  0.6338 -0.8118
 2025SOL     OW17536   2.600   0.575   2.255  0.1072  0.6413  0.4909
 2025SOL    HW117537   2.557   0.531   2.182 -1.0675 -1.0152  2.1922
 2025SOL    HW217538   2.519   0.598   2.301 -1.4207 -2.0971 -0.8567
 2026SOL     OW17539   1.870   2.647  13.757 -0.1042 -0.2751  0.0339
 2026SOL    HW117540   1.912   2.709  13.816 -2.5085  1.8592 -0.5172
 2026SOL    HW217541   1.795   2.636  13.816  0.4927 -2.2001  0.4221
 2027SOL     OW17542   2.939   2.437   2.390 -0.2288  0.5269 -0.2614
 2027SOL    HW117543   2.929   2.517   2.338 -1.0906 -0.3039 -1.3543
 2027SOL    HW217544   2.924   2.478   2.476  1.4686  0.6566 -0.0175
 2028SOL     OW17545   4.676   4.011  12.915  0.0387 -0.1556 -0.5845
 2028SOL    HW117546   4.638   4.084  12.965 -2.2334  0.6515 -3.4524
 2028SOL    HW217547   4.708   4.061  12.839 -0.8803 -0.1663 -0.9798
 2029SOL     OW17548   2.005   0.093   6.529  0.4017 -0.1303 -0.4986
 2029SOL    HW117549   1.986   4.720   6.541  0.1458  0.2023  1.6739
 2029SOL    HW217550   2.086   0.096   6.578  0.5348  1.1977 -0.8090
 2030SOL     OW17551   0.100   0.645   7.827 -0.8126 -0.5064 -0.0094
 2030SOL    HW117552   0.142   0.601   7.753 -0.1304  1.9765 -1.0729
 2030SOL    HW217553   0.164   0.714   7.845 -1.7411  0.0982  0.9778
 2031SOL     OW17554   0.593   1.986   1.895  0.1704 -0.5156  0.2512
 2031SOL    HW117555   0.531   2.056   1.914 -0.4500 -0.1591 -3.0423
 2031SOL    HW217556   0.682   2.018   1.907  0.2202 -0.2633 -0.8329
 2032SOL     OW17557   4.099   4.707   7.046  0.1778 -0.2065 -0.7298
 2032SOL    HW117558   4.042   4.643   7.004 -0.0796  0.4787 -1.4181
 2032SOL    HW217559   4.043   0.043   7.099  0.0136 -0.2535 -0.8531
 2033SOL     OW17560   3.534   0.522   8.648  0.6199 -0.2082  0.3511
 2033SOL    HW117561   3.549   0.559   8.735 -1.0974  3.2889 -0.8270
 2033SOL    HW217562   3.529   0.429   8.671 -4.6631 -0.1267 -0.3458
 2034SOL     OW17563   1.489   0.608  15.629 -0.1573  0.6210  0.0180
 2034SOL    HW117564   1.511   0.657  15.550  0.2970  0.9420  0.3408
 2034SOL    HW217565   1.480   0.521  15.591 -1.1483  0.6381  0.2114
 2035SOL     OW17566   0.494   0.911  11.585 -0.0840 -0.6318 -0.0695
 2035SOL    HW117567   0.533   0.825  11.599 -0.8256 -0.9577  0.0019
 2035SOL    HW217568   0.529   0.937  11.499 -0.1304 -0.7656 -0.1286
 2036SOL     OW17569   2.467   4.239   6.726 -0.8897 -0.2518 -0.0702
 2036SOL    HW117570   2.529   4.192   6.669 -0.6382 -0.0298  0.0201
 2036SOL    HW217571   2.500   4.212   6.812  1.0407 -1.2548 -1.1118
 2037SOL     OW17572   2.103   4.238  13.324 -0.0553 -0.3047 -0.0916
 2037SOL    HW117573   2.173   4.303  13.314 -0.8586  0.3097 -1.7222
 2037SOL    HW217574   2.072   4.261  13.411 -3.8251  2.0502 -2.0857
 2038SOL     OW17575   2.146   2.518  16.313 -0.4702  0.0598  0.1914
 2038SOL    HW117576   2.189   2.505  16.229 -0.7408  2.8667 -0.4062
 2038SOL    HW217577   2.201   2.487  16.385 -0.7862 -1.1411 -0.0944
 2039SOL     OW17578   2.141   2.605   1.854 -0.1610  0.1638 -0.6445
 2039SOL    HW117579   2.089   2.529   1.881  0.3189 -0.3155 -1.0514
 2039SOL    HW217580   2.217   2.614   1.912 -0.4406 -0.1627 -0.2300
 2040SOL     OW17581   0.661   3.646   3.406  0.2043  0.2158 -0.6892
 2040SOL    HW117582   0.631   3.577   3.464  0.5344  0.1352 -0.6163
 2040SOL    HW217583   0.756   3.646   3.418  0.0248  2.7916  0.8449
 2041SOL     OW17584   4.360   2.679  14.887  0.3427 -0.0972 -0.1046
 2041SOL    HW117585   4.454   2.696  14.882  0.3618 -0.7124 -1.7693
 2041SOL    HW217586   4.332   2.762  14.925  1.1027 -1.2505  2.9783
 2042SOL     OW17587   2.577   1.317   5.657  0.0399 -0.3991  0.5293
 2042SOL    HW117588   2.645   1.354   5.715  1.3638 -3.2891  0.8229
 2042SOL    HW217589   2.512   1.383   5.634  1.2186  0.4108 -0.5165
 2043SOL     OW17590   0.429   1.615  15.332  0.3973 -0.1430  0.4196
 2043SOL    HW117591   0.491   1.605  15.405  0.0568 -2.5018  0.3835
 2043SOL    HW217592   0.480   1.580  15.259 -0.5511 -1.9289  0.5987
 2044SOL     OW17593   1.019   2.340   0.139  0.0755 -0.3674 -0.1109
 2044SOL    HW117594   0.962   2.271   0.173  0.6762 -0.9925 -0.3707
 2044SOL    HW217595   0.962   2.417   0.135 -1.7595 -1.6334  1.5605
 2045SOL     OW17596   2.196   3.680  13.419 -0.0709 -0.1034  0.1394
 2045SOL    HW117597   2.195   3.756  13.477  2.5547  0.1090 -0.1136
 2045SOL    HW217598   2.110   3.646  13.445  0.6280 -1.9343 -0.0069
 2046SOL     OW17599   2.104   1.195   3.128 -0.4645 -0.0758 -0.0846
 2046SOL    HW117600   2.013   1.168   3.118  0.0246 -0.9814 -2.1751
 2046SOL    HW217601   2.125   1.196   3.034 -1.0693  0.9220 -0.2144
 2047SOL     OW17602   0.234   1.112   6.887  0.8814 -0.4612 -0.3682
 2047SOL    HW117603   0.288   1.080   6.815  0.9498  0.4702 -0.7351
 2047SOL    HW217604   0.278   1.195   6.903  1.7304 -0.9887  0.0466
 2048SOL     OW17605   3.207   2.104  12.659  0.2700 -0.1450  0.2659
 2048SOL    HW117606   3.281   2.077  12.712  0.2741 -0.9509 -0.1516
 2048SOL    HW217607   3.161   2.156  12.725  0.3611 -0.7713  0.8211
 2049SOL     OW17608   2.703   0.864   5.103  0.5038  0.0880  0.1020
 2049SOL    HW117609   2.692   0.804   5.030 -2.8006 -0.2730  0.8535
 2049SOL    HW217610   2.624   0.848   5.156  0.4158 -2.0332 -0.7047
 2050SOL     OW17611   2.643   3.622   4.711  0.4648 -0.1964  0.0248
 2050SOL    HW117612   2.557   3.590   4.736  0.4262  0.4127  0.6767
 2050SOL    HW217613   2.690   3.589   4.788  0.9393 -1.5541 -0.8382
 2051SOL     OW17614   3.632   3.550   9.327  0.5276 -0.0445  0.6418
 2051SOL    HW117615   3.614   3.557   9.233  0.2970  1.8166  0.8366
 2051SOL    HW217616   3.600   3.636   9.353 -1.5909 -0.8885  0.8836
 2052SOL     OW17617   3.561   2.626   3.253 -0.2685 -0.2675 -0.0446
 2052SOL    HW117618   3.507   2.549   3.234 -0.7027 -0.5123  2.0959
 2052SOL    HW217619   3.641   2.590   3.293 -0.5315 -1.5407 -0.6712
 2053SOL     OW17620   3.735   2.525  14.835  0.6672 -0.4560  0.0946
 2053SOL    HW117621   3.783   2.443  14.830  1.5081  0.0449  0.0554
 2053SOL    HW217622   3.645   2.495  14.818  0.8073 -0.2817 -0.9381
 2054SOL     OW17623   2.134   0.523   6.489  0.1752 -0.2160  0.2023
 2054SOL    HW117624   2.123   0.618   6.492  0.8512 -0.1202 -0.3763
 2054SOL    HW217625   2.217   0.522   6.536  0.8431 -1.4952 -0.9905
 2055SOL     OW17626   2.123   2.794   3.156 -0.1761 -0.4195  0.2830
 2055SOL    HW117627   2.181   2.729   3.196 -1.0755 -0.4718  1.4885
 2055SOL    HW217628   2.190   2.840   3.105 -0.3382 -0.5996 -0.0837
 2056SOL     OW17629   4.531   0.427  17.445 -0.0776  0.0455  0.1824
 2056SOL    HW117630   4.609   0.431  17.390  0.6365 -2.4819  1.0396
 2056SOL    HW217631   4.460   0.473  17.400  0.0705 -0.0872 -0.1894
 2057SOL     OW17632   3.647   2.525   5.157  0.3979 -0.3708  0.5669
 2057SOL    HW117633   3.587   2.463   5.198  1.2556 -1.2045  0.5365
 2057SOL    HW217634   3.638   2.608   5.204  3.4744 -0.4286  1.2483
 2058SOL     OW17635   1.255   0.661   0.224 -0.5792 -0.2059 -0.0682
 2058SOL    HW117636   1.339   0.627   0.193  1.0537  1.1933  2.7843
 2058SOL    HW217637   1.278   0.748   0.257  2.5378 -1.4620  1.1288
 2059SOL     OW17638   1.941   4.608   6.221 -0.1333 -0.2303 -0.3594
 2059SOL    HW117639   1.942   4.691   6.268 -0.8781  0.2191 -1.1313
 2059SOL    HW217640   1.974   4.628   6.134  0.0384  3.1338  0.5003
 2060SOL     OW17641   0.261   2.112   8.585  0.1830 -0.0982  0.7044
 2060SOL    HW117642   0.257   2.036   8.643 -1.2201 -0.4540  0.1570
 2060SOL    HW217643   0.170   2.143   8.584  0.6290  1.1995  0.2583
 2061SOL     OW17644   3.401   3.277   1.594 -0.3905  0.7426  0.1597
 2061SOL    HW117645   3.421   3.203   1.652 -0.0826  0.0904 -0.7662
 2061SOL    HW217646   3.431   3.354   1.641 -1.7276  1.0187  0.5666
 2062SOL     OW17647   4.319   4.630   5.945  0.3404 -0.4256  0.2972
 2062SOL    HW117648   4.407   4.637   5.981  0.1721 -2.7937  1.1845
 2062SOL    HW217649   4.299   0.001   5.930 -0.8988 -0.9113 -1.0143
 2063SOL     OW17650   3.043   3.357   7.139 -0.0443 -0.0072  0.1853
 2063SOL    HW117651   3.020   3.315   7.222 -1.5963  1.7781  0.6859
 2063SOL    HW217652   3.012   3.291   7.077  0.9917 -0.6287  0.3349
 2064SOL     OW17653   1.939   1.162   5.734 -0.3746 -0.0408 -0.2716
 2064SOL    HW117654   2.025   1.145   5.696 -0.7135 -1.5337 -0.3452
 2064SOL    HW217655   1.938   1.091   5.798  0.9864  0.0461 -0.1597
 2065SOL     OW17656   3.289   4.015   5.502  0.3494  0.2574 -0.0911
 2065SOL    HW117657   3.266   3.927   5.473 -0.7581  0.2701  0.7438
 2065SOL    HW217658   3.384   4.012   5.518  0.2747  3.5708  0.9848
 2066SOL     OW17659   0.273   1.094  13.443  0.6921  0.3864 -0.2677
 2066SOL    HW117660   0.327   1.015  13.450 -1.5329 -1.1594 -0.2335
 2066SOL    HW217661   0.314   1.141  13.370  0.1773 -0.7307 -1.2871
 2067SOL     OW17662   0.634   3.031   0.557 -0.0389  0.3970  0.1231
 2067SOL    HW117663   0.581   3.092   0.608  1.3912 -0.9187  3.2463
 2067SOL    HW217664   0.588   2.953   0.589 -0.0955 -0.3273 -1.7394
 2068SOL     OW17665   3.685   0.624  15.095 -0.6535  0.3891 -0.2161
 2068SOL    HW117666   3.614   0.561  15.107 -0.9313  0.2571 -2.6453
 2068SOL    HW217667   3.637   0.706  15.104  0.1164  0.5238  2.8123
 2069SOL     OW17668   1.624   1.840   4.644  0.0015 -0.1902  0.2084
 2069SOL    HW117669   1.681   1.916   4.651  2.8568 -2.3621  0.4532
 2069SOL    HW217670   1.695   1.775   4.648  0.4799  0.3416  0.2628
 2070SOL     OW17671   0.743   2.833   7.886  0.8536 -0.0469 -0.0272
 2070SOL    HW117672   0.662   2.842   7.835 -1.1911 -0.2532  3.1920
 2070SOL    HW217673   0.707   2.799   7.968 -1.2534 -1.3598 -1.4746
 2071SOL     OW17674   2.466   0.383  13.594 -0.7315  0.0631  0.5466
 2071SOL    HW117675   2.464   0.298  13.638  1.9029  0.5845  1.6828
 2071SOL    HW217676   2.556   0.408  13.615 -0.6594 -0.4466  0.8386
 2072SOL     OW17677   2.639   4.567   9.930  0.1612 -0.2752 -0.0737
 2072SOL    HW117678   2.630   4.572   9.835  2.0705 -1.5837 -0.3202
 2072SOL    HW217679   2.688   4.647   9.951 -0.2265  0.3341 -1.4898
 2073SOL     OW17680   0.797   0.396   5.979 -0.0330 -0.3577  0.1259
 2073SOL    HW117681   0.808   0.397   6.074 -1.5580  1.4798  0.2766
 2073SOL    HW217682   0.835   0.312   5.953  0.7469  0.3742 -1.0514
 2074SOL     OW17683   2.470   4.517  13.459 -0.2403  0.2453 -0.3036
 2074SOL    HW117684   2.548   4.474  13.424 -0.4482 -0.3959  0.0391
 2074SOL    HW217685   2.434   4.448  13.514  0.9618 -0.1731 -0.0585
 2075SOL     OW17686   1.589   3.932   7.263 -0.3935  0.2182  0.2549
 2075SOL    HW117687   1.568   3.888   7.181  0.9897  1.0817 -0.5736
 2075SOL    HW217688   1.509   3.979   7.286 -1.4373 -1.3655 -0.2203
 2076SOL     OW17689   4.655   3.375   3.260  0.0372 -0.1846 -0.0933
 2076SOL    HW117690   4.614   3.432   3.195  0.2895  1.0410  0.8143
 2076SOL    HW217691   4.635   3.288   3.226 -1.0783  0.1964 -0.3924
 2077SOL     OW17692   2.722   2.393   6.687 -0.2775  0.3802 -0.9525
 2077SOL    HW117693   2.775   2.470   6.710 -1.0042  0.0797  1.6928
 2077SOL    HW217694   2.778   2.323   6.720 -0.6103  1.1044  1.1467
 2078SOL     OW17695   2.583   1.069  14.762 -0.0703  0.3093  0.4718
 2078SOL    HW117696   2.608   1.155  14.796 -2.0198  2.4330 -3.4756
 2078SOL    HW217697   2.648   1.019  14.812 -0.7842 -2.1409 -1.0719
 2079SOL     OW17698   0.206   3.412  11.396  0.0910  0.4844 -0.0236
 2079SOL    HW117699   0.146   3.352  11.440 -0.5453  0.1944 -1.3038
 2079SOL    HW217700   0.266   3.347  11.359  0.7261  0.4855  0.9928
 2080SOL     OW17701   0.697   2.067   9.110  0.1694  0.0576  0.5569
 2080SOL    HW117702   0.736   2.005   9.049 -0.5455  0.5462 -0.4033
 2080SOL    HW217703   0.661   2.011   9.179  0.4452  0.4473  1.0226
 2081SOL     OW17704   2.633   0.970   6.979  0.2848 -0.4190  0.1721
 2081SOL    HW117705   2.582   0.905   7.027  0.8768 -0.1085  1.2171
 2081SOL    HW217706   2.555   1.022   6.958  0.9102  0.2774 -0.4531
 2082SOL     OW17707   4.395   0.782  12.976 -0.2191 -0.0879 -0.0867
 2082SOL    HW117708   4.384   0.807  12.884  2.5217 -0.4811 -0.5185
 2082SOL    HW217709   4.378   0.863  13.025  1.5059  0.6055 -0.6485
 2083SOL     OW17710   3.895   1.408  15.887 -0.2189  0.0150  0.0375
 2083SOL    HW117711   3.964   1.458  15.932 -1.5343 -2.8844  5.3271
 2083SOL    HW217712   3.865   1.478  15.829 -0.7321  0.3269  0.6836
 2084SOL     OW17713   4.512   4.053   7.509 -0.1184 -0.6818 -0.1843
 2084SOL    HW117714   4.445   4.006   7.459 -2.4763  0.3111  1.9736
 2084SOL    HW217715   4.519   4.126   7.447 -1.7055 -1.2059 -0.9896
 2085SOL     OW17716   2.690   4.063   7.182 -0.3294  0.4762  0.2631
 2085SOL    HW117717   2.722   4.114   7.256  0.7469  0.3636 -0.1247
 2085SOL    HW217718   2.770   4.011   7.179 -0.6040 -0.0014  1.0543
 2086SOL     OW17719   3.604   0.239   3.108 -0.0055  0.3242 -0.1875
 2086SOL    HW117720   3.519   0.196   3.116  0.3687 -0.1588  1.1437
 2086SOL    HW217721   3.572   0.329   3.121  0.0806  0.2814  0.3233
 2087SOL     OW17722   2.798   4.374   5.082  0.5108  0.2159 -0.6714
 2087SOL    HW117723   2.825   4.416   5.163  2.7737  2.0636 -2.3695
 2087SOL    HW217724   2.813   4.444   5.019 -0.3192  0.8888 -0.1114
 2088SOL     OW17725   2.998   1.732   4.362 -0.6673 -0.2907 -0.1140
 2088SOL    HW117726   3.072   1.694   4.314 -1.5175 -1.5011 -0.4674
 2088SOL    HW217727   3.042   1.751   4.445 -2.0047  2.2618  0.0189
 2089SOL     OW17728   2.987   0.103   4.539  0.0149 -0.5799 -0.4478
 2089SOL    HW117729   2.918   0.073   4.599 -0.5611 -0.6258 -1.1250
 2089SOL    HW217730   3.066   0.082   4.588 -0.4509 -1.4483 -0.0627
 2090SOL     OW17731   0.473   3.773   2.454 -0.3107 -0.7181  0.4735
 2090SOL    HW117732   0.565   3.752   2.439  0.2873  1.2446  1.3890
 2090SOL    HW217733   0.479   3.855   2.504  1.4799 -0.7743  0.3221
 2091SOL     OW17734   4.539   0.691   7.528 -0.6779  0.5394  0.3291
 2091SOL    HW117735   4.530   0.603   7.492 -1.4518  0.2452  1.2807
 2091SOL    HW217736   4.512   0.680   7.619  1.9065  0.0576  1.0490
 2092SOL     OW17737   2.811   0.293   8.034 -0.2263  0.3632  0.6177
 2092SOL    HW117738   2.731   0.250   8.065 -0.1694 -0.9138 -0.9804
 2092SOL    HW217739   2.874   0.224   8.013  0.2729  1.2425 -0.7902
 2093SOL     OW17740   2.761   2.888   6.212  0.3750  0.5031 -0.1844
 2093SOL    HW117741   2.739   2.797   6.231  0.1294 -0.0459 -2.9962
 2093SOL    HW217742   2.854   2.880   6.235  1.1242  2.1994 -2.5858
 2094SOL     OW17743   1.134   3.687   7.916 -0.1246  0.4319  0.4063
 2094SOL    HW117744   1.177   3.734   7.987  2.0884 -0.3223 -0.4127
 2094SOL    HW217745   1.055   3.650   7.954  0.0965 -1.3699 -0.8891
 2095SOL     OW17746   3.373   4.227   8.408 -0.1771 -0.1111 -0.3292
 2095SOL    HW117747   3.449   4.170   8.401 -0.3471 -0.4489  0.6253
 2095SOL    HW217748   3.389   4.272   8.491  1.1628 -1.1590 -0.0199
 2096SOL     OW17749   3.015   4.490  17.532  0.3164  0.1415  0.0731
 2096SOL    HW117750   2.998   4.488  17.438 -0.8348  0.1607  0.2770
 2096SOL    HW217751   2.968   4.411  17.559 -1.0895  0.3159 -1.8229
 2097SOL     OW17752   4.697   0.174  12.379  0.8298 -0.3038 -0.0507
 2097SOL    HW117753   4.704   0.081  12.360  1.4441  0.1706 -2.0677
 2097SOL    HW217754   0.013   0.179  12.468  0.4318 -1.6312  0.1943
 2098SOL     OW17755   2.664   2.504   3.455  0.4838  0.6202  0.4889
 2098SOL    HW117756   2.612   2.550   3.521  1.7614  1.4464  0.9165
 2098SOL    HW217757   2.696   2.433   3.511 -2.4022 -0.3509  0.8916
 2099SOL     OW17758   2.723   1.425  13.894 -0.5358 -0.0832 -0.6708
 2099SOL    HW117759   2.759   1.339  13.917  0.5155  0.0571 -1.7785
 2099SOL    HW217760   2.753   1.470  13.973  0.0593 -2.1751  0.2897
 2100SOL     OW17761   3.544   0.065   3.946  0.1598 -0.0130 -0.1968
 2100SOL    HW117762   3.550   4.692   3.966  1.2688 -0.0690 -0.8011
 2100SOL    HW217763   3.634   0.077   3.914  0.1716 -1.3305 -0.6430
 2101SOL     OW17764   0.366   4.664   5.280 -0.4624  0.3821 -0.7693
 2101SOL    HW117765   0.387   4.578   5.316  1.6894  1.8733  1.4835
 2101SOL    HW217766   0.412   4.658   5.196  0.5766 -2.4781 -0.0038
 2102SOL     OW17767   2.799   2.212  15.821  0.3243  0.5743  0.2808
 2102SOL    HW117768   2.887   2.221  15.784 -0.2405  1.5573 -0.7896
 2102SOL    HW217769   2.761   2.291  15.782 -1.8889 -0.1758  0.9061
 2103SOL     OW17770   3.053   0.985  13.908  0.3316 -0.3162  0.5099
 2103SOL    HW117771   3.100   0.985  13.992  2.8077 -0.4202 -0.8862
 2103SOL    HW217772   3.108   0.943  13.842 -1.8813 -0.3661 -1.2624
 2104SOL     OW17773   2.355   0.298   3.281  0.3903  0.2899  0.1762
 2104SOL    HW117774   2.386   0.224   3.334  1.1177  1.7694  1.7911
 2104SOL    HW217775   2.266   0.271   3.261  0.2671  0.8244  0.0050
 2105SOL     OW17776   3.804   2.151   7.842 -0.2756 -0.6861  0.2098
 2105SOL    HW117777   3.880   2.201   7.871 -0.2651 -1.3513  1.2975
 2105SOL    HW217778   3.740   2.174   7.909 -0.1620 -2.6937  1.0063
 2106SOL     OW17779   4.705   2.182   6.605  0.3162  1.1112 -0.0939
 2106SOL    HW117780   4.631   2.222   6.558 -0.7709 -3.1341 -1.9664
 2106SOL    HW217781   0.058   2.194   6.546  0.7698  1.1804  0.4865
 2107SOL     OW17782   4.562   4.662   8.456 -0.3216 -0.3058 -0.1209
 2107SOL    HW117783   4.559   4.669   8.360 -0.0723 -1.3201 -0.2081
 2107SOL    HW217784   4.581   0.028   8.491  1.8730 -1.0215  0.4675
 2108SOL     OW17785   3.164   2.278   1.419  0.2362  0.3954  0.6850
 2108SOL    HW117786   3.218   2.329   1.359 -1.5962  3.3792  1.5576
 2108SOL    HW217787   3.094   2.331   1.456  0.6587  0.6353  1.1392
 2109SOL     OW17788   4.109   3.743   8.328  0.6931 -0.5270  0.7091
 2109SOL    HW117789   4.048   3.708   8.393  1.3439 -0.5664  1.2973
 2109SOL    HW217790   4.186   3.689   8.347  1.1118  0.7205  2.4773
 2110SOL     OW17791   0.970   1.805   1.767 -0.5306  0.0560  0.6948
 2110SOL    HW117792   0.952   1.764   1.683  1.4691  1.3059 -0.3394
 2110SOL    HW217793   0.992   1.895   1.744 -2.3234  0.2083 -0.4001
 2111SOL     OW17794   4.411   3.884   7.314 -0.3887 -0.2302  0.4005
 2111SOL    HW117795   4.393   3.944   7.242 -2.1534 -0.7286  0.4387
 2111SOL    HW217796   4.397   3.808   7.257  1.6479 -0.7834  0.6178
 2112SOL     OW17797   1.632   4.630  15.144  0.0241 -0.4591  0.6817
 2112SOL    HW117798   1.662   4.704  15.091 -0.4741 -0.3562  0.5361
 2112SOL    HW217799   1.716   4.589  15.161  0.4808  0.2000  0.0018
 2113SOL     OW17800   0.680   1.354   7.389  0.0182  0.1089 -0.3262
 2113SOL    HW117801   0.589   1.327   7.395 -0.0450  1.2713  3.7805
 2113SOL    HW217802   0.683   1.432   7.444 -2.2180 -1.0087  1.3593
 2114SOL     OW17803   1.938   3.409   9.419 -0.5917  0.4741 -0.6319
 2114SOL    HW117804   1.945   3.452   9.334 -1.0026 -0.3648 -1.0805
 2114SOL    HW217805   1.843   3.398   9.425 -0.6866  0.5534 -2.0228
 2115SOL     OW17806   0.263   1.911   8.787 -0.1700 -0.2818 -0.3468
 2115SOL    HW117807   0.264   1.957   8.871  0.8804  0.4808 -0.7766
 2115SOL    HW217808   0.269   1.821   8.819  0.1502  0.4423  1.6137
 2116SOL     OW17809   0.325   1.034   1.160 -0.4146  0.6350  0.5142
 2116SOL    HW117810   0.254   1.005   1.217  0.3232 -3.4164 -0.5897
 2116SOL    HW217811   0.374   1.090   1.220 -0.1883  0.7189  0.2522
 2117SOL     OW17812   2.441   0.130  11.010 -0.3103 -0.8799  0.0827
 2117SOL    HW117813   2.363   0.076  11.012  1.2641 -3.1718 -0.5750
 2117SOL    HW217814   2.435   0.178  11.093  0.5212 -0.8018  0.1017
 2118SOL     OW17815   0.384   4.514  15.358  0.0890 -0.5451 -0.4544
 2118SOL    HW117816   0.301   4.548  15.324 -0.2050  0.8758  1.7145
 2118SOL    HW217817   0.429   4.597  15.372 -0.2442 -0.6469  1.1347
 2119SOL     OW17818   4.290   0.430   5.617  0.0406 -0.3229  0.2333
 2119SOL    HW117819   4.320   0.363   5.556  2.8312  0.5927  0.6232
 2119SOL    HW217820   4.198   0.419   5.595 -0.6776  1.2498  2.4253
 2120SOL     OW17821   3.146   0.993  12.192 -0.1472  0.0334  0.3449
 2120SOL    HW117822   3.096   1.070  12.166 -0.6167 -0.5457 -0.4964
 2120SOL    HW217823   3.206   0.987  12.118 -1.4233  2.8111 -0.9307
 2121SOL     OW17824   1.019   3.627   9.088  0.5734  0.2080  0.6263
 2121SOL    HW117825   1.065   3.562   9.035 -0.8267 -0.6708  0.4895
 2121SOL    HW217826   0.948   3.575   9.125  0.5235  2.8878  4.2462
 2122SOL     OW17827   4.709   1.230   3.354 -0.3683  0.2451  0.1469
 2122SOL    HW117828   4.707   1.156   3.414 -1.8838  1.3198  1.4696
 2122SOL    HW217829   0.049   1.289   3.400  0.0821 -0.0630 -0.0607
 2123SOL     OW17830   4.574   3.356   0.224  0.2223  0.0719 -0.1396
 2123SOL    HW117831   4.542   3.280   0.272 -0.3507  1.1941  1.2771
 2123SOL    HW217832   4.537   3.337   0.138  0.1845 -1.4887  0.2240
 2124SOL     OW17833   2.051   1.094   9.797  0.3006 -0.0458 -0.3918
 2124SOL    HW117834   2.020   1.072   9.709 -1.0545 -2.0030  0.5858
 2124SOL    HW217835   1.968   1.126   9.833  0.4560  1.1722 -1.1160
 2125SOL     OW17836   4.684   2.393  17.634  0.3630 -0.0788 -0.1601
 2125SOL    HW117837   4.691   2.299  17.619  1.0209 -0.0955  0.2690
 2125SOL    HW217838   4.590   2.400  17.651  0.5084  0.7925  0.2992
 2126SOL     OW17839   4.309   3.841  14.873  0.5703 -0.7254 -0.3140
 2126SOL    HW117840   4.264   3.837  14.789  2.0842 -1.7525 -1.0796
 2126SOL    HW217841   4.230   3.831  14.926 -0.7043  1.0635 -1.9111
 2127SOL     OW17842   4.436   2.110   2.303 -0.3603 -0.5046 -0.0449
 2127SOL    HW117843   4.394   2.040   2.253 -1.2939 -2.1166  3.0278
 2127SOL    HW217844   4.519   2.106   2.255  0.6858 -0.4675  1.7548
 2128SOL     OW17845   3.638   1.170   5.278  0.3618  0.5302  0.2091
 2128SOL    HW117846   3.664   1.112   5.349 -0.0828  0.2535  0.1446
 2128SOL    HW217847   3.719   1.169   5.227  0.6883 -2.5125  0.8138
 2129SOL     OW17848   0.028   0.385  12.620 -0.5604 -0.3443 -0.5083
 2129SOL    HW117849   0.031   0.425  12.707  0.4888 -1.3938 -0.0815
 2129SOL    HW217850   4.676   0.435  12.581  0.7303  0.5233 -1.8156
 2130SOL     OW17851   1.558   1.381  12.928 -0.1032 -0.3630  0.3990
 2130SOL    HW117852   1.653   1.376  12.916  0.1967  3.0072  1.2632
 2130SOL    HW217853   1.538   1.474  12.940  2.7895  0.3544 -0.1278
 2131SOL     OW17854   3.257   2.764   6.984 -0.1417  0.0668 -0.0444
 2131SOL    HW117855   3.290   2.677   7.003  0.0221  0.2489  0.5128
 2131SOL    HW217856   3.336   2.799   6.941 -1.0712  0.5356 -1.3851
 2132SOL     OW17857   1.924   0.841   3.796 -0.4305  0.1055 -0.0984
 2132SOL    HW117858   1.855   0.881   3.742 -1.0826 -0.3493  0.4046
 2132SOL    HW217859   1.949   0.923   3.839  1.6805 -0.6555  0.0942
 2133SOL     OW17860   4.293   3.615  10.050 -0.7675  0.3661  0.2433
 2133SOL    HW117861   4.324   3.684  10.108 -1.8693 -0.0736  1.3377
 2133SOL    HW217862   4.344   3.624   9.969  0.5875 -2.2556  0.8040
 2134SOL     OW17863   4.606   3.446   3.639  0.6985 -0.7114  0.0203
 2134SOL    HW117864   4.539   3.380   3.654  0.9092 -0.7704  0.7163
 2134SOL    HW217865   4.659   3.432   3.717  0.3218 -1.1389  0.1962
 2135SOL     OW17866   1.169   3.069   2.849 -0.4320 -0.3300 -0.1398
 2135SOL    HW117867   1.180   2.976   2.865 -1.7215 -0.5932 -0.7340
 2135SOL    HW217868   1.074   3.082   2.857 -0.6004 -1.5821 -0.1156
 2136SOL     OW17869   4.369   3.650   4.388 -0.7958  0.2274  0.7124
 2136SOL    HW117870   4.336   3.574   4.338  0.0967  0.7767 -0.7078
 2136SOL    HW217871   4.297   3.713   4.389  0.8868  2.1354  2.3812
 2137SOL     OW17872   1.193   4.506   4.714  0.5889  0.1655 -0.2123
 2137SOL    HW117873   1.243   4.443   4.766 -1.4019 -1.8749 -0.7491
 2137SOL    HW217874   1.234   4.496   4.628 -0.7981 -2.6304 -0.5682
 2138SOL     OW17875   1.523   3.924   6.216  0.4180  0.1726  0.1663
 2138SOL    HW117876   1.546   4.001   6.164  1.7525 -0.9793 -0.9243
 2138SOL    HW217877   1.429   3.905   6.210  0.3543  0.2550  0.8780
 2139SOL     OW17878   2.788   4.237   7.956 -0.1638  0.4280  0.1583
 2139SOL    HW117879   2.855   4.291   7.999 -0.1838 -0.5980  1.4646
 2139SOL    HW217880   2.728   4.307   7.933  0.8985  1.4856  0.5901
 2140SOL     OW17881   0.329   4.214   8.137 -0.2399 -0.5564  0.5897
 2140SOL    HW117882   0.393   4.222   8.067 -0.3864 -0.1130  0.5083
 2140SOL    HW217883   0.333   4.302   8.175  1.9473  0.8075 -2.7906
 2141SOL     OW17884   0.078   3.461   3.847 -0.0089  0.4195 -0.0607
 2141SOL    HW117885   0.168   3.430   3.856  0.0619  0.9838  1.1174
 2141SOL    HW217886   0.082   3.536   3.906 -0.7858 -0.0912  0.6513
 2142SOL     OW17887   1.146   2.946   8.675 -0.1554  0.2016 -0.0152
 2142SOL    HW117888   1.176   3.036   8.687 -1.2755  0.4274  1.0328
 2142SOL    HW217889   1.085   2.942   8.601 -1.5950  0.8632  1.1275
 2143SOL     OW17890   0.292   1.156   9.511  0.0592 -0.7991 -0.9613
 2143SOL    HW117891   0.196   1.146   9.514 -0.0116 -0.1075 -1.0080
 2143SOL    HW217892   0.301   1.200   9.595 -0.4998  1.7191 -2.2244
 2144SOL     OW17893   4.250   4.703   5.285 -0.0105  0.0028 -0.5798
 2144SOL    HW117894   4.264   4.712   5.191  1.4981 -2.0277 -0.5636
 2144SOL    HW217895   4.196   4.624   5.282 -1.6470  1.1101 -0.2332
 2145SOL     OW17896   3.565   2.452  10.193 -0.0117 -0.4047  0.0500
 2145SOL    HW117897   3.607   2.531  10.225 -0.2717  0.4468 -1.7154
 2145SOL    HW217898   3.621   2.437  10.117 -1.6314  2.0491 -1.6322
 2146SOL     OW17899   1.253   3.414   5.026 -0.9293 -0.0828 -0.0896
 2146SOL    HW117900   1.329   3.473   5.018 -0.6613 -0.3162  0.7364
 2146SOL    HW217901   1.234   3.443   5.116 -2.4397 -0.6084 -0.2537
 2147SOL     OW17902   4.290   1.537   4.674 -0.2198 -0.8975  0.0692
 2147SOL    HW117903   4.335   1.530   4.590 -0.1929  0.0594  0.0137
 2147SOL    HW217904   4.208   1.579   4.647  1.1294  1.6177 -0.0211
 2148SOL     OW17905   0.434   3.202  16.266  0.2022 -0.2144 -0.0788
 2148SOL    HW117906   0.401   3.113  16.255  1.0650 -0.5804  0.3335
 2148SOL    HW217907   0.478   3.206  16.181 -0.8632  1.1573 -0.5542
 2149SOL     OW17908   1.872   1.406   5.345  0.6057  0.2558 -0.3936
 2149SOL    HW117909   1.787   1.447   5.326  0.7633  0.2496 -1.1317
 2149SOL    HW217910   1.935   1.445   5.285 -0.2557  0.3839 -1.2245
 2150SOL     OW17911   0.708   4.571   8.086  0.1854  0.1621 -0.1781
 2150SOL    HW117912   0.633   4.618   8.050 -1.3019 -0.2460  2.4010
 2150SOL    HW217913   0.780   4.618   8.042  0.0289  0.0773 -0.5271
 2151SOL     OW17914   3.613   2.278   1.986  0.1177  0.1261 -0.4770
 2151SOL    HW117915   3.541   2.340   1.983 -0.3398 -0.4409 -1.3756
 2151SOL    HW217916   3.580   2.221   1.917 -0.4153 -0.4646  0.2621
 2152SOL     OW17917   3.554   4.042   5.521  0.4416  0.1330  0.6692
 2152SOL    HW117918   3.639   4.031   5.479 -0.0780  1.6921 -0.7475
 2152SOL    HW217919   3.580   4.005   5.606 -0.5061 -1.1225  0.4167
 2153SOL     OW17920   3.821   0.848  11.601  0.4835  0.0887 -0.4344
 2153SOL    HW117921   3.798   0.850  11.508 -0.5761 -1.9066 -0.2296
 2153SOL    HW217922   3.750   0.906  11.629  0.5367  0.1681 -0.4648
 2154SOL     OW17923   3.102   1.693   3.386  0.6314  0.2973  0.2140
 2154SOL    HW117924   3.140   1.697   3.473 -0.3349  0.1176  0.6411
 2154SOL    HW217925   3.180   1.709   3.333 -0.9124  0.0587 -2.1350
 2155SOL     OW17926   1.233   0.289  17.620 -0.1125  0.2254 -0.6733
 2155SOL    HW117927   1.222   0.333   0.018 -0.8637  0.0952 -0.7006
 2155SOL    HW217928   1.324   0.260  17.623 -0.6138 -1.3782 -0.9368
 2156SOL     OW17929   2.273   2.323  14.290 -0.1532 -0.2123 -0.3505
 2156SOL    HW117930   2.340   2.279  14.237  0.7277  1.4964 -0.6523
 2156SOL    HW217931   2.207   2.352  14.227  0.3932 -1.1488 -1.3633
 2157SOL     OW17932   3.613   1.030  11.671  0.3758  0.2285  0.0037
 2157SOL    HW117933   3.532   1.049  11.718  0.0309 -0.1663 -0.4333
 2157SOL    HW217934   3.603   1.088  11.596 -0.0694  1.5747  1.0969
 2158SOL     OW17935   2.655   0.334   2.429  0.5237  0.0539  0.3373
 2158SOL    HW117936   2.560   0.344   2.422  0.8037  1.1802 -1.9651
 2158SOL    HW217937   2.670   0.240   2.427  0.7724  0.1917 -3.8116
 2159SOL     OW17938   3.733   0.344   2.443 -0.2565  0.1644  0.1155
 2159SOL    HW117939   3.686   0.265   2.471  0.3558 -0.2776 -0.1218
 2159SOL    HW217940   3.815   0.336   2.492 -0.2563  1.4102  0.3201
 2160SOL     OW17941   3.067   2.264  16.114  0.0499  0.2262  0.1357
 2160SOL    HW117942   2.985   2.292  16.155 -0.1567  0.0260 -0.1480
 2160SOL    HW217943   3.039   2.176  16.088 -0.5968 -0.2128  2.2280
 2161SOL     OW17944   3.326   4.258  11.349 -0.5658  0.7911 -0.1728
 2161SOL    HW117945   3.282   4.343  11.352  0.2848  1.2423 -0.3601
 2161SOL    HW217946   3.405   4.275  11.297  0.7059  0.2157  1.5853
 2162SOL     OW17947   1.455   1.243   3.250 -0.1267 -0.4346  0.2033
 2162SOL    HW117948   1.406   1.199   3.181 -0.4837 -0.8177  0.6961
 2162SOL    HW217949   1.527   1.283   3.202 -0.1174  0.2990  0.8347
 2163SOL     OW17950   4.183   1.125  10.333 -0.1228 -0.6496 -0.1755
 2163SOL    HW117951   4.100   1.078  10.331 -2.0126  2.7303 -0.5948
 2163SOL    HW217952   4.147   1.210  10.358 -0.3815 -1.1761  1.2383
 2164SOL     OW17953   3.943   0.832   8.583  0.2879  0.6476 -0.3077
 2164SOL    HW117954   3.975   0.868   8.500  0.4770 -1.9832 -1.3728
 2164SOL    HW217955   3.873   0.895   8.601  2.0568  2.4019  0.5195
 2165SOL     OW17956   0.478   0.729  11.207 -0.2269  1.0516  0.1314
 2165SOL    HW117957   0.502   0.809  11.254  0.0774  1.2549 -0.3722
 2165SOL    HW217958   0.394   0.704  11.246  1.6048  1.1072  4.1554
 2166SOL     OW17959   1.936   2.383  14.651  0.2178  0.1968 -0.2496
 2166SOL    HW117960   2.001   2.357  14.717  0.4201  0.7024 -0.2525
 2166SOL    HW217961   1.993   2.427  14.588  0.0535 -0.4094 -0.8192
 2167SOL     OW17962   0.646   1.726   7.136  0.1539 -0.1603  0.2168
 2167SOL    HW117963   0.673   1.805   7.089  2.0058  0.1775  1.8283
 2167SOL    HW217964   0.694   1.746   7.217 -0.1716  0.2998  0.2941
 2168SOL     OW17965   2.326   0.219   1.957 -0.0440  0.4030 -0.1403
 2168SOL    HW117966   2.272   0.175   1.890 -0.3522  1.5290 -0.6292
 2168SOL    HW217967   2.372   0.143   1.992 -2.2890 -1.2840 -0.8138
 2169SOL     OW17968   0.505   3.236  11.019  0.2791 -0.2013  0.2769
 2169SOL    HW117969   0.581   3.211  10.966  0.3620  2.4862 -0.8384
 2169SOL    HW217970   0.527   3.205  11.107  0.0042  0.4689  0.5817
 2170SOL     OW17971   2.933   1.403   3.830 -0.3731  0.1182 -0.5540
 2170SOL    HW117972   3.005   1.356   3.789  0.4478  2.0847 -1.3753
 2170SOL    HW217973   2.981   1.436   3.906  0.7136 -1.2675 -0.6355
 2171SOL     OW17974   2.952   1.366  12.904 -0.6695 -0.1913 -0.4642
 2171SOL    HW117975   2.986   1.382  12.992 -0.2803 -0.2533 -0.6014
 2171SOL    HW217976   2.997   1.430  12.848  1.3883 -0.7480  0.5620
 2172SOL     OW17977   0.570   3.490  16.345 -0.2902  0.0574  0.6984
 2172SOL    HW117978   0.481   3.471  16.315  0.1846 -0.7490 -0.1995
 2172SOL    HW217979   0.619   3.438  16.281  0.0108 -1.6916  2.3539
 2173SOL     OW17980   2.991   0.560   4.074 -0.6512 -0.1864  0.7650
 2173SOL    HW117981   2.984   0.542   4.167 -1.5368  0.8183  0.8917
 2173SOL    HW217982   2.913   0.614   4.063  0.6989  2.1199  2.5377
 2174SOL     OW17983   0.221   3.296  13.592  0.4189  0.2138  0.7449
 2174SOL    HW117984   0.180   3.380  13.609 -1.2013 -0.2952 -0.5807
 2174SOL    HW217985   0.144   3.240  13.581 -0.7249  1.8251  0.6950
 2175SOL     OW17986   0.530   2.435  17.417  0.2648  0.2144  0.4129
 2175SOL    HW117987   0.527   2.500  17.347  2.4943 -0.5485 -0.3849
 2175SOL    HW217988   0.595   2.373  17.383 -0.4189  0.6333 -1.6609
 2176SOL     OW17989   2.801   2.608   5.169 -0.1075 -0.3489  0.1932
 2176SOL    HW117990   2.775   2.618   5.261  1.3880  1.5460  0.3958
 2176SOL    HW217991   2.869   2.540   5.165 -1.5845 -1.9595  1.9888
 2177SOL     OW17992   0.083   2.036   9.266 -0.1468  0.3351 -0.0726
 2177SOL    HW117993   0.050   1.956   9.309  0.3047  0.3608  0.3152
 2177SOL    HW217994   0.023   2.032   9.191 -2.6377 -0.0230  1.9293
 2178SOL     OW17995   2.094   3.416   4.313  0.2094  0.4365  0.3588
 2178SOL    HW117996   2.023   3.446   4.369  0.8054  1.0803  0.7677
 2178SOL    HW217997   2.041   3.366   4.252  1.8624  0.1449 -0.8385
 2179SOL     OW17998   3.122   3.763   4.259  0.2363  0.5184 -0.3332
 2179SOL    HW117999   3.140   3.776   4.352  1.6535  3.5202 -1.0285
 2179SOL    HW218000   3.188   3.696   4.240  0.5876  0.2110  1.9899
 2180SOL     OW18001   1.720   0.320  16.989  0.2497  0.2317  0.1264
 2180SOL    HW118002   1.776   0.328  17.066 -2.2379 -0.7258  2.0231
 2180SOL    HW218003   1.732   0.397  16.934  0.3512  1.0466  1.2806
 2181SOL     OW18004   1.993   1.134  12.870 -0.1201 -0.1236  0.3099
 2181SOL    HW118005   2.071   1.185  12.891 -0.2591 -0.5395  1.8044
 2181SOL    HW218006   2.031   1.100  12.789  0.6801  2.5407 -0.4209
 2182SOL     OW18007   2.570   0.550  12.429  0.4292 -0.1754 -0.0033
 2182SOL    HW118008   2.539   0.590  12.511  1.4108 -0.0450  0.2960
 2182SOL    HW218009   2.563   0.627  12.374  0.7072 -1.1263 -1.3606
 2183SOL     OW18010   1.556   4.499  10.925 -0.3887  0.4020  0.0082
 2183SOL    HW118011   1.624   4.442  10.963 -1.7592 -1.4763 -0.3781
 2183SOL    HW218012   1.576   4.586  10.961 -1.4314  0.5217  0.2982
 2184SOL     OW18013   0.574   1.185   2.049  0.1557  0.4069  0.2593
 2184SOL    HW118014   0.541   1.104   2.089 -1.7224  0.5195 -1.0742
 2184SOL    HW218015   0.497   1.236   2.073  0.2671  0.1318  1.2151
 2185SOL     OW18016   4.317   4.292   6.778  0.5288  0.4791  0.1718
 2185SOL    HW118017   4.382   4.222   6.766 -2.4570 -1.9372 -1.8636
 2185SOL    HW218018   4.244   4.246   6.737 -0.1933  1.2007  0.6666
 2186SOL     OW18019   3.232   2.401  10.118  0.2465 -0.3230 -0.0421
 2186SOL    HW118020   3.261   2.404  10.026  1.3216 -3.5099  0.1858
 2186SOL    HW218021   3.188   2.317  10.112  0.8153 -0.5778 -0.6296
 2187SOL     OW18022   1.689   2.498  10.801 -0.0163  0.6524 -0.1727
 2187SOL    HW118023   1.602   2.500  10.761 -0.3569  0.7794  0.5667
 2187SOL    HW218024   1.750   2.506  10.728 -1.7525 -0.0545 -1.6761
 2188SOL     OW18025   3.260   0.971  17.078  0.5539  0.3313 -0.3568
 2188SOL    HW118026   3.308   0.901  17.123  2.1272  2.5537  1.4346
 2188SOL    HW218027   3.190   0.992  17.139 -1.1567 -0.5086 -2.0392
 2189SOL     OW18028   2.028   3.590   2.012 -0.5021  0.4766  0.9884
 2189SOL    HW118029   2.113   3.622   1.982  0.5650 -1.0882  2.3269
 2189SOL    HW218030   2.010   3.652   2.084 -2.6645  0.3974  0.5322
 2190SOL     OW18031   3.339   1.876   2.260  0.1246 -0.6100  0.5128
 2190SOL    HW118032   3.372   1.904   2.345  2.2494 -1.3837 -0.0653
 2190SOL    HW218033   3.393   1.926   2.199 -2.6259 -0.6440 -1.9511
 2191SOL     OW18034   4.395   3.299   3.641 -0.3563  0.0650 -0.4471
 2191SOL    HW118035   4.369   3.249   3.564 -3.3834 -0.9725  1.2603
 2191SOL    HW218036   4.361   3.237   3.705  0.4690 -0.8741 -0.9172
 2192SOL     OW18037   3.797   3.556   9.800 -0.0750  0.2641  0.0349
 2192SOL    HW118038   3.739   3.481   9.794 -0.9100  1.0988 -2.5999
 2192SOL    HW218039   3.777   3.595   9.885 -0.1827 -0.0917  0.1696
 2193SOL     OW18040   2.845   4.157   6.360  0.0807 -0.3478  0.1182
 2193SOL    HW118041   2.781   4.208   6.310  2.3673  2.2867 -0.1351
 2193SOL    HW218042   2.920   4.212   6.337 -0.3165  0.5119  0.8971
 2194SOL     OW18043   4.449   4.666   5.042 -0.3994 -0.3657 -0.1406
 2194SOL    HW118044   4.515   0.001   5.000 -1.3238  0.6717 -0.2191
 2194SOL    HW218045   4.492   4.633   5.121  0.0501 -1.1716 -0.7203
 2195SOL     OW18046   3.972   3.952   6.261  0.2167  0.0639  0.6314
 2195SOL    HW118047   4.058   3.991   6.273  0.0909  0.4570  0.2448
 2195SOL    HW218048   3.921   4.024   6.299 -0.1492  0.7017 -1.0630
 2196SOL     OW18049   3.695   3.363   2.648  0.0142  0.4557 -0.1390
 2196SOL    HW118050   3.680   3.269   2.638  0.6584  0.2966  0.3934
 2196SOL    HW218051   3.790   3.365   2.636 -0.0448 -0.3263 -0.7604
 2197SOL     OW18052   3.698   0.753   2.976  0.1856  0.2065  0.3453
 2197SOL    HW118053   3.668   0.754   2.885 -0.8833  1.0340  0.7163
 2197SOL    HW218054   3.615   0.771   3.020  0.7833  2.8965  0.4057
 2198SOL     OW18055   0.210   0.860   5.111 -0.3881 -0.5947  0.1133
 2198SOL    HW118056   0.242   0.895   5.194 -2.5982 -1.4993  1.3345
 2198SOL    HW218057   0.154   0.929   5.074 -0.3982 -0.1134  1.0359
 2199SOL     OW18058   2.176   2.561  16.742 -0.1782 -0.3433 -0.1158
 2199SOL    HW118059   2.128   2.604  16.813  0.5731  0.4640 -0.0949
 2199SOL    HW218060   2.243   2.518  16.795  0.2850  0.1174 -0.3270
 2200SOL     OW18061   0.706   3.867   7.417 -0.0370 -0.1557  0.3483
 2200SOL    HW118062   0.714   3.895   7.508 -2.0751 -0.5170  0.6298
 2200SOL    HW218063   0.752   3.783   7.411  1.0710  0.4312  0.7188
 2201SOL     OW18064   3.711   4.057   4.884  0.4412 -0.6140 -0.5556
 2201SOL    HW118065   3.784   4.104   4.843  0.7301 -1.6178 -1.1802
 2201SOL    HW218066   3.751   4.019   4.962  0.5644  0.6857  0.0134
 2202SOL     OW18067   3.578   4.540   1.173  0.2075  0.2094  0.5509
 2202SOL    HW118068   3.520   4.571   1.243  0.8756  3.2359 -0.2832
 2202SOL    HW218069   3.603   4.626   1.141 -0.6556  0.8780  1.6934
 2203SOL     OW18070   0.905   1.776   1.520  0.5198 -0.3747  0.4737
 2203SOL    HW118071   0.815   1.809   1.519  0.5019 -0.4063  0.7596
 2203SOL    HW218072   0.954   1.854   1.494 -0.3766  0.1793  0.4483
 2204SOL     OW18073   0.570   1.542   4.199  0.4277 -0.0790  0.1682
 2204SOL    HW118074   0.510   1.469   4.218  0.8680 -0.4833 -0.0062
 2204SOL    HW218075   0.630   1.499   4.138  0.7259 -1.1768  1.2462
 2205SOL     OW18076   1.499   0.903   6.978 -0.4829 -0.3367  0.2110
 2205SOL    HW118077   1.453   0.950   6.909 -1.4650 -1.8871 -0.1883
 2205SOL    HW218078   1.474   0.959   7.051 -1.8318 -0.0455 -0.4709
 2206SOL     OW18079   3.078   2.773   9.349  0.2032 -0.1146 -0.1382
 2206SOL    HW118080   3.049   2.800   9.262  1.2953  0.9012 -0.1918
 2206SOL    HW218081   3.102   2.681   9.339 -3.2416 -0.7944 -2.2241
 2207SOL     OW18082   3.704   0.188   4.202 -0.1616 -0.5903  0.2328
 2207SOL    HW118083   3.754   0.111   4.229  0.6739  0.1272  0.7368
 2207SOL    HW218084   3.642   0.150   4.140  0.2139 -1.8113  0.6075
 2208SOL     OW18085   0.774   3.609  15.079  0.1892  1.0158 -0.6267
 2208SOL    HW118086   0.737   3.554  15.148 -2.2513  0.1078 -2.6345
 2208SOL    HW218087   0.763   3.544  15.009 -1.2513 -1.0633  1.5333
 2209SOL     OW18088   1.667   0.010   2.992 -0.5158  0.7222 -0.2518
 2209SOL    HW118089   1.571   0.012   2.998 -0.6350  0.1339 -2.1401
 2209SOL    HW218090   1.685   4.699   3.080 -1.6615 -2.1398 -1.0629
 2210SOL     OW18091   3.016   3.165  11.334 -0.0147  0.3267 -0.3114
 2210SOL    HW118092   2.974   3.215  11.263 -2.1263  0.3858  0.9655
 2210SOL    HW218093   2.999   3.211  11.416  1.4353 -0.7190  0.5585
 2211SOL     OW18094   1.630   3.227  16.780  0.4428 -0.4194 -0.0029
 2211SOL    HW118095   1.626   3.256  16.688  1.4054  0.2548  0.1660
 2211SOL    HW218096   1.545   3.255  16.814 -0.8783  0.2178 -3.7299
 2212SOL     OW18097   1.616   1.586   2.326  0.2631 -0.0887 -0.5091
 2212SOL    HW118098   1.692   1.601   2.382  0.2325  1.8249 -1.0126
 2212SOL    HW218099   1.637   1.647   2.255  0.4139  0.4342 -0.0112
 2213SOL     OW18100   2.420   2.162  16.090 -0.0058  0.3878  0.0220
 2213SOL    HW118101   2.496   2.105  16.076 -0.9925 -0.7142 -0.8253
 2213SOL    HW218102   2.403   2.148  16.183  0.6199 -1.9945 -0.2149
 2214SOL     OW18103   1.869   2.404   6.931  0.7388  0.0227  0.4545
 2214SOL    HW118104   1.821   2.418   6.849  0.3669 -0.7953  0.5327
 2214SOL    HW218105   1.934   2.474   6.922 -0.6997  1.4143  0.9965
 2215SOL     OW18106   1.382   1.835   0.366  0.1869  0.1423 -0.3233
 2215SOL    HW118107   1.365   1.837   0.460 -0.0376 -1.7662 -0.3282
 2215SOL    HW218108   1.289   1.820   0.347 -0.1182  0.4239  0.9271
 2216SOL     OW18109   1.738   4.131  11.575  0.2455 -0.2138 -0.8639
 2216SOL    HW118110   1.814   4.145  11.632  0.9328 -0.0290 -1.8421
 2216SOL    HW218111   1.691   4.063  11.625  0.7817 -0.4277 -0.6518
 2217SOL     OW18112   0.502   2.438   9.184  0.2049 -0.7377  0.9820
 2217SOL    HW118113   0.439   2.473   9.247  1.3961 -0.5328  2.0575
 2217SOL    HW218114   0.461   2.354   9.161 -0.3286 -0.0256 -0.6136
 2218SOL     OW18115   0.735   0.259   7.473  0.4775  0.1834 -0.2005
 2218SOL    HW118116   0.724   0.165   7.459  1.8812 -0.3650  2.3655
 2218SOL    HW218117   0.813   0.252   7.529  0.1628 -2.2471 -0.0516
 2219SOL     OW18118   4.090   0.967  15.824 -0.0566  0.4599  0.4809
 2219SOL    HW118119   4.036   1.025  15.877  1.4418  0.4790  1.9716
 2219SOL    HW218120   4.172   0.968  15.873 -0.6282  0.8247  1.4253
 2220SOL     OW18121   3.624   1.500  16.953  0.9697  0.1511 -0.1027
 2220SOL    HW118122   3.621   1.439  16.879  1.7207  0.4724 -0.3923
 2220SOL    HW218123   3.594   1.581  16.911 -0.0795 -0.9006 -1.3981
 2221SOL     OW18124   1.453   3.267   3.555  0.1969  0.4814 -0.1709
 2221SOL    HW118125   1.528   3.210   3.537  1.6697  2.0254  1.1081
 2221SOL    HW218126   1.386   3.219   3.506  1.0611  0.1608 -1.0337
 2222SOL     OW18127   2.149   2.182   5.832  0.1834  0.0944 -0.0828
 2222SOL    HW118128   2.218   2.190   5.767 -2.2050  1.0165 -2.5258
 2222SOL    HW218129   2.201   2.154   5.907 -2.2692 -0.3141  1.4902
 2223SOL     OW18130   1.956   3.993   3.307  0.0137  0.2819  0.0838
 2223SOL    HW118131   1.917   3.934   3.242  1.1922  0.3387 -0.6672
 2223SOL    HW218132   1.990   4.059   3.247 -1.1102  0.9167  0.1341
 2224SOL     OW18133   4.318   2.532   0.356 -0.7555  0.0571 -0.4863
 2224SOL    HW118134   4.248   2.472   0.382  0.6502 -0.9414  1.0252
 2224SOL    HW218135   4.342   2.572   0.440 -1.3806 -0.8966  0.1396
 2225SOL     OW18136   1.807   3.027  15.901  0.2391  0.5434  0.1922
 2225SOL    HW118137   1.871   2.995  15.964 -0.3674 -0.7501  0.1585
 2225SOL    HW218138   1.846   3.107  15.866 -2.5392  1.4412 -0.8916
 2226SOL     OW18139   4.268   4.517   2.645  0.0513  0.2350  0.0181
 2226SOL    HW118140   4.283   4.423   2.659 -2.9782 -0.3081 -0.2911
 2226SOL    HW218141   4.314   4.541   2.565  0.1857  0.0877  0.0509
 2227SOL     OW18142   1.395   2.857   5.290 -0.0068 -0.3044 -0.4213
 2227SOL    HW118143   1.471   2.900   5.332 -0.0954  0.2345 -0.8134
 2227SOL    HW218144   1.335   2.828   5.358  1.2210  0.5858  1.0579
 2228SOL     OW18145   0.808   1.088   8.248  0.0853  0.0305  0.5229
 2228SOL    HW118146   0.752   1.127   8.181 -0.1642 -1.5017 -0.1705
 2228SOL    HW218147   0.782   1.137   8.326  1.5106  0.9380  0.4144
 2229SOL     OW18148   2.591   1.883   3.275 -0.0994  0.4709 -0.2111
 2229SOL    HW118149   2.685   1.866   3.287 -0.1901 -0.1589 -0.3598
 2229SOL    HW218150   2.568   1.859   3.185 -0.2102  1.6190 -0.4812
 2230SOL     OW18151   4.093   3.249   4.614 -0.5239  0.1177  0.1938
 2230SOL    HW118152   4.148   3.325   4.637  2.0881 -1.7376  0.0285
 2230SOL    HW218153   4.008   3.289   4.596 -1.3592 -2.1127 -0.7139
 2231SOL     OW18154   2.049   3.160   9.360  0.1498  0.0802 -0.2767
 2231SOL    HW118155   2.027   3.252   9.372 -1.3104 -0.7696  3.6660
 2231SOL    HW218156   1.989   3.140   9.288 -0.2035  0.8586 -0.1938
 2232SOL     OW18157   3.952   3.024   4.984 -0.3710  0.9583 -0.0129
 2232SOL    HW118158   4.019   3.038   4.917 -2.8335 -0.4680 -2.7451
 2232SOL    HW218159   3.945   2.929   4.973  0.1395  1.0751 -1.3007
 2233SOL     OW18160   4.556   0.215   4.896  0.6965  0.3717 -0.3033
 2233SOL    HW118161   4.545   0.161   4.817 -1.0168 -0.5272  0.5645
 2233SOL    HW218162   4.624   0.275   4.864  1.4164  1.9722  4.2833
 2234SOL     OW18163   1.408   4.567   6.184 -0.0955 -0.3552 -0.6732
 2234SOL    HW118164   1.424   4.512   6.108 -0.2997  0.6451 -1.4505
 2234SOL    HW218165   1.493   4.586   6.224 -1.5257  2.4635  1.0337
 2235SOL     OW18166   3.473   1.462  12.602  0.7760  0.3191 -0.4528
 2235SOL    HW118167   3.476   1.385  12.659 -0.0492 -0.8794 -2.0607
 2235SOL    HW218168   3.399   1.427  12.554  1.4311  0.0218 -1.2457
 2236SOL     OW18169   0.697   2.200   0.394  0.2367 -0.0042 -0.0798
 2236SOL    HW118170   0.701   2.185   0.488  2.6172 -1.0279 -0.3431
 2236SOL    HW218171   0.620   2.147   0.373  0.9357 -0.3167 -1.9441
 2237SOL     OW18172   3.057   1.510   4.066 -0.1447 -0.2453 -0.2567
 2237SOL    HW118173   3.055   1.419   4.094  2.4934  0.5586  2.5227
 2237SOL    HW218174   3.108   1.550   4.136 -0.0746 -3.0094  1.2564
 2238SOL     OW18175   0.129   0.757   3.083 -0.5410 -0.2429  0.4086
 2238SOL    HW118176   0.197   0.744   3.017  0.8706 -0.1836  1.8494
 2238SOL    HW218177   0.140   0.850   3.105 -0.2088  0.2775 -2.0134
 2239SOL     OW18178   1.692   1.718  11.166  0.3884  0.4169 -0.0559
 2239SOL    HW118179   1.783   1.739  11.149  0.6126  0.1638  0.8112
 2239SOL    HW218180   1.643   1.795  11.136  2.1145  0.7827 -1.8738
 2240SOL     OW18181   4.597   1.755  14.599  0.5798  0.3167 -0.1825
 2240SOL    HW118182   4.561   1.784  14.683  0.7010 -3.8806  1.3051
 2240SOL    HW218183   4.538   1.807  14.545 -0.0140 -0.3026 -0.1177
 2241SOL     OW18184   4.195   2.450   3.761 -0.3036  0.3268  0.6667
 2241SOL    HW118185   4.265   2.472   3.699 -0.1951 -0.3835  0.5371
 2241SOL    HW218186   4.211   2.356   3.759 -0.2356  0.3570 -0.1654
 2242SOL     OW18187   3.435   1.128   8.647  0.1173  0.3563  0.1142
 2242SOL    HW118188   3.378   1.063   8.687  1.0920  0.5210  1.7674
 2242SOL    HW218189   3.512   1.105   8.698 -2.1993 -0.4737  3.2819
 2243SOL     OW18190   4.051   0.331   7.012 -0.2641 -0.0797  0.1549
 2243SOL    HW118191   4.050   0.272   7.087  0.2202 -0.4424 -0.1159
 2243SOL    HW218192   4.055   0.416   7.056 -0.2033  0.4000 -0.7822
 2244SOL     OW18193   0.216   1.837   1.839  0.4440 -0.1039 -0.3109
 2244SOL    HW118194   0.159   1.904   1.801  0.5178  0.6504  0.9092
 2244SOL    HW218195   0.294   1.857   1.787  0.2826  0.3450 -0.3794
 2245SOL     OW18196   1.307   2.801   2.466  0.1507  0.1919  0.6530
 2245SOL    HW118197   1.263   2.733   2.416 -0.7938  1.9239 -0.8725
 2245SOL    HW218198   1.312   2.865   2.395 -0.7685  0.1714  0.5675
 2246SOL     OW18199   2.545   3.420   4.358 -0.1234  0.4109 -0.4453
 2246SOL    HW118200   2.606   3.474   4.408  0.5067 -1.3137  0.6685
 2246SOL    HW218201   2.561   3.457   4.271  1.2407  1.0890  0.0994
 2247SOL     OW18202   2.047   1.563   5.629  0.1820 -0.2615 -0.1733
 2247SOL    HW118203   2.045   1.521   5.543  1.0038 -0.4857 -0.0835
 2247SOL    HW218204   2.120   1.519   5.673 -0.6726  0.4169  1.9254
 2248SOL     OW18205   4.631   1.993   2.163  0.1266 -0.5782 -0.2763
 2248SOL    HW118206   4.638   1.898   2.173  0.7756 -0.6600 -1.5012
 2248SOL    HW218207   0.001   2.022   2.168 -0.1518 -0.5918  4.7525
 2249SOL     OW18208   3.284   0.003   6.181 -0.4457  0.7355  0.2033
 2249SOL    HW118209   3.269   0.004   6.086 -1.5362  0.7871  0.3741
 2249SOL    HW218210   3.364   0.055   6.177 -0.2660  0.3594 -1.2715
 2250SOL     OW18211   4.182   1.252   4.078  0.0611  0.2230 -0.1602
 2250SOL    HW118212   4.095   1.224   4.049  0.1808 -0.1363 -0.1747
 2250SOL    HW218213   4.232   1.244   3.997  1.3169  1.8060  0.4670
 2251SOL     OW18214   3.137   2.594  10.296 -0.0871  0.1015 -0.3400
 2251SOL    HW118215   3.186   2.520  10.259 -1.4969 -0.0586 -1.8834
 2251SOL    HW218216   3.055   2.547  10.313 -0.0197 -0.6393 -2.0650
 2252SOL     OW18217   3.228   1.101   1.496  0.2635 -0.2028  0.2804
 2252SOL    HW118218   3.289   1.132   1.563  0.9486 -1.4335  0.2226
 2252SOL    HW218219   3.223   1.185   1.450 -0.5351  0.4841  1.5968
 2253SOL     OW18220   4.465   0.301   3.040  0.0730  0.4123 -0.0801
 2253SOL    HW118221   4.424   0.264   2.961 -0.3752 -0.9386  0.7944
 2253SOL    HW218222   4.555   0.276   3.020 -0.0374 -1.4331  1.7398
 2254SOL     OW18223   0.969   3.566   8.127 -0.3925  0.3518  0.0921
 2254SOL    HW118224   0.955   3.594   8.218 -1.2118 -0.2019  0.1444
 2254SOL    HW218225   0.879   3.550   8.097 -0.2955  0.6807 -0.3654
 2255SOL     OW18226   1.836   0.181   1.519  0.0245  0.7527  0.4658
 2255SOL    HW118227   1.884   0.125   1.580 -3.0182 -1.0660  1.2260
 2255SOL    HW218228   1.834   0.264   1.567 -0.8895  1.1845 -0.3155
 2256SOL     OW18229   0.321   4.190  15.174 -0.2402  0.0924  0.0708
 2256SOL    HW118230   0.267   4.257  15.215 -0.3421  0.4475 -0.6553
 2256SOL    HW218231   0.343   4.136  15.251  1.1871 -1.8742 -1.6914
 2257SOL     OW18232   4.666   1.906  15.387  0.0639  0.2687 -0.3909
 2257SOL    HW118233   4.715   1.958  15.324  1.3775  0.6414  0.9603
 2257SOL    HW218234   4.608   1.881  15.315  1.8250  1.1136 -2.1112
 2258SOL     OW18235   4.321   4.699   2.016 -0.2672  0.4179 -0.5847
 2258SOL    HW118236   4.274   0.032   2.080  1.3025  2.3022 -0.9939
 2258SOL    HW218237   4.396   0.038   2.013  0.1592 -0.1442 -1.2590
 2259SOL     OW18238   1.786   4.039   4.215 -0.1852  0.0629 -0.5630
 2259SOL    HW118239   1.833   4.065   4.136  3.2865 -0.6710  1.2823
 2259SOL    HW218240   1.773   4.128   4.248 -2.0594 -0.4455  0.0825
 2260SOL     OW18241   1.701   3.602   4.246 -0.4405  0.5889  0.0036
 2260SOL    HW118242   1.669   3.677   4.195  1.4419  2.0199  0.9400
 2260SOL    HW218243   1.621   3.584   4.295 -0.3071  0.9496  0.3503
 2261SOL     OW18244   1.910   0.436   3.031 -0.1221  0.0977 -0.6865
 2261SOL    HW118245   1.871   0.489   2.962 -0.8328  0.1078 -0.2720
 2261SOL    HW218246   2.003   0.460   3.034  0.2980 -1.6737  0.3901
 2262SOL     OW18247   3.486   1.970  10.546  0.3804 -0.0197  0.1627
 2262SOL    HW118248   3.393   1.952  10.535  0.2823  0.0276  0.9480
 2262SOL    HW218249   3.525   1.884  10.533 -1.4213 -0.7971 -0.0592
 2263SOL     OW18250   1.697   0.814   5.219 -0.3360  0.1951 -0.2260
 2263SOL    HW118251   1.731   0.889   5.267 -2.8546 -1.2180  3.7911
 2263SOL    HW218252   1.777   0.788   5.174 -0.5566 -1.1771  0.1887
 2264SOL     OW18253   0.908   0.388   9.568 -0.8561  0.0918  0.0152
 2264SOL    HW118254   0.922   0.483   9.567 -1.3137  0.1623  0.6068
 2264SOL    HW218255   0.818   0.402   9.597 -0.5990 -1.0425  1.3361
 2265SOL     OW18256   2.932   4.398   7.360  0.0190  0.2089 -0.2401
 2265SOL    HW118257   2.912   4.312   7.396  2.8259  0.0454  0.9256
 2265SOL    HW218258   3.017   4.371   7.323 -1.4320 -2.4900 -1.5860
 2266SOL     OW18259   2.938   3.644  17.374 -0.5207 -0.2822  0.1357
 2266SOL    HW118260   2.940   3.673  17.283  2.1688 -0.8764  0.0137
 2266SOL    HW218261   2.889   3.716  17.415 -0.5260 -0.4051  0.3462
 2267SOL     OW18262   2.593   1.115   6.623 -0.2303  0.0053 -0.1776
 2267SOL    HW118263   2.580   1.027   6.589  1.3971  0.0692 -0.9443
 2267SOL    HW218264   2.509   1.153   6.598 -1.3573 -1.7953  0.8989
 2268SOL     OW18265   0.098   0.120  12.620 -0.5545 -0.0607 -0.1896
 2268SOL    HW118266   0.181   0.079  12.646 -0.8406  0.2880  1.3099
 2268SOL    HW218267   0.101   0.210  12.653  3.6691 -2.1910  5.4030
 2269SOL     OW18268   1.511   1.257   2.292  0.0747  0.6603  0.7702
 2269SOL    HW118269   1.519   1.300   2.207 -2.6507  0.7550  0.5549
 2269SOL    HW218270   1.491   1.335   2.344 -1.5651  2.7201 -2.9007
 2270SOL     OW18271   0.676   2.239  17.279 -0.5480 -0.0724 -0.6803
 2270SOL    HW118272   0.766   2.234  17.312 -0.5380  1.8822 -0.3876
 2270SOL    HW218273   0.655   2.146  17.275  0.7020 -0.3820 -0.0939
 2271SOL     OW18274   1.787   1.714  15.879  0.2404 -0.2776 -0.6673
 2271SOL    HW118275   1.696   1.735  15.901  1.1770  1.7348  1.2868
 2271SOL    HW218276   1.783   1.770  15.801 -0.6454  2.7404  1.5536
 2272SOL     OW18277   1.778   1.248   9.424 -0.0986 -0.0423  0.0357
 2272SOL    HW118278   1.692   1.289   9.412 -1.0143 -1.8549  0.4179
 2272SOL    HW218279   1.777   1.230   9.330 -0.9995  2.4612 -0.4617
 2273SOL     OW18280   0.384   3.866   6.219  0.0259  0.5310 -0.3082
 2273SOL    HW118281   0.389   3.789   6.275  1.0933 -0.4016 -1.6725
 2273SOL    HW218282   0.412   3.828   6.136  1.1294  0.7170 -0.0336
 2274SOL     OW18283   0.789   3.317   8.169  0.5700  0.2405  0.2129
 2274SOL    HW118284   0.878   3.320   8.205  0.5039 -3.7215  0.8185
 2274SOL    HW218285   0.765   3.228   8.195  1.9686 -0.0376  0.5558
 2275SOL     OW18286   4.530   1.473  13.513  0.0139  0.3476 -0.1243
 2275SOL    HW118287   4.624   1.459  13.510 -0.0245  0.3580 -1.5242
 2275SOL    HW218288   4.517   1.519  13.596  0.9886 -0.8516  0.6858
 2276SOL     OW18289   1.743   2.759   1.579  0.3142 -0.0492  0.6382
 2276SOL    HW118290   1.768   2.839   1.626 -4.3239  1.1750  1.0262
 2276SOL    HW218291   1.707   2.795   1.498  0.9883 -0.3492  0.2008
 2277SOL     OW18292   1.486   4.443   3.027 -0.1647  0.3612  0.1376
 2277SOL    HW118293   1.519   4.518   3.077  2.5626  0.3040 -1.6205
 2277SOL    HW218294   1.442   4.394   3.097  0.7990 -0.4199  0.1915
 2278SOL     OW18295   0.272   1.274   8.363 -0.5697 -0.5340  0.4255
 2278SOL    HW118296   0.352   1.257   8.414  1.2062 -0.8230 -2.4883
 2278SOL    HW218297   0.228   1.190   8.378 -3.6121  0.9121 -0.4482
 2279SOL     OW18298   3.654   3.535  10.544 -0.3870  0.5347 -0.8704
 2279SOL    HW118299   3.717   3.463  10.543 -1.0474 -0.0561  0.3493
 2279SOL    HW218300   3.648   3.560  10.636  1.1585  1.6496 -1.0858
 2280SOL     OW18301   0.065   4.594   6.618  0.3292  0.1589 -0.2673
 2280SOL    HW118302   0.100   4.577   6.706  0.7510  0.5411 -0.3613
 2280SOL    HW218303   0.050   4.504   6.588  0.6561  0.8720 -2.5375
 2281SOL     OW18304   2.638   3.673   5.422 -0.2799 -0.5259 -0.1514
 2281SOL    HW118305   2.610   3.731   5.493 -0.9227 -1.7191  0.5611
 2281SOL    HW218306   2.638   3.589   5.468  0.3518 -1.1204 -1.2324
 2282SOL     OW18307   3.935   4.558   2.254  0.4970 -0.1161 -0.8630
 2282SOL    HW118308   3.905   4.576   2.165  0.9046  0.2529 -0.9251
 2282SOL    HW218309   3.900   4.636   2.297 -2.8286 -1.7614 -0.5701
 2283SOL     OW18310   1.519   1.339   9.380  0.3656  0.3301  0.3893
 2283SOL    HW118311   1.493   1.430   9.395  0.2359 -0.1844  3.3396
 2283SOL    HW218312   1.434   1.297   9.386  0.1495  1.1625  3.3212
 2284SOL     OW18313   4.717   3.208  17.518 -0.3251 -0.2581  0.6478
 2284SOL    HW118314   4.651   3.267  17.554  0.8479  0.8931  0.8689
 2284SOL    HW218315   0.065   3.192  17.582  0.0248 -1.3689  0.0055
 2285SOL     OW18316   3.047   4.669   3.521  0.3544  0.1159 -0.2154
 2285SOL    HW118317   3.042   4.679   3.425  0.8757 -2.7970 -0.5410
 2285SOL    HW218318   2.967   4.624   3.546  0.2930 -0.0297 -0.6801
 2286SOL     OW18319   1.639   1.428  11.556 -0.1374 -0.0468  0.6366
 2286SOL    HW118320   1.636   1.447  11.650 -1.4485  1.8639  0.2023
 2286SOL    HW218321   1.722   1.464  11.526 -1.2846  1.0775 -1.2289
 2287SOL     OW18322   2.679   0.500  16.310 -0.0534  0.4106 -0.0340
 2287SOL    HW118323   2.611   0.437  16.285 -1.0347  1.3806  0.1542
 2287SOL    HW218324   2.654   0.574  16.254 -1.3697  0.6495  0.8720
 2288SOL     OW18325   2.596   1.927   0.254 -0.0610  0.0067  0.4568
 2288SOL    HW118326   2.586   1.843   0.298  0.0306 -0.9052 -1.2677
 2288SOL    HW218327   2.543   1.986   0.308  0.7515  0.9410  0.2387
 2289SOL     OW18328   1.610   1.970  11.578  0.7194 -0.7027 -0.1407
 2289SOL    HW118329   1.680   1.905  11.568  0.4237 -1.1449  0.6350
 2289SOL    HW218330   1.538   1.915  11.548  0.9260 -0.5022 -0.9927
 2290SOL     OW18331   0.913   2.781   8.799 -0.2527 -0.2872  0.2240
 2290SOL    HW118332   0.896   2.840   8.873  0.7885 -1.0152  1.0394
 2290SOL    HW218333   1.008   2.796   8.796 -0.0516 -1.8522 -1.1825
 2291SOL     OW18334   0.232   3.267   1.922 -0.1292  0.1627  0.2085
 2291SOL    HW118335   0.278   3.263   1.838  0.8184  1.5828  0.6594
 2291SOL    HW218336   0.215   3.174   1.940 -1.2538  0.3450  0.0596
 2292SOL     OW18337   4.071   3.268   6.219 -0.0349 -0.0962 -0.1494
 2292SOL    HW118338   3.987   3.312   6.234  0.2396  0.1300  0.7203
 2292SOL    HW218339   4.108   3.282   6.306 -1.0667 -0.5098  0.3509
 2293SOL     OW18340   0.669   0.122   4.107  0.3146 -0.4918 -0.0730
 2293SOL    HW118341   0.743   0.110   4.048 -0.8015 -0.4895 -1.4857
 2293SOL    HW218342   0.617   0.178   4.050  0.8731 -0.0787 -0.1769
 2294SOL     OW18343   4.218   0.070  12.336  0.0150 -0.0402  0.6111
 2294SOL    HW118344   4.216   0.067  12.432 -2.7416 -0.9482  0.5401
 2294SOL    HW218345   4.279   0.001  12.309  0.6515  1.1461 -0.9304
 2295SOL     OW18346   3.390   3.063  17.626 -0.1753  0.4753 -0.2450
 2295SOL    HW118347   3.367   3.084   0.031  0.7369 -1.0896  0.3467
 2295SOL    HW218348   3.357   2.974  17.625 -1.9458  1.1288  0.0247
 2296SOL     OW18349   2.787   2.837   8.225  0.6203 -0.4420 -0.1338
 2296SOL    HW118350   2.843   2.767   8.192  0.7979  0.3281 -1.4692
 2296SOL    HW218351   2.760   2.801   8.309  0.3537  0.2378  0.0678
 2297SOL     OW18352   3.535   2.527   9.102 -0.9295 -0.0967  0.1630
 2297SOL    HW118353   3.495   2.440   9.099 -1.5649  0.1582  1.3843
 2297SOL    HW218354   3.627   2.512   9.080 -0.2829 -1.1381  3.5870
 2298SOL     OW18355   4.657   2.592   7.712  0.4144 -0.7865  0.3586
 2298SOL    HW118356   4.644   2.497   7.710 -1.9774 -0.4593 -0.3079
 2298SOL    HW218357   4.652   2.612   7.618  0.5667 -2.4841 -0.0070
 2299SOL     OW18358   4.391   1.131   6.295 -0.0873 -0.1709 -0.1521
 2299SOL    HW118359   4.366   1.119   6.387 -2.8315 -0.8119 -0.9847
 2299SOL    HW218360   4.486   1.139   6.291 -0.1315 -1.1650 -3.3009
 2300SOL     OW18361   1.622   0.941   9.835  0.1161 -0.0012 -0.1990
 2300SOL    HW118362   1.554   0.927   9.902  0.8594  1.1931  0.8144
 2300SOL    HW218363   1.613   1.033   9.811 -1.5642 -0.3385 -0.8470
 2301SOL     OW18364   3.627   3.765   3.969  0.2836  0.3992 -0.0041
 2301SOL    HW118365   3.612   3.744   4.061 -1.5238  3.1425  0.3291
 2301SOL    HW218366   3.534   3.776   3.948  0.5539 -0.7179 -1.7871
 2302SOL     OW18367   2.167   1.336   8.188 -0.1410 -0.0962 -0.1308
 2302SOL    HW118368   2.257   1.345   8.157 -0.8253 -1.2863 -2.4047
 2302SOL    HW218369   2.193   1.293   8.270 -1.8977 -1.4624 -0.2831
 2303SOL     OW18370   4.447   3.171   7.679  0.0224 -0.9734 -0.3692
 2303SOL    HW118371   4.398   3.232   7.623  0.4938 -1.3099 -1.1550
 2303SOL    HW218372   4.403   3.199   7.759  1.8637  0.4304  0.1546
 2304SOL     OW18373   0.551   2.954   3.062  0.3118  0.0226 -0.5377
 2304SOL    HW118374   0.592   2.992   2.984  0.9847  0.0479 -0.1750
 2304SOL    HW218375   0.468   3.002   3.074  0.4631 -0.2715  1.7381
 2305SOL     OW18376   0.624   3.620   5.026 -0.3664 -0.0810  0.5411
 2305SOL    HW118377   0.640   3.613   4.932  3.4770  3.4017  0.9503
 2305SOL    HW218378   0.555   3.687   5.030 -0.3035  0.0253 -0.0462
 2306SOL     OW18379   1.011   2.027   7.415  0.8093  0.1493  0.1003
 2306SOL    HW118380   0.984   2.118   7.416  0.6981  0.1138  0.3417
 2306SOL    HW218381   1.050   2.023   7.328 -1.3136 -0.0367 -0.8269
 2307SOL     OW18382   4.191   2.683   8.749 -0.4014  0.3850 -0.0455
 2307SOL    HW118383   4.229   2.597   8.767 -1.4516 -0.6058 -2.5692
 2307SOL    HW218384   4.160   2.722   8.831 -2.2888  0.6526 -0.8827
 2308SOL     OW18385   1.466   1.204   4.713 -0.3025  0.5165 -0.3424
 2308SOL    HW118386   1.396   1.232   4.654 -0.2667  2.2646  0.4393
 2308SOL    HW218387   1.438   1.114   4.728 -2.3743  1.4792  1.7037
 2309SOL     OW18388   4.698   2.644   7.270  0.1581 -0.3594 -0.0107
 2309SOL    HW118389   0.012   2.556   7.286 -1.9466 -1.3048 -0.7076
 2309SOL    HW218390   4.678   2.635   7.177  0.5645 -0.6098 -0.0768
 2310SOL     OW18391   2.871   0.596   4.766  1.0118  0.4027  0.1950
 2310SOL    HW118392   2.831   0.548   4.839  1.8584 -0.0396  0.3664
 2310SOL    HW218393   2.961   0.594   4.798  0.7749 -0.5659  0.7946
 2311SOL     OW18394   1.615   4.028   4.689 -0.0069  0.0270  1.1145
 2311SOL    HW118395   1.690   3.969   4.690  0.4659  0.5862 -0.1873
 2311SOL    HW218396   1.575   3.999   4.770  0.0135 -0.6997  0.8612
 2312SOL     OW18397   3.495   3.745  10.987  0.4993  0.4939  0.8834
 2312SOL    HW118398   3.408   3.785  10.989 -0.1037 -0.6765 -1.0174
 2312SOL    HW218399   3.554   3.791  11.047  2.4748 -1.4241  0.4112
 2313SOL     OW18400   0.081   2.240  10.837 -0.5476 -0.1536 -0.7421
 2313SOL    HW118401   0.003   2.190  10.814 -2.0612  0.5653  2.9902
 2313SOL    HW218402   0.108   2.193  10.916 -1.6090 -1.3143 -1.0748
 2314SOL     OW18403   0.873   1.848   2.065  0.3861  0.1809  1.1325
 2314SOL    HW118404   0.789   1.854   2.110  0.2132  2.0290  0.5499
 2314SOL    HW218405   0.914   1.929   2.097  2.6891  0.1782 -1.8201
 2315SOL     OW18406   2.198   3.748   8.175  0.1097 -0.0476 -0.3621
 2315SOL    HW118407   2.168   3.671   8.128  1.8488 -1.4889  0.8842
 2315SOL    HW218408   2.261   3.776   8.108  0.9216 -0.8585  0.0703
 2316SOL     OW18409   1.068   1.731   7.822  0.3154  0.4446  0.4729
 2316SOL    HW118410   1.123   1.790   7.771 -0.6583  0.6821 -0.3023
 2316SOL    HW218411   1.138   1.695   7.877  0.8797  2.4324  1.0533
 2317SOL     OW18412   4.550   0.081   7.836 -0.1370 -0.3717  0.3013
 2317SOL    HW118413   4.585   0.003   7.791  0.8742  0.6199 -0.6513
 2317SOL    HW218414   4.537   0.044   7.923  1.0651 -0.2336  0.5384
 2318SOL     OW18415   4.712   3.274   7.970 -0.2413  0.0080 -0.3013
 2318SOL    HW118416   0.007   3.202   7.908 -0.4604  0.9310 -1.4314
 2318SOL    HW218417   0.034   3.347   7.924  0.1854 -0.5008 -0.7165
 2319SOL     OW18418   2.635   0.151  17.194  0.3303 -0.2669 -0.2700
 2319SOL    HW118419   2.704   0.085  17.191 -0.9203 -1.6937  2.3769
 2319SOL    HW218420   2.686   0.232  17.192 -0.8872  0.4995 -0.1235
 2320SOL     OW18421   1.279   4.701  17.564 -0.0416 -0.0772  0.3120
 2320SOL    HW118422   1.235   4.649  17.632  1.9587 -0.8212  1.0614
 2320SOL    HW218423   1.369   4.667  17.574  0.2805  1.1001  1.4172
 2321SOL     OW18424   4.092   3.038  16.365  0.6139  0.1975 -0.4917
 2321SOL    HW118425   4.051   3.121  16.391 -1.1550 -0.7073 -0.3429
 2321SOL    HW218426   4.178   3.057  16.403 -0.0422  0.7856  0.7174
 2322SOL     OW18427   1.492   0.952   7.515  0.4161  0.2400  0.2774
 2322SOL    HW118428   1.481   0.857   7.519  1.6315  0.0846 -0.0616
 2322SOL    HW218429   1.522   0.977   7.602  1.4200 -0.2715  0.0832
 2323SOL     OW18430   4.006   2.942   1.898  0.1017  0.0495 -0.1702
 2323SOL    HW118431   3.959   2.894   1.831  1.0948 -1.4105  0.1712
 2323SOL    HW218432   4.027   2.871   1.959  0.6988 -1.2082 -1.8183
 2324SOL     OW18433   0.541   1.822   7.864 -0.2812  0.3089  0.2912
 2324SOL    HW118434   0.561   1.790   7.952 -4.4812  1.2988  1.5915
 2324SOL    HW218435   0.623   1.869   7.848  0.0228  1.4830  5.3571
 2325SOL     OW18436   1.534   3.408   8.418  0.6260 -0.0428 -0.0218
 2325SOL    HW118437   1.617   3.373   8.450  1.3583 -0.9494 -2.9040
 2325SOL    HW218438   1.568   3.465   8.349  2.1614 -0.2758  0.5515
 2326SOL     OW18439   2.783   4.235   3.777  0.1588  0.0270  0.3327
 2326SOL    HW118440   2.846   4.271   3.715 -0.3055  0.7819  0.2938
 2326SOL    HW218441   2.722   4.186   3.722 -1.6473 -2.2866  4.4094
 2327SOL     OW18442   4.596   0.723   7.018 -0.6435 -0.1971 -0.1738
 2327SOL    HW118443   4.566   0.722   7.109  2.6751 -0.4603  0.9265
 2327SOL    HW218444   4.619   0.815   7.012 -0.1822 -0.3510 -0.7070
 2328SOL     OW18445   3.833   0.561   2.089  0.6582 -0.0079  0.4413
 2328SOL    HW118446   3.812   0.622   2.018 -3.5274 -1.3843  0.5090
 2328SOL    HW218447   3.855   0.622   2.160 -1.9269  2.2881 -0.7249
 2329SOL     OW18448   1.211   1.026   1.700 -0.0619  0.0847 -0.5630
 2329SOL    HW118449   1.256   1.068   1.773 -2.9523  1.0221  0.6741
 2329SOL    HW218450   1.283   1.000   1.643  1.8559 -0.4208  2.0977
 2330SOL     OW18451   1.940   2.117   8.485 -0.1381  0.3512 -0.1591
 2330SOL    HW118452   2.013   2.056   8.499 -0.5394  0.1636  1.1681
 2330SOL    HW218453   1.991   2.196   8.468 -0.6307  0.1141 -2.6406
 2331SOL     OW18454   0.687   2.691   5.452  1.0261 -0.3420 -0.2523
 2331SOL    HW118455   0.771   2.734   5.468 -0.3515  2.0736  0.4205
 2331SOL    HW218456   0.621   2.751   5.486 -0.8953 -2.4486 -0.2516
 2332SOL     OW18457   3.592   1.283   4.953 -0.0429 -0.0962 -0.2896
 2332SOL    HW118458   3.560   1.292   5.043  2.0095 -3.8498  0.8056
 2332SOL    HW218459   3.587   1.189   4.933  0.5872 -0.2295  0.1410
 2333SOL     OW18460   3.389   0.402   1.440  0.4142  0.5645 -0.5005
 2333SOL    HW118461   3.400   0.310   1.463  0.0900  0.8522  0.7903
 2333SOL    HW218462   3.363   0.444   1.522 -1.3350 -1.0348 -0.2584
 2334SOL     OW18463   4.550   4.280   6.384  0.3879  0.1858 -0.2517
 2334SOL    HW118464   4.476   4.320   6.430  0.1695  0.5707 -0.9407
 2334SOL    HW218465   4.576   4.342   6.316 -0.0596  0.4458 -0.1857
 2335SOL     OW18466   4.629   3.680   4.468  0.0870  0.1304 -0.6819
 2335SOL    HW118467   4.559   3.639   4.417 -1.7472 -0.5775  2.3962
 2335SOL    HW218468   4.715   3.654   4.436 -0.0830  0.8395 -1.7280
 2336SOL     OW18469   0.823   3.646   3.807  0.1068 -0.2611  0.4326
 2336SOL    HW118470   0.760   3.710   3.841  1.3301  0.0234  2.2105
 2336SOL    HW218471   0.809   3.570   3.864  0.4593 -0.5535  0.1234
 2337SOL     OW18472   4.254   2.923  15.170 -0.1345  0.2947  0.1355
 2337SOL    HW118473   4.299   2.914  15.254 -1.6828  1.3189  1.0663
 2337SOL    HW218474   4.177   2.868  15.185  0.1327  0.2547  1.3742
 2338SOL     OW18475   0.522   1.515   5.627  0.0424  0.1688  0.0981
 2338SOL    HW118476   0.445   1.489   5.677  1.5249  0.4060  2.5009
 2338SOL    HW218477   0.582   1.538   5.698  1.4144 -2.5500 -0.1663
 2339SOL     OW18478   0.988   0.069   8.487  0.2201  0.4705 -0.4904
 2339SOL    HW118479   0.895   0.051   8.473  0.1488  1.2681 -1.0120
 2339SOL    HW218480   0.995   0.126   8.410  0.4740 -0.6791 -1.3242
 2340SOL     OW18481   2.970   0.239   6.377  0.3243 -0.0303  0.1309
 2340SOL    HW118482   2.931   0.294   6.309 -0.7091 -0.9743 -0.0473
 2340SOL    HW218483   2.917   0.159   6.368 -1.9095  1.7751 -3.0143
 2341SOL     OW18484   0.764   3.326   9.657 -0.5048  0.3170  0.1968
 2341SOL    HW118485   0.730   3.265   9.592  2.1914 -1.3451  0.3578
 2341SOL    HW218486   0.703   3.311   9.730  1.2313 -2.5756  1.0260
 2342SOL     OW18487   1.435   0.727  10.358  0.2105 -0.1907 -0.7730
 2342SOL    HW118488   1.401   0.769  10.436  0.6881 -0.0941 -0.6147
 2342SOL    HW218489   1.528   0.715  10.377 -0.3367 -0.4738  1.7462
 2343SOL     OW18490   0.628   3.215   0.860  0.4882  0.1880  0.0534
 2343SOL    HW118491   0.544   3.171   0.875  0.7972 -0.2494  0.5256
 2343SOL    HW218492   0.676   3.152   0.806  0.6420  0.1253  0.2612
 2344SOL     OW18493   2.722   3.552  10.757  0.7684  0.1076 -0.7420
 2344SOL    HW118494   2.642   3.564  10.705 -0.6335  1.9876  1.9043
 2344SOL    HW218495   2.768   3.631  10.729 -0.8340  1.1048 -0.5569
 2345SOL     OW18496   0.659   3.063   6.956  0.4039  1.0098  0.0165
 2345SOL    HW118497   0.630   2.979   6.919  2.0265  0.8675 -0.9282
 2345SOL    HW218498   0.618   3.057   7.042  1.0267 -2.5471  0.0734
 2346SOL     OW18499   2.764   1.946  13.867 -0.1036 -0.4786  0.4598
 2346SOL    HW118500   2.722   1.903  13.941 -3.0822  0.9229 -0.4278
 2346SOL    HW218501   2.841   1.992  13.902  0.3893 -0.6284 -0.4389
 2347SOL     OW18502   2.430   3.915  10.432 -0.2097 -0.3906 -0.2856
 2347SOL    HW118503   2.393   3.837  10.472  0.3586 -1.2529 -1.4218
 2347SOL    HW218504   2.353   3.971  10.421  1.3562  1.5691 -1.3447
 2348SOL     OW18505   2.113   0.626  15.084  0.3638  0.1831  0.0445
 2348SOL    HW118506   2.033   0.596  15.040  0.4331 -1.4662  1.0586
 2348SOL    HW218507   2.110   0.589  15.173 -2.8354  0.6953  0.1690
 2349SOL     OW18508   1.550   2.232  11.456  0.6496  0.4642  0.5413
 2349SOL    HW118509   1.635   2.223  11.412  0.5839  0.8703  0.3313
 2349SOL    HW218510   1.574   2.190  11.539 -2.0184 -0.1991  0.9711
 2350SOL     OW18511   1.229   4.459  16.796  1.1842 -0.2665  0.1480
 2350SOL    HW118512   1.171   4.386  16.772 -0.7805  1.6876 -1.1205
 2350SOL    HW218513   1.311   4.411  16.799  1.1922 -0.3649 -1.3512
 2351SOL     OW18514   2.704   2.881   5.479  0.4824 -0.4053  0.0779
 2351SOL    HW118515   2.619   2.904   5.443 -0.2405  0.4717  2.3404
 2351SOL    HW218516   2.691   2.786   5.471 -1.5103 -0.1163  0.1272
 2352SOL     OW18517   2.639   4.074   2.275  0.2052  0.1870  0.3942
 2352SOL    HW118518   2.615   4.000   2.331 -2.1044  0.1052 -0.6971
 2352SOL    HW218519   2.556   4.092   2.230 -0.5506  0.6989  1.9836
 2353SOL     OW18520   2.929   3.141   6.464 -0.1950 -0.0618 -0.0140
 2353SOL    HW118521   2.854   3.195   6.438 -1.8278 -3.0089 -1.3770
 2353SOL    HW218522   2.905   3.118   6.554  0.2658  0.9838  0.3846
 2354SOL     OW18523   3.021   1.990   2.150 -0.0901  0.2296  0.1115
 2354SOL    HW118524   3.051   2.068   2.196  1.1940  0.1981 -0.6845
 2354SOL    HW218525   2.975   2.020   2.072  1.4666 -1.5091 -1.4839
 2355SOL     OW18526   2.060   3.027   4.647  0.2561  0.3202 -0.0739
 2355SOL    HW118527   2.033   3.061   4.561 -0.9078 -0.1949  0.0883
 2355SOL    HW218528   2.155   3.038   4.643  0.1269  1.5463  0.0381
 2356SOL     OW18529   0.349   2.433  10.142 -0.0130 -0.0133  0.2276
 2356SOL    HW118530   0.310   2.496  10.203 -0.4016 -0.9351  0.9287
 2356SOL    HW218531   0.441   2.449  10.163 -0.0453  1.4508 -0.7474
 2357SOL     OW18532   0.175   0.830   4.530 -0.0217  0.4472  0.2189
 2357SOL    HW118533   0.188   0.922   4.505  0.5319  0.0822 -0.8459
 2357SOL    HW218534   0.263   0.793   4.520 -0.3330 -0.2171 -0.0392
 2358SOL     OW18535   2.362   1.666   1.834  0.2522 -0.2880  0.1314
 2358SOL    HW118536   2.377   1.752   1.873 -1.5994  1.9713 -4.1659
 2358SOL    HW218537   2.320   1.683   1.750  1.3690  1.7681 -0.0043
 2359SOL     OW18538   4.094   4.236  15.710  0.1374 -0.6688 -0.0501
 2359SOL    HW118539   3.999   4.236  15.720  0.2221  0.3522  0.7293
 2359SOL    HW218540   4.109   4.310  15.652 -0.2143  1.2513  2.3402
 2360SOL     OW18541   4.303   1.473  10.521 -0.4310 -0.1832 -0.0857
 2360SOL    HW118542   4.235   1.436  10.465 -0.8449  1.7094 -0.8096
 2360SOL    HW218543   4.258   1.502  10.601  0.2439 -0.0284  0.2319
 2361SOL     OW18544   0.802   1.864   2.415  0.2291  0.2132  0.1836
 2361SOL    HW118545   0.753   1.786   2.388 -0.4746  0.6919  0.0631
 2361SOL    HW218546   0.741   1.937   2.425  0.5673  0.4199  0.7561
 2362SOL     OW18547   2.695   0.349   6.643  0.9174  0.7098 -0.4901
 2362SOL    HW118548   2.636   0.301   6.702  2.5379  1.4450  1.7387
 2362SOL    HW218549   2.654   0.321   6.561 -0.3024 -2.3200  1.1670
 2363SOL     OW18550   3.605   0.875   2.300 -0.6063 -0.0228  0.3078
 2363SOL    HW118551   3.596   0.789   2.340  0.0589  0.9166  2.5166
 2363SOL    HW218552   3.538   0.891   2.234 -1.3747  2.1667  1.5947
 2364SOL     OW18553   4.586   3.274   8.814  0.3116 -0.2195 -0.0334
 2364SOL    HW118554   4.615   3.193   8.772 -0.8375 -1.2767  1.2287
 2364SOL    HW218555   4.512   3.240   8.864  0.8591  0.4131  1.2111
 2365SOL     OW18556   1.137   0.610   8.303 -0.2312  0.2299 -0.2141
 2365SOL    HW118557   1.185   0.593   8.384  2.5038  1.9456 -1.4629
 2365SOL    HW218558   1.062   0.653   8.344 -2.0062 -3.0109 -0.0861
 2366SOL     OW18559   3.240   4.467   3.112  0.3353 -0.3350 -0.1886
 2366SOL    HW118560   3.279   4.383   3.086 -0.3949 -0.3651 -1.1908
 2366SOL    HW218561   3.159   4.462   3.061 -1.4357 -0.7248  2.6502
 2367SOL     OW18562   1.875   3.467   1.588 -0.0149 -0.2715  0.3376
 2367SOL    HW118563   1.952   3.477   1.644 -0.1444 -0.9994  0.6413
 2367SOL    HW218564   1.912   3.395   1.537 -1.3138  0.0205 -1.0218
 2368SOL     OW18565   3.741   3.126   5.126 -0.3804  0.4889 -0.1537
 2368SOL    HW118566   3.694   3.183   5.065 -1.3404 -0.8772 -0.7060
 2368SOL    HW218567   3.820   3.105   5.077  0.2160  0.0731  0.9882
 2369SOL     OW18568   4.683   2.106   5.189 -0.9542  0.6922 -0.3098
 2369SOL    HW118569   0.038   2.164   5.196  1.3532 -2.3968 -0.0484
 2369SOL    HW218570   4.615   2.173   5.196  0.2988  1.9646 -0.2444
 2370SOL     OW18571   0.801   2.538   8.852 -0.1307 -0.1149  0.3780
 2370SOL    HW118572   0.710   2.567   8.863  0.4502  0.9426  2.4358
 2370SOL    HW218573   0.838   2.625   8.838  0.0157 -0.1276  0.6714
 2371SOL     OW18574   3.952   3.595   7.957  0.6954 -0.1945  0.5666
 2371SOL    HW118575   3.972   3.685   7.933 -1.4457 -0.2359 -1.3467
 2371SOL    HW218576   3.859   3.606   7.977  1.0511  0.0483  2.0492
 2372SOL     OW18577   0.296   3.685   7.971  0.6341  0.2994  0.1326
 2372SOL    HW118578   0.331   3.721   8.053 -0.2539  1.3673  0.0530
 2372SOL    HW218579   0.248   3.758   7.932 -2.1963 -1.6448 -0.0215
 2373SOL     OW18580   2.384   2.244  11.651  0.4505  0.0157  0.0022
 2373SOL    HW118581   2.302   2.293  11.657  0.2262 -0.3290 -0.1741
 2373SOL    HW218582   2.354   2.185  11.581  0.1143 -1.6917  1.6005
 2374SOL     OW18583   2.705   3.644   4.446  0.3117  0.7647  0.4198
 2374SOL    HW118584   2.705   3.652   4.541  1.8969 -0.8452  0.5658
 2374SOL    HW218585   2.799   3.632   4.433  0.2232  1.1684 -0.5308
 2375SOL     OW18586   0.540   0.051  11.734  0.3638 -0.0254  0.4080
 2375SOL    HW118587   0.557   0.100  11.654  1.7766  0.6007  1.0871
 2375SOL    HW218588   0.630   0.021  11.748  0.8548  1.6153  0.8237
 2376SOL     OW18589   4.462   2.110   4.457 -0.1891 -0.4919 -0.3099
 2376SOL    HW118590   4.556   2.101   4.473  0.1345  1.6799 -1.0289
 2376SOL    HW218591   4.433   2.035   4.510  0.6139  0.3729  1.3371
 2377SOL     OW18592   0.671   0.344   4.783  0.2389 -0.7888  0.0323
 2377SOL    HW118593   0.718   0.340   4.700 -0.4156 -1.4130 -0.3136
 2377SOL    HW218594   0.748   0.377   4.829 -0.6914  0.1782  0.9133
 2378SOL     OW18595   3.954   3.625  10.748 -0.0510  0.0353  0.6081
 2378SOL    HW118596   3.911   3.626  10.834  2.0036 -0.9129  1.6303
 2378SOL    HW218597   3.903   3.689  10.698 -1.0469 -1.0993  0.1663
 2379SOL     OW18598   4.644   4.706   0.009  0.3932 -0.2068  0.0748
 2379SOL    HW118599   4.609   0.059  17.645  1.3682 -0.0180 -0.3196
 2379SOL    HW218600   4.719   4.681  17.642 -0.2422 -2.3843  0.1899
 2380SOL     OW18601   1.878   1.643  16.990 -0.0332  0.6152 -0.1707
 2380SOL    HW118602   1.969   1.618  16.973  0.1107  0.9233  0.1506
 2380SOL    HW218603   1.834   1.558  16.986 -0.6652  0.9048  0.7257
 2381SOL     OW18604   3.630   4.152   8.134 -0.1128 -0.5196 -0.1742
 2381SOL    HW118605   3.599   4.165   8.045 -0.0421 -0.7652 -0.2336
 2381SOL    HW218606   3.725   4.163   8.128 -0.2995 -0.0450 -2.2617
 2382SOL     OW18607   2.142   1.275   4.859 -0.6173 -0.2564 -0.4486
 2382SOL    HW118608   2.179   1.345   4.912  0.2734 -1.4595  0.5438
 2382SOL    HW218609   2.207   1.282   4.788  0.0455 -2.8071 -0.1074
 2383SOL     OW18610   0.190   2.722   7.460 -0.2471 -0.7277 -0.3646
 2383SOL    HW118611   0.111   2.702   7.410  0.1723  1.5475 -1.9269
 2383SOL    HW218612   0.216   2.635   7.488 -4.0409 -1.5653  0.5828
 2384SOL     OW18613   1.525   0.180   9.269  0.0924 -0.5343  0.0781
 2384SOL    HW118614   1.451   0.239   9.282 -0.9451 -1.1177 -3.1654
 2384SOL    HW218615   1.483   0.097   9.293  0.9788 -1.5891 -1.9759
 2385SOL     OW18616   3.815   3.640  10.982  0.7446  0.5248  0.6568
 2385SOL    HW118617   3.863   3.610  11.059 -2.3301 -0.2058  2.3098
 2385SOL    HW218618   3.776   3.724  11.009  1.8230  1.0372  0.6245
 2386SOL     OW18619   3.393   2.075   1.048  0.3035  0.0596  0.2409
 2386SOL    HW118620   3.449   2.140   1.090  1.1727  0.1603 -1.0495
 2386SOL    HW218621   3.306   2.113   1.061  0.8864  1.9076 -1.2275
 2387SOL     OW18622   1.507   1.707  13.984 -0.2595  0.7427  0.0971
 2387SOL    HW118623   1.547   1.794  13.987 -0.9041  1.0074  1.1095
 2387SOL    HW218624   1.474   1.709  13.894 -2.3254  1.6612  0.8984
 2388SOL     OW18625   1.997   3.231  12.142  0.3515  0.0472  0.1890
 2388SOL    HW118626   1.945   3.188  12.209  1.3362 -0.2538  0.7638
 2388SOL    HW218627   2.067   3.256  12.203 -3.4321  1.9447  3.7537
 2389SOL     OW18628   0.272   4.069   6.658 -0.3897  0.1813  0.4433
 2389SOL    HW118629   0.293   4.120   6.579  0.1800 -0.0843  0.4225
 2389SOL    HW218630   0.265   4.135   6.727 -1.4087  0.5412  0.0074
 2390SOL     OW18631   0.982   1.259   9.361 -0.4084  0.6035 -0.0029
 2390SOL    HW118632   0.888   1.278   9.364 -0.6135 -0.6986  1.8880
 2390SOL    HW218633   0.989   1.173   9.320  0.3901  1.2075 -1.1303
 2391SOL     OW18634   0.820   3.075   0.142 -0.0069 -0.3326  0.2483
 2391SOL    HW118635   0.839   3.167   0.157  3.2129 -0.8181 -0.7598
 2391SOL    HW218636   0.906   3.044   0.112  0.3683  0.5956  0.3677
 2392SOL     OW18637   0.183   2.267   4.311  0.3937 -0.1166 -0.4420
 2392SOL    HW118638   0.253   2.207   4.334  0.5701 -0.5421 -2.0595
 2392SOL    HW218639   0.133   2.227   4.240 -2.0127 -0.0446  1.2111
 2393SOL     OW18640   1.726   2.407  14.844 -0.0627 -0.2202  0.1735
 2393SOL    HW118641   1.808   2.381  14.802  1.7876  1.0370  3.0525
 2393SOL    HW218642   1.655   2.349  14.816  0.0725  0.1093 -0.8671
 2394SOL     OW18643   4.281   1.598   9.407 -0.1080 -0.6005  0.0724
 2394SOL    HW118644   4.311   1.566   9.492  0.0391  0.3853  0.3983
 2394SOL    HW218645   4.319   1.534   9.347 -0.4934  0.9328 -1.8423
 2395SOL     OW18646   1.236   1.067   7.466 -0.1102 -0.2125 -0.1211
 2395SOL    HW118647   1.324   1.032   7.482  1.0270  1.8555 -1.9202
 2395SOL    HW218648   1.204   1.070   7.556 -0.9843  2.2467 -0.5144
 2396SOL     OW18649   1.513   2.522   4.654 -0.4826 -0.9239 -0.3178
 2396SOL    HW118650   1.465   2.474   4.588 -0.7519  1.6538 -2.0026
 2396SOL    HW218651   1.604   2.498   4.636 -0.3148 -1.9710  1.9883
 2397SOL     OW18652   2.027   3.544  14.223  0.1564 -0.2114  0.0023
 2397SOL    HW118653   1.938   3.545  14.259 -0.8053  0.3524 -2.4148
 2397SOL    HW218654   2.014   3.524  14.130  0.0701  1.0513 -0.2500
 2398SOL     OW18655   2.325   1.581   3.213  0.5844  0.3080  0.0098
 2398SOL    HW118656   2.331   1.665   3.168  2.3379  2.7509  4.7376
 2398SOL    HW218657   2.413   1.544   3.204  0.2941 -1.3697  3.9802
 2399SOL     OW18658   1.280   0.155  13.517 -0.0270  0.9537  0.4545
 2399SOL    HW118659   1.255   0.082  13.574 -1.3104 -0.3077 -1.7541
 2399SOL    HW218660   1.374   0.137  13.510 -0.6635 -1.3175 -1.7978
 2400SOL     OW18661   1.617   3.741   2.613 -0.1980  0.1257 -0.2322
 2400SOL    HW118662   1.555   3.759   2.684  1.3804 -1.4316  1.5567
 2400SOL    HW218663   1.693   3.784   2.653 -0.4976  0.9203 -0.5318
 2401SOL     OW18664   0.635   2.807   7.447  0.6241  0.2228 -0.1024
 2401SOL    HW118665   0.585   2.858   7.511 -0.1225  0.9148 -1.2387
 2401SOL    HW218666   0.619   2.721   7.485  0.2259  0.0354 -0.6989
 2402SOL     OW18667   3.674   0.485   6.698 -0.3968 -0.4638 -0.4881
 2402SOL    HW118668   3.765   0.510   6.685 -1.0527  1.4122 -1.5617
 2402SOL    HW218669   3.672   0.406   6.644 -0.0904 -1.6865  1.2896
 2403SOL     OW18670   3.073   1.510  13.169 -0.0755 -0.3549  0.0254
 2403SOL    HW118671   3.114   1.561  13.239  0.6053 -0.4686 -0.2913
 2403SOL    HW218672   3.117   1.557  13.099 -2.2970 -1.6765 -2.2634
 2404SOL     OW18673   3.414   4.532   4.127 -0.3785  0.0905 -0.0602
 2404SOL    HW118674   3.476   4.498   4.062 -0.1165 -4.7399  2.7432
 2404SOL    HW218675   3.351   4.570   4.066 -1.2543 -0.9733  0.1954
 2405SOL     OW18676   2.258   3.923   4.210  0.5745  0.0169  0.0795
 2405SOL    HW118677   2.222   3.837   4.233 -0.3658 -0.3015 -2.5868
 2405SOL    HW218678   2.202   3.987   4.253 -1.5647  0.2008 -3.0125
 2406SOL     OW18679   2.998   4.377   8.050  0.5765 -0.4174 -0.1289
 2406SOL    HW118680   3.054   4.368   8.127  2.0006  1.3424 -0.9409
 2406SOL    HW218681   3.073   4.384   7.990 -0.0292 -0.3807 -0.8764
 2407SOL     OW18682   1.800   0.548  16.874  0.1092  0.1091 -0.3488
 2407SOL    HW118683   1.892   0.571  16.887  0.4173 -0.2055 -1.9671
 2407SOL    HW218684   1.758   0.599  16.943 -0.6069 -1.0514  0.0784
 2408SOL     OW18685   2.099   1.932   8.596 -0.3661  0.6589 -0.4399
 2408SOL    HW118686   2.096   1.871   8.670 -0.9474  0.7740 -0.3673
 2408SOL    HW218687   2.193   1.932   8.578 -0.1572  0.4666  0.6336
 2409SOL     OW18688   2.154   4.649   2.165  0.0381 -0.3367 -0.0535
 2409SOL    HW118689   2.222   4.701   2.208 -0.2443  1.3802 -1.6613
 2409SOL    HW218690   2.201   4.608   2.092 -0.0333 -0.7004  0.1063
 2410SOL     OW18691   1.416   0.835   6.237  0.9531 -0.4043 -0.2180
 2410SOL    HW118692   1.358   0.760   6.253 -0.7713  1.1495  0.8842
 2410SOL    HW218693   1.494   0.815   6.289  0.7651  2.3162  1.1125
 2411SOL     OW18694   0.843   0.965  12.473 -0.3047  0.0482 -0.2516
 2411SOL    HW118695   0.863   0.889  12.527 -0.6743  0.1083 -0.0320
 2411SOL    HW218696   0.893   1.033  12.518 -0.5442  1.1627 -1.6488
 2412SOL     OW18697   3.382   1.580   1.337  0.7266 -0.2208 -0.4618
 2412SOL    HW118698   3.371   1.666   1.378 -2.0582 -0.0832 -1.4924
 2412SOL    HW218699   3.331   1.590   1.257 -1.2311 -0.0165  0.8138
 2413SOL     OW18700   4.500   2.967   3.322 -0.0962 -0.5356 -0.3377
 2413SOL    HW118701   4.547   3.030   3.266  2.6740 -0.2385  2.2939
 2413SOL    HW218702   4.527   2.885   3.282 -0.9487 -0.7650 -0.4340
 2414SOL     OW18703   1.219   3.383   5.519 -0.3175 -0.2213  0.4684
 2414SOL    HW118704   1.281   3.375   5.591 -0.5093 -1.3129  0.5087
 2414SOL    HW218705   1.197   3.476   5.509  1.0137  0.2831  2.4025
 2415SOL     OW18706   1.408   3.267  14.226 -0.0355 -0.2316 -0.0732
 2415SOL    HW118707   1.330   3.316  14.201 -0.5896 -0.7289  0.6795
 2415SOL    HW218708   1.376   3.178  14.243  1.6140 -1.0259 -1.0575
 2416SOL     OW18709   2.957   1.521   8.898 -0.3100 -0.1163 -0.1510
 2416SOL    HW118710   2.937   1.612   8.920  1.3018  0.5650 -1.5311
 2416SOL    HW218711   2.867   1.496   8.922  0.0485 -0.2667  1.0204
 2417SOL     OW18712   0.669   1.748   8.438 -0.3226 -0.5361 -0.0802
 2417SOL    HW118713   0.578   1.727   8.418 -0.3491 -0.5951  0.1069
 2417SOL    HW218714   0.714   1.680   8.387  0.7530 -0.7710  1.1728
 2418SOL     OW18715   0.258   2.344  13.639  0.1921  0.0469  0.6552
 2418SOL    HW118716   0.297   2.270  13.593  0.6927 -0.5650  2.0792
 2418SOL    HW218717   0.172   2.344  13.598 -0.1898 -0.9697  1.4755
 2419SOL     OW18718   4.402   0.131   2.572  0.0679 -0.0877 -0.6064
 2419SOL    HW118719   4.453   0.050   2.570  2.3690  1.2820  2.2493
 2419SOL    HW218720   4.435   0.174   2.493  0.7106  0.8268  0.1669
 2420SOL     OW18721   2.531   4.388   3.048  0.0264  0.2386 -0.6157
 2420SOL    HW118722   2.529   4.312   3.106  0.8450 -1.2092 -2.4689
 2420SOL    HW218723   2.481   4.349   2.976  0.7348 -4.2420  1.2738
 2421SOL     OW18724   3.042   3.252   5.341 -0.4794  0.0604 -0.5958
 2421SOL    HW118725   3.122   3.223   5.297  0.2757 -0.5971  1.2109
 2421SOL    HW218726   2.991   3.172   5.329 -0.4975  0.1704 -1.2184
 2422SOL     OW18727   0.462   0.480  16.603 -0.1015 -0.2559  0.1951
 2422SOL    HW118728   0.478   0.517  16.690  0.7478  0.7358 -0.3846
 2422SOL    HW218729   0.543   0.507  16.561  0.4313 -0.2463  1.2330
 2423SOL     OW18730   2.272   3.787   6.202 -0.0817  0.3352  0.0277
 2423SOL    HW118731   2.241   3.727   6.133 -0.7949  0.2077  0.4550
 2423SOL    HW218732   2.189   3.828   6.228 -1.2765 -1.6420 -0.6180
 2424SOL     OW18733   1.065   4.031   6.757 -0.8413  0.1014  0.4911
 2424SOL    HW118734   1.023   3.948   6.735 -0.0247 -0.0036 -0.6443
 2424SOL    HW218735   1.149   3.994   6.785 -1.0512 -0.5749  0.2286
 2425SOL     OW18736   3.842   4.064   4.049  0.8082  0.0281 -0.0067
 2425SOL    HW118737   3.868   4.138   3.996  0.1611  0.4649  0.2909
 2425SOL    HW218738   3.753   4.049   4.016  0.4336  0.0035  1.0101
 2426SOL     OW18739   3.726   4.263   5.281 -0.2830 -0.0068 -1.0029
 2426SOL    HW118740   3.671   4.293   5.354  0.8406 -0.2188 -0.0661
 2426SOL    HW218741   3.721   4.167   5.278 -0.6705 -0.0693  1.3025
 2427SOL     OW18742   4.672   4.683   2.309 -0.7375 -0.2209  0.1175
 2427SOL    HW118743   4.710   4.607   2.264 -0.1521  0.9353 -1.3081
 2427SOL    HW218744   0.001   0.029   2.261 -1.6273  1.1299  1.0830
 2428SOL     OW18745   4.297   0.594   1.708  0.0832 -0.1097  0.1577
 2428SOL    HW118746   4.297   0.587   1.804 -3.0568 -3.0024 -0.0804
 2428SOL    HW218747   4.223   0.653   1.699  0.8864  0.5435 -2.1331
 2429SOL     OW18748   2.701   3.687  13.853  0.0692  0.1482  0.3828
 2429SOL    HW118749   2.774   3.746  13.835 -1.3701  2.2974  1.5939
 2429SOL    HW218750   2.704   3.625  13.780 -0.3193  0.1194  0.3890
 2430SOL     OW18751   4.280   2.778   5.735 -0.4282  0.3198  0.0761
 2430SOL    HW118752   4.231   2.790   5.653 -1.7468  0.3565  0.8711
 2430SOL    HW218753   4.239   2.851   5.782 -1.3529  0.9875 -1.7295
 2431SOL     OW18754   2.403   1.165   0.728 -0.0475 -0.1374  0.4648
 2431SOL    HW118755   2.428   1.104   0.798  0.4226  0.5648  0.9070
 2431SOL    HW218756   2.377   1.248   0.768 -1.9529  0.7751 -2.7314
 2432SOL     OW18757   0.430   0.237  17.069  0.2799 -0.3263 -0.3138
 2432SOL    HW118758   0.386   0.298  17.010 -3.0574 -3.1004 -0.7194
 2432SOL    HW218759   0.522   0.262  17.071  0.5196 -1.3903  3.1140
 2433SOL     OW18760   3.052   1.393   2.068  0.2255  0.6511  0.2550
 2433SOL    HW118761   3.033   1.486   2.055  0.9044  0.7396 -0.1070
 2433SOL    HW218762   2.973   1.355   2.030 -1.0277  2.3767  1.0826
 2434SOL     OW18763   0.377   3.550  11.650 -0.5013 -0.0241 -0.1605
 2434SOL    HW118764   0.397   3.643  11.667 -1.7012  0.0632  0.7164
 2434SOL    HW218765   0.463   3.516  11.676  0.0178  1.5091  0.1896
 2435SOL     OW18766   4.465   2.854   6.849  0.7762 -0.2034  0.0010
 2435SOL    HW118767   4.541   2.831   6.902  2.6127  1.9342 -1.6543
 2435SOL    HW218768   4.490   2.834   6.758 -1.3877  0.6084 -0.7786
 2436SOL     OW18769   0.769   2.889  14.872  0.2762 -0.2641  0.0438
 2436SOL    HW118770   0.737   2.978  14.890 -0.4476 -0.4966 -0.0845
 2436SOL    HW218771   0.723   2.873  14.790 -0.2744  2.1418 -0.1129
 2437SOL     OW18772   2.508   1.805   8.695 -0.3417  0.2108 -0.2107
 2437SOL    HW118773   2.441   1.860   8.655 -2.8804 -3.4446 -0.8885
 2437SOL    HW218774   2.456   1.725   8.706 -2.2693  1.4384 -0.4137
 2438SOL     OW18775   2.549   0.903   8.709 -0.2970 -0.8177 -0.5568
 2438SOL    HW118776   2.476   0.878   8.651 -0.6557 -5.1567  1.7299
 2438SOL    HW218777   2.514   0.923   8.795 -1.9823 -0.1320 -1.3884
 2439SOL     OW18778   3.620   3.677   8.623 -0.0038  0.7454 -0.1038
 2439SOL    HW118779   3.528   3.698   8.607 -0.4965 -0.8395  0.6304
 2439SOL    HW218780   3.625   3.582   8.615  2.8182  0.6462  2.4776
 2440SOL     OW18781   3.802   1.691   5.092 -0.7675  0.3434  0.0461
 2440SOL    HW118782   3.850   1.612   5.118 -2.7849 -0.2663  1.9113
 2440SOL    HW218783   3.871   1.738   5.047 -0.0254 -0.4076  0.3956
 2441SOL     OW18784   3.362   2.464  17.119 -0.4086  0.2326  0.8188
 2441SOL    HW118785   3.453   2.493  17.130 -0.0453 -1.2187  1.5144
 2441SOL    HW218786   3.341   2.399  17.185 -0.5355 -0.8081 -0.2431
 2442SOL     OW18787   2.266   2.288  13.270 -0.2822  0.8834 -0.0594
 2442SOL    HW118788   2.227   2.329  13.348 -0.6553  0.3031  0.0646
 2442SOL    HW218789   2.187   2.264  13.222 -0.7285 -0.5347  1.3671
 2443SOL     OW18790   4.081   3.437   4.964 -0.0583  0.2017  0.1064
 2443SOL    HW118791   4.102   3.372   5.031  0.9989  2.3231  1.8294
 2443SOL    HW218792   4.156   3.432   4.905  0.0173  3.5041 -0.0937
 2444SOL     OW18793   0.304   2.786   5.104  0.4073 -0.8145  0.5982
 2444SOL    HW118794   0.392   2.798   5.141 -0.5006  0.8633  2.2037
 2444SOL    HW218795   0.316   2.756   5.014  1.9067 -0.8674  0.8175
 2445SOL     OW18796   1.157   1.551   1.697  0.3096 -0.3066  0.7601
 2445SOL    HW118797   1.218   1.482   1.672  0.8822  1.0169 -1.4703
 2445SOL    HW218798   1.212   1.606   1.753  0.5887 -0.3054  0.4860
 2446SOL     OW18799   3.041   3.653   4.998 -0.8193 -0.6470 -0.6061
 2446SOL    HW118800   3.125   3.615   4.974  1.4973  2.7259  2.2746
 2446SOL    HW218801   3.067   3.657   5.090 -1.2173  2.1824 -0.6300
 2447SOL     OW18802   1.991   0.720  14.086  0.1580 -0.5524  0.1064
 2447SOL    HW118803   2.080   0.754  14.088 -0.3473  0.8822 -2.0297
 2447SOL    HW218804   1.957   0.760  14.167 -0.2086 -1.9328  0.6374
 2448SOL     OW18805   3.723   4.064   7.724 -0.1682 -0.2847  0.1059
 2448SOL    HW118806   3.659   4.019   7.669 -0.5168 -0.6289  0.7935
 2448SOL    HW218807   3.669   4.112   7.786 -1.4734 -0.8073 -0.6336
 2449SOL     OW18808   2.953   4.584   2.741 -0.5518 -0.0206 -0.4621
 2449SOL    HW118809   2.882   4.634   2.702 -0.1633  1.7335  1.0883
 2449SOL    HW218810   3.021   4.649   2.722  0.4469 -0.3459  1.9348
 2450SOL     OW18811   1.703   3.594  14.155  0.0044  0.7856  0.1057
 2450SOL    HW118812   1.670   3.683  14.148  0.1953  0.7469 -1.3244
 2450SOL    HW218813   1.732   3.577  14.065  0.0670 -0.3120  0.3232
 2451SOL     OW18814   4.178   0.390   4.249 -0.2550  0.1400 -0.4561
 2451SOL    HW118815   4.252   0.446   4.274 -1.3551  2.1144 -1.7000
 2451SOL    HW218816   4.150   0.418   4.163  3.1894 -0.8476 -1.8942
 2452SOL     OW18817   3.107   0.331   2.573  0.5806 -0.5820  0.3365
 2452SOL    HW118818   3.087   0.422   2.551  0.8360 -0.8182 -0.8595
 2452SOL    HW218819   3.091   0.292   2.487  0.9016 -0.4719  0.2253
 2453SOL     OW18820   0.803   3.279   0.514 -0.0089  0.5165  0.0371
 2453SOL    HW118821   0.738   3.209   0.503 -0.3470  0.9973 -0.9558
 2453SOL    HW218822   0.880   3.223   0.504  0.0254  0.5816 -0.0580
 2454SOL     OW18823   0.132   0.996   0.316  0.2692  0.2217  0.6090
 2454SOL    HW118824   0.085   1.078   0.297 -1.3463 -0.5968  1.0099
 2454SOL    HW218825   0.110   0.931   0.249  0.7267 -0.7162  1.3656
 2455SOL     OW18826   1.496   1.875  12.409 -0.3966  0.0525  0.2519
 2455SOL    HW118827   1.517   1.789  12.446 -0.7521  0.3178  1.0665
 2455SOL    HW218828   1.529   1.851  12.322 -0.1097  0.0820  0.3503
 2456SOL     OW18829   3.050   2.509  14.889 -0.5847 -0.3991  0.5365
 2456SOL    HW118830   2.963   2.526  14.852 -0.3935 -1.1652 -0.2769
 2456SOL    HW218831   3.090   2.596  14.881  0.8598 -1.0877  0.2953
 2457SOL     OW18832   1.648   2.924  16.519 -0.4479 -0.1005 -0.0451
 2457SOL    HW118833   1.617   2.858  16.456  0.2325 -0.5376  0.0850
 2457SOL    HW218834   1.597   3.002  16.495 -1.7232 -1.0997 -0.5527
 2458SOL     OW18835   0.509   0.504  13.864 -0.3023  0.1450 -0.2122
 2458SOL    HW118836   0.469   0.417  13.857 -0.6710  0.3158 -0.2412
 2458SOL    HW218837   0.436   0.564  13.847 -0.3235 -0.2376 -1.4716
 2459SOL     OW18838   2.485   0.113  13.665  0.2868 -0.2561  0.1217
 2459SOL    HW118839   2.402   0.069  13.683  0.7670 -1.2006  0.0431
 2459SOL    HW218840   2.542   0.081  13.734  0.3398 -0.0091  0.1932
 2460SOL     OW18841   0.723   3.256  14.340  0.1660  0.4420  0.4857
 2460SOL    HW118842   0.697   3.286  14.427  1.0681  2.2157  0.1321
 2460SOL    HW218843   0.816   3.271  14.355  0.0969  1.2319  0.1078
 2461SOL     OW18844   3.826   1.005   2.803 -0.1701 -0.5193  0.4208
 2461SOL    HW118845   3.752   0.957   2.840 -0.1449 -0.0779  1.0514
 2461SOL    HW218846   3.787   1.028   2.719  0.5029 -0.4137  0.1315
 2462SOL     OW18847   0.844   0.923  12.949  0.4238 -0.4203 -0.2140
 2462SOL    HW118848   0.792   0.897  13.025 -0.1204 -0.7273 -0.6841
 2462SOL    HW218849   0.781   0.905  12.879 -1.0068 -0.2348  1.0214
 2463SOL     OW18850   3.280   1.206   5.587 -0.4729 -0.0019  0.4839
 2463SOL    HW118851   3.289   1.123   5.541 -0.0551  1.2163 -1.6014
 2463SOL    HW218852   3.371   1.227   5.607 -0.8347  1.3943  0.6856
 2464SOL     OW18853   2.564   2.439  11.595 -0.3797 -0.0522 -0.8001
 2464SOL    HW118854   2.611   2.403  11.519 -0.9698 -1.1085 -0.6542
 2464SOL    HW218855   2.524   2.357  11.625 -0.9116  0.0386 -1.2523
 2465SOL     OW18856   3.231   0.638   2.202 -0.5014 -0.1142  0.0411
 2465SOL    HW118857   3.246   0.677   2.288 -0.7916 -0.8872  0.4448
 2465SOL    HW218858   3.148   0.680   2.180  1.0982  3.1763  0.3290
 2466SOL     OW18859   2.022   4.628   3.956 -0.5600  0.3095 -0.3735
 2466SOL    HW118860   2.038   4.582   3.874  0.4379 -1.5187  0.8386
 2466SOL    HW218861   2.061   4.563   4.015 -1.7784 -0.2349 -0.1584
 2467SOL     OW18862   0.007   1.710   3.778  0.2521  0.3874 -0.6764
 2467SOL    HW118863   4.667   1.782   3.760  1.9583  2.0581  0.4279
 2467SOL    HW218864   4.677   1.673   3.850 -1.6351  1.4206 -1.4509
 2468SOL     OW18865   1.779   1.798   2.997  0.3810 -0.7110  0.0099
 2468SOL    HW118866   1.864   1.767   2.966 -0.1063 -1.5364 -0.5108
 2468SOL    HW218867   1.740   1.714   3.022 -0.6326  0.0448  0.9462
 2469SOL     OW18868   2.546   3.811   6.798  0.4247  0.2324  0.9477
 2469SOL    HW118869   2.472   3.851   6.843 -0.2816  0.6746 -0.6260
 2469SOL    HW218870   2.521   3.719   6.794 -0.7206  0.6052 -0.2839
 2470SOL     OW18871   3.533   3.284  17.592 -0.0674  0.4130 -0.0416
 2470SOL    HW118872   3.461   3.346  17.604  1.1736  1.9409 -0.6013
 2470SOL    HW218873   3.481   3.206  17.613  2.7967 -1.0408  1.5620
 2471SOL     OW18874   0.528   2.932   0.991  0.4162  0.4236  0.2309
 2471SOL    HW118875   0.477   3.007   1.021  0.3618  0.8743 -0.9598
 2471SOL    HW218876   0.467   2.897   0.926 -0.4075  2.2750  0.0061
 2472SOL     OW18877   1.109   0.146   3.578  0.1046 -0.0396 -0.5142
 2472SOL    HW118878   1.097   0.075   3.641  2.3762  1.5431  1.7405
 2472SOL    HW218879   1.021   0.165   3.545  0.4125 -1.1727 -1.9667
 2473SOL     OW18880   3.566   1.133   9.253 -0.1686  0.1346 -0.1994
 2473SOL    HW118881   3.630   1.203   9.267 -0.6309  0.2555  1.2917
 2473SOL    HW218882   3.616   1.051   9.262 -0.1247  0.1586 -0.2267
 2474SOL     OW18883   0.079   1.184  12.213  0.7418  0.3908 -0.0756
 2474SOL    HW118884   0.007   1.224  12.164 -0.9339 -1.4539  0.8757
 2474SOL    HW218885   0.142   1.253  12.233  0.1259  1.6014 -2.3011
 2475SOL     OW18886   1.499   0.439  16.145 -0.0145 -0.2069 -0.2086
 2475SOL    HW118887   1.476   0.477  16.060 -1.2786  0.6828  0.5421
 2475SOL    HW218888   1.429   0.376  16.159 -1.5876  1.7831  0.7911
 2476SOL     OW18889   2.105   4.379   4.084 -0.0534 -0.0597 -0.7443
 2476SOL    HW118890   2.178   4.418   4.132  1.0850 -0.9815 -1.7288
 2476SOL    HW218891   2.149   4.327   4.016 -1.3045  0.2201 -1.7842
 2477SOL     OW18892   2.256   0.893   8.918  0.2809  0.0935  0.5907
 2477SOL    HW118893   2.187   0.898   8.852  0.5097  2.6132  0.5331
 2477SOL    HW218894   2.236   0.812   8.963  0.6244 -1.3573 -1.8746
 2478SOL     OW18895   0.332   0.734   1.466  0.5726 -0.4127  0.8857
 2478SOL    HW118896   0.425   0.745   1.442  0.5411 -1.2237  0.3876
 2478SOL    HW218897   0.312   0.674   1.394 -1.9223 -1.1634  2.2253
 2479SOL     OW18898   1.079   0.852   9.462  0.1997  0.5253  0.9037
 2479SOL    HW118899   1.155   0.808   9.425 -1.5920  0.5785 -2.8705
 2479SOL    HW218900   1.073   0.801   9.543 -2.3443 -1.0354 -0.2461
 2480SOL     OW18901   1.039   1.221   6.955  0.3822  0.2942  0.2725
 2480SOL    HW118902   0.986   1.142   6.945  0.0400  0.4403  0.8743
 2480SOL    HW218903   1.071   1.210   7.045 -1.4533 -0.1607  0.8697
 2481SOL     OW18904   0.734   3.862   2.722 -0.5136 -0.1560  0.0309
 2481SOL    HW118905   0.738   3.830   2.632  0.4017 -1.6729  0.6147
 2481SOL    HW218906   0.820   3.848   2.760 -0.2503  1.8473  0.2169
 2482SOL     OW18907   4.181   2.849  10.603  0.0946  0.0090 -0.5561
 2482SOL    HW118908   4.192   2.924  10.544  1.3723 -0.5094 -0.9999
 2482SOL    HW218909   4.273   2.821  10.612  0.2694 -0.2216 -2.9258
 2483SOL     OW18910   3.697   0.991   2.548  0.5711  0.2205 -0.5114
 2483SOL    HW118911   3.656   0.969   2.464  1.7477  1.1295 -1.3260
 2483SOL    HW218912   3.782   1.022   2.519 -0.0577  1.8187 -0.6418
 2484SOL     OW18913   1.001   0.048   5.550  0.0217  0.6142 -0.6691
 2484SOL    HW118914   0.947   4.694   5.575  1.4885 -0.2688 -0.1827
 2484SOL    HW218915   1.018   0.015   5.462 -0.0243 -1.3641  0.0770
 2485SOL     OW18916   1.543   1.025  10.389 -0.1572 -0.3920  0.8068
 2485SOL    HW118917   1.631   1.048  10.420  0.1989 -0.8803  0.1548
 2485SOL    HW218918   1.559   0.934  10.366  0.6081  0.1950 -0.9892
 2486SOL     OW18919   2.779   1.950   4.300  0.2058  0.5284  0.4884
 2486SOL    HW118920   2.743   1.990   4.221 -0.7770 -1.0284  0.1431
 2486SOL    HW218921   2.750   2.020   4.359 -0.2343  1.0495 -0.3527
 2487SOL     OW18922   2.392   3.459   7.903 -0.1154  0.3733  0.2382
 2487SOL    HW118923   2.404   3.480   7.811 -1.9037  0.0589 -0.0687
 2487SOL    HW218924   2.487   3.464   7.913  0.2228 -1.9595 -1.8554
 2488SOL     OW18925   2.818   2.230   3.222  0.4847 -0.2752 -0.1122
 2488SOL    HW118926   2.844   2.319   3.243 -0.4194  0.3427 -1.6460
 2488SOL    HW218927   2.729   2.249   3.194  1.3080 -0.3384 -2.7325
 2489SOL     OW18928   0.883   2.595   2.501  0.4316  0.1563  0.0152
 2489SOL    HW118929   0.967   2.591   2.547 -0.0454 -2.9829  0.6648
 2489SOL    HW218930   0.900   2.528   2.434 -4.2250  0.3986 -1.3567
 2490SOL     OW18931   1.248   1.687   8.037  0.0838  0.0163 -0.2004
 2490SOL    HW118932   1.224   1.741   8.113  1.0756  0.4768 -0.2057
 2490SOL    HW218933   1.266   1.610   8.091 -0.4183  0.2035  0.2397
 2491SOL     OW18934   1.336   3.400   2.206  0.2373 -0.2833 -0.8165
 2491SOL    HW118935   1.392   3.443   2.141 -1.4928  1.5897 -1.0468
 2491SOL    HW218936   1.368   3.439   2.288 -0.6689  1.1895 -1.1696
 2492SOL     OW18937   0.786   4.561  10.275  0.8647  0.4839 -0.1656
 2492SOL    HW118938   0.768   4.477  10.317 -1.9274  1.2974  0.3225
 2492SOL    HW218939   0.742   4.622  10.334  2.3206  2.1211 -0.7858
 2493SOL     OW18940   3.613   2.426   2.667 -0.2309 -0.6170 -0.3612
 2493SOL    HW118941   3.570   2.482   2.603 -0.3226 -2.6118 -2.0477
 2493SOL    HW218942   3.679   2.378   2.617 -0.2229 -1.8350  0.8091
 2494SOL     OW18943   1.239   3.045   7.058  0.2085 -0.3105  0.5011
 2494SOL    HW118944   1.165   3.106   7.064  0.6377  0.1426  1.1352
 2494SOL    HW218945   1.194   2.967   7.092  0.9434 -0.2289  1.6445
 2495SOL     OW18946   0.286   0.635  13.787  0.2411 -0.3806 -0.6936
 2495SOL    HW118947   0.297   0.665  13.697  2.2195  0.8190 -0.0491
 2495SOL    HW218948   0.195   0.651  13.813  1.0217  0.9037  1.2228
 2496SOL     OW18949   1.850   1.144   5.200  0.3402 -0.0909 -0.3347
 2496SOL    HW118950   1.801   1.136   5.118  0.3307  0.2688 -0.3669
 2496SOL    HW218951   1.849   1.239   5.214 -2.7749 -0.2423  0.3861
 2497SOL     OW18952   3.518   4.157  17.626  0.3297 -0.1374  0.0878
 2497SOL    HW118953   3.577   4.085  17.649 -0.8804 -1.0750  0.2147
 2497SOL    HW218954   3.577   4.231  17.642  0.3922 -0.0905 -0.3592
 2498SOL     OW18955   1.307   0.405  11.451 -0.3195  0.6354 -0.3945
 2498SOL    HW118956   1.220   0.442  11.433 -2.0705 -2.8049  0.8907
 2498SOL    HW218957   1.370   0.471  11.422  0.4890 -0.7358 -1.7714
 2499SOL     OW18958   2.262   1.003   1.973  0.4221  0.1405 -0.4797
 2499SOL    HW118959   2.240   1.096   1.978 -0.6764 -0.0366 -2.1017
 2499SOL    HW218960   2.341   1.002   2.028  0.5610  4.6519 -0.5277
 2500SOL     OW18961   4.540   2.551  10.852 -0.9771 -0.2316 -0.2086
 2500SOL    HW118962   4.551   2.520  10.942 -0.2240  1.0863  0.1461
 2500SOL    HW218963   4.629   2.579  10.832 -1.6939  1.1881 -1.3403
 2501SOL     OW18964   4.285   2.161   6.526 -0.1472 -0.5662  0.0122
 2501SOL    HW118965   4.247   2.249   6.526 -2.3590 -1.5502  0.8858
 2501SOL    HW218966   4.263   2.140   6.616 -1.0104 -1.1723 -0.3404
 2502SOL     OW18967   2.639   2.526  11.828  0.1821  0.0728 -0.3261
 2502SOL    HW118968   2.616   2.522  11.735  1.3477  3.4885 -0.7529
 2502SOL    HW218969   2.691   2.606  11.837 -0.1482 -0.0816  3.1608
 2503SOL     OW18970   3.013   2.078   6.200  0.4490 -0.4444 -0.6522
 2503SOL    HW118971   3.108   2.084   6.187  0.3831  0.3250 -0.7966
 2503SOL    HW218972   3.001   1.983   6.191  0.4460 -0.4620 -0.4487
 2504SOL     OW18973   2.513   3.905   9.491  0.4662  0.0506  0.3957
 2504SOL    HW118974   2.448   3.858   9.438 -0.9894  1.8095  0.5811
 2504SOL    HW218975   2.486   3.995   9.471  2.3198  0.5529  0.2235
 2505SOL     OW18976   2.953   1.310   0.679 -0.5931 -0.8729 -0.1457
 2505SOL    HW118977   3.025   1.264   0.637 -0.7593 -1.6457  0.4268
 2505SOL    HW218978   2.984   1.342   0.763  0.9942 -2.0161 -0.2958
 2506SOL     OW18979   3.005   0.601   4.346  0.5180 -0.3118 -0.3579
 2506SOL    HW118980   2.945   0.622   4.417 -0.3857  0.7566 -1.4430
 2506SOL    HW218981   3.041   0.685   4.316 -1.5464  0.7903  0.2681
 2507SOL     OW18982   4.066   4.242   2.841  0.2132  0.2727  0.4964
 2507SOL    HW118983   4.066   4.304   2.913  2.3065  1.3988 -0.4810
 2507SOL    HW218984   4.158   4.231   2.817  0.5823  2.0499  1.1440
 2508SOL     OW18985   0.536   2.954  17.065 -0.3977  0.3184  0.4395
 2508SOL    HW118986   0.577   2.868  17.054  1.2558  0.9408  1.9036
 2508SOL    HW218987   0.457   2.945  17.118 -0.0344  0.6617  1.0397
 2509SOL     OW18988   2.292   4.483   5.444 -0.0394 -0.6015 -0.0152
 2509SOL    HW118989   2.350   4.463   5.372  1.2790  1.4017  0.4873
 2509SOL    HW218990   2.334   4.448   5.522 -1.1945 -0.5127  0.6563
 2510SOL     OW18991   0.284   0.634   0.138 -0.0035 -0.4926  0.0877
 2510SOL    HW118992   0.286   0.607   0.046 -1.4660  1.8096 -0.6269
 2510SOL    HW218993   0.376   0.656   0.152 -0.3058 -0.6293  2.2737
 2511SOL     OW18994   2.869   2.480   3.296 -0.2738  0.0241 -0.1409
 2511SOL    HW118995   2.784   2.481   3.341  0.9423  0.4496  2.1093
 2511SOL    HW218996   2.908   2.561   3.327  1.3544 -0.8481  0.0697
 2512SOL     OW18997   0.495   4.263   8.583  0.0518  1.0245  0.3112
 2512SOL    HW118998   0.439   4.225   8.516  1.3582  1.0779 -0.8164
 2512SOL    HW218999   0.503   4.190   8.645 -2.3803  2.8026  2.7305
 2513SOL     OW19000   4.603   1.555   6.085 -0.1506  0.6994  0.1956
 2513SOL    HW119001   4.531   1.539   6.024  1.4997  1.4051 -1.9864
 2513SOL    HW219002   4.629   1.466   6.107 -4.3388 -0.5926 -0.2253
 2514SOL     OW19003   0.942   0.274   7.111 -0.1500 -0.0945  0.2213
 2514SOL    HW119004   0.902   0.357   7.138  1.0243  0.1462  1.1934
 2514SOL    HW219005   0.878   0.234   7.052  1.4298 -1.0902 -0.8354
 2515SOL     OW19006   1.303   1.635   2.159 -0.1743 -0.1737 -0.1619
 2515SOL    HW119007   1.360   1.709   2.140  0.2779 -0.3481  0.5093
 2515SOL    HW219008   1.221   1.658   2.116 -0.5882  0.4619  0.9744
 2516SOL     OW19009   0.630   0.991   5.117 -0.0643  0.0729 -0.8059
 2516SOL    HW119010   0.574   0.913   5.111 -2.7692  1.9623 -0.1316
 2516SOL    HW219011   0.592   1.047   5.049  1.7925  1.6727 -0.5165
 2517SOL     OW19012   4.511   1.510  13.226 -0.2431 -0.4704  0.3039
 2517SOL    HW119013   4.444   1.577  13.216 -0.5375 -1.3032 -3.0857
 2517SOL    HW219014   4.525   1.510  13.321 -1.9385  3.0790  0.5681
 2518SOL     OW19015   3.825   4.687   7.327 -0.1665 -0.1289 -0.2971
 2518SOL    HW119016   3.829   4.637   7.408 -1.0937 -0.6166 -0.5511
 2518SOL    HW219017   3.769   4.641   7.264 -0.7027  1.5533 -1.0545
 2519SOL     OW19018   0.043   0.191   7.722  0.5344  0.1059 -0.2896
 2519SOL    HW119019   0.100   0.160   7.792  0.4867 -0.4084 -0.4769
 2519SOL    HW219020   4.682   0.178   7.770 -0.2645 -0.8983 -1.9186
 2520SOL     OW19021   0.348   1.246  13.221  0.3867 -0.0889  0.1504
 2520SOL    HW119022   0.339   1.340  13.239 -0.8053 -0.4708  1.5294
 2520SOL    HW219023   0.264   1.218  13.185  0.3151 -1.6213  1.4855
 2521SOL     OW19024   1.473   0.812   5.070  0.0928  0.4088  0.3618
 2521SOL    HW119025   1.526   0.764   5.006 -2.3765 -1.0910 -0.5492
 2521SOL    HW219026   1.539   0.817   5.139 -0.6353  1.0792  1.0052
 2522SOL     OW19027   1.525   0.871   5.996  0.5972 -0.5203  0.7280
 2522SOL    HW119028   1.580   0.793   5.985  0.8960 -0.0411 -1.1325
 2522SOL    HW219029   1.481   0.859   6.080  0.0223 -0.6998  0.3950
 2523SOL     OW19030   1.339   4.540   9.417  1.0492 -0.3205 -0.2820
 2523SOL    HW119031   1.398   4.495   9.477  0.7649  1.4011  1.3127
 2523SOL    HW219032   1.297   4.464   9.378  0.3628 -0.0224 -0.1272
 2524SOL     OW19033   3.183   0.394   9.449 -0.6074  0.2237 -0.4432
 2524SOL    HW119034   3.276   0.372   9.458 -1.2027 -2.6277 -1.3872
 2524SOL    HW219035   3.179   0.466   9.512 -0.8146 -2.4315  2.5459
 2525SOL     OW19036   2.046   0.364  10.306  0.3277 -0.3601  0.3516
 2525SOL    HW119037   1.972   0.423  10.290  1.2008  1.0622  1.5164
 2525SOL    HW219038   1.991   0.290  10.332 -0.8232  1.3297  2.6689
 2526SOL     OW19039   3.945   1.210   7.464 -0.4813 -0.4297 -0.4925
 2526SOL    HW119040   4.024   1.253   7.498 -2.3255  2.9369 -0.5139
 2526SOL    HW219041   3.932   1.257   7.381  0.8192 -0.1827 -0.5577
 2527SOL     OW19042   2.434   2.404   4.633 -0.4198 -0.5898  0.0464
 2527SOL    HW119043   2.405   2.487   4.596  1.1015 -0.4774 -0.8896
 2527SOL    HW219044   2.482   2.373   4.557  0.2964 -1.5199  0.8688
 2528SOL     OW19045   2.878   1.466   3.381 -0.0767 -0.0334  0.0585
 2528SOL    HW119046   2.880   1.419   3.297  2.0192 -0.1420  0.1655
 2528SOL    HW219047   2.938   1.539   3.367 -1.1750  0.6900 -0.9330
 2529SOL     OW19048   2.963   2.932  14.114 -0.3187  0.7046 -0.4427
 2529SOL    HW119049   2.970   2.987  14.192 -2.1051 -1.5179  1.3044
 2529SOL    HW219050   2.925   2.859  14.163  1.7646 -0.7215 -0.9492
 2530SOL     OW19051   4.674   0.295   8.969 -0.2169  0.2975 -0.7527
 2530SOL    HW119052   4.706   0.235   9.037  2.4849  2.6771  0.0537
 2530SOL    HW219053   4.719   0.249   8.898  0.5124  0.2357 -0.2575
 2531SOL     OW19054   0.777   2.085   3.539 -0.0124  0.0991 -0.0896
 2531SOL    HW119055   0.704   2.043   3.493 -0.3112  2.1240 -1.5171
 2531SOL    HW219056   0.821   2.126   3.464  0.7310 -0.9212 -0.2001
 2532SOL     OW19057   1.078   1.129   5.689  0.0054  0.0373  0.0822
 2532SOL    HW119058   1.051   1.198   5.749  0.5457  0.2786  0.0511
 2532SOL    HW219059   0.995   1.086   5.669  0.4617 -1.3398  1.1569
 2533SOL     OW19060   2.779   3.307   6.734 -0.4540 -0.0968  0.0670
 2533SOL    HW119061   2.845   3.237   6.728 -1.8469 -1.3585 -0.6000
 2533SOL    HW219062   2.735   3.285   6.816 -2.6303 -1.4786 -1.4914
 2534SOL     OW19063   1.849   2.317  11.573 -0.1041 -0.0588  0.1792
 2534SOL    HW119064   1.826   2.251  11.508  0.6538  1.1110 -1.2867
 2534SOL    HW219065   1.943   2.311  11.588  0.0482  1.1890 -0.2915
 2535SOL     OW19066   2.165   2.631   1.264  0.4485 -0.5250 -0.0440
 2535SOL    HW119067   2.257   2.638   1.288  0.5749 -1.6036 -0.1882
 2535SOL    HW219068   2.137   2.548   1.304 -1.6728 -0.6130 -1.7395
 2536SOL     OW19069   1.078   3.299   7.114  0.0681  0.3997  0.2567
 2536SOL    HW119070   1.135   3.339   7.180  0.5446 -2.3258  1.5213
 2536SOL    HW219071   1.003   3.288   7.172 -0.3170  0.6429 -0.1956
 2537SOL     OW19072   0.884   4.583   2.973 -0.2614 -0.1485  0.1408
 2537SOL    HW119073   0.841   4.621   3.050  0.1986  0.2654  0.1921
 2537SOL    HW219074   0.819   4.516   2.953  0.7007 -0.8499 -0.6169
 2538SOL     OW19075   0.259   4.526  17.312  0.3539 -0.9939  0.0821
 2538SOL    HW119076   0.289   4.588  17.246 -1.5777  0.8786  0.9738
 2538SOL    HW219077   0.277   4.435  17.288 -0.5288 -0.8427 -1.1688
 2539SOL     OW19078   4.172   4.578   3.267  0.0673 -0.2334 -0.1046
 2539SOL    HW119079   4.222   4.654   3.236 -0.6953 -0.0109 -0.7918
 2539SOL    HW219080   4.181   4.524   3.188  3.0357  1.2007 -0.7740
 2540SOL     OW19081   3.921   3.689   5.287 -0.0817  0.1360 -0.0472
 2540SOL    HW119082   4.001   3.715   5.335  0.0807  0.9999 -0.7934
 2540SOL    HW219083   3.928   3.593   5.287 -1.5456  0.0412 -0.4028
 2541SOL     OW19084   2.564   2.675   4.706 -0.0753  0.2643  0.3094
 2541SOL    HW119085   2.531   2.593   4.741  2.2787  0.0721  2.0758
 2541SOL    HW219086   2.578   2.661   4.613  2.7816 -1.7742  1.0580
 2542SOL     OW19087   3.665   2.179   3.380  0.4791  0.1895 -0.0500
 2542SOL    HW119088   3.659   2.270   3.408  0.1545  1.0582 -2.8670
 2542SOL    HW219089   3.710   2.185   3.296 -0.5335  0.4273 -0.5810
 2543SOL     OW19090   0.743   3.214  15.271 -0.1482  0.1863  0.0401
 2543SOL    HW119091   0.727   3.308  15.285 -1.3615 -0.0054 -0.0721
 2543SOL    HW219092   0.831   3.217  15.234 -0.0453  1.2003  0.3613
 2544SOL     OW19093   4.217   1.474   8.450  0.4704  0.4164 -0.1927
 2544SOL    HW119094   4.251   1.457   8.361 -0.3556 -0.7941 -0.2766
 2544SOL    HW219095   4.125   1.449   8.452  0.0539  1.9668 -0.6178
 2545SOL     OW19096   4.000   0.713  15.624  0.5221 -0.5501 -0.7424
 2545SOL    HW119097   4.060   0.681  15.691 -0.9866  1.1024  1.3948
 2545SOL    HW219098   3.989   0.643  15.559 -1.6270 -1.5523  0.7216
 2546SOL     OW19099   3.808   2.271   4.617 -0.5351  0.3023  0.0654
 2546SOL    HW119100   3.880   2.299   4.560 -0.9002 -0.6767 -0.8693
 2546SOL    HW219101   3.853   2.210   4.676  0.1522  2.1494  1.4501
 2547SOL     OW19102   2.513   3.294  16.638 -0.5681 -0.3496 -0.3685
 2547SOL    HW119103   2.431   3.269  16.680 -0.9213  1.2751 -0.0985
 2547SOL    HW219104   2.578   3.230  16.669  1.6132  0.8331 -2.5153
 2548SOL     OW19105   0.090   0.410  15.321 -0.0846  0.0737  0.0932
 2548SOL    HW119106   0.115   0.348  15.389 -2.5528 -3.0881 -1.8996
 2548SOL    HW219107   0.112   0.360  15.242 -1.6247 -0.4520 -0.0057
 2549SOL     OW19108   3.163   0.299   5.868  0.1377 -0.0368  0.2024
 2549SOL    HW119109   3.201   0.387   5.863 -1.3026  0.4303 -2.4448
 2549SOL    HW219110   3.071   0.314   5.845 -0.8206 -3.4989  1.7233
 2550SOL     OW19111   0.545   2.311   2.255 -0.3125 -0.2925  0.0979
 2550SOL    HW119112   0.580   2.229   2.219  2.4236  0.6929  0.5396
 2550SOL    HW219113   0.549   2.366   2.177 -0.0288 -1.6395 -0.8516
 2551SOL     OW19114   4.578   1.006   0.646 -0.1574 -0.3357 -0.6358
 2551SOL    HW119115   4.534   0.994   0.562 -0.0728  0.3994 -0.7863
 2551SOL    HW219116   4.666   0.976   0.626  0.1287 -0.9524  1.5094
 2552SOL     OW19117   1.863   0.213  13.875  0.0418  0.0270  0.1238
 2552SOL    HW119118   1.824   0.248  13.955  0.3395 -2.5781  1.3937
 2552SOL    HW219119   1.890   0.125  13.899  0.9619  1.2100  3.4403
 2553SOL     OW19120   0.627   1.579   2.936 -0.0839  0.7713 -0.5278
 2553SOL    HW119121   0.641   1.501   2.883 -0.0458  1.5054 -1.6052
 2553SOL    HW219122   0.536   1.606   2.920 -0.0356  0.6665 -0.9943
 2554SOL     OW19123   0.091   2.764   9.140  0.0814 -0.0496 -0.5144
 2554SOL    HW119124   4.719   2.743   9.133 -0.2545  1.2674  0.0544
 2554SOL    HW219125   0.135   2.773   9.055 -1.2341  1.6131 -1.0108
 2555SOL     OW19126   4.637   4.091  15.159  0.1513  0.1918  0.2116
 2555SOL    HW119127   4.636   4.055  15.070 -2.1920 -1.2079  0.7848
 2555SOL    HW219128   4.543   4.107  15.172  0.1546  1.7242 -1.7775
 2556SOL     OW19129   1.215   1.824  10.019  0.7298 -0.0499 -0.0669
 2556SOL    HW119130   1.240   1.782   9.937  0.3952 -0.3901  0.0077
 2556SOL    HW219131   1.122   1.801  10.026  0.7841 -0.4086 -0.5406
 2557SOL     OW19132   2.782   3.769   0.630 -0.0067 -0.1315  0.0727
 2557SOL    HW119133   2.853   3.799   0.686 -0.7440 -1.6261  1.7870
 2557SOL    HW219134   2.821   3.683   0.618 -1.9200 -0.7283 -1.9187
 2558SOL     OW19135   3.141   0.071   2.635 -0.3994 -0.1668  0.6084
 2558SOL    HW119136   3.168   0.067   2.727  1.7111 -0.9931 -0.0369
 2558SOL    HW219137   3.116   0.164   2.629 -0.0632 -0.2175 -1.6733
 2559SOL     OW19138   3.077   0.089   0.947 -0.2666  0.3466 -0.1355
 2559SOL    HW119139   3.070   0.090   0.852 -1.6923 -0.9094 -0.0550
 2559SOL    HW219140   3.172   0.093   0.959 -0.3361  0.1666  0.5309
 2560SOL     OW19141   2.713   0.524   7.892  0.1008 -0.7130 -0.2707
 2560SOL    HW119142   2.708   0.455   7.957 -1.7021  0.1243  0.4767
 2560SOL    HW219143   2.630   0.570   7.901 -0.9802 -3.0465  1.3630
 2561SOL     OW19144   0.472   3.248  15.495 -0.7533 -0.3284 -0.3844
 2561SOL    HW119145   0.415   3.295  15.435 -0.5308  0.5673  0.1081
 2561SOL    HW219146   0.411   3.179  15.521 -0.1211 -0.8423 -0.2523
 2562SOL     OW19147   0.273   2.998   6.585 -0.5587 -0.0216  0.1704
 2562SOL    HW119148   0.224   3.079   6.602  1.5218  0.9855  1.3228
 2562SOL    HW219149   0.203   2.936   6.607 -2.0444  1.5138 -0.2291
 2563SOL     OW19150   0.029   0.164   0.665  0.3286 -0.3660  0.0750
 2563SOL    HW119151   0.101   0.189   0.606 -2.0698  0.7735 -2.3437
 2563SOL    HW219152   0.003   0.250   0.699  1.1825 -0.0069 -0.1777
 2564SOL     OW19153   3.450   4.037   2.463 -0.2260 -0.4556 -0.1207
 2564SOL    HW119154   3.373   4.047   2.519  1.0687 -0.3040  1.6134
 2564SOL    HW219155   3.457   4.130   2.440  0.0985 -0.5543 -0.4224
 2565SOL     OW19156   3.282   1.471   3.611  0.4761 -0.4187 -0.4118
 2565SOL    HW119157   3.255   1.390   3.654 -0.2161  1.8325  3.3119
 2565SOL    HW219158   3.199   1.513   3.590  1.7093  2.3569  0.1887
 2566SOL     OW19159   3.745   3.347   7.886 -0.0807 -0.0716 -0.4494
 2566SOL    HW119160   3.838   3.345   7.909 -1.2842 -1.9622  4.0999
 2566SOL    HW219161   3.729   3.441   7.876 -1.9953 -0.0359  3.1458
 2567SOL     OW19162   2.892   1.765   9.032  0.1135 -0.2995  0.2572
 2567SOL    HW119163   2.806   1.728   9.047  0.2455 -1.4116 -1.6915
 2567SOL    HW219164   2.889   1.826   9.105 -0.0972  3.0903 -2.5441
 2568SOL     OW19165   3.098   2.699  11.438  0.0239 -0.1534  0.0320
 2568SOL    HW119166   3.072   2.772  11.493  0.3876 -0.0171  0.0223
 2568SOL    HW219167   3.161   2.745  11.382  0.0131  0.6375  0.6816
 2569SOL     OW19168   0.422   3.239  15.062 -0.0552  0.9973  0.0753
 2569SOL    HW119169   0.386   3.151  15.051  0.4266  0.7882  0.1506
 2569SOL    HW219170   0.505   3.224  15.109 -1.3371  0.6269  2.2437
 2570SOL     OW19171   1.909   2.139  10.868 -0.2621 -0.4368  0.2051
 2570SOL    HW119172   1.942   2.077  10.803 -0.6524 -2.1293  1.5980
 2570SOL    HW219173   1.974   2.128  10.938 -0.4074 -1.1546  0.2321
 2571SOL     OW19174   3.949   2.292  17.607 -0.4183  0.0575 -0.6942
 2571SOL    HW119175   4.007   2.327  17.675 -1.2354  0.6492 -0.2833
 2571SOL    HW219176   3.959   2.357  17.538 -0.7507  1.0724  0.2043
 2572SOL     OW19177   3.828   3.483   4.890 -0.5231  0.2686  0.5053
 2572SOL    HW119178   3.912   3.470   4.935  1.4804  0.0060 -3.2653
 2572SOL    HW219179   3.823   3.398   4.847 -1.5019  0.9990 -0.8066
 2573SOL     OW19180   3.744   4.523   6.017 -0.5200  0.1267  0.0123
 2573SOL    HW119181   3.723   4.611   6.048 -2.3058 -0.1883 -0.3130
 2573SOL    HW219182   3.768   4.548   5.928 -1.0978  1.3892  0.2199
 2574SOL     OW19183   1.964   4.549   3.153 -0.1783 -1.1251  1.0158
 2574SOL    HW119184   2.014   4.604   3.214  1.7076  1.4390 -2.7651
 2574SOL    HW219185   1.875   4.575   3.175 -1.0186 -2.0230 -1.3291
 2575SOL     OW19186   2.541   0.839   8.273  0.5014 -0.0665 -0.5627
 2575SOL    HW119187   2.630   0.874   8.268 -0.2217  1.9629  0.9611
 2575SOL    HW219188   2.484   0.906   8.235  0.6965  1.0543  1.1203
 2576SOL     OW19189   4.583   1.445   4.941 -0.8597 -0.4832  0.1033
 2576SOL    HW119190   4.592   1.521   4.884 -3.2077  1.0691  1.7742
 2576SOL    HW219191   4.611   1.487   5.023 -0.5031  0.1933 -0.3643
 2577SOL     OW19192   3.784   1.683   6.597  0.0934 -0.0064 -0.0594
 2577SOL    HW119193   3.830   1.628   6.661  2.1021  1.3935 -0.2963
 2577SOL    HW219194   3.811   1.769   6.626  1.4966 -1.2016  2.1315
 2578SOL     OW19195   3.005   2.679   2.270  0.2862  0.0825 -0.0072
 2578SOL    HW119196   2.983   2.771   2.258  2.0622  0.2171 -2.2520
 2578SOL    HW219197   3.019   2.652   2.179  1.5949 -2.4586  0.9572
 2579SOL     OW19198   3.897   4.395   7.864 -0.3889 -0.5450 -0.6104
 2579SOL    HW119199   3.850   4.409   7.946  2.0221 -0.8034  0.8086
 2579SOL    HW219200   3.986   4.381   7.896 -0.1371 -0.8095 -1.4251
 2580SOL     OW19201   4.519   2.683   7.469  0.0596 -0.0502 -0.1900
 2580SOL    HW119202   4.577   2.690   7.393 -0.0705 -0.7562 -0.3594
 2580SOL    HW219203   4.452   2.739   7.430  0.4819 -0.5851 -1.7235
 2581SOL     OW19204   1.611   1.115   6.477 -0.3707 -0.3313 -0.7224
 2581SOL    HW119205   1.523   1.082   6.494 -0.4553  1.3443  2.1616
 2581SOL    HW219206   1.640   1.064   6.402 -0.1553 -0.5622 -0.4788
 2582SOL     OW19207   2.745   1.609   5.820  0.3380  0.3802 -0.0536
 2582SOL    HW119208   2.791   1.534   5.858  0.6450  1.4915  1.7472
 2582SOL    HW219209   2.813   1.673   5.841 -0.4494  0.4026  2.4171
 2583SOL     OW19210   1.639   0.448  16.412  0.0478 -0.5164  0.1969
 2583SOL    HW119211   1.712   0.416  16.359  0.9352 -1.4310  2.0009
 2583SOL    HW219212   1.566   0.438  16.351  0.5263  0.3058 -0.5293
 2584SOL     OW19213   1.506   1.860   9.782 -0.4906  0.1217  0.7871
 2584SOL    HW119214   1.545   1.775   9.804  0.8174  0.1802 -1.2984
 2584SOL    HW219215   1.414   1.837   9.778 -0.0347 -1.3132 -1.1741
 2585SOL     OW19216   2.682   3.649  16.088  0.0538 -0.4114 -0.1931
 2585SOL    HW119217   2.608   3.618  16.036 -1.6121  0.9294  1.3817
 2585SOL    HW219218   2.633   3.717  16.134  1.3664  1.3451 -1.4183
 2586SOL     OW19219   4.312   0.552   6.671 -0.2295 -0.5570 -0.4301
 2586SOL    HW119220   4.338   0.559   6.763 -0.8265 -0.7163 -0.2519
 2586SOL    HW219221   4.294   0.644   6.652  0.5291 -0.2136  0.5425
 2587SOL     OW19222   4.539   0.373  11.067  0.0223  0.2330 -0.0368
 2587SOL    HW119223   4.483   0.404  10.996 -0.6708  0.1013  0.4601
 2587SOL    HW219224   4.592   0.321  11.007 -1.0018  1.6037 -2.1173
 2588SOL     OW19225   1.218   3.359   7.720 -0.6337 -0.2778 -0.3191
 2588SOL    HW119226   1.289   3.310   7.677  0.0632 -0.5537  1.1748
 2588SOL    HW219227   1.264   3.438   7.748  1.0132 -1.2291 -0.3880
 2589SOL     OW19228   2.758   0.453   4.997  0.2761  1.0138  0.2383
 2589SOL    HW119229   2.702   0.529   4.980 -1.3480 -0.2715 -0.1586
 2589SOL    HW219230   2.726   0.431   5.084 -0.1921 -1.5728 -0.5866
 2590SOL     OW19231   4.095   1.714   8.342 -0.0530  0.1846  0.2457
 2590SOL    HW119232   4.165   1.655   8.368 -0.1627  1.2418  2.9419
 2590SOL    HW219233   4.092   1.683   8.251 -0.5580 -0.8199  0.6108
 2591SOL     OW19234   4.053   3.177   3.891  0.2020  0.1470  0.4578
 2591SOL    HW119235   4.139   3.192   3.930  0.4327 -0.2992  0.1166
 2591SOL    HW219236   4.074   3.179   3.798  0.9440  3.1969  0.6773
 2592SOL     OW19237   1.876   0.117  10.416 -0.4604 -0.2630  0.0781
 2592SOL    HW119238   1.783   0.097  10.406 -0.5604 -0.2221  0.9618
 2592SOL    HW219239   1.915   0.081  10.336  0.6110  2.8118 -0.7958
 2593SOL     OW19240   3.049   4.452  15.316  0.0190  0.6735  0.2372
 2593SOL    HW119241   3.097   4.500  15.249  0.0795  0.7232  0.3166
 2593SOL    HW219242   3.010   4.535  15.346  1.0790  0.9656  0.7746
 2594SOL     OW19243   0.383   2.442   1.796  0.2391  0.4165  0.0387
 2594SOL    HW119244   0.409   2.534   1.792  0.2510  0.5147  2.4010
 2594SOL    HW219245   0.293   2.463   1.771 -0.2851 -0.8608  0.8344
 2595SOL     OW19246   2.301   2.998   0.317  0.0700  0.8186  0.6326
 2595SOL    HW119247   2.340   3.028   0.399  0.2488  0.0563  0.8196
 2595SOL    HW219248   2.304   3.080   0.266  1.0916 -0.4254 -1.3264
 2596SOL     OW19249   1.000   1.823   3.859 -0.3609  0.5265  0.0656
 2596SOL    HW119250   0.907   1.803   3.858  0.1423 -1.8885  1.4282
 2596SOL    HW219251   0.998   1.905   3.810 -0.0016  1.4277  1.5516
 2597SOL     OW19252   2.239   3.384   1.496 -0.2236 -0.0079 -0.1952
 2597SOL    HW119253   2.172   3.452   1.500  0.4120  0.4058  3.2993
 2597SOL    HW219254   2.243   3.358   1.588  1.3773  0.1562 -0.2154
 2598SOL     OW19255   1.296   1.736  13.336 -0.0897 -0.3159  0.0690
 2598SOL    HW119256   1.316   1.699  13.423  1.1779 -1.1986 -0.6017
 2598SOL    HW219257   1.358   1.685  13.284 -0.3762 -1.0380  0.4297
 2599SOL     OW19258   0.495   3.643  11.391 -0.8416  0.5252 -0.3404
 2599SOL    HW119259   0.554   3.674  11.460  1.2210 -1.1409 -1.3766
 2599SOL    HW219260   0.536   3.670  11.309 -2.4567  0.7521 -1.0693
 2600SOL     OW19261   4.449   2.878   5.992  0.1883  0.4250 -0.0528
 2600SOL    HW119262   4.417   2.850   6.078  2.3461 -1.9176 -0.0172
 2600SOL    HW219263   4.377   2.934   5.963 -1.5589 -0.9253  1.6817
 2601SOL     OW19264   0.425   2.464   8.036  0.3991  0.3624 -0.1829
 2601SOL    HW119265   0.463   2.483   8.122  2.8360 -0.0854 -1.1741
 2601SOL    HW219266   0.501   2.487   7.982  0.2627  2.3895  0.4731
 2602SOL     OW19267   2.809   2.109  17.304 -0.4529 -0.0231 -0.2558
 2602SOL    HW119268   2.742   2.172  17.282  0.0888  0.4549 -0.5323
 2602SOL    HW219269   2.876   2.132  17.239 -0.0707  1.6475  0.7340
 2603SOL     OW19270   2.153   0.450   2.835 -0.5648  0.0027 -0.5747
 2603SOL    HW119271   2.057   0.455   2.828 -0.6451  0.8265  1.1894
 2603SOL    HW219272   2.174   0.514   2.767 -2.5458  0.5350 -0.6981
 2604SOL     OW19273   1.186   3.512   4.175 -0.1024 -0.3692  0.4093
 2604SOL    HW119274   1.123   3.457   4.222  0.3284 -1.4175 -0.2464
 2604SOL    HW219275   1.237   3.548   4.248  1.0372 -1.5375  0.1757
 2605SOL     OW19276   2.073   1.285   1.669  0.4455  0.2689  0.1142
 2605SOL    HW119277   2.149   1.341   1.686  1.1626 -0.5115 -0.5441
 2605SOL    HW219278   2.098   1.194   1.686  1.5990  0.6350  0.3997
 2606SOL     OW19279   1.598   0.868  17.491  0.0315  0.3460 -0.2721
 2606SOL    HW119280   1.690   0.847  17.474 -0.0575 -0.3522  0.0826
 2606SOL    HW219281   1.557   0.795  17.444 -0.2778  0.8873 -0.8351
 2607SOL     OW19282   1.435   2.194   8.105  0.5255 -0.3642 -0.5185
 2607SOL    HW119283   1.446   2.284   8.073 -4.0895  0.8445  1.1910
 2607SOL    HW219284   1.356   2.205   8.159  0.3028 -0.0750 -0.8973
 2608SOL     OW19285   4.279   3.394   3.091 -0.4609 -0.3159 -0.3342
 2608SOL    HW119286   4.318   3.308   3.080 -0.4329 -0.2217 -0.9452
 2608SOL    HW219287   4.354   3.447   3.120  1.1036 -2.4200 -0.6059
 2609SOL     OW19288   1.156   2.900   5.639  0.2865  0.0235 -0.4166
 2609SOL    HW119289   1.241   2.889   5.596 -0.3537 -0.8996 -1.4755
 2609SOL    HW219290   1.153   2.995   5.638 -0.3232  0.0114 -0.0105
 2610SOL     OW19291   3.833   3.149   3.634 -0.2198  0.0502  0.8941
 2610SOL    HW119292   3.876   3.233   3.617  0.0287 -0.1376  0.5931
 2610SOL    HW219293   3.910   3.101   3.664 -0.9841 -2.1718 -0.7320
 2611SOL     OW19294   1.735   3.249  17.022  0.0761 -0.0886  0.2846
 2611SOL    HW119295   1.714   3.235  16.929  1.8157 -1.6408  0.1283
 2611SOL    HW219296   1.648   3.241  17.060 -0.8964  1.0468 -1.7019
 2612SOL     OW19297   2.490   2.016  15.410 -0.4023 -0.4736  0.1923
 2612SOL    HW119298   2.398   2.039  15.410 -0.0972  0.7555  2.6747
 2612SOL    HW219299   2.522   2.059  15.490  1.5570 -0.7697 -0.4203
 2613SOL     OW19300   0.302   0.878   6.372  0.0345  0.7444  0.1915
 2613SOL    HW119301   0.344   0.802   6.412 -0.4149  0.5886  0.3680
 2613SOL    HW219302   0.239   0.903   6.440  0.2745 -2.5238  1.5875
 2614SOL     OW19303   0.676   2.151  14.361  0.4482 -0.3297 -0.2767
 2614SOL    HW119304   0.588   2.125  14.333 -0.4396  1.0316  1.2212
 2614SOL    HW219305   0.728   2.089  14.310  1.1366 -0.8846  1.1029
 2615SOL     OW19306   0.082   4.374  12.310 -0.0394 -0.1110 -0.0288
 2615SOL    HW119307   0.007   4.314  12.307 -1.0366  1.1961 -0.9815
 2615SOL    HW219308   0.102   4.391  12.218 -1.0631 -2.5550 -0.7030
 2616SOL     OW19309   3.786   3.871   3.075 -0.2541  0.0590  0.6160
 2616SOL    HW119310   3.871   3.892   3.114 -0.7617  3.9393 -0.4176
 2616SOL    HW219311   3.793   3.899   2.984 -2.5114 -1.2801  0.0199
 2617SOL     OW19312   0.765   1.339   5.237 -0.2471  0.0331  0.0818
 2617SOL    HW119313   0.702   1.376   5.174 -1.8575 -0.6230  1.3196
 2617SOL    HW219314   0.738   1.390   5.314 -1.8806 -0.5252 -0.1257
 2618SOL     OW19315   1.648   4.545   5.471 -0.1399  0.2495  0.2670
 2618SOL    HW119316   1.563   4.538   5.427  0.6195  3.9787 -1.7868
 2618SOL    HW219317   1.698   4.522   5.393  0.1730  0.0888  0.5161
 2619SOL     OW19318   3.779   0.035   8.963  0.2435  0.3928  0.4996
 2619SOL    HW119319   3.757   0.127   8.948  1.2967  0.3369 -1.3927
 2619SOL    HW219320   3.872   0.028   8.986 -0.3029  1.0365  2.9056
 2620SOL     OW19321   2.853   0.588  10.404  0.7082 -0.4369  0.0220
 2620SOL    HW119322   2.891   0.613  10.488  0.7774 -1.6871  0.3571
 2620SOL    HW219323   2.798   0.665  10.386 -0.6844 -1.4930 -0.2216
 2621SOL     OW19324   4.719   3.670  10.699  0.0335  0.1867  0.8054
 2621SOL    HW119325   4.663   3.645  10.626  0.4105  1.4079  0.0953
 2621SOL    HW219326   0.082   3.658  10.654 -0.7528  2.7872 -1.3804
 2622SOL     OW19327   0.663   1.465   1.052 -0.3252  0.1478 -0.1063
 2622SOL    HW119328   0.631   1.555   1.062 -1.5070 -0.2909  0.0376
 2622SOL    HW219329   0.658   1.433   1.142  0.2223  0.9018  0.1852
 2623SOL     OW19330   1.891   1.396   3.213  0.4359 -0.0336  0.0203
 2623SOL    HW119331   1.850   1.383   3.298 -0.6721  1.3754 -0.3130
 2623SOL    HW219332   1.963   1.451   3.243  0.0880  1.7451 -2.4166
 2624SOL     OW19333   0.842   2.780  11.682 -0.9584  0.3265 -0.5689
 2624SOL    HW119334   0.845   2.802  11.775  0.3658 -1.1988 -0.2553
 2624SOL    HW219335   0.776   2.710  11.683 -0.3787 -0.1976  0.2866
 2625SOL     OW19336   2.518   2.681  12.337 -0.3208  0.1197 -1.0781
 2625SOL    HW119337   2.538   2.674  12.430 -1.1537  1.4618 -0.7971
 2625SOL    HW219338   2.428   2.713  12.328 -0.0714  1.0674 -0.1553
 2626SOL     OW19339   3.892   1.120   5.134  0.5401 -0.0844  0.0356
 2626SOL    HW119340   3.916   1.120   5.042 -1.6298  2.5085 -0.5377
 2626SOL    HW219341   3.970   1.151   5.179  1.2315  1.5921 -2.3404
 2627SOL     OW19342   0.032   1.093  17.609  0.0090  0.0763 -0.0005
 2627SOL    HW119343   4.664   1.095  17.646 -0.1705  1.3890 -0.4904
 2627SOL    HW219344   0.076   1.175  17.633 -1.7248  0.7549  0.9402
 2628SOL     OW19345   3.492   0.622   8.926 -0.4139  0.5582 -0.0217
 2628SOL    HW119346   3.410   0.574   8.924  0.9700 -1.7713 -0.9246
 2628SOL    HW219347   3.496   0.634   9.021  1.2784  0.8972 -0.1327
 2629SOL     OW19348   3.491   3.507   1.766 -0.1907  0.0680  0.1341
 2629SOL    HW119349   3.537   3.583   1.729 -1.4625  1.3582  1.2052
 2629SOL    HW219350   3.550   3.466   1.830 -0.5158  1.9374  1.6213
 2630SOL     OW19351   3.795   3.050   8.233 -0.2549  0.4723  0.0223
 2630SOL    HW119352   3.708   3.060   8.194 -0.3328 -2.1627 -0.4641
 2630SOL    HW219353   3.783   2.976   8.292  0.2792  0.8010  0.5505
 2631SOL     OW19354   1.489   3.119   8.306  0.3477 -0.1869 -0.1734
 2631SOL    HW119355   1.470   3.178   8.233 -0.3165 -1.6608 -1.2201
 2631SOL    HW219356   1.403   3.084   8.330 -0.1097 -0.6777 -2.5018
 2632SOL     OW19357   0.385   3.166   0.635 -0.1229 -0.0165  0.6926
 2632SOL    HW119358   0.320   3.103   0.605  0.7455  0.1881 -1.6720
 2632SOL    HW219359   0.367   3.180   0.727 -0.3920  1.8062  0.3688
 2633SOL     OW19360   2.093   1.826   3.234  0.0429 -0.0331 -0.0018
 2633SOL    HW119361   2.024   1.823   3.299 -0.1736  1.1238 -0.1724
 2633SOL    HW219362   2.152   1.887   3.278  0.5628 -0.5597  0.0278
 2634SOL     OW19363   2.700   1.521   1.744 -0.5112  0.2020  0.4859
 2634SOL    HW119364   2.656   1.440   1.766 -2.2466  1.0955  0.2690
 2634SOL    HW219365   2.780   1.485   1.706 -0.7526  0.7150 -0.5243
 2635SOL     OW19366   1.561   0.374   7.800  0.0214  0.2196 -0.0014
 2635SOL    HW119367   1.607   0.292   7.785  1.2239  0.2847  3.4126
 2635SOL    HW219368   1.470   0.348   7.816  0.3288 -0.5782  0.4671
 2636SOL     OW19369   2.057   3.180   6.143  0.2227  0.6854 -0.2626
 2636SOL    HW119370   2.129   3.117   6.150  0.7225  0.9865 -2.6573
 2636SOL    HW219371   2.066   3.205   6.051 -1.0185  0.2911 -0.4959
 2637SOL     OW19372   3.602   2.166   6.296 -0.4145  0.1895 -0.3051
 2637SOL    HW119373   3.529   2.175   6.235 -0.1743  0.1598 -0.5988
 2637SOL    HW219374   3.561   2.156   6.382  2.1270  1.0667  1.0101
 2638SOL     OW19375   1.859   3.946   1.465 -0.1749  0.3147  0.2884
 2638SOL    HW119376   1.870   4.040   1.454  0.7060  0.1531 -0.2347
 2638SOL    HW219377   1.841   3.938   1.559  1.4764  0.9794  0.6681
 2639SOL     OW19378   2.090   0.253   7.555 -0.5424 -0.4109 -0.1277
 2639SOL    HW119379   2.145   0.247   7.477  2.3505 -1.9083  2.0169
 2639SOL    HW219380   2.107   0.176   7.610  0.8379  0.3252  0.4774
 2640SOL     OW19381   3.887   1.406   3.809  0.0310 -1.3403  0.0478
 2640SOL    HW119382   3.824   1.345   3.770  0.3304 -2.7606  1.7778
 2640SOL    HW219383   3.837   1.488   3.811 -0.6593 -1.7687  0.4654
 2641SOL     OW19384   3.123   2.827   6.736 -0.7017  0.3803  0.3467
 2641SOL    HW119385   3.127   2.797   6.827  0.7806  0.2713  0.2481
 2641SOL    HW219386   3.076   2.753   6.697 -1.2887  0.1621  1.4636
 2642SOL     OW19387   3.323   3.840   0.662 -0.0405  0.1633  0.1865
 2642SOL    HW119388   3.357   3.923   0.696  2.4159 -0.7138 -0.1310
 2642SOL    HW219389   3.360   3.842   0.574  0.3148 -1.7362  0.3075
 2643SOL     OW19390   1.646   2.116   8.505 -0.1234 -0.1819  0.2085
 2643SOL    HW119391   1.677   2.165   8.429  0.4906  0.7514  1.0443
 2643SOL    HW219392   1.728   2.095   8.550  0.7958 -0.2224 -1.4672
 2644SOL     OW19393   3.963   2.939   3.304  0.0281  0.5323  0.8073
 2644SOL    HW119394   4.013   2.857   3.302 -0.0137  0.5085  0.7101
 2644SOL    HW219395   3.881   2.910   3.263 -0.4223  0.0360  2.0517
 2645SOL     OW19396   3.651   3.382  17.370 -0.2902 -0.1374 -0.0279
 2645SOL    HW119397   3.745   3.373  17.381 -0.2709 -0.6453 -0.6622
 2645SOL    HW219398   3.618   3.333  17.446  1.6977 -0.3944  0.6748
 2646SOL     OW19399   3.433   3.450   2.189  0.1213  0.1049  0.2381
 2646SOL    HW119400   3.484   3.456   2.269  0.1809  1.6098  0.0937
 2646SOL    HW219401   3.468   3.529   2.148  0.2984 -1.6359 -2.9734
 2647SOL     OW19402   2.334   3.934   6.920 -0.0728  0.0355  0.0463
 2647SOL    HW119403   2.309   3.933   7.012  1.1230 -0.7894  0.3525
 2647SOL    HW219404   2.354   4.026   6.901 -0.5305 -0.1392 -1.2893
 2648SOL     OW19405   2.408   0.250   6.745  0.0211  0.8445 -0.0691
 2648SOL    HW119406   2.381   0.165   6.710 -0.5540  0.5737  1.0281
 2648SOL    HW219407   2.481   0.233   6.805  1.7341 -1.0779 -2.7034
 2649SOL     OW19408   3.099   3.083   7.487  0.0381 -0.1067  0.4748
 2649SOL    HW119409   3.113   3.178   7.484  0.6188 -0.1553  1.4971
 2649SOL    HW219410   3.194   3.068   7.479 -0.1237  0.0037 -1.4848
 2650SOL     OW19411   3.585   3.054   6.737 -0.2926 -0.0864 -0.3040
 2650SOL    HW119412   3.660   3.000   6.762 -2.0132 -2.4700 -0.2607
 2650SOL    HW219413   3.620   3.143   6.734 -1.9284  0.6489  2.1734
 2651SOL     OW19414   3.968   3.517   2.559  0.4700 -0.2978 -0.0950
 2651SOL    HW119415   3.929   3.604   2.569 -1.2028 -1.2513  1.5615
 2651SOL    HW219416   3.999   3.516   2.468  0.7307  1.0360 -0.0206
 2652SOL     OW19417   1.411   0.552   8.190  0.0252 -0.2727  0.0186
 2652SOL    HW119418   1.458   0.574   8.110  1.0030 -0.8508  0.4370
 2652SOL    HW219419   1.337   0.612   8.180 -1.5105 -2.0287  0.8709
 2653SOL     OW19420   0.485   1.242  15.369  0.2892  0.2653  0.0999
 2653SOL    HW119421   0.437   1.264  15.289  1.1581 -1.6161 -0.9202
 2653SOL    HW219422   0.551   1.312  15.365  2.0420 -1.5832 -2.5411
 2654SOL     OW19423   0.455   3.971  13.332  0.1582  0.3971  0.3192
 2654SOL    HW119424   0.383   3.946  13.273  1.5074 -0.2033 -1.0738
 2654SOL    HW219425   0.515   3.896  13.322  1.0351  1.1508 -0.0096
 2655SOL     OW19426   0.372   3.496   7.072  0.4560  0.2178  0.2643
 2655SOL    HW119427   0.315   3.566   7.038  3.6058  1.2547 -2.8988
 2655SOL    HW219428   0.427   3.540   7.136  2.1427 -2.4762  0.6575
 2656SOL     OW19429   4.202   2.136  12.126 -0.2015  0.4263 -0.3203
 2656SOL    HW119430   4.224   2.179  12.209 -1.4750  0.6313 -0.0972
 2656SOL    HW219431   4.271   2.070  12.124  1.6705  2.4260 -1.5980
 2657SOL     OW19432   3.187   0.813   5.983 -0.2009  0.0980 -0.1047
 2657SOL    HW119433   3.133   0.892   5.987  0.2342  0.3370  0.9611
 2657SOL    HW219434   3.257   0.838   6.043 -0.9911  0.5453  0.6408
 2658SOL     OW19435   1.347   2.097   0.906 -0.2860 -0.2668 -1.5033
 2658SOL    HW119436   1.298   2.154   0.846 -0.1291  0.2984 -1.1023
 2658SOL    HW219437   1.305   2.011   0.904  0.0653 -0.4507 -0.6810
 2659SOL     OW19438   0.318   0.033   3.953 -0.7279  0.2247 -0.0422
 2659SOL    HW119439   0.356   0.104   3.900  0.2312 -1.6741 -1.8847
 2659SOL    HW219440   0.316   4.685   3.887 -0.9366  0.6554 -0.4916
 2660SOL     OW19441   0.422   3.000   6.357  0.0433  0.3163  0.2207
 2660SOL    HW119442   0.362   3.018   6.429  0.7682 -0.2269  0.9631
 2660SOL    HW219443   0.417   2.905   6.341  2.0495  0.0900  0.8350
 2661SOL     OW19444   1.964   1.828   4.014  0.1309 -0.4801 -0.7234
 2661SOL    HW119445   1.946   1.861   3.926 -0.5392 -2.3246 -1.2808
 2661SOL    HW219446   1.882   1.855   4.055  0.2893  1.0794 -1.4440
 2662SOL     OW19447   3.912   1.893   8.066 -0.1409 -0.1708 -0.1399
 2662SOL    HW119448   3.885   1.916   8.154  1.8017 -0.9157  0.6575
 2662SOL    HW219449   3.827   1.902   8.024 -0.5067 -0.3821  0.5737
 2663SOL     OW19450   2.590   4.650   6.667 -0.1587  0.4028 -0.6844
 2663SOL    HW119451   2.568   0.020   6.692 -0.1452  0.2562 -0.1406
 2663SOL    HW219452   2.536   4.610   6.734  0.0404 -1.6556 -1.7596
 2664SOL     OW19453   3.140   1.941  15.281  0.6227  0.4896 -0.0350
 2664SOL    HW119454   3.192   1.931  15.360 -1.2155  1.4302  1.3030
 2664SOL    HW219455   3.139   2.036  15.265  1.2060  0.8279  1.9441
 2665SOL     OW19456   4.053   1.500  13.637  0.0731  0.0965  0.9823
 2665SOL    HW119457   4.094   1.417  13.660  1.5956  0.3235 -0.8702
 2665SOL    HW219458   4.073   1.499  13.543 -0.3903 -1.0788  0.8867
 2666SOL     OW19459   4.310   0.066   8.831  1.3118 -0.2758 -0.8441
 2666SOL    HW119460   4.360   0.007   8.888 -2.2397  0.6556  3.2938
 2666SOL    HW219461   4.305   0.019   8.748 -1.4400 -2.2658  0.4348
 2667SOL     OW19462   3.628   3.419  12.035  0.1891  0.3324  0.0011
 2667SOL    HW119463   3.589   3.427  11.948 -0.6059 -0.7506  0.2586
 2667SOL    HW219464   3.699   3.483  12.033 -1.0225  1.6939  0.2792
 2668SOL     OW19465   2.534   1.752  13.155  0.1358 -0.0841 -0.3630
 2668SOL    HW119466   2.629   1.745  13.148  0.1213 -0.1755 -0.4709
 2668SOL    HW219467   2.520   1.702  13.236  1.9269 -1.2241 -0.7580
 2669SOL     OW19468   0.513   0.699   2.423  0.7670 -0.6065  0.2832
 2669SOL    HW119469   0.463   0.628   2.383  1.3134 -0.4035 -0.7720
 2669SOL    HW219470   0.446   0.758   2.457  0.6730 -0.2313 -0.5559
 2670SOL     OW19471   4.614   0.983  13.146  0.0472 -0.2974  0.2576
 2670SOL    HW119472   4.586   1.072  13.167 -0.4592 -0.4373  0.1587
 2670SOL    HW219473   4.582   0.970  13.056  0.6309  0.1427 -0.0140
 2671SOL     OW19474   4.600   4.185   3.208 -0.0309 -0.3565  0.3110
 2671SOL    HW119475   4.617   4.100   3.167  0.7484  0.4389 -1.0149
 2671SOL    HW219476   4.514   4.206   3.171  0.0774  2.9029  1.9805
 2672SOL     OW19477   2.109   0.434   5.192 -0.2892 -0.0933  0.0763
 2672SOL    HW119478   2.050   0.498   5.234  0.0511 -0.9484  1.8369
 2672SOL    HW219479   2.064   0.420   5.108  0.7154 -2.0282 -0.1141
 2673SOL     OW19480   2.310   0.339   8.847 -0.8030 -0.1038  0.5216
 2673SOL    HW119481   2.261   0.421   8.843  0.4603  0.6881  1.3456
 2673SOL    HW219482   2.248   0.281   8.891 -0.4267 -0.5444  0.4733
 2674SOL     OW19483   0.905   1.226   7.436  0.4800  0.1279  0.2792
 2674SOL    HW119484   0.864   1.140   7.438 -1.3256  1.0082  0.3881
 2674SOL    HW219485   0.829   1.276   7.409  0.3470  0.8967  2.0454
 2675SOL     OW19486   1.929   4.515   2.048  0.1380 -0.0159  0.2477
 2675SOL    HW119487   2.008   4.562   2.074 -0.4407  0.5941  0.9176
 2675SOL    HW219488   1.908   4.468   2.129 -2.3281  2.6102  1.1333
 2676SOL     OW19489   2.786   4.148   7.437  0.3046 -0.5141 -0.5275
 2676SOL    HW119490   2.806   4.057   7.457  2.2264 -0.2776 -1.3856
 2676SOL    HW219491   2.783   4.177   7.528  0.4380 -1.1500 -0.3232
 2677SOL     OW19492   4.348   3.052  12.410 -0.2736  0.1793 -0.0713
 2677SOL    HW119493   4.319   2.992  12.479  1.0128 -0.3742 -0.0142
 2677SOL    HW219494   4.387   2.993  12.346 -0.1975  0.1335  0.0166
 2678SOL     OW19495   3.872   0.300  11.922 -0.3098 -0.7677  0.2031
 2678SOL    HW119496   3.915   0.218  11.943  1.5295  0.3068  0.6367
 2678SOL    HW219497   3.782   0.268  11.919 -0.9515  0.7363  3.3417
 2679SOL     OW19498   0.030   4.646  12.311 -0.8795  0.0976  0.2135
 2679SOL    HW119499   0.089   4.647  12.236 -1.3778  1.2994 -0.1578
 2679SOL    HW219500   0.032   4.551  12.324  2.0261  0.5353  2.8022
 2680SOL     OW19501   1.815   3.303   6.455 -0.9197 -0.5762  0.1290
 2680SOL    HW119502   1.893   3.307   6.510 -0.5082  1.5499 -0.6291
 2680SOL    HW219503   1.773   3.388   6.460  1.2339  0.5203 -0.5984
 2681SOL     OW19504   1.374   1.607   4.608  0.0521 -0.2736 -0.6115
 2681SOL    HW119505   1.442   1.540   4.616  0.1750 -0.0417  0.2763
 2681SOL    HW219506   1.305   1.541   4.606  1.2404 -1.5998  3.8254
 2682SOL     OW19507   2.107   1.697   8.795 -0.2391 -0.1378 -0.5774
 2682SOL    HW119508   2.013   1.699   8.780 -0.2884 -1.1563 -0.3805
 2682SOL    HW219509   2.123   1.786   8.828 -0.5498 -0.1409 -0.4255
 2683SOL     OW19510   0.554   4.240   9.376  0.0959  0.2553  0.1353
 2683SOL    HW119511   0.465   4.242   9.411 -0.3898 -2.7912 -0.9272
 2683SOL    HW219512   0.613   4.245   9.451  0.5064 -2.7713 -0.0041
 2684SOL     OW19513   4.506   1.911   3.786  0.6334  0.3962 -0.3094
 2684SOL    HW119514   4.427   1.944   3.742  1.2520  0.5204 -1.3441
 2684SOL    HW219515   4.498   1.926   3.880  1.7099  0.1210 -0.1759
 2685SOL     OW19516   1.337   1.650   6.576 -0.0492  0.5818  0.1673
 2685SOL    HW119517   1.431   1.631   6.584 -0.2206  0.1029  1.0232
 2685SOL    HW219518   1.301   1.562   6.589  0.1153  0.5960  0.7065
 2686SOL     OW19519   3.277   1.433  17.269 -0.5288 -0.8513  0.4825
 2686SOL    HW119520   3.189   1.395  17.264 -1.0791  0.6417 -0.9446
 2686SOL    HW219521   3.252   1.524  17.252 -1.0152 -1.1908 -0.5713
 2687SOL     OW19522   4.259   0.309   1.934  0.3473 -0.6286  0.4287
 2687SOL    HW119523   4.263   0.259   2.016 -1.5553 -0.9455  0.3411
 2687SOL    HW219524   4.244   0.392   1.981  1.0673 -0.6657  0.7253
 2688SOL     OW19525   1.309   2.666   3.305 -0.3216 -0.4892  0.8763
 2688SOL    HW119526   1.394   2.695   3.274 -1.3249  1.1393 -0.2996
 2688SOL    HW219527   1.298   2.733   3.372 -0.1667  0.8417 -0.4380
 2689SOL     OW19528   2.082   2.997   8.891  0.7540  0.4827  0.4531
 2689SOL    HW119529   2.123   3.083   8.876 -0.3922  0.9715  0.1810
 2689SOL    HW219530   2.082   2.992   8.987  2.3310  1.2180  0.5053
 2690SOL     OW19531   2.707   3.182   5.293 -0.4226 -0.2178 -0.5573
 2690SOL    HW119532   2.634   3.148   5.345  0.8237 -0.7417  0.8642
 2690SOL    HW219533   2.779   3.124   5.316  0.5490  0.4837 -1.8775
 2691SOL     OW19534   1.531   3.357  13.656 -0.1048 -0.4929  0.0865
 2691SOL    HW119535   1.535   3.308  13.739 -0.9213 -0.0529  0.3831
 2691SOL    HW219536   1.512   3.446  13.685 -1.5258 -0.9014  0.4147
 2692SOL     OW19537   1.880   0.549  10.973  0.1437 -0.2617  0.1986
 2692SOL    HW119538   1.874   0.536  11.068  1.0631 -0.5021  0.2200
 2692SOL    HW219539   1.962   0.598  10.969 -0.5048  1.0341  2.7397
 2693SOL     OW19540   1.970   0.436   7.118  0.0997 -0.6384  0.2779
 2693SOL    HW119541   2.036   0.367   7.106  0.5523 -0.0787 -0.4057
 2693SOL    HW219542   2.000   0.493   7.048  0.1488  1.2180  1.8200
 2694SOL     OW19543   1.068   1.618   6.423  0.0572  0.4411 -0.1890
 2694SOL    HW119544   1.144   1.674   6.437 -0.6820  0.9716  1.7350
 2694SOL    HW219545   1.025   1.632   6.507  3.6683  2.2444  1.3777
 2695SOL     OW19546   4.687   4.009  12.254 -0.6304 -0.2751  0.1523
 2695SOL    HW119547   4.620   3.978  12.315 -0.0664 -0.9480  0.4330
 2695SOL    HW219548   0.040   4.042  12.307  0.2576  0.2214 -1.3880
 2696SOL     OW19549   2.468   0.204   4.759  0.2017  0.7869  0.4106
 2696SOL    HW119550   2.384   0.251   4.764 -1.2828 -1.7860 -0.6800
 2696SOL    HW219551   2.461   0.138   4.828  0.9520  1.4695  1.1387
 2697SOL     OW19552   2.749   0.455   2.655 -0.1079  0.0686 -0.1035
 2697SOL    HW119553   2.660   0.488   2.642 -0.6289 -0.8873  1.0521
 2697SOL    HW219554   2.758   0.390   2.585 -0.3201 -1.0384  0.9140
 2698SOL     OW19555   1.614   2.854   7.624  0.3652 -0.0820 -0.1318
 2698SOL    HW119556   1.518   2.859   7.625  0.2059 -2.7156 -1.7141
 2698SOL    HW219557   1.623   2.760   7.637 -0.1157  0.0806  1.4249
 2699SOL     OW19558   3.419   4.167   6.886  0.4196 -0.1296  0.4256
 2699SOL    HW119559   3.474   4.239   6.854 -0.1652  0.6808  1.2384
 2699SOL    HW219560   3.372   4.135   6.809  0.2438  2.1042 -0.4083
 2700SOL     OW19561   2.360   0.343   9.165 -0.3102  0.1844 -0.5149
 2700SOL    HW119562   2.343   0.254   9.136  1.4535 -0.1857 -0.3941
 2700SOL    HW219563   2.321   0.343   9.252 -0.2918 -0.1160 -0.5083
 2701SOL     OW19564   2.313   3.331  11.708 -0.3896 -0.2169 -0.1100
 2701SOL    HW119565   2.276   3.419  11.694 -0.0830  0.0302  0.6751
 2701SOL    HW219566   2.281   3.306  11.794 -0.2307  2.4689  0.7225
 2702SOL     OW19567   3.282   3.927  10.951 -0.2576  1.1318  0.6742
 2702SOL    HW119568   3.291   3.957  11.042  3.3602  2.6344 -0.1513
 2702SOL    HW219569   3.268   4.007  10.899  0.5656  0.4804 -0.5462
 2703SOL     OW19570   0.110   3.379  10.965  0.1728 -0.3190  0.1259
 2703SOL    HW119571   0.186   3.326  10.942  0.9030  1.1989 -0.9346
 2703SOL    HW219572   0.039   3.321  10.937 -0.3771 -0.1327  1.1620
 2704SOL     OW19573   0.876   1.321   8.431 -0.1803 -0.4036  0.6455
 2704SOL    HW119574   0.912   1.243   8.474  0.0155 -1.5077 -1.4766
 2704SOL    HW219575   0.931   1.329   8.353 -0.7349 -1.9095  0.0751
 2705SOL     OW19576   1.416   4.682   4.450 -0.4742 -0.0555  0.5771
 2705SOL    HW119577   1.360   4.605   4.438 -0.9053  0.4794 -0.8299
 2705SOL    HW219578   1.503   4.651   4.475  0.8635  1.6538 -1.8814
 2706SOL     OW19579   0.631   4.634   4.504  0.9245  0.4496  0.3521
 2706SOL    HW119580   0.645   0.006   4.485 -1.6073  0.8588  0.4888
 2706SOL    HW219581   0.540   4.625   4.475  0.9975  0.4054  0.1402
 2707SOL     OW19582   2.493   2.158   1.414  0.1883  0.1063  0.0436
 2707SOL    HW119583   2.473   2.241   1.459  0.8743 -0.4090  1.2917
 2707SOL    HW219584   2.546   2.197   1.345  0.1055 -0.5937 -0.4153
 2708SOL     OW19585   1.113   1.267   7.954 -0.1500 -0.3621  0.0171
 2708SOL    HW119586   1.203   1.254   7.982 -0.2908 -1.5758 -0.0971
 2708SOL    HW219587   1.126   1.283   7.861 -3.5455  1.0013 -0.2147
 2709SOL     OW19588   1.875   0.148   3.131  0.4282 -0.0026 -0.8865
 2709SOL    HW119589   1.807   0.111   3.074 -1.3429 -0.1596  1.3016
 2709SOL    HW219590   1.873   0.241   3.112 -0.6638  0.2188  0.3244
 2710SOL     OW19591   4.509   1.892   0.822 -0.1124 -0.2022  0.6557
 2710SOL    HW119592   4.579   1.826   0.819 -1.2545 -1.4065  0.6481
 2710SOL    HW219593   4.553   1.964   0.867 -1.1706  1.3098 -0.7559
 2711SOL     OW19594   1.702   3.013   0.010 -0.3502  0.2089 -0.3183
 2711SOL    HW119595   1.681   3.020  17.602  1.4713 -0.7479 -0.8051
 2711SOL    HW219596   1.709   2.919   0.030 -1.0749  0.7566  2.4350
 2712SOL     OW19597   0.454   3.635  14.181  0.1502 -0.0571  0.7673
 2712SOL    HW119598   0.539   3.666  14.151  0.0856 -0.1324  0.5073
 2712SOL    HW219599   0.476   3.613  14.271  1.3908 -0.4999  0.3536
 2713SOL     OW19600   2.813   1.137  13.842  0.3196 -0.0360  0.0877
 2713SOL    HW119601   2.740   1.077  13.858  0.2167  0.6642  2.3058
 2713SOL    HW219602   2.887   1.081  13.866  0.9904  0.4078 -0.9673
 2714SOL     OW19603   3.239   0.053   1.940 -0.2401 -0.4835 -0.1219
 2714SOL    HW119604   3.166   0.036   1.880 -0.8752  0.7926  0.2775
 2714SOL    HW219605   3.193   0.114   1.997  0.2420 -0.1807 -0.0566
 2715SOL     OW19606   4.276   1.607   3.413  0.2775 -0.0392  0.5022
 2715SOL    HW119607   4.197   1.655   3.387 -1.0677 -2.6048 -0.1980
 2715SOL    HW219608   4.252   1.571   3.498  0.3048 -0.3300  0.3871
 2716SOL     OW19609   0.975   2.159   8.681 -0.7090  0.6373 -0.3200
 2716SOL    HW119610   0.949   2.182   8.770 -0.8320  0.5941 -0.3451
 2716SOL    HW219611   0.887   2.164   8.645  0.3499 -0.0976 -3.0042
 2717SOL     OW19612   2.922   0.118  13.848 -0.6638 -0.3573 -0.1057
 2717SOL    HW119613   2.914   0.169  13.767 -0.5698 -0.6119 -0.2743
 2717SOL    HW219614   2.900   0.195  13.901  0.3182 -0.9778  1.2100
 2718SOL     OW19615   1.921   1.394  14.338  0.0161  0.2070  0.2630
 2718SOL    HW119616   1.903   1.481  14.301 -2.3026 -0.4850 -0.1958
 2718SOL    HW219617   1.853   1.386  14.404 -0.4892 -1.6847 -0.5073
 2719SOL     OW19618   1.817   0.157   8.337  0.2378  0.4505  0.2941
 2719SOL    HW119619   1.843   0.247   8.359  3.4380 -0.1114 -1.2981
 2719SOL    HW219620   1.898   0.127   8.297  1.3370  1.5707  1.6849
 2720SOL     OW19621   3.739   2.150   2.478  0.0776  0.0520  0.6721
 2720SOL    HW119622   3.734   2.184   2.389 -0.2810 -0.6403  0.4199
 2720SOL    HW219623   3.692   2.069   2.454  0.5238  0.3509 -1.2477
 2721SOL     OW19624   4.304   1.379  10.074  0.5400  0.5068  0.4848
 2721SOL    HW119625   4.284   1.458  10.125 -0.7928 -0.1583  0.9828
 2721SOL    HW219626   4.358   1.324  10.131  0.7245 -0.5516 -0.7139
 2722SOL     OW19627   2.489   2.320   6.522  0.3685  0.3484 -0.2805
 2722SOL    HW119628   2.397   2.295   6.520  0.7516 -1.1423  1.2974
 2722SOL    HW219629   2.514   2.277   6.603 -1.2843 -0.5395 -0.2508
 2723SOL     OW19630   3.451   1.094  11.375  0.2986 -0.2939  0.5791
 2723SOL    HW119631   3.513   1.089  11.302 -1.3772  2.2515 -1.0001
 2723SOL    HW219632   3.446   1.190  11.380 -0.4053 -0.2667 -0.7585
 2724SOL     OW19633   4.665   0.249   0.258  0.0527  0.1884 -0.6162
 2724SOL    HW119634   0.015   0.250   0.323  0.7873  1.7160 -1.4394
 2724SOL    HW219635   4.711   0.249   0.174 -2.5021 -0.1341 -2.0020
 2725SOL     OW19636   3.142   3.682  15.779  0.0296 -0.1626  0.7838
 2725SOL    HW119637   3.099   3.738  15.714  1.9789  0.1952 -0.2086
 2725SOL    HW219638   3.182   3.751  15.832 -0.7107  1.2740 -0.5158
 2726SOL     OW19639   1.164   2.669   6.742 -0.2409  0.0186  0.2948
 2726SOL    HW119640   1.179   2.759   6.713 -1.9745  0.5242  0.9680
 2726SOL    HW219641   1.073   2.651   6.721 -0.9198  0.6768  2.7160
 2727SOL     OW19642   1.428   2.870  12.900  0.5182 -0.0809  0.1528
 2727SOL    HW119643   1.501   2.809  12.888  0.3598 -0.2937  0.2719
 2727SOL    HW219644   1.382   2.872  12.816  0.9416 -0.1644 -0.0781
 2728SOL     OW19645   4.225   3.740  10.778  0.4443  0.6533  0.4495
 2728SOL    HW119646   4.221   3.773  10.868 -3.2690  1.5435 -0.0354
 2728SOL    HW219647   4.141   3.696  10.763  0.9488 -0.4487  0.8411
 2729SOL     OW19648   3.643   3.056   5.374  0.2221  0.6331  0.0779
 2729SOL    HW119649   3.688   3.072   5.291  1.5738 -0.7585  0.5416
 2729SOL    HW219650   3.569   3.116   5.372 -0.3805 -0.1003  0.2463
 2730SOL     OW19651   3.808   0.113  10.401 -0.4839  0.2448 -0.2346
 2730SOL    HW119652   3.817   0.202  10.369  0.6238 -0.2765 -1.3638
 2730SOL    HW219653   3.792   0.126  10.495  0.9277 -0.0828  0.0493
 2731SOL     OW19654   3.225   0.672   3.414  0.5967 -0.1490 -0.2016
 2731SOL    HW119655   3.200   0.584   3.386  2.4885 -0.5706 -0.4994
 2731SOL    HW219656   3.165   0.705   3.481  1.0588  0.8348 -0.2689
 2732SOL     OW19657   0.108   3.456   1.073 -0.1568 -0.4337 -0.7279
 2732SOL    HW119658   0.096   3.405   0.992  1.3077 -0.2793 -1.0482
 2732SOL    HW219659   0.015   3.449   1.092  0.0352 -1.6655 -0.2829
 2733SOL     OW19660   0.033   0.862  14.426  0.6376  0.0517 -0.1112
 2733SOL    HW119661   0.044   0.896  14.337 -2.8790  2.0917  0.2498
 2733SOL    HW219662   0.027   0.945  14.472  1.5013 -0.6428  1.2513
 2734SOL     OW19663   3.084   1.277   7.382 -0.1087 -0.1551  0.1231
 2734SOL    HW119664   3.039   1.314   7.457  0.4901  1.1468 -0.1615
 2734SOL    HW219665   3.027   1.210   7.344 -1.7810  1.0079  0.5770
 2735SOL     OW19666   4.695   4.121  14.331 -0.0190 -0.3523  0.1043
 2735SOL    HW119667   4.601   4.135  14.337 -0.1998 -1.3898 -0.3482
 2735SOL    HW219668   4.700   4.032  14.296 -1.0371 -1.0144  1.6551
 2736SOL     OW19669   0.786   1.346  16.153  0.5674  0.0555 -0.2207
 2736SOL    HW119670   0.831   1.429  16.141  1.0976 -0.3556 -1.1071
 2736SOL    HW219671   0.787   1.341  16.248  2.0921  2.1362 -0.1533
 2737SOL     OW19672   4.378   2.635   2.545  0.3764 -0.1429  0.1041
 2737SOL    HW119673   4.379   2.589   2.462  0.0537 -1.6133  0.9150
 2737SOL    HW219674   4.429   2.573   2.596  1.6485 -0.8418 -2.0337
 2738SOL     OW19675   0.948   0.512   8.724  0.1413  0.2693 -0.1368
 2738SOL    HW119676   0.955   0.605   8.747 -1.1925  0.8035 -1.8375
 2738SOL    HW219677   0.946   0.526   8.629  0.6844 -0.0606 -0.1949
 2739SOL     OW19678   2.228   4.017   5.019 -0.0449 -0.4779  0.3658
 2739SOL    HW119679   2.254   3.927   4.996  1.9402  0.5800 -1.4965
 2739SOL    HW219680   2.258   4.056   4.937  0.9889 -0.6485  0.6661
 2740SOL     OW19681   0.806   2.965   6.539 -0.0987  0.0311 -0.0540
 2740SOL    HW119682   0.797   2.924   6.453  0.5729  1.1938 -0.6788
 2740SOL    HW219683   0.743   3.036   6.547 -2.8186 -2.1902 -1.7746
 2741SOL     OW19684   0.282   2.843   7.223  0.0568  0.2280 -0.2656
 2741SOL    HW119685   0.314   2.756   7.202 -5.2107 -1.4028 -1.4410
 2741SOL    HW219686   0.259   2.826   7.314 -1.7631  0.3902 -0.6838
 2742SOL     OW19687   1.764   4.104   8.680  0.0691  0.2450  0.3094
 2742SOL    HW119688   1.841   4.146   8.642  0.1167 -1.2030 -1.2127
 2742SOL    HW219689   1.743   4.040   8.611  0.6781  0.3982 -0.0181
 2743SOL     OW19690   1.208   0.025   4.844  0.1860 -0.3805 -0.2326
 2743SOL    HW119691   1.215   4.651   4.832 -2.5327 -0.9222  2.3346
 2743SOL    HW219692   1.230   0.073   4.764  0.3712 -0.1848 -0.0631
 2744SOL     OW19693   2.926   3.586   3.222 -0.3754 -0.3803  0.0726
 2744SOL    HW119694   2.956   3.610   3.135  0.7431  1.0165  0.8353
 2744SOL    HW219695   2.855   3.648   3.241 -0.3276 -0.8570  1.8015
 2745SOL     OW19696   4.158   4.155   4.098  0.8679  0.3510 -0.0607
 2745SOL    HW119697   4.096   4.178   4.167  1.9084  1.6227  0.4597
 2745SOL    HW219698   4.235   4.134   4.151  1.2237  0.8681 -0.3677
 2746SOL     OW19699   0.924   0.996   4.957  0.0404  0.1136 -0.0208
 2746SOL    HW119700   0.961   0.917   4.996 -0.4840  0.5022  1.2619
 2746SOL    HW219701   0.932   1.053   5.033 -1.4655  0.2741  0.0152
 2747SOL     OW19702   2.736   0.476  12.739 -0.3994 -0.2146 -0.2604
 2747SOL    HW119703   2.798   0.462  12.668 -0.2164  1.8764 -0.5191
 2747SOL    HW219704   2.667   0.413  12.718 -1.4972  0.7485  0.4587
 2748SOL     OW19705   3.313   4.612   3.607  0.2535  0.1097 -0.0626
 2748SOL    HW119706   3.224   4.616   3.575  0.3366  1.5077 -0.0980
 2748SOL    HW219707   3.336   4.702   3.628 -0.3387  0.5278 -1.2395
 2749SOL     OW19708   2.832   4.308   3.285 -0.1885  0.2362  0.2789
 2749SOL    HW119709   2.751   4.257   3.273 -0.4093  0.8311 -0.7035
 2749SOL    HW219710   2.857   4.316   3.193  0.1208  0.5590  0.3925
 2750SOL     OW19711   2.177   3.886  10.955  0.3630  0.0073  0.6120
 2750SOL    HW119712   2.160   3.910  10.864  2.2981  0.4376  0.3602
 2750SOL    HW219713   2.271   3.880  10.942  0.3095  1.7076 -0.5310
 2751SOL     OW19714   3.966   2.460  12.015 -0.0432  0.2455 -0.4629
 2751SOL    HW119715   4.055   2.427  11.999  0.8639  2.4438  0.0397
 2751SOL    HW219716   3.980   2.508  12.097 -0.6571 -1.1367  0.4410
 2752SOL     OW19717   3.715   4.499   4.446  0.0135  0.3811  0.1981
 2752SOL    HW119718   3.701   4.547   4.527 -1.1604  0.0860  0.1649
 2752SOL    HW219719   3.716   4.411   4.486  1.3799  1.3497  2.3064
 2753SOL     OW19720   4.603   0.234   2.750  0.3916 -0.4701 -0.0260
 2753SOL    HW119721   4.674   0.197   2.697  1.9312  0.4363  1.3867
 2753SOL    HW219722   4.527   0.226   2.693  0.4333 -0.4429 -0.0852
 2754SOL     OW19723   2.340   3.106   6.129  0.5870  0.3631  0.0632
 2754SOL    HW119724   2.425   3.062   6.123  0.1331 -0.5478  0.3269
 2754SOL    HW219725   2.360   3.198   6.113 -0.7512  0.8944  1.5370
 2755SOL     OW19726   2.777   2.150   6.813 -0.3581 -0.0517  0.4694
 2755SOL    HW119727   2.816   2.111   6.735 -0.4604 -2.3635  1.5977
 2755SOL    HW219728   2.842   2.136   6.881 -1.2245  0.4901  1.4136
 2756SOL     OW19729   3.891   0.036   4.665 -0.4970  0.1288  0.1205
 2756SOL    HW119730   3.965   0.075   4.710 -0.7887  0.1686  0.5608
 2756SOL    HW219731   3.861   0.110   4.611 -0.9230  0.3354  0.6408
 2757SOL     OW19732   1.846   3.993   9.219 -0.3117 -0.2972  0.0745
 2757SOL    HW119733   1.837   3.962   9.129  0.6906 -0.2295 -0.0465
 2757SOL    HW219734   1.919   3.939   9.248 -0.3500  0.6757  2.0101
 2758SOL     OW19735   2.171   1.577   6.282  0.1118  0.2466  0.2159
 2758SOL    HW119736   2.183   1.615   6.195 -0.5129  1.2067  0.5554
 2758SOL    HW219737   2.179   1.656   6.335  2.9850  0.2586 -0.2693
 2759SOL     OW19738   1.879   2.437   5.229 -0.3309 -0.3290  0.1727
 2759SOL    HW119739   1.888   2.423   5.324  2.1293  0.3491  0.0197
 2759SOL    HW219740   1.902   2.351   5.193 -0.7655 -0.2738 -0.2347
 2760SOL     OW19741   1.105   1.531  10.084  0.2399  0.5518  0.3777
 2760SOL    HW119742   1.089   1.617  10.123  3.1090  0.8429  0.9369
 2760SOL    HW219743   1.162   1.495  10.153  1.3842  2.3664  0.3993
 2761SOL     OW19744   3.949   0.379   2.683  0.0800  0.3383  0.3313
 2761SOL    HW119745   3.994   0.381   2.767  1.1015 -1.3666 -0.1556
 2761SOL    HW219746   3.858   0.391   2.711  0.0090  1.3177 -0.3346
 2762SOL     OW19747   3.289   0.779   8.448 -0.2937 -0.2002  0.2311
 2762SOL    HW119748   3.376   0.790   8.485 -0.0309 -2.1502  0.2191
 2762SOL    HW219749   3.242   0.736   8.520  0.3977 -1.4757 -0.0753
 2763SOL     OW19750   4.680   1.697   3.093 -0.1518  0.3863  0.2259
 2763SOL    HW119751   0.035   1.696   3.034 -0.5339  0.5030 -0.2640
 2763SOL    HW219752   4.614   1.708   3.024 -0.7834  3.8187  1.4192
 2764SOL     OW19753   4.618   0.792   4.502 -0.1180 -0.6678 -0.1031
 2764SOL    HW119754   4.646   0.742   4.424  0.4351 -0.5663  0.0352
 2764SOL    HW219755   4.690   0.855   4.503  0.5677 -1.4203 -1.0035
 2765SOL     OW19756   3.339   1.528  13.608 -0.4271  0.3124  0.1418
 2765SOL    HW119757   3.426   1.509  13.571 -0.8329  2.4180 -1.8709
 2765SOL    HW219758   3.285   1.475  13.549  0.8719  0.6068 -1.3049
 2766SOL     OW19759   3.168   4.548   5.170 -0.0965 -0.0279  0.0316
 2766SOL    HW119760   3.260   4.536   5.192 -0.4751 -1.0380  1.0404
 2766SOL    HW219761   3.175   4.566   5.076 -1.0778  2.8942  0.5090
 2767SOL     OW19762   3.453   2.740   9.275 -0.0994 -0.4703 -0.3093
 2767SOL    HW119763   3.361   2.734   9.251  0.0679  0.5590 -1.1832
 2767SOL    HW219764   3.492   2.664   9.231  1.2162 -0.0191  0.0823
 2768SOL     OW19765   4.097   3.419  13.741  0.1195  0.0961  0.0021
 2768SOL    HW119766   4.177   3.420  13.793 -1.0383 -1.1273  1.8177
 2768SOL    HW219767   4.053   3.486  13.793  1.8205  1.5653 -0.4483
 2769SOL     OW19768   2.698   2.948   2.255 -0.0619  0.8336  0.3120
 2769SOL    HW119769   2.784   2.984   2.275 -0.1936  2.1325 -1.4826
 2769SOL    HW219770   2.672   2.916   2.342 -0.6520 -1.3062 -0.6432
 2770SOL     OW19771   2.262   4.168  14.180 -0.1878 -0.1253 -0.7373
 2770SOL    HW119772   2.265   4.074  14.162 -1.2709 -0.1689 -0.6747
 2770SOL    HW219773   2.222   4.176  14.266  0.8853  0.0222 -0.2474
 2771SOL     OW19774   4.480   2.687  14.536  0.2335 -0.6105 -0.3747
 2771SOL    HW119775   4.416   2.643  14.591 -0.5943  1.2001  0.1080
 2771SOL    HW219776   4.435   2.688  14.452 -0.1386 -2.8981 -0.1990
 2772SOL     OW19777   2.959   0.546  13.887 -0.1908 -0.1317 -0.1130
 2772SOL    HW119778   2.886   0.569  13.944  0.2841  0.5413  0.2240
 2772SOL    HW219779   2.971   0.622  13.829  0.0710  1.1867  1.6461
 2773SOL     OW19780   1.653   0.186   8.017  0.5978  0.6442 -0.2314
 2773SOL    HW119781   1.723   0.136   8.058  0.9125  0.2023 -1.3095
 2773SOL    HW219782   1.656   0.182   7.922  1.0827  1.8480 -0.2707
 2774SOL     OW19783   2.271   3.227  16.764  0.4258  0.4496 -0.5218
 2774SOL    HW119784   2.213   3.151  16.755  0.8687 -0.0146  0.4915
 2774SOL    HW219785   2.229   3.298  16.717  2.2067  1.2656 -0.8813
 2775SOL     OW19786   2.713   1.587   6.168 -0.4006 -0.5821  0.2792
 2775SOL    HW119787   2.756   1.532   6.104 -2.0338 -0.4556 -0.9339
 2775SOL    HW219788   2.710   1.517   6.233  1.0343 -2.6658 -1.9282
 2776SOL     OW19789   1.809   2.463   3.233 -0.0428  0.2694  0.0526
 2776SOL    HW119790   1.736   2.407   3.207  0.0976 -0.4276  1.1779
 2776SOL    HW219791   1.855   2.479   3.150 -0.1365 -1.3624 -0.3266
 2777SOL     OW19792   1.640   1.330   0.296 -0.5421  0.6360 -0.0939
 2777SOL    HW119793   1.696   1.326   0.374 -0.8689  2.9171  0.2574
 2777SOL    HW219794   1.703   1.302   0.231  0.9964 -1.1299  2.1456
 2778SOL     OW19795   1.618   2.191  11.719 -0.6565  0.0164  0.1647
 2778SOL    HW119796   1.693   2.221  11.667 -2.5238  1.7114 -1.5228
 2778SOL    HW219797   1.611   2.102  11.684  0.4494 -0.1298  0.2898
 2779SOL     OW19798   0.229   2.643   1.520 -0.6199 -0.2853  0.4090
 2779SOL    HW119799   0.209   2.626   1.612 -1.0072  1.3356  0.6279
 2779SOL    HW219800   0.316   2.682   1.523 -0.3103 -0.8532 -1.2205
 2780SOL     OW19801   2.020   4.028  12.370 -0.0851  0.0282  0.4369
 2780SOL    HW119802   2.046   4.112  12.333  2.8910 -1.9639 -1.9898
 2780SOL    HW219803   2.103   3.981  12.374 -0.4779 -0.6727  0.2211
 2781SOL     OW19804   0.363   4.250   6.470 -0.0315  0.4242 -0.1812
 2781SOL    HW119805   0.417   4.327   6.490 -0.0099 -0.2677  2.4035
 2781SOL    HW219806   0.397   4.239   6.381 -0.3546  1.8601 -0.4899
 2782SOL     OW19807   1.164   1.096   9.616 -0.4979 -0.4822  0.4991
 2782SOL    HW119808   1.101   1.049   9.561 -2.7455  0.3666  2.3420
 2782SOL    HW219809   1.239   1.037   9.618 -0.3860 -0.4199 -1.4676
 2783SOL     OW19810   3.105   4.194   2.109 -0.4195  0.3513 -0.7821
 2783SOL    HW119811   3.075   4.212   2.020  1.4501 -1.1442 -1.7318
 2783SOL    HW219812   3.029   4.233   2.151 -0.1184 -0.9501  1.0053
 2784SOL     OW19813   3.270   2.474   3.379 -0.3773  0.3081  0.1734
 2784SOL    HW119814   3.192   2.459   3.432 -0.3742  2.9822  0.9206
 2784SOL    HW219815   3.273   2.399   3.320  0.4205 -0.9136  1.7417
 2785SOL     OW19816   3.021   2.052   3.252  0.4200 -0.0732 -0.1587
 2785SOL    HW119817   3.013   1.961   3.223  0.4154  0.2454 -1.1406
 2785SOL    HW219818   2.927   2.070   3.249 -0.0527 -1.9613  3.0192
 2786SOL     OW19819   1.101   1.637  17.519  0.2075 -0.3188 -0.2755
 2786SOL    HW119820   1.071   1.546  17.519 -0.2096 -0.1793  0.0804
 2786SOL    HW219821   1.185   1.631  17.474 -0.0897 -0.7308 -0.7798
 2787SOL     OW19822   2.730   2.495   6.968  0.2780  0.1105  0.2174
 2787SOL    HW119823   2.743   2.573   7.020  1.2520  0.8994 -1.1941
 2787SOL    HW219824   2.815   2.462   6.996  1.6188  1.5220 -2.2038
 2788SOL     OW19825   4.345   1.329   5.922 -0.4226  0.2908  0.0235
 2788SOL    HW119826   4.388   1.319   6.007 -0.5766 -0.5259  0.0016
 2788SOL    HW219827   4.266   1.283   5.949  1.4926 -2.1395  1.4868
 2789SOL     OW19828   3.708   1.019   5.522 -0.7072 -0.2591 -0.2185
 2789SOL    HW119829   3.803   1.014   5.529 -0.8632 -2.9986 -0.3565
 2789SOL    HW219830   3.686   0.931   5.552 -0.3486 -0.1705  0.2865
 2790SOL     OW19831   3.148   2.421  16.472 -0.0748 -0.3199  0.0869
 2790SOL    HW119832   3.075   2.463  16.518  0.3814  0.2937  0.2553
 2790SOL    HW219833   3.193   2.494  16.430 -0.4046  0.1065  0.4724
 2791SOL     OW19834   2.771   3.957  17.013  0.0451 -0.5046  0.4973
 2791SOL    HW119835   2.709   4.020  17.049  0.1178  0.1772 -0.5875
 2791SOL    HW219836   2.740   3.964  16.923  0.5140  2.6823  0.5989
 2792SOL     OW19837   4.110   0.441  12.030  0.2637  0.0729  0.3704
 2792SOL    HW119838   4.081   0.351  12.045 -1.1378  0.2054 -1.5246
 2792SOL    HW219839   4.197   0.422  11.996  0.6879  2.0318  0.3630
 2793SOL     OW19840   2.347   1.953   7.578  0.3245 -0.3067  0.6114
 2793SOL    HW119841   2.401   1.894   7.525 -0.3863 -3.8332  3.8251
 2793SOL    HW219842   2.410   2.023   7.599  0.1401 -0.3174  1.1837
 2794SOL     OW19843   1.623   2.638  14.964  0.0994 -0.5344  0.7437
 2794SOL    HW119844   1.543   2.596  14.931  0.0225 -1.0928  1.6317
 2794SOL    HW219845   1.684   2.574  14.928 -2.2932 -1.3497 -1.8342
 2795SOL     OW19846   2.502   3.977   2.559  0.0997  0.4469 -0.1164
 2795SOL    HW119847   2.562   4.050   2.574 -0.0659  0.8599 -1.4005
 2795SOL    HW219848   2.435   4.013   2.618 -1.9004  0.0249 -2.1243
 2796SOL     OW19849   1.526   2.734  16.377 -0.3114 -0.1477 -0.3799
 2796SOL    HW119850   1.546   2.643  16.357 -1.5732 -0.3358 -0.7304
 2796SOL    HW219851   1.479   2.771  16.303  0.2319 -0.5865 -0.9481
 2797SOL     OW19852   2.805   2.999   3.090  0.4957 -0.0100  0.2839
 2797SOL    HW119853   2.867   3.063   3.126  2.2658 -1.0490 -0.9315
 2797SOL    HW219854   2.763   3.053   3.023  0.1871  0.5084  0.8826
 2798SOL     OW19855   0.366   0.652   8.121  0.1858 -0.0989 -0.1716
 2798SOL    HW119856   0.439   0.613   8.168 -0.6699 -0.8630  0.5302
 2798SOL    HW219857   0.411   0.684   8.043  1.5409  2.4472  1.6664
 2799SOL     OW19858   0.312   1.543   0.541 -0.5884  0.6031 -0.0194
 2799SOL    HW119859   0.334   1.521   0.631 -0.9195 -1.9067 -0.5363
 2799SOL    HW219860   0.271   1.462   0.510 -0.3090  1.3580 -2.3559
 2800SOL     OW19861   1.580   2.912  13.712  0.5263  0.1354  0.2238
 2800SOL    HW119862   1.633   2.985  13.744  2.3669 -0.4379 -1.5284
 2800SOL    HW219863   1.540   2.934  13.627  2.0098  3.2136  0.3179
 2801SOL     OW19864   1.900   1.847   8.366  0.5882 -0.0961  0.0527
 2801SOL    HW119865   1.970   1.786   8.388 -0.1779 -0.5812  1.1478
 2801SOL    HW219866   1.908   1.922   8.424 -2.7603 -0.0627  0.4564
 2802SOL     OW19867   0.311   2.029  16.649  0.0972 -0.0628 -0.7352
 2802SOL    HW119868   0.341   2.061  16.734 -1.1791 -1.4931  0.2733
 2802SOL    HW219869   0.217   2.031  16.665  0.3254  0.5630  0.5145
 2803SOL     OW19870   0.785   0.725  16.656 -0.0780 -0.3347  0.7135
 2803SOL    HW119871   0.724   0.678  16.598 -1.5440  0.3793  1.6624
 2803SOL    HW219872   0.849   0.656  16.673  0.6782  0.4181  0.9125
 2804SOL     OW19873   1.789   4.233   4.989 -0.8022 -0.2791 -0.2677
 2804SOL    HW119874   1.725   4.163   4.995 -2.4183  1.1460 -0.8097
 2804SOL    HW219875   1.790   4.269   5.078 -3.6130 -0.4837 -0.1677
 2805SOL     OW19876   4.210   1.675   3.951  0.1586  0.4131  0.5102
 2805SOL    HW119877   4.164   1.755   3.927 -1.1577 -0.2428  0.8845
 2805SOL    HW219878   4.170   1.663   4.037  0.8643  0.7344  0.8918
 2806SOL     OW19879   1.512   1.863   1.175  0.1761 -0.2695 -0.2302
 2806SOL    HW119880   1.424   1.840   1.203 -0.0115 -0.5933 -1.0980
 2806SOL    HW219881   1.489   1.951   1.144 -0.7758  0.2876  2.0486
 2807SOL     OW19882   0.761   4.161   6.995 -0.3351  0.3478 -0.0507
 2807SOL    HW119883   0.801   4.088   7.042 -2.2836 -2.0708 -2.1280
 2807SOL    HW219884   0.674   4.123   6.985  0.0852 -0.4032 -0.8326
 2808SOL     OW19885   1.789   4.203   2.118 -0.6507  0.3781 -0.6234
 2808SOL    HW119886   1.702   4.241   2.115 -0.2787  1.3878  1.7751
 2808SOL    HW219887   1.780   4.152   2.037  1.9118  2.4084 -2.1906
 2809SOL     OW19888   0.455   4.128  10.597 -0.0992  0.2554  0.2202
 2809SOL    HW119889   0.532   4.183  10.609  0.0694  0.2289 -0.7246
 2809SOL    HW219890   0.381   4.175  10.636 -1.7502  0.1098 -2.7190
 2810SOL     OW19891   0.706   3.211  10.120  0.0455 -0.2311  0.4688
 2810SOL    HW119892   0.706   3.243  10.030  0.0192  0.8050  0.8472
 2810SOL    HW219893   0.614   3.189  10.134  0.5446 -2.0768  0.9252
 2811SOL     OW19894   0.217   4.139  11.861 -0.2544 -0.7001  0.4808
 2811SOL    HW119895   0.249   4.050  11.850  2.6378  0.4278 -0.1013
 2811SOL    HW219896   0.215   4.163  11.768  1.8861 -1.5481  0.2318
 2812SOL     OW19897   2.834   0.359   8.910 -0.0814  0.5662  0.2115
 2812SOL    HW119898   2.885   0.304   8.851 -1.3816 -0.3698 -0.0350
 2812SOL    HW219899   2.799   0.427   8.853 -2.7745  0.9808  2.3303
 2813SOL     OW19900   3.546   2.265   4.471 -0.1898  0.0147  0.1810
 2813SOL    HW119901   3.598   2.232   4.545  0.8181  2.0518  0.3706
 2813SOL    HW219902   3.593   2.347   4.460 -0.5730  0.1848 -0.1388
 2814SOL     OW19903   2.441   1.108   8.854 -0.0042 -0.2614  1.1522
 2814SOL    HW119904   2.379   1.048   8.895  0.2927 -1.6054 -0.3592
 2814SOL    HW219905   2.522   1.108   8.906  1.5027 -0.2830 -1.2074
 2815SOL     OW19906   2.232   1.228  12.932 -0.1137 -0.0060  0.3995
 2815SOL    HW119907   2.253   1.315  12.898 -1.5044  0.9490  2.0052
 2815SOL    HW219908   2.322   1.206  12.957  0.6594  1.4794 -1.0808
 2816SOL     OW19909   1.648   1.853   6.096 -0.0784  0.0292 -0.0749
 2816SOL    HW119910   1.577   1.789   6.095 -2.1368  2.3058 -1.4457
 2816SOL    HW219911   1.616   1.893   6.015 -0.6537  1.1815  0.7246
 2817SOL     OW19912   2.681   3.162   1.830 -0.4637  0.3524  0.5665
 2817SOL    HW119913   2.663   3.153   1.923 -0.5856 -0.6810  0.4432
 2817SOL    HW219914   2.625   3.104   1.779 -0.1971  1.4726 -1.0100
 2818SOL     OW19915   3.553   1.179  14.704 -0.4417  0.3351 -1.1565
 2818SOL    HW119916   3.573   1.269  14.676  0.7922  1.0733  2.1449
 2818SOL    HW219917   3.458   1.173  14.704 -0.4142 -0.1766 -2.0217
 2819SOL     OW19918   0.044   1.547   6.997 -0.6355  0.2733 -0.6979
 2819SOL    HW119919   4.674   1.558   6.968 -0.7994  1.4138  0.2432
 2819SOL    HW219920   0.033   1.590   7.082  2.3862  0.0428 -0.2058
 2820SOL     OW19921   0.918   3.156   4.951 -0.4955 -0.3029 -0.1333
 2820SOL    HW119922   0.836   3.195   4.981  0.6694  0.9545  1.3595
 2820SOL    HW219923   0.885   3.084   4.896 -0.0958 -1.0288  0.5761
 2821SOL     OW19924   4.410   4.129   3.528 -0.1741  0.6373 -0.0467
 2821SOL    HW119925   4.344   4.133   3.459  1.7183 -1.1923 -1.9593
 2821SOL    HW219926   4.464   4.208   3.520 -1.2796  1.5718  1.7609
 2822SOL     OW19927   0.935   4.694   2.749  0.0580  0.0373  0.2485
 2822SOL    HW119928   0.991   0.045   2.777  3.2404 -1.7493 -1.5748
 2822SOL    HW219929   0.931   4.650   2.833 -1.4297 -2.5862 -1.2006
 2823SOL     OW19930   1.999   2.743   6.302 -0.1485 -0.4441 -0.0263
 2823SOL    HW119931   2.035   2.810   6.361 -0.2427  1.0453 -1.6811
 2823SOL    HW219932   2.079   2.703   6.267  0.8847  1.1702  0.4985
 2824SOL     OW19933   1.279   1.086   4.548 -0.3536 -0.5015 -0.1464
 2824SOL    HW119934   1.310   1.001   4.578  0.1899 -0.3550 -0.2925
 2824SOL    HW219935   1.326   1.105   4.466 -1.2934  1.3129 -0.2755
 2825SOL     OW19936   2.577   0.599  11.885 -0.2808  0.4480 -0.8834
 2825SOL    HW119937   2.555   0.679  11.932 -2.2374 -0.9900  0.6307
 2825SOL    HW219938   2.517   0.536  11.924 -0.2843 -0.3741 -2.2127
 2826SOL     OW19939   1.319   4.209   4.626 -0.0772 -0.5157 -0.1340
 2826SOL    HW119940   1.307   4.115   4.612  0.3151 -0.7102  0.8675
 2826SOL    HW219941   1.345   4.241   4.540 -0.5595  0.7415  0.1915
 2827SOL     OW19942   0.187   4.334   4.330  0.3453 -0.3081 -0.3516
 2827SOL    HW119943   0.161   4.412   4.379  0.5689 -1.0873  1.0139
 2827SOL    HW219944   0.211   4.366   4.243  1.1180  1.5385  0.5512
 2828SOL     OW19945   2.762   2.997   2.759  0.1406  0.4474 -0.0269
 2828SOL    HW119946   2.804   2.914   2.784 -0.4707  0.1820  0.1072
 2828SOL    HW219947   2.711   3.034   2.830 -1.7765  1.0593 -1.7287
 2829SOL     OW19948   0.866   1.137  16.803  0.6977 -0.0039  0.0393
 2829SOL    HW119949   0.891   1.051  16.838 -0.1968  0.1007  0.9329
 2829SOL    HW219950   0.943   1.193  16.798  0.0885  0.9385  1.2830
 2830SOL     OW19951   3.242   1.881   1.179 -0.0414  0.1374 -0.4914
 2830SOL    HW119952   3.266   1.893   1.271  1.0122  4.2690 -1.3056
 2830SOL    HW219953   3.296   1.951   1.143 -0.7067 -0.2438 -2.2462
 2831SOL     OW19954   3.695   4.523   0.772  0.0718  0.6931 -0.1645
 2831SOL    HW119955   3.755   4.590   0.804 -0.7459 -0.2893  3.3917
 2831SOL    HW219956   3.616   4.535   0.824  1.2163 -3.9970  2.6946
 2832SOL     OW19957   4.157   3.944   9.037 -0.1817 -0.2335  0.2264
 2832SOL    HW119958   4.121   3.955   9.125 -2.9911 -0.2351 -0.9297
 2832SOL    HW219959   4.185   3.852   9.037  0.9240  0.0964  0.9922
 2833SOL     OW19960   2.816   3.987  10.793 -0.4928  0.1181  0.2348
 2833SOL    HW119961   2.729   3.949  10.781 -0.4622  0.7416 -2.1098
 2833SOL    HW219962   2.808   4.055  10.725  0.7410 -1.3738 -1.3864
 2834SOL     OW19963   0.164   0.647   6.217  0.3210  0.2510 -0.3776
 2834SOL    HW119964   0.182   0.688   6.132  0.1808  1.0152 -0.0394
 2834SOL    HW219965   0.183   0.728   6.263 -0.6991 -0.4491  1.2661
 2835SOL     OW19966   1.381   0.947   9.626  0.5017 -0.3061  0.3465
 2835SOL    HW119967   1.454   1.008   9.635  0.3045 -0.2089  1.2400
 2835SOL    HW219968   1.420   0.877   9.572 -0.7472 -0.4364 -0.3991
 2836SOL     OW19969   0.175   3.827   2.302  0.1736 -0.1190  0.1119
 2836SOL    HW119970   0.194   3.796   2.213  0.5739 -0.0216  0.1627
 2836SOL    HW219971   0.256   3.813   2.350  0.6296  1.0570 -0.3115
 2837SOL     OW19972   4.562   3.670  10.911 -0.6087  0.0944 -0.0322
 2837SOL    HW119973   4.629   3.663  10.843  0.4455 -2.3932  1.2683
 2837SOL    HW219974   4.584   3.756  10.946 -0.9776  0.5600 -0.9332
 2838SOL     OW19975   2.640   2.499  15.960 -0.4565 -0.1156  0.7704
 2838SOL    HW119976   2.611   2.485  15.870  0.0803  2.7817  0.1452
 2838SOL    HW219977   2.690   2.580  15.958  0.1143 -0.6399 -4.0644
 2839SOL     OW19978   3.645   0.696   1.887  0.4382 -0.9029 -0.0737
 2839SOL    HW119979   3.663   0.790   1.884 -0.6486 -0.6449  1.4096
 2839SOL    HW219980   3.550   0.706   1.899 -0.1250 -3.2171 -2.8383
 2840SOL     OW19981   4.253   3.325   8.771  0.4720  0.1509 -0.2766
 2840SOL    HW119982   4.300   3.398   8.810  1.7979 -0.5117 -0.6259
 2840SOL    HW219983   4.271   3.254   8.832  2.5357  1.0378  0.1382
 2841SOL     OW19984   1.504   2.925  13.984  0.1773  0.0906  0.0311
 2841SOL    HW119985   1.576   2.870  13.952 -0.4799 -0.4987 -0.4416
 2841SOL    HW219986   1.427   2.899  13.934 -0.1879 -1.1921  1.2609
 2842SOL     OW19987   2.890   3.895   3.334 -0.0815 -0.7234 -0.7024
 2842SOL    HW119988   2.964   3.956   3.329 -2.0898  1.6795 -1.6424
 2842SOL    HW219989   2.829   3.941   3.275  1.8942  1.4950 -1.0284
 2843SOL     OW19990   0.520   1.997  10.399  0.0291  0.1677  0.2615
 2843SOL    HW119991   0.437   1.948  10.400  1.2649 -1.9190 -0.2121
 2843SOL    HW219992   0.539   1.992  10.492 -1.8441 -1.3202  0.5719
 2844SOL     OW19993   4.636   3.194  14.965 -0.3376 -0.2819 -0.2391
 2844SOL    HW119994   4.566   3.162  15.022 -1.4959  1.5616 -0.6453
 2844SOL    HW219995   4.590   3.217  14.884 -0.3265  2.0822  0.4218
 2845SOL     OW19996   2.380   1.208   4.089  0.3051 -0.1129  0.8393
 2845SOL    HW119997   2.354   1.216   3.997 -0.0743 -1.4403  0.8433
 2845SOL    HW219998   2.303   1.239   4.137  0.3680 -1.0447  1.5282
 2846SOL     OW19999   0.694   2.375  10.839 -0.8990 -0.4150 -0.0956
 2846SOL    HW120000   0.676   2.468  10.846  2.0529  0.2371 -1.2311
 2846SOL    HW220001   0.750   2.355  10.914  0.8687 -1.2367 -1.6331
 2847SOL     OW20002   1.704   0.442   5.030 -0.1653  0.5477 -0.4357
 2847SOL    HW120003   1.678   0.432   4.939  1.4548 -1.2827 -0.6931
 2847SOL    HW220004   1.766   0.514   5.021 -0.4207  0.8414  0.1095
 2848SOL     OW20005   3.900   4.120   0.957 -0.4740  0.8067 -0.7165
 2848SOL    HW120006   3.840   4.050   0.933 -1.2629  1.2485 -0.0475
 2848SOL    HW220007   3.974   4.097   0.901 -0.6339 -0.8103 -0.2469
 2849SOL     OW20008   4.654   0.828   4.033  1.2519 -0.1822 -0.3091
 2849SOL    HW120009   4.568   0.863   4.013  2.1548  0.6503 -2.7474
 2849SOL    HW220010   4.697   0.836   3.948  1.0070 -0.4327 -0.4559
 2850SOL     OW20011   2.280   2.667  15.948  0.1611  0.0303  0.3451
 2850SOL    HW120012   2.335   2.645  15.873  2.2764  0.7563  1.7050
 2850SOL    HW220013   2.283   2.586  15.998  2.9721  1.4503  2.4777
 2851SOL     OW20014   2.949   4.183   4.167 -0.2801 -0.6067 -0.1720
 2851SOL    HW120015   2.993   4.218   4.245 -0.7266 -0.1706 -0.1121
 2851SOL    HW220016   2.895   4.112   4.201  0.2453 -0.9133  0.0184
 2852SOL     OW20017   4.479   0.657  11.186  0.9768 -0.8635  0.5803
 2852SOL    HW120018   4.458   0.592  11.120  3.3910  0.8847 -1.9274
 2852SOL    HW220019   4.468   0.608  11.267  0.2477 -0.5649  0.6618
 2853SOL     OW20020   0.152   2.881   3.641  0.1789 -0.4271  0.1666
 2853SOL    HW120021   0.239   2.872   3.680  0.5440 -0.3509 -0.6414
 2853SOL    HW220022   0.108   2.937   3.706 -0.6862 -2.0524  0.9819
 2854SOL     OW20023   0.131   3.736  11.602  0.3733 -0.1897 -0.5310
 2854SOL    HW120024   0.152   3.830  11.598 -2.6195  0.6052  2.0735
 2854SOL    HW220025   0.050   3.748  11.652  0.1341  0.3393 -1.0337
 2855SOL     OW20026   1.438   3.094   6.304 -0.1019  0.4247 -0.4496
 2855SOL    HW120027   1.343   3.084   6.311 -0.0473 -0.1884 -0.6159
 2855SOL    HW220028   1.449   3.040   6.226 -1.4929 -0.4148 -0.0835
 2856SOL     OW20029   3.474   1.541   9.102 -0.1678 -0.1079  0.5148
 2856SOL    HW120030   3.421   1.502   9.171 -2.1199  0.1314 -0.8431
 2856SOL    HW220031   3.413   1.610   9.075 -0.5328 -0.5405  0.2098
 2857SOL     OW20032   3.339   2.758   3.363  0.0446  0.3479 -0.3386
 2857SOL    HW120033   3.305   2.670   3.378  0.7723  0.4535  1.9392
 2857SOL    HW220034   3.425   2.725   3.336 -0.3875  0.0971 -1.3686
 2858SOL     OW20035   3.684   4.162  11.318  0.1051  0.0322 -0.3138
 2858SOL    HW120036   3.686   4.067  11.327 -0.1140  0.1826  1.4434
 2858SOL    HW220037   3.713   4.163  11.227 -0.9046  2.9615 -0.6136
 2859SOL     OW20038   0.959   4.622  10.077 -0.2894 -0.4428  0.2332
 2859SOL    HW120039   0.883   4.573  10.109 -1.4044  0.6216 -0.7663
 2859SOL    HW220040   1.003   4.568  10.010 -0.4727 -1.2409  0.7660
 2860SOL     OW20041   3.397   1.933   6.795 -0.1491 -0.2782 -0.2878
 2860SOL    HW120042   3.407   1.844   6.761  0.8164 -0.1844 -0.2475
 2860SOL    HW220043   3.323   1.963   6.742  0.2618  0.8957 -0.1982
 2861SOL     OW20044   0.903   4.689   1.804 -0.1211 -0.8923  0.3901
 2861SOL    HW120045   0.883   4.624   1.737 -0.9161  0.9373 -1.1450
 2861SOL    HW220046   0.856   4.653   1.879 -0.7469  0.2989  0.5867
 2862SOL     OW20047   4.434   2.758  17.066 -0.2366 -0.1770  0.2356
 2862SOL    HW120048   4.390   2.673  17.056  0.6668 -0.7081  0.7679
 2862SOL    HW220049   4.430   2.775  17.160 -0.6278 -2.1270  0.5770
 2863SOL     OW20050   2.142   4.128   6.555 -0.5334 -0.1440 -0.4744
 2863SOL    HW120051   2.187   4.211   6.551 -0.8366 -0.0174 -1.4989
 2863SOL    HW220052   2.203   4.083   6.497 -0.3798 -1.7550  0.9410
 2864SOL     OW20053   0.260   0.067   7.353  0.2206  0.5593  0.3606
 2864SOL    HW120054   0.299   0.101   7.272 -1.8113 -1.1392 -1.3262
 2864SOL    HW220055   0.225   0.151   7.382  2.0321  1.9271 -1.3827
 2865SOL     OW20056   0.799   1.471   4.844 -0.1663  0.0879 -0.3786
 2865SOL    HW120057   0.882   1.517   4.848  0.3620 -0.7550 -1.8432
 2865SOL    HW220058   0.815   1.383   4.809 -0.0075 -0.2135  0.4453
 2866SOL     OW20059   0.067   1.554   2.861  0.1723  0.4789  0.8487
 2866SOL    HW120060   0.136   1.566   2.796 -1.4073 -0.5241 -1.0296
 2866SOL    HW220061   4.713   1.608   2.836  1.2102  0.6327 -1.9518
 2867SOL     OW20062   2.644   0.938  13.878  0.3011  0.0411 -0.0135
 2867SOL    HW120063   2.647   0.844  13.861  0.1876  0.2838 -1.4572
 2867SOL    HW220064   2.554   0.965  13.897  0.8216  1.0290  0.9712
 2868SOL     OW20065   3.981   2.747   8.587 -0.3194 -0.5735  0.2924
 2868SOL    HW120066   4.052   2.703   8.634 -0.5905  0.1346  1.3441
 2868SOL    HW220067   3.918   2.778   8.651 -1.4106 -0.6942 -0.7110
 2869SOL     OW20068   0.995   3.358   4.687 -0.4575 -0.0931  0.2828
 2869SOL    HW120069   0.979   3.451   4.699  1.2088 -0.0627  2.1980
 2869SOL    HW220070   0.912   3.339   4.641  0.2516  0.9018 -1.3992
 2870SOL     OW20071   2.236   2.677   6.222 -0.3867  0.6697  0.0424
 2870SOL    HW120072   2.209   2.695   6.131  0.2503 -0.1382 -0.3088
 2870SOL    HW220073   2.310   2.734   6.241  1.3049 -1.4982 -0.0727
 2871SOL     OW20074   0.231   2.322   7.628  0.6368  0.2712  0.2923
 2871SOL    HW120075   0.276   2.407   7.636  0.4591 -0.0026  4.4619
 2871SOL    HW220076   0.270   2.276   7.702  0.2910  1.6403  1.3305
 2872SOL     OW20077   4.003   1.952   9.773  0.0577 -0.4178 -0.2694
 2872SOL    HW120078   4.025   1.868   9.812 -0.1660 -0.9244 -1.2458
 2872SOL    HW220079   3.921   1.967   9.820  0.8111 -2.2262  1.6458
 2873SOL     OW20080   0.019   3.617  16.296 -0.3332 -0.2026 -0.1504
 2873SOL    HW120081   0.032   3.658  16.382  1.3955 -0.6605 -0.1963
 2873SOL    HW220082   0.097   3.650  16.253 -0.0600 -0.8685 -0.1687
 2874SOL     OW20083   4.221   2.642   5.268  0.2628  0.1979  0.0546
 2874SOL    HW120084   4.220   2.572   5.334  0.6311 -0.4416 -0.6156
 2874SOL    HW220085   4.133   2.679   5.274  0.9446  1.3403  3.5997
 2875SOL     OW20086   0.176   4.522   6.852  0.0290  0.0790  0.1755
 2875SOL    HW120087   0.115   4.549   6.921 -1.3148 -1.1369 -0.5570
 2875SOL    HW220088   0.257   4.567   6.879  1.1125 -0.6956 -1.7701
 2876SOL     OW20089   0.347   2.242   9.112  0.1776 -0.6304 -0.0935
 2876SOL    HW120090   0.347   2.147   9.121  0.1414 -0.6142  0.0640
 2876SOL    HW220091   0.286   2.251   9.039  0.4918  1.7081 -0.0602
 2877SOL     OW20092   4.389   3.452  16.067  0.0883 -0.5028  0.1171
 2877SOL    HW120093   4.349   3.514  16.128  0.1463 -0.0981 -0.2563
 2877SOL    HW220094   4.316   3.421  16.013  0.2627 -2.1223  0.8050
 2878SOL     OW20095   2.371   3.613   2.760  0.1780  0.3332  0.0204
 2878SOL    HW120096   2.430   3.620   2.685 -1.5097  0.3142 -1.3210
 2878SOL    HW220097   2.286   3.633   2.721 -0.9102 -0.4083  2.0235
 2879SOL     OW20098   1.188   2.167  15.083  0.5438 -0.3516 -0.2948
 2879SOL    HW120099   1.131   2.132  15.015 -0.0357 -3.6528  1.8721
 2879SOL    HW220100   1.240   2.231  15.034  1.9054 -1.2306  0.0132
 2880SOL     OW20101   3.052   3.702  14.185  0.2193 -0.4649  0.1901
 2880SOL    HW120102   3.147   3.708  14.176  0.2772 -0.6035  0.7074
 2880SOL    HW220103   3.045   3.628  14.246 -1.4900 -0.9498 -0.6091
 2881SOL     OW20104   4.564   3.953  14.923 -0.5276 -1.0959  0.0271
 2881SOL    HW120105   4.599   3.887  14.864  0.3640 -0.7809  0.2015
 2881SOL    HW220106   4.471   3.930  14.921 -0.8124  0.1032 -0.2703
 2882SOL     OW20107   4.053   1.790   5.099  0.0969 -0.0873 -0.0687
 2882SOL    HW120108   4.122   1.819   5.040  0.6954 -0.6058  0.3764
 2882SOL    HW220109   4.105   1.740   5.162 -0.6641 -1.5983 -0.6375
 2883SOL     OW20110   0.195   2.036   2.140 -0.1239  0.2414  0.1419
 2883SOL    HW120111   0.222   1.945   2.130 -1.1549 -0.2556  1.8471
 2883SOL    HW220112   0.220   2.071   2.054  2.4581  0.2172  0.8980
 2884SOL     OW20113   0.765   0.321  16.709 -0.2016 -0.2019 -0.2752
 2884SOL    HW120114   0.728   0.354  16.627 -0.6629 -3.2123 -1.3112
 2884SOL    HW220115   0.753   0.227  16.693  1.7141 -1.0518  3.3133
 2885SOL     OW20116   1.163   3.750   4.470 -0.0483  0.1760  0.5515
 2885SOL    HW120117   1.094   3.749   4.404  1.1502 -2.0478 -0.6435
 2885SOL    HW220118   1.244   3.746   4.420 -1.4851 -1.1190 -1.6444
 2886SOL     OW20119   4.396   1.110   2.168  0.0843  0.2598 -0.5246
 2886SOL    HW120120   4.446   1.029   2.178 -0.0869  0.2979  0.6227
 2886SOL    HW220121   4.313   1.079   2.130  0.4792 -0.7078 -0.5971
 2887SOL     OW20122   0.202   0.944   2.748  0.1174 -0.2851 -0.3909
 2887SOL    HW120123   0.200   1.034   2.714 -0.5103 -0.7656 -1.6065
 2887SOL    HW220124   0.203   0.897   2.665 -0.4662 -0.8881 -0.0580
 2888SOL     OW20125   4.413   1.000  10.434 -0.6172  0.1276  0.1673
 2888SOL    HW120126   4.395   1.068  10.499 -2.2456  0.0010 -0.1403
 2888SOL    HW220127   4.329   1.013  10.391 -0.6895  0.4638  0.4079
 2889SOL     OW20128   2.422   1.452   0.865  0.1626 -0.1638  0.0906
 2889SOL    HW120129   2.503   1.492   0.834 -0.2078  1.3731  1.1428
 2889SOL    HW220130   2.453   1.411   0.946 -1.2660 -1.8969 -0.2373
 2890SOL     OW20131   3.171   0.922   9.833 -0.4506 -0.1836 -0.2610
 2890SOL    HW120132   3.230   0.990   9.866  0.9545 -1.6597  0.2855
 2890SOL    HW220133   3.168   0.858   9.904  1.2152  0.7764  0.6961
 2891SOL     OW20134   1.852   2.774   5.943 -0.0044  0.3935  0.1520
 2891SOL    HW120135   1.808   2.689   5.954 -0.2476  0.3778 -0.9538
 2891SOL    HW220136   1.804   2.817   6.014 -1.4731  1.7353 -1.6694
 2892SOL     OW20137   3.521   0.835  14.532  0.2340 -0.1563  0.3118
 2892SOL    HW120138   3.596   0.879  14.493 -1.2149  2.0789  0.0373
 2892SOL    HW220139   3.564   0.756  14.564 -2.2584 -1.4427  0.4819
 2893SOL     OW20140   2.880   2.075  11.237  0.0561 -0.0081  0.1956
 2893SOL    HW120141   2.875   2.138  11.308  1.2658 -1.3808  1.4910
 2893SOL    HW220142   2.971   2.043  11.238 -0.1718 -0.7624 -2.6081
 2894SOL     OW20143   0.899   3.896   2.232 -0.3398  0.2080  0.0857
 2894SOL    HW120144   0.898   3.992   2.239 -0.1647  0.3382 -1.6589
 2894SOL    HW220145   0.984   3.879   2.191  0.9071  1.1635  2.2687
 2895SOL     OW20146   1.587   3.667   6.307  0.2924  0.9639  0.2893
 2895SOL    HW120147   1.597   3.657   6.212  2.5267  0.7143  0.5416
 2895SOL    HW220148   1.578   3.762   6.308 -1.1355  0.8332 -0.4188
 2896SOL     OW20149   2.809   4.480   5.985 -0.2340  0.2991  0.3499
 2896SOL    HW120150   2.853   4.396   6.000  0.4943  0.5485 -0.3721
 2896SOL    HW220151   2.864   4.553   6.013  0.3399  0.4871 -1.2733
 2897SOL     OW20152   1.189   2.079  10.110  0.3949 -0.1854  0.1388
 2897SOL    HW120153   1.273   2.099  10.151  0.5267  0.3806 -0.3988
 2897SOL    HW220154   1.187   1.986  10.089  3.4218  0.0659 -1.3045
 2898SOL     OW20155   4.391   3.664   2.285 -1.0024 -0.3206  0.6213
 2898SOL    HW120156   4.373   3.716   2.206  1.4958  0.6293  0.6730
 2898SOL    HW220157   4.486   3.672   2.287 -1.1514  1.6822 -0.0137
 2899SOL     OW20158   2.855   3.582   8.285  0.3397 -0.0430 -0.5285
 2899SOL    HW120159   2.868   3.489   8.301  0.2578  0.1088  0.4056
 2899SOL    HW220160   2.795   3.583   8.211 -1.3962  2.3678  0.8952
 2900SOL     OW20161   4.704   3.457  11.193  0.1995 -0.2663 -0.8335
 2900SOL    HW120162   0.032   3.474  11.113  0.7531  1.3447 -0.1513
 2900SOL    HW220163   0.051   3.426  11.253  0.0274 -0.7327 -0.8751
 2901SOL     OW20164   1.541   0.176   1.453  0.0690 -0.2245  0.0449
 2901SOL    HW120165   1.505   0.222   1.528  1.2961  1.0827 -0.1673
 2901SOL    HW220166   1.635   0.186   1.469  0.0963  0.5272 -0.5872
 2902SOL     OW20167   2.031   3.112   1.860 -0.5637  0.6572 -0.2895
 2902SOL    HW120168   1.994   3.188   1.905 -1.8479 -0.8253  1.1690
 2902SOL    HW220169   2.119   3.111   1.897 -0.3825  2.1484 -0.6703
 2903SOL     OW20170   0.607   0.920  16.730 -0.1897  1.0040  0.6672
 2903SOL    HW120171   0.649   0.839  16.701 -2.7032 -0.0317 -0.1495
 2903SOL    HW220172   0.524   0.906  16.685  0.1634  2.9231 -0.5724
 2904SOL     OW20173   1.547   2.660   5.166  0.0465 -0.1355 -0.0523
 2904SOL    HW120174   1.466   2.698   5.199 -0.7234 -1.8794  0.0555
 2904SOL    HW220175   1.510   2.638   5.081 -1.2121  0.1887  0.4099
 2905SOL     OW20176   2.057   2.061  11.151  0.3198  0.0152  0.1308
 2905SOL    HW120177   2.152   2.051  11.147  0.3064  0.5013 -1.5653
 2905SOL    HW220178   2.058   2.157  11.156 -2.1536  0.0477 -0.3779
 2906SOL     OW20179   4.621   3.038   4.558 -0.1003 -0.9864  0.5933
 2906SOL    HW120180   4.557   2.979   4.599 -1.2198 -0.1288  0.0848
 2906SOL    HW220181   4.662   3.083   4.632 -3.1702 -0.3840  1.9200
 2907SOL     OW20182   3.380   4.446  17.486 -0.6144  0.7623 -0.0920
 2907SOL    HW120183   3.369   4.465  17.393  3.1492  2.1445 -0.2685
 2907SOL    HW220184   3.344   4.357  17.482 -0.1385  0.6883 -2.8847
 2908SOL     OW20185   3.184   1.158   0.763 -0.4679 -0.0795 -0.5500
 2908SOL    HW120186   3.214   1.075   0.801 -1.1972 -0.6175 -1.1260
 2908SOL    HW220187   3.181   1.121   0.674 -2.0537 -0.1133 -0.4706
 2909SOL     OW20188   3.514   1.287   0.042  0.3739  0.4871  0.4672
 2909SOL    HW120189   3.443   1.332  17.682 -0.3156  0.3179  1.3770
 2909SOL    HW220190   3.471   1.231   0.107  1.2413 -0.9464 -0.1858
 2910SOL     OW20191   0.340   2.578   7.211  0.2651  0.4479  0.2955
 2910SOL    HW120192   0.271   2.521   7.246  1.2715 -0.8870  0.0941
 2910SOL    HW220193   0.402   2.511   7.181 -1.1371  0.1290 -1.8412
 2911SOL     OW20194   2.370   4.085  16.227 -0.2321 -0.6015 -0.3673
 2911SOL    HW120195   2.397   4.151  16.291 -1.2319  0.8145 -1.3919
 2911SOL    HW220196   2.344   4.139  16.152 -1.4321  0.9047  1.1249
 2912SOL     OW20197   2.562   2.399   7.443  0.2861  0.2552 -0.3956
 2912SOL    HW120198   2.558   2.329   7.507 -3.2839 -0.7007 -1.6526
 2912SOL    HW220199   2.536   2.349   7.365 -0.0620  0.2780 -0.2954
 2913SOL     OW20200   0.101   2.945   8.337 -0.1299 -0.2369  0.2943
 2913SOL    HW120201   0.082   3.023   8.389 -0.2242  0.0670 -0.1932
 2913SOL    HW220202   0.196   2.950   8.325 -0.1952 -0.6261 -0.3669
 2914SOL     OW20203   1.418   4.043  12.243 -0.3440 -0.3230 -0.1198
 2914SOL    HW120204   1.352   4.100  12.282  1.8731  2.8034 -0.8634
 2914SOL    HW220205   1.377   4.027  12.159 -1.2896  0.1541  0.2593
 2915SOL     OW20206   4.672   4.595   7.003  0.0505  0.0950 -0.0712
 2915SOL    HW120207   4.647   4.686   7.021 -2.2755 -0.6657  0.5711
 2915SOL    HW220208   4.617   4.577   6.926 -2.2139  1.0975  1.2906
 2916SOL     OW20209   0.436   4.414   3.485  0.1421  0.3162  0.5277
 2916SOL    HW120210   0.528   4.388   3.475  0.1855  0.7324 -0.1727
 2916SOL    HW220211   0.397   4.340   3.531 -2.4494  1.1072 -0.4249
 2917SOL     OW20212   0.133   2.686   0.196 -0.3041  0.3315  0.4030
 2917SOL    HW120213   0.215   2.681   0.245 -0.8286 -0.8227  1.1887
 2917SOL    HW220214   0.074   2.650   0.263 -2.0465  0.1794 -1.2057
 2918SOL     OW20215   4.420   0.520   3.528  0.4151 -0.2025  0.2124
 2918SOL    HW120216   4.433   0.613   3.508  0.2041  0.0290  1.1504
 2918SOL    HW220217   4.376   0.489   3.449 -0.7900  2.0584  0.0174
 2919SOL     OW20218   0.530   2.460   8.334 -0.7060 -0.4728 -0.0577
 2919SOL    HW120219   0.485   2.529   8.382  0.6590  0.1064  0.3913
 2919SOL    HW220220   0.617   2.462   8.376  1.1426  0.0325 -3.8995
 2920SOL     OW20221   3.294   3.107   5.828 -0.1650 -0.2628 -0.3992
 2920SOL    HW120222   3.228   3.057   5.876  0.6245 -0.8925  0.0262
 2920SOL    HW220223   3.330   3.154   5.903 -0.9487  0.0289 -0.1995
 2921SOL     OW20224   4.184   0.224  13.961  0.0248  0.5137 -0.7442
 2921SOL    HW120225   4.109   0.199  13.907  1.8240 -2.0217 -2.0436
 2921SOL    HW220226   4.134   0.290  14.010 -1.5418  0.1076 -1.7983
 2922SOL     OW20227   1.453   3.973   9.878  0.1458 -0.0348  0.2781
 2922SOL    HW120228   1.538   3.949   9.916 -0.3161  0.2931  1.5184
 2922SOL    HW220229   1.473   4.029   9.803  0.0941 -3.2462 -2.1274
 2923SOL     OW20230   0.015   3.576   1.835  0.3784  0.3176  0.1846
 2923SOL    HW120231   4.662   3.543   1.887  2.0228 -0.7455  1.8442
 2923SOL    HW220232   4.690   3.613   1.760  2.7078 -2.4892 -2.5666
 2924SOL     OW20233   0.280   4.576   6.192  0.3342 -0.5369 -0.4450
 2924SOL    HW120234   0.271   4.614   6.280  0.3059 -1.9877  0.1686
 2924SOL    HW220235   0.270   4.660   6.146 -0.4988 -1.0248 -1.1452
 2925SOL     OW20236   0.497   4.487   8.765  0.1017 -0.0016 -0.0001
 2925SOL    HW120237   0.589   4.462   8.756 -0.3413 -1.2292 -1.2095
 2925SOL    HW220238   0.456   4.403   8.743 -0.3201  0.1392  0.2390
 2926SOL     OW20239   3.014   1.041  16.200  0.5936 -0.0614  0.4781
 2926SOL    HW120240   2.951   0.972  16.220 -0.7625  1.4645  1.4962
 2926SOL    HW220241   3.010   1.051  16.105 -0.4510  0.9415  0.6179
 2927SOL     OW20242   1.344   4.514  12.364  0.2291  0.2222 -0.3416
 2927SOL    HW120243   1.292   4.546  12.291 -0.6455  1.0208  0.6349
 2927SOL    HW220244   1.291   4.521  12.443  0.3073 -1.9406 -0.1057
 2928SOL     OW20245   0.256   0.862   5.447  0.1125  0.0872 -0.5650
 2928SOL    HW120246   0.303   0.794   5.398 -1.7110 -0.1481 -1.9838
 2928SOL    HW220247   0.260   0.938   5.388 -0.7488 -0.6080 -1.5341
 2929SOL     OW20248   1.143   3.871   2.143 -0.1823  0.0677  0.2414
 2929SOL    HW120249   1.158   3.902   2.233 -0.7346  0.3100  0.2477
 2929SOL    HW220250   1.218   3.912   2.100  0.5725  0.8358  2.2702
 2930SOL     OW20251   4.438   0.314   8.225  0.0927  0.1328 -0.3700
 2930SOL    HW120252   4.489   0.343   8.150  1.9508  2.8272  1.9130
 2930SOL    HW220253   4.395   0.238   8.186 -1.2540  1.2283 -0.9977
 2931SOL     OW20254   3.267   0.795   0.449  0.0517  0.1999 -0.2114
 2931SOL    HW120255   3.253   0.763   0.538  1.1765  2.6357  0.8399
 2931SOL    HW220256   3.362   0.806   0.453  0.0017  0.2345  1.0728
 2932SOL     OW20257   4.130   4.041   8.600 -0.3321 -0.2473 -0.6195
 2932SOL    HW120258   4.107   3.965   8.653  1.4772 -1.7317 -1.9546
 2932SOL    HW220259   4.188   4.091   8.657 -0.4398 -1.0509  0.1882
 2933SOL     OW20260   3.777   0.308   9.006 -0.0249  0.0104 -0.3543
 2933SOL    HW120261   3.685   0.305   8.982 -0.2476  1.1106  0.3847
 2933SOL    HW220262   3.810   0.331   8.919  0.6298 -0.6062 -0.2721
 2934SOL     OW20263   2.824   1.330   4.266  0.4299 -0.1763  0.4467
 2934SOL    HW120264   2.891   1.272   4.230  0.4878  0.7977 -1.0364
 2934SOL    HW220265   2.767   1.344   4.190  0.2747 -2.8211  0.0664
 2935SOL     OW20266   1.390   3.314   6.907  0.1633 -0.0959  0.0926
 2935SOL    HW120267   1.319   3.273   6.956 -0.1333  0.7185  0.3340
 2935SOL    HW220268   1.375   3.280   6.819 -0.2889 -0.9243  0.4877
 2936SOL     OW20269   3.977   3.766   4.781  0.2597  0.0314  0.1982
 2936SOL    HW120270   4.029   3.752   4.860  0.7104  0.1034 -0.0845
 2936SOL    HW220271   3.890   3.740   4.810 -0.0310  1.0655  0.2801
 2937SOL     OW20272   3.128   2.827   3.190  0.2471 -0.1464  0.5492
 2937SOL    HW120273   3.209   2.823   3.240  0.8952 -1.3961 -0.5987
 2937SOL    HW220274   3.067   2.772   3.239  1.0839 -1.7156 -0.1733
 2938SOL     OW20275   3.838   2.832   7.126  0.0860  0.0999 -0.2323
 2938SOL    HW120276   3.754   2.837   7.172 -0.0344 -1.0482 -0.3342
 2938SOL    HW220277   3.856   2.926   7.120  1.7703 -0.1602  0.7041
 2939SOL     OW20278   1.158   1.612   7.073  0.1291 -0.0224  0.3547
 2939SOL    HW120279   1.088   1.552   7.049 -1.5894  2.4869 -0.9293
 2939SOL    HW220280   1.198   1.636   6.989  2.9016 -0.9677  1.4006
 2940SOL     OW20281   0.943   1.485   5.450 -0.9445 -0.2599 -0.4600
 2940SOL    HW120282   0.861   1.504   5.404 -0.3986  0.0548 -1.3025
 2940SOL    HW220283   0.915   1.477   5.541  2.0976  2.8979  0.7324
 2941SOL     OW20284   2.240   4.427   4.438  0.2353 -0.3194  0.0881
 2941SOL    HW120285   2.256   4.345   4.391  1.7053  1.3799 -2.4243
 2941SOL    HW220286   2.226   4.390   4.525 -1.0316  0.4456  0.2045
 2942SOL     OW20287   4.022   3.826   7.836  0.4763 -0.4290  0.6622
 2942SOL    HW120288   4.112   3.796   7.828  0.8403  0.0498  2.9576
 2942SOL    HW220289   4.033   3.920   7.826 -0.8752 -0.6713 -3.0929
 2943SOL     OW20290   0.846   2.837  13.153  0.2238  0.4047  0.3733
 2943SOL    HW120291   0.810   2.805  13.236 -0.4595  0.8297  0.2440
 2943SOL    HW220292   0.933   2.799  13.163  1.2468  1.9985 -2.5218
 2944SOL     OW20293   2.857   0.390   1.488 -0.1827  0.3705  0.5404
 2944SOL    HW120294   2.929   0.409   1.428 -1.3535  1.9381 -0.3661
 2944SOL    HW220295   2.907   0.355   1.562  0.0324  1.3224  0.8375
 2945SOL     OW20296   0.470   1.784  15.674 -0.1183  0.2501 -0.1875
 2945SOL    HW120297   0.429   1.794  15.588 -1.6215  2.0902  0.7461
 2945SOL    HW220298   0.395   1.774  15.732 -0.3411  1.4574 -0.2646
 2946SOL     OW20299   2.213   3.239   6.499  0.2243  0.2772 -0.1467
 2946SOL    HW120300   2.146   3.220   6.564  1.4682  1.6013  1.5016
 2946SOL    HW220301   2.172   3.301   6.439 -2.8300 -2.1980 -0.5919
 2947SOL     OW20302   1.859   0.530   2.760 -0.0965  0.2363  0.4660
 2947SOL    HW120303   1.790   0.464   2.759 -0.0483  0.1802  0.7413
 2947SOL    HW220304   1.870   0.562   2.671 -2.5827 -0.0730  0.0259
 2948SOL     OW20305   3.103   0.939   4.923  0.2390 -0.6706 -0.3763
 2948SOL    HW120306   3.016   0.948   4.963  1.0726 -0.6053  1.4280
 2948SOL    HW220307   3.158   1.000   4.972 -0.9334 -0.2959  0.4755
 2949SOL     OW20308   0.894   0.343   5.068  0.1454 -0.1505 -0.7317
 2949SOL    HW120309   0.921   0.255   5.094 -1.1862 -0.3917 -0.1798
 2949SOL    HW220310   0.800   0.329   5.079  0.0825 -0.1201 -1.2700
 2950SOL     OW20311   2.113   3.005   5.382  0.3322  0.3043  0.2966
 2950SOL    HW120312   2.118   2.959   5.466  0.1149  1.9150  1.1809
 2950SOL    HW220313   2.069   2.945   5.320  2.4751 -0.5407 -0.4164
 2951SOL     OW20314   1.181   4.258   4.175  0.0325  0.2182  0.1046
 2951SOL    HW120315   1.141   4.308   4.246 -1.5096 -3.7347  2.0682
 2951SOL    HW220316   1.269   4.295   4.177  0.4613 -0.7929 -0.2447
 2952SOL     OW20317   2.513   1.958  11.022 -0.2920  0.3249  0.5146
 2952SOL    HW120318   2.530   1.874  11.067  0.1156  0.2454  0.2113
 2952SOL    HW220319   2.603   1.980  10.997 -0.9563  3.4803  0.9653
 2953SOL     OW20320   2.087   0.817   6.757  0.2167  0.3492  0.4166
 2953SOL    HW120321   2.030   0.785   6.687 -1.2625  1.4710  1.0984
 2953SOL    HW220322   2.020   0.852   6.816  1.2117  1.8403  0.6585
 2954SOL     OW20323   1.798   3.205  13.536 -0.6641 -0.4345  0.5958
 2954SOL    HW120324   1.708   3.190  13.507 -0.6066  2.7878 -1.2652
 2954SOL    HW220325   1.796   3.175  13.627 -0.4783 -0.9761  0.4196
 2955SOL     OW20326   3.384   3.328   5.655 -0.9338  0.6418 -0.2418
 2955SOL    HW120327   3.353   3.246   5.693  0.3436  0.4935  0.4720
 2955SOL    HW220328   3.422   3.368   5.733 -1.0045 -0.7070  0.4942
 2956SOL     OW20329   3.504   1.460  16.687 -0.6663 -0.1983  0.4373
 2956SOL    HW120330   3.488   1.515  16.611  0.6705 -2.0445 -1.1736
 2956SOL    HW220331   3.435   1.395  16.672 -0.2657 -0.4957 -0.1251
 2957SOL     OW20332   0.078   0.515   7.413 -0.4332  0.3780  0.0084
 2957SOL    HW120333   0.112   0.501   7.501  2.1983 -0.7609 -1.1862
 2957SOL    HW220334   0.103   0.606   7.397 -0.7422  0.2128 -1.3739
 2958SOL     OW20335   0.519   3.110   0.315 -0.3107 -0.3215  0.2832
 2958SOL    HW120336   0.566   3.051   0.374 -0.1658  0.0934  0.5898
 2958SOL    HW220337   0.587   3.163   0.273  0.0507 -0.4260  0.7306
 2959SOL     OW20338   3.869   3.407   6.661  0.1211 -0.3052  0.0545
 2959SOL    HW120339   3.941   3.470   6.660 -1.1931  1.2010 -1.0082
 2959SOL    HW220340   3.835   3.430   6.574 -0.4757 -0.9906  0.1008
 2960SOL     OW20341   0.513   1.020   6.302  0.0876  0.3004 -0.3806
 2960SOL    HW120342   0.441   0.958   6.289  1.5982 -1.3814 -0.7274
 2960SOL    HW220343   0.461   1.098   6.287  0.6594  0.6555 -0.5060
 2961SOL     OW20344   0.386   4.066   4.489 -0.0345  0.1028 -0.1825
 2961SOL    HW120345   0.297   4.092   4.513  0.2122  0.0819  0.7564
 2961SOL    HW220346   0.425   4.080   4.576  1.6831 -0.4395 -0.8721
 2962SOL     OW20347   3.690   1.789   2.905  0.4313  0.0362 -0.1146
 2962SOL    HW120348   3.657   1.828   2.824  0.8068  1.0244  0.1994
 2962SOL    HW220349   3.624   1.812   2.970  0.4653 -1.1176  0.3227
 2963SOL     OW20350   1.595   2.185   5.249  0.3128  0.5267 -0.4561
 2963SOL    HW120351   1.551   2.198   5.165 -1.2975  0.3569  0.3726
 2963SOL    HW220352   1.569   2.272   5.279  0.6620  0.6470 -0.4968
 2964SOL     OW20353   3.985   2.003   2.084  0.8164 -0.0441 -0.5671
 2964SOL    HW120354   3.941   1.968   2.007  2.5156  0.7306 -1.8795
 2964SOL    HW220355   4.074   1.968   2.077  0.1361 -1.5611 -1.5562
 2965SOL     OW20356   4.650   0.378   4.093 -0.0757  0.2928  0.1291
 2965SOL    HW120357   4.712   0.445   4.120  0.2956  1.0976 -2.7479
 2965SOL    HW220358   4.572   0.425   4.062 -0.9960 -1.1353  0.2356
 2966SOL     OW20359   0.186   1.796   2.373 -0.0309 -0.8277  0.1702
 2966SOL    HW120360   0.230   1.857   2.432 -0.1254 -0.6146  0.0195
 2966SOL    HW220361   0.221   1.815   2.286 -2.1179  0.5334 -0.3573
 2967SOL     OW20362   0.536   4.712  13.216  0.1837  0.4131  1.3700
 2967SOL    HW120363   0.608   0.037  13.259  0.3000  3.3599 -1.9607
 2967SOL    HW220364   0.463   0.017  13.273 -0.9064 -0.6676  0.4774
 2968SOL     OW20365   2.823   4.416  15.507 -0.3722 -0.3553  0.0024
 2968SOL    HW120366   2.867   4.371  15.579 -1.9213 -1.6802  0.1346
 2968SOL    HW220367   2.898   4.405  15.448  0.8853  0.1577  1.5107
 2969SOL     OW20368   0.751   1.149   3.370 -0.5098  0.0611 -0.0872
 2969SOL    HW120369   0.757   1.072   3.313  0.3624  0.1657 -0.1330
 2969SOL    HW220370   0.708   1.220   3.322 -0.0347  1.5808  1.7651
 2970SOL     OW20371   2.048   4.706   2.421 -0.3099  0.1277 -0.2203
 2970SOL    HW120372   2.051   4.702   2.326  0.8775 -0.2503 -0.1654
 2970SOL    HW220373   1.969   4.657   2.443 -1.7549  2.2642 -0.5848
 2971SOL     OW20374   3.043   0.612   1.617  0.5846 -0.2213  0.0370
 2971SOL    HW120375   2.950   0.598   1.601  0.5554  0.5270 -0.4583
 2971SOL    HW220376   3.057   0.688   1.673  1.5596  0.7483 -1.5143
 2972SOL     OW20377   4.637   1.759   7.601  0.4832 -0.2768  0.2538
 2972SOL    HW120378   4.611   1.820   7.671 -0.7785  1.4626 -1.7358
 2972SOL    HW220379   0.008   1.778   7.582  0.9690 -0.6089  2.2228
 2973SOL     OW20380   1.421   2.544   4.908 -0.9985 -0.0657 -0.0187
 2973SOL    HW120381   1.386   2.455   4.905 -1.7733  0.1803  1.7237
 2973SOL    HW220382   1.471   2.549   4.826 -1.9684 -1.8168 -0.6946
 2974SOL     OW20383   3.831   3.329  10.997  0.2088 -0.2606 -0.2375
 2974SOL    HW120384   3.755   3.298  10.949  0.7866 -0.8508 -0.7571
 2974SOL    HW220385   3.795   3.347  11.084 -0.4539 -0.5406 -0.4513
 2975SOL     OW20386   3.642   2.387   3.992  0.2167 -0.0192 -0.2003
 2975SOL    HW120387   3.676   2.425   4.073  1.8935 -1.3708 -0.2826
 2975SOL    HW220388   3.559   2.432   3.978  1.2953  1.7566 -0.8524
 2976SOL     OW20389   0.144   0.739   8.408 -0.1610  0.3040 -0.3150
 2976SOL    HW120390   0.132   0.725   8.314  0.2056  1.8183 -0.5886
 2976SOL    HW220391   0.051   0.753   8.428 -0.1210  1.1289 -0.7061
 2977SOL     OW20392   1.019   2.050   6.355  0.2011 -0.4748 -0.3417
 2977SOL    HW120393   1.006   2.143   6.373  1.5265 -0.1879 -0.8267
 2977SOL    HW220394   1.111   2.033   6.377  0.1621 -0.0622  0.1391
 2978SOL     OW20395   4.217   2.682   1.263 -0.0036  0.0574 -0.1896
 2978SOL    HW120396   4.311   2.677   1.278  0.0624 -0.3791 -0.7283
 2978SOL    HW220397   4.191   2.764   1.304  0.7506  0.4065 -0.4148
 2979SOL     OW20398   4.635   0.114  13.339 -0.6955  0.4367 -0.2343
 2979SOL    HW120399   4.549   0.091  13.306 -1.0838  1.4258  0.0870
 2979SOL    HW220400   4.615   0.208  13.344  1.1700  0.8330 -0.2005
 2980SOL     OW20401   4.070   2.311   2.361 -0.0030  0.3348 -0.1894
 2980SOL    HW120402   4.001   2.260   2.403 -1.5292  0.6299 -2.3375
 2980SOL    HW220403   4.138   2.304   2.428  0.9539 -1.6791 -1.3774
 2981SOL     OW20404   2.062   0.437  15.839  0.1570  0.4828  0.0674
 2981SOL    HW120405   1.979   0.483  15.846  1.0967  1.9651  1.4913
 2981SOL    HW220406   2.031   0.353  15.872 -0.9128  0.1470 -1.8388
 2982SOL     OW20407   4.549   3.761  17.080 -0.0358 -0.1084  0.0268
 2982SOL    HW120408   4.462   3.731  17.103  0.1216 -0.6939 -0.1334
 2982SOL    HW220409   4.580   3.792  17.165 -1.0654  1.3801 -0.1345
 2983SOL     OW20410   4.426   4.397   4.696  0.3656 -0.4873 -0.0755
 2983SOL    HW120411   4.516   4.427   4.710  0.7490 -1.0858 -1.3557
 2983SOL    HW220412   4.444   4.309   4.729 -0.8967 -1.0146 -0.8069
 2984SOL     OW20413   0.660   2.630  15.043  0.3409  0.4125 -0.2171
 2984SOL    HW120414   0.647   2.538  15.020  1.6431  0.3276 -0.5897
 2984SOL    HW220415   0.703   2.649  14.960 -0.8734  1.6517 -0.5771
 2985SOL     OW20416   3.603   0.069   7.517  0.0854 -0.5672 -0.2057
 2985SOL    HW120417   3.601   0.034   7.428  0.1208 -1.9145  0.3304
 2985SOL    HW220418   3.635   4.711   7.562 -1.2398 -0.6035  0.6666
 2986SOL     OW20419   1.854   3.887   7.818 -0.4290  0.0232 -0.4338
 2986SOL    HW120420   1.943   3.851   7.817 -0.3034  0.4258 -4.8799
 2986SOL    HW220421   1.877   3.975   7.847  0.0842  0.0454 -0.9044
 2987SOL     OW20422   2.711   4.511   7.451 -0.2487 -0.6337  0.2850
 2987SOL    HW120423   2.793   4.462   7.443  1.0105  1.4254  0.5235
 2987SOL    HW220424   2.665   4.471   7.377 -0.1662  0.1221 -0.1773
 2988SOL     OW20425   0.599   0.594   8.267  0.2423  0.2409  0.1236
 2988SOL    HW120426   0.663   0.526   8.246  1.3211  0.5665  2.4219
 2988SOL    HW220427   0.580   0.573   8.358 -3.9771  0.0223 -0.8072
 2989SOL     OW20428   4.026   0.120   5.775 -0.2797 -0.2794  0.1280
 2989SOL    HW120429   4.081   0.148   5.848  0.4981  1.2535 -1.0242
 2989SOL    HW220430   4.088   0.078   5.716  0.0329 -0.7192  0.7857
 2990SOL     OW20431   4.686   3.730   8.580 -0.1752  0.4024  0.2131
 2990SOL    HW120432   4.635   3.653   8.552 -1.1152  1.0879  0.0431
 2990SOL    HW220433   4.615   3.791   8.599 -3.0899 -2.6198 -0.8142
 2991SOL     OW20434   2.664   2.429   7.832 -0.3055  0.1549  0.0309
 2991SOL    HW120435   2.704   2.501   7.881  1.1781 -1.8512  1.7635
 2991SOL    HW220436   2.594   2.482   7.793 -0.8691  0.4684  1.4405
 2992SOL     OW20437   0.822   3.931   7.160 -0.0253  0.0336 -0.2529
 2992SOL    HW120438   0.806   3.853   7.107 -2.6744  1.1993 -1.1390
 2992SOL    HW220439   0.780   3.913   7.244  1.4991  0.8516  0.6928
 2993SOL     OW20440   3.404   4.132   3.950 -0.2865 -0.0236  0.3131
 2993SOL    HW120441   3.377   4.191   3.879  0.1217  0.5088  0.5979
 2993SOL    HW220442   3.319   4.112   3.988 -0.5663  3.4003  1.5348
 2994SOL     OW20443   1.696   1.891   0.370 -0.2750 -0.0410 -0.0425
 2994SOL    HW120444   1.702   1.880   0.465 -0.8000  0.0046 -0.0067
 2994SOL    HW220445   1.717   1.983   0.353  0.2165 -0.1450 -0.0077
 2995SOL     OW20446   3.863   4.339   6.996 -0.1338  0.4057 -0.7304
 2995SOL    HW120447   3.872   4.432   6.972 -1.7652  1.4947  2.8641
 2995SOL    HW220448   3.891   4.303   6.912  1.1704 -2.2014  0.8341
 2996SOL     OW20449   1.808   1.323   9.679 -0.9108 -0.0544  0.4563
 2996SOL    HW120450   1.815   1.418   9.684 -1.7444 -0.0483  1.3904
 2996SOL    HW220451   1.824   1.305   9.586  1.4757 -0.5986  0.9797
 2997SOL     OW20452   3.031   1.165   0.078  0.0466  0.1889  0.1576
 2997SOL    HW120453   3.006   1.257   0.087 -1.8357 -0.2102 -1.0902
 2997SOL    HW220454   3.023   1.119   0.162  0.8863 -0.4491 -0.1092
 2998SOL     OW20455   2.207   1.990   5.506  0.6594 -0.1575  0.0505
 2998SOL    HW120456   2.257   2.057   5.553 -2.4686  1.7036  0.7729
 2998SOL    HW220457   2.181   1.931   5.576  0.5570  0.2139  0.3242
 2999SOL     OW20458   3.041   4.707   1.784 -0.0568  0.6031 -0.5629
 2999SOL    HW120459   3.003   4.679   1.701  0.3097  2.2432 -1.2819
 2999SOL    HW220460   2.991   4.660   1.850 -1.3961 -1.5462 -3.1143
 3000SOL     OW20461   3.331   3.796   3.949  0.0243 -0.0721  0.0067
 3000SOL    HW120462   3.275   3.783   3.872  1.7403 -2.2319 -0.8758
 3000SOL    HW220463   3.282   3.860   4.001 -0.4743  0.9987 -1.7932
 3001SOL     OW20464   2.460   1.889  15.703 -0.4681 -0.0481  0.9762
 3001SOL    HW120465   2.475   1.982  15.718  1.7488 -0.4126  0.9692
 3001SOL    HW220466   2.539   1.850  15.741 -0.0106 -0.0917 -0.0276
 3002SOL     OW20467   0.035   4.594   2.868  0.3435 -0.4428 -0.1764
 3002SOL    HW120468   0.048   4.638   2.784 -1.4523  1.0526  0.3345
 3002SOL    HW220469   0.071   4.506   2.855  0.1237 -0.4797 -0.5407
 3003SOL     OW20470   4.187   3.505   6.385 -0.4845  0.0461 -0.6937
 3003SOL    HW120471   4.273   3.524   6.348  0.2718 -0.5603  0.7692
 3003SOL    HW220472   4.137   3.581   6.357 -0.0925  0.7539  0.4842
 3004SOL     OW20473   3.769   0.620   0.018  0.1793  0.1132 -0.8573
 3004SOL    HW120474   3.843   0.588   0.070  1.1780  2.7107 -0.6578
 3004SOL    HW220475   3.694   0.628   0.077  0.6388  0.2461 -0.2911
 3005SOL     OW20476   4.653   3.445   6.166 -0.0156  0.4029  0.0992
 3005SOL    HW120477   4.690   3.365   6.128  0.7225 -0.5371  2.8173
 3005SOL    HW220478   4.716   3.503   6.124  1.1790 -0.3266  0.9088
 3006SOL     OW20479   1.247   2.592  16.480  0.4505 -0.5259 -0.0021
 3006SOL    HW120480   1.254   2.682  16.512 -0.8154 -1.3789  2.6751
 3006SOL    HW220481   1.228   2.603  16.387  0.6011  1.3660  0.1893
 3007SOL     OW20482   3.453   3.270  17.205  0.2407  0.4350  0.4673
 3007SOL    HW120483   3.522   3.304  17.262  0.1671  0.4395  0.5529
 3007SOL    HW220484   3.394   3.230  17.269 -2.1049  1.4831 -1.0299
 3008SOL     OW20485   2.356   3.101   4.146  1.0095 -0.0426 -0.3647
 3008SOL    HW120486   2.401   3.174   4.188  1.4372  0.5784 -1.9270
 3008SOL    HW220487   2.332   3.047   4.222 -0.1996  0.9293 -0.0489
 3009SOL     OW20488   0.171   1.293   0.518 -0.1896  0.2322  0.2355
 3009SOL    HW120489   0.078   1.281   0.538 -0.8460  1.1032 -2.3058
 3009SOL    HW220490   0.212   1.228   0.576  0.2168  1.4325  1.2823
 3010SOL     OW20491   1.495   0.378   5.740 -0.3076 -0.1981 -0.0890
 3010SOL    HW120492   1.506   0.311   5.672 -1.0340 -0.2968 -0.1041
 3010SOL    HW220493   1.535   0.450   5.691  3.9114 -2.6999 -0.3302
 3011SOL     OW20494   0.647   2.922   8.455  0.5261  0.2974  0.3149
 3011SOL    HW120495   0.558   2.947   8.430  1.4319  0.7268 -2.5089
 3011SOL    HW220496   0.693   3.002   8.478 -0.3885  0.6768  0.7931
 3012SOL     OW20497   2.892   1.699   7.336 -0.2451  0.2396  0.5371
 3012SOL    HW120498   2.984   1.725   7.342  0.4584 -2.5893  1.7459
 3012SOL    HW220499   2.855   1.708   7.424  2.2407  0.2655  1.5746
 3013SOL     OW20500   4.666   4.250  13.026 -0.2259  0.5159  0.9083
 3013SOL    HW120501   4.670   4.324  12.965  1.7733 -2.2950 -2.3499
 3013SOL    HW220502   4.684   4.284  13.114 -0.1670  0.8245  0.7749
 3014SOL     OW20503   3.026   0.815   5.316 -0.3596  0.1752 -0.2202
 3014SOL    HW120504   3.026   0.864   5.233  0.8524  0.1806 -0.2035
 3014SOL    HW220505   3.063   0.885   5.370  0.3890 -1.2224  1.0531
 3015SOL     OW20506   0.229   2.198   2.375 -0.0271  0.2493  0.0352
 3015SOL    HW120507   0.221   2.141   2.451  1.1432 -0.2544 -0.2255
 3015SOL    HW220508   0.257   2.147   2.299 -1.3983  0.7162 -0.7943
 3016SOL     OW20509   2.521   3.997   4.182 -0.1440 -0.3613 -0.3976
 3016SOL    HW120510   2.554   3.915   4.217  0.7996 -0.0435 -0.5263
 3016SOL    HW220511   2.439   3.964   4.145 -1.7815  1.8937  1.2392
 3017SOL     OW20512   0.951   0.761   4.732  0.5925  0.2657  0.3914
 3017SOL    HW120513   0.966   0.780   4.640 -0.0050  1.9822  0.6449
 3017SOL    HW220514   0.875   0.818   4.749  0.3965  0.0107  0.3555
 3018SOL     OW20515   4.151   2.868  10.156  0.4282  0.5378  0.5708
 3018SOL    HW120516   4.130   2.940  10.216  1.2026  1.0533  0.2346
 3018SOL    HW220517   4.147   2.801  10.224  1.0003  0.7677  0.8327
 3019SOL     OW20518   3.818   2.524   9.122 -0.5444 -0.0844 -0.0036
 3019SOL    HW120519   3.877   2.454   9.149  0.6175  0.8647 -0.0820
 3019SOL    HW220520   3.820   2.584   9.196  0.2210 -1.9453  1.4862
 3020SOL     OW20521   2.534   2.146   7.632  0.0385  0.2170 -0.2570
 3020SOL    HW120522   2.606   2.152   7.694  1.5214  1.3544 -2.0870
 3020SOL    HW220523   2.464   2.199   7.669  1.2129  0.5289  1.5103
 3021SOL     OW20524   1.974   1.042   8.399 -0.7086  0.1409 -0.0750
 3021SOL    HW120525   1.921   1.028   8.321 -2.5616  3.4652  0.5940
 3021SOL    HW220526   1.967   0.955   8.437 -0.0194 -0.4379 -1.2518
 3022SOL     OW20527   2.459   0.032   4.939  0.4104  0.3609  0.2954
 3022SOL    HW120528   2.524   0.012   5.005  0.4576  0.5156  0.2966
 3022SOL    HW220529   2.412   4.669   4.933  0.0048  0.6809 -1.0635
 3023SOL     OW20530   3.578   1.484   2.624 -0.2072  0.4820  0.3727
 3023SOL    HW120531   3.577   1.481   2.719 -1.1812  1.6751  0.4120
 3023SOL    HW220532   3.589   1.395   2.591  2.2671  0.7466  0.4928
 3024SOL     OW20533   0.368   2.805  11.921 -0.1438 -0.0002  0.2302
 3024SOL    HW120534   0.354   2.726  11.869 -1.2203  2.4395 -3.2226
 3024SOL    HW220535   0.278   2.838  11.930 -0.1905  0.0376 -0.3409
 3025SOL     OW20536   2.181   3.021   3.637 -0.5776 -0.1226  0.1017
 3025SOL    HW120537   2.091   3.053   3.632 -0.9115 -1.1214 -0.1991
 3025SOL    HW220538   2.212   3.069   3.714  1.9209 -2.2028  0.3869
 3026SOL     OW20539   3.121   3.731   1.819 -0.8468 -0.4461  0.0787
 3026SOL    HW120540   3.167   3.814   1.833  1.6863 -1.7566 -0.4580
 3026SOL    HW220541   3.092   3.729   1.727 -2.3677 -1.1111  0.5816
 3027SOL     OW20542   0.265   2.329  16.607  0.3239  0.2407 -1.0523
 3027SOL    HW120543   0.284   2.236  16.597 -0.4666 -0.0450  0.0116
 3027SOL    HW220544   0.187   2.322  16.664  0.6916  1.3535 -0.4107
 3028SOL     OW20545   1.107   1.167   3.190  0.0950 -0.2534  0.0637
 3028SOL    HW120546   1.165   1.129   3.125  0.9095  1.0836  0.0183
 3028SOL    HW220547   1.082   1.246   3.142  1.2878  0.1547  0.1076
 3029SOL     OW20548   0.794   1.865   7.353  0.2399 -0.3862  0.1597
 3029SOL    HW120549   0.878   1.889   7.392  0.0616  1.5630 -0.6845
 3029SOL    HW220550   0.734   1.927   7.393  3.0963  2.1914  0.4743
 3030SOL     OW20551   2.783   0.534  10.057  0.1052  0.4203  0.2180
 3030SOL    HW120552   2.839   0.457  10.068  2.9029  2.0979 -2.2425
 3030SOL    HW220553   2.714   0.503  10.116 -0.4264 -0.4037 -0.8475
 3031SOL     OW20554   4.368   0.014   3.791 -0.3598 -0.0361  0.0489
 3031SOL    HW120555   4.427   0.071   3.841  0.3444  0.6553 -1.5458
 3031SOL    HW220556   4.431   4.715   3.721 -1.3911 -1.2939 -0.5160
 3032SOL     OW20557   3.724   0.872   5.036  0.1744 -0.1666  0.1754
 3032SOL    HW120558   3.775   0.791   5.027  1.9981  0.7148  2.3797
 3032SOL    HW220559   3.781   0.924   5.093 -1.4626  1.5817  0.1956
 3033SOL     OW20560   3.264   0.574   5.810 -0.8907  0.5301  0.4573
 3033SOL    HW120561   3.333   0.613   5.756 -3.8775  1.3347 -2.7297
 3033SOL    HW220562   3.217   0.654   5.833 -1.3352  0.3597  0.1308
 3034SOL     OW20563   3.045   0.226  14.982  0.2105  0.1629  0.0733
 3034SOL    HW120564   2.969   0.248  15.036  0.5870  2.3633 -0.2721
 3034SOL    HW220565   3.016   0.205  14.893 -0.1460 -4.1429  1.2013
 3035SOL     OW20566   2.164   0.083  14.144  0.0328  0.7387  0.4589
 3035SOL    HW120567   2.159   0.171  14.182 -2.2177  0.8264  0.0006
 3035SOL    HW220568   2.254   0.058  14.163  0.4837 -0.0863 -2.8020
 3036SOL     OW20569   4.167   0.852  11.020  0.5873  0.0523  0.0446
 3036SOL    HW120570   4.196   0.814  10.937  0.1294  0.0005 -0.0940
 3036SOL    HW220571   4.110   0.920  10.983 -1.0931  1.3539  5.0210
 3037SOL     OW20572   3.199   2.308  11.305  0.0726 -0.3431 -0.4912
 3037SOL    HW120573   3.182   2.217  11.281 -1.4063 -0.0445 -0.6225
 3037SOL    HW220574   3.177   2.361  11.228 -1.0930 -0.0149  0.0522
 3038SOL     OW20575   4.631   2.939   8.144 -0.0940  0.4392  0.2063
 3038SOL    HW120576   4.652   2.862   8.091 -2.1233  1.8534 -2.6755
 3038SOL    HW220577   4.702   2.946   8.207  1.1822  2.0197 -1.3767
 3039SOL     OW20578   3.520   1.792   8.765  0.3661 -0.2935 -0.8748
 3039SOL    HW120579   3.598   1.744   8.794 -0.8427 -0.8975  1.4200
 3039SOL    HW220580   3.552   1.834   8.686 -0.0303 -0.5957 -1.1983
 3040SOL     OW20581   0.879   4.543   5.840 -0.1626 -0.0746 -0.1545
 3040SOL    HW120582   0.886   4.477   5.771  2.7552  1.2901 -1.1307
 3040SOL    HW220583   0.913   4.498   5.917  1.1055  0.6513 -0.2926
 3041SOL     OW20584   0.617   2.135  10.723  0.3723  0.6293 -0.0540
 3041SOL    HW120585   0.664   2.209  10.762 -0.7612  0.5834  1.3856
 3041SOL    HW220586   0.568   2.105  10.799  1.2063  0.7914  0.5556
 3042SOL     OW20587   1.557   0.438   8.522 -0.1154 -0.0137  0.3905
 3042SOL    HW120588   1.568   0.524   8.562  0.3453  0.7647 -1.4375
 3042SOL    HW220589   1.618   0.452   8.450 -1.3981 -3.7744 -1.4175
 3043SOL     OW20590   3.484   4.558   1.961  0.2001  0.1137  0.0848
 3043SOL    HW120591   3.400   4.540   2.004 -0.3042 -0.6730 -1.2517
 3043SOL    HW220592   3.488   4.472   1.919  1.2788 -0.2600  0.9657
 3044SOL     OW20593   3.394   0.539  11.237  0.2328  0.2434  0.1301
 3044SOL    HW120594   3.405   0.541  11.142 -1.0333 -3.5477 -0.1064
 3044SOL    HW220595   3.431   0.623  11.262  0.5013  0.3936 -0.8005
 3045SOL     OW20596   4.381   2.841   6.258 -0.6474 -0.3721  0.6021
 3045SOL    HW120597   4.343   2.755   6.243  1.5832 -0.8669 -2.2763
 3045SOL    HW220598   4.303   2.894   6.274 -0.8219 -0.1762 -0.9663
 3046SOL     OW20599   2.649   4.434   7.000 -0.0397 -0.2757  0.2368
 3046SOL    HW120600   2.740   4.436   6.970 -0.0603 -0.1422  0.1825
 3046SOL    HW220601   2.601   4.369   6.949 -2.2862 -0.7344  3.0027
 3047SOL     OW20602   1.041   4.649   0.277 -0.1247 -0.5975  1.1432
 3047SOL    HW120603   1.037   4.558   0.306  0.8167 -0.7971  0.6578
 3047SOL    HW220604   1.000   4.699   0.348 -1.8673 -1.5349  0.7926
 3048SOL     OW20605   0.126   1.343  11.834 -0.0756 -0.3187 -0.0835
 3048SOL    HW120606   0.062   1.361  11.903  2.2059  1.2995  1.6244
 3048SOL    HW220607   0.183   1.419  11.846  0.5612 -0.9377  0.8177
 3049SOL     OW20608   0.585   1.573   1.666 -0.2844 -1.0276  0.1632
 3049SOL    HW120609   0.630   1.616   1.739  0.9983  0.4044 -1.4983
 3049SOL    HW220610   0.663   1.554   1.615  2.0870  2.2190  2.5348
 3050SOL     OW20611   2.337   2.538  16.516  0.4837 -0.6814  0.8498
 3050SOL    HW120612   2.382   2.484  16.581  0.5958 -0.1193  1.2305
 3050SOL    HW220613   2.296   2.591  16.583 -1.7997 -0.6882 -0.5583
 3051SOL     OW20614   2.343   2.656   2.046 -0.7947  0.2591 -0.1628
 3051SOL    HW120615   2.374   2.621   2.129  0.8164  0.6700 -0.5948
 3051SOL    HW220616   2.273   2.712   2.080  0.7944  0.8367  2.1060
 3052SOL     OW20617   1.091   3.509   3.896  0.7470  0.0524 -0.3941
 3052SOL    HW120618   1.143   3.507   3.977  0.0083  1.0295  0.1047
 3052SOL    HW220619   1.088   3.604   3.893  0.5687  0.0275 -0.9796
 3053SOL     OW20620   3.520   0.658   6.470  0.3105  0.1362 -0.4173
 3053SOL    HW120621   3.540   0.635   6.379 -0.7414  1.2032 -0.9078
 3053SOL    HW220622   3.611   0.658   6.499  0.0368 -1.1803  0.4863
 3054SOL     OW20623   0.979   2.055  10.292  1.0002  0.6442 -0.4797
 3054SOL    HW120624   1.028   2.101  10.360 -0.6499  3.1933 -1.0050
 3054SOL    HW220625   1.050   2.042  10.231  2.4520 -2.0517  1.7989
 3055SOL     OW20626   1.492   1.590  13.190  0.0469  0.1566  0.5370
 3055SOL    HW120627   1.533   1.607  13.105 -0.2676  1.7221  0.6927
 3055SOL    HW220628   1.545   1.516  13.219 -0.6865 -1.2974 -1.8426
 3056SOL     OW20629   3.945   3.482   8.950  0.4933  0.2756  0.0005
 3056SOL    HW120630   3.967   3.458   8.860  0.4345  1.0757 -0.2298
 3056SOL    HW220631   3.859   3.441   8.942  1.0500 -0.7329 -0.6786
 3057SOL     OW20632   3.925   2.042   3.770 -0.6780 -0.3901 -0.4942
 3057SOL    HW120633   3.929   2.074   3.680 -3.3161 -1.0347 -0.8231
 3057SOL    HW220634   3.836   2.071   3.789 -0.2479  0.4960  0.1550
 3058SOL     OW20635   0.321   2.198  14.452 -0.2869 -0.0438 -0.4182
 3058SOL    HW120636   0.315   2.103  14.450 -1.7999  0.0629 -1.4905
 3058SOL    HW220637   0.364   2.208  14.367 -0.0584 -0.3218 -0.3350
 3059SOL     OW20638   3.688   2.212   5.510 -0.8165 -0.9893  0.0784
 3059SOL    HW120639   3.693   2.122   5.540 -0.0775 -0.4861  1.4544
 3059SOL    HW220640   3.711   2.263   5.588 -0.4970 -0.3868 -0.4056
 3060SOL     OW20641   0.556   3.480   8.242 -0.1059 -0.0756  0.2348
 3060SOL    HW120642   0.526   3.464   8.153 -0.2558  0.2971  0.2176
 3060SOL    HW220643   0.638   3.431   8.243  0.1377  0.3211 -0.4327
 3061SOL     OW20644   4.459   4.046   6.322  0.1561 -0.3562  0.3430
 3061SOL    HW120645   4.490   3.976   6.380  3.8582  0.1942 -0.9355
 3061SOL    HW220646   4.521   4.116   6.341  1.3607 -1.7919  1.7276
 3062SOL     OW20647   3.107   4.447  12.092  0.3703  0.0847  0.2059
 3062SOL    HW120648   3.171   4.441  12.021 -2.3629  0.9297 -2.3319
 3062SOL    HW220649   3.115   4.536  12.125  4.5825 -0.5397  0.8807
 3063SOL     OW20650   2.528   2.628   0.517 -0.6641 -0.5725  0.0081
 3063SOL    HW120651   2.500   2.537   0.525 -1.0289 -0.4910 -0.3804
 3063SOL    HW220652   2.523   2.666   0.605 -0.2545  0.1238 -0.2734
 3064SOL     OW20653   1.644   2.623   4.028 -0.3123 -0.0641  0.5952
 3064SOL    HW120654   1.581   2.555   4.053 -2.2532  0.5943 -2.4773
 3064SOL    HW220655   1.621   2.629   3.935  0.6052  2.0713  0.5088
 3065SOL     OW20656   1.768   2.136  10.591 -0.3275 -0.2101  0.1494
 3065SOL    HW120657   1.677   2.106  10.599 -0.1480  0.0241  2.9852
 3065SOL    HW220658   1.780   2.184  10.673 -0.8234  0.0115  0.0942
 3066SOL     OW20659   0.988   4.315   3.098  0.3847  0.4681  0.2719
 3066SOL    HW120660   0.910   4.357   3.060  0.8508  1.0682 -0.0225
 3066SOL    HW220661   1.004   4.264   3.019 -2.0183 -1.5034  1.0579
 3067SOL     OW20662   0.950   3.168   2.230  0.1288  0.0534 -0.2166
 3067SOL    HW120663   1.001   3.236   2.274  1.0536  0.2044 -1.5275
 3067SOL    HW220664   0.920   3.213   2.151 -0.0418 -1.3903 -0.9703
 3068SOL     OW20665   0.635   3.404   6.361  0.6334  0.1542 -0.4378
 3068SOL    HW120666   0.560   3.404   6.421 -0.3088 -1.7077 -1.5967
 3068SOL    HW220667   0.646   3.309   6.348  2.0608  0.4299 -1.1988
 3069SOL     OW20668   4.433   3.816   8.186  1.0206 -0.1946  0.3399
 3069SOL    HW120669   4.419   3.894   8.239  0.7568  0.3779 -0.5550
 3069SOL    HW220670   4.362   3.758   8.212  1.1848 -0.2524  0.6598
 3070SOL     OW20671   3.032   3.240   9.183  0.3186 -0.0157 -0.3483
 3070SOL    HW120672   3.070   3.179   9.246 -0.1003  2.1633  1.9806
 3070SOL    HW220673   2.998   3.176   9.120  0.0517  1.3676 -1.6105
 3071SOL     OW20674   3.558   4.484   7.041  0.2100  0.0934 -0.3426
 3071SOL    HW120675   3.479   4.457   6.993  1.3030 -0.5653 -1.7846
 3071SOL    HW220676   3.556   4.418   7.109  0.4957 -0.3368 -0.7512
 3072SOL     OW20677   1.743   4.103   5.522  0.4020 -0.5394  0.3088
 3072SOL    HW120678   1.672   4.044   5.498  1.0644 -2.0773  2.0615
 3072SOL    HW220679   1.815   4.079   5.464 -0.2627  0.8003 -1.0334
 3073SOL     OW20680   3.040   4.377   4.399 -0.3376  0.3606  0.0195
 3073SOL    HW120681   2.973   4.419   4.454  1.1953  0.6916  1.6174
 3073SOL    HW220682   3.114   4.420   4.441  0.4355 -0.5480 -0.4176
 3074SOL     OW20683   2.564   0.763  12.263 -0.2608 -0.2630  0.0386
 3074SOL    HW120684   2.603   0.840  12.304  1.1632 -1.6496  1.2762
 3074SOL    HW220685   2.559   0.786  12.170  0.3977  0.2228  0.1208
 3075SOL     OW20686   0.761   2.871   2.346  0.4193  0.2015 -0.4130
 3075SOL    HW120687   0.711   2.885   2.266  1.8300  0.1836 -1.2923
 3075SOL    HW220688   0.847   2.853   2.308  0.0836  1.8395 -1.9712
 3076SOL     OW20689   0.355   2.680   6.594  0.0474 -0.2661  0.3149
 3076SOL    HW120690   0.392   2.731   6.522  0.0499  1.2933  1.4103
 3076SOL    HW220691   0.286   2.634   6.546  1.2456 -1.2951 -0.3991
 3077SOL     OW20692   3.374   1.575   5.723 -0.2698  0.1262  1.0478
 3077SOL    HW120693   3.328   1.604   5.644  4.5492  1.5672 -1.2242
 3077SOL    HW220694   3.301   1.537   5.772 -0.8111  0.5811  0.6044
 3078SOL     OW20695   1.400   4.671   3.548 -0.4261 -0.0860 -0.6011
 3078SOL    HW120696   1.426   4.704   3.462 -1.0941 -0.5385 -0.9650
 3078SOL    HW220697   1.464   4.706   3.611  1.1073 -2.4961 -0.8220
 3079SOL     OW20698   0.546   2.651  11.682  0.2694 -0.2894 -0.4548
 3079SOL    HW120699   0.454   2.641  11.708  0.5031  0.1680  0.5506
 3079SOL    HW220700   0.538   2.618  11.593  2.3190  0.3856 -0.8702
 3080SOL     OW20701   3.880   0.429   3.516 -0.0247 -0.0632 -0.0527
 3080SOL    HW120702   3.960   0.393   3.556 -1.3341 -1.1447  1.5863
 3080SOL    HW220703   3.914   0.417   3.427  1.0538  1.4122  0.1602
 3081SOL     OW20704   1.604   1.220   1.965 -0.0672  0.6783  0.4969
 3081SOL    HW120705   1.662   1.271   1.908  0.3398 -0.3453 -0.0072
 3081SOL    HW220706   1.557   1.290   2.011 -1.4446 -0.4466  0.8224
 3082SOL     OW20707   3.253   4.022   2.897  0.8183  0.0466 -0.2083
 3082SOL    HW120708   3.327   3.965   2.913 -0.4080 -1.4223  0.2452
 3082SOL    HW220709   3.261   4.031   2.802 -2.7350 -1.0168 -0.6303
 3083SOL     OW20710   0.980   1.907  10.717 -0.3494 -0.0566  0.2408
 3083SOL    HW120711   0.958   1.976  10.779  1.8417  0.6528  0.2297
 3083SOL    HW220712   1.010   1.836  10.775 -1.2610 -1.1440 -0.6201
 3084SOL     OW20713   2.629   4.346  17.326  0.4902 -0.4152  0.9663
 3084SOL    HW120714   2.621   4.271  17.268 -1.9122  0.2021  0.5035
 3084SOL    HW220715   2.549   4.338  17.378 -0.1303  2.4225  0.4878
 3085SOL     OW20716   0.020   4.314  13.295 -0.0145  0.0148  0.7394
 3085SOL    HW120717   4.688   4.393  13.308  1.3981  1.1188 -0.1460
 3085SOL    HW220718   0.039   4.287  13.384  0.0858 -3.4463 -0.3395
 3086SOL     OW20719   2.151   4.266   8.979  0.1052 -0.8582  0.0871
 3086SOL    HW120720   2.073   4.297   8.934 -0.0706 -1.0229  0.2816
 3086SOL    HW220721   2.157   4.175   8.950  1.6583 -1.0015  0.8529
 3087SOL     OW20722   3.993   3.474  16.448 -0.0491  0.2419  0.1003
 3087SOL    HW120723   4.066   3.528  16.477 -0.4605  0.5933  0.4799
 3087SOL    HW220724   4.038   3.415  16.387  0.1132 -1.1044  1.5224
 3088SOL     OW20725   3.731   0.627  10.199 -0.1603 -0.1287  0.4044
 3088SOL    HW120726   3.701   0.711  10.234 -0.3227 -0.6488  1.5019
 3088SOL    HW220727   3.723   0.650  10.106 -0.7715 -2.0059 -0.0076
 3089SOL     OW20728   4.075   4.633   1.837 -0.1007 -0.1253  0.9657
 3089SOL    HW120729   4.153   4.592   1.875  0.6693  0.1753 -0.2771
 3089SOL    HW220730   4.045   4.552   1.796  2.3508  0.3361 -1.7702
 3090SOL     OW20731   1.331   4.070   1.076  0.1836 -0.1780  0.4940
 3090SOL    HW120732   1.360   4.131   1.009 -0.6340  0.6693  0.9070
 3090SOL    HW220733   1.290   4.130   1.138  1.4861  0.7789  0.4312
 3091SOL     OW20734   0.608   2.767   4.880  0.5588 -0.0613 -0.3289
 3091SOL    HW120735   0.625   2.792   4.971 -2.5044  2.1152 -0.3493
 3091SOL    HW220736   0.670   2.826   4.837  0.1599 -0.1475 -1.0196
 3092SOL     OW20737   0.427   1.490   8.712  0.2556 -0.2089  0.4141
 3092SOL    HW120738   0.500   1.453   8.663  0.9063  3.3637 -1.2856
 3092SOL    HW220739   0.460   1.578   8.731 -2.5709  0.7458  0.9677
 3093SOL     OW20740   1.142   1.004   8.299 -0.2176 -0.2829  0.3253
 3093SOL    HW120741   1.166   1.030   8.388  2.0953 -1.1285 -0.0467
 3093SOL    HW220742   1.167   1.078   8.245 -0.2964 -0.7854 -0.3981
 3094SOL     OW20743   3.750   0.091   6.547  0.1754  0.2268 -0.5607
 3094SOL    HW120744   3.676   0.144   6.517  1.9377  2.1823 -1.4195
 3094SOL    HW220745   3.697   0.032   6.601  0.9205  0.0096 -0.0715
 3095SOL     OW20746   4.231   3.790  12.409  0.0699 -0.1460 -0.8871
 3095SOL    HW120747   4.301   3.725  12.401 -0.9626 -1.3660 -0.2054
 3095SOL    HW220748   4.185   3.775  12.492  1.1162  0.7414 -0.1519
 3096SOL     OW20749   4.188   3.730   5.331  0.0434 -0.2215  0.4290
 3096SOL    HW120750   4.239   3.794   5.382  1.0083  0.0024 -0.8259
 3096SOL    HW220751   4.267   3.684   5.303 -0.8974 -1.3763 -0.3159
 3097SOL     OW20752   2.454   2.798   3.307 -0.7646 -0.0440  0.4206
 3097SOL    HW120753   2.510   2.791   3.229  1.8225  1.7982  2.1331
 3097SOL    HW220754   2.516   2.813   3.378 -1.3174  1.7582  0.5211
 3098SOL     OW20755   0.744   3.389   1.936 -0.9319  0.2441  0.7050
 3098SOL    HW120756   0.761   3.436   1.854 -1.1763 -0.4364  0.2703
 3098SOL    HW220757   0.802   3.314   1.950 -0.5731  0.4264  0.1790
 3099SOL     OW20758   4.587   1.884   5.063 -0.0547 -0.4459  0.4905
 3099SOL    HW120759   4.611   1.898   4.971  0.9589 -1.0227  0.6693
 3099SOL    HW220760   4.618   1.963   5.108  1.3420  0.3092 -1.7900
 3100SOL     OW20761   4.489   1.603   6.693 -0.4781  0.6300  0.4310
 3100SOL    HW120762   4.561   1.541   6.695 -0.0992  1.0016 -1.6942
 3100SOL    HW220763   4.543   1.681   6.682 -1.5914  1.6051  1.8975
 3101SOL     OW20764   0.279   1.794   3.598 -0.3084  0.6122 -0.2700
 3101SOL    HW120765   0.297   1.878   3.640  0.8840 -0.4538  1.3673
 3101SOL    HW220766   0.183   1.796   3.604 -0.2993 -0.2186  0.2903
 3102SOL     OW20767   4.517   3.156   7.213  0.3309  0.3671  0.4798
 3102SOL    HW120768   4.469   3.235   7.235  1.0141  0.8574  0.2031
 3102SOL    HW220769   4.503   3.167   7.119 -0.4890  0.2928  0.5923
 3103SOL     OW20770   2.995   0.166   7.261 -0.8104  0.0707 -0.6912
 3103SOL    HW120771   2.957   0.079   7.254  3.9376 -2.2159  1.3369
 3103SOL    HW220772   3.049   0.160   7.182 -0.8275 -0.8119 -0.6349
 3104SOL     OW20773   1.642   3.249   7.205  0.2594  0.2537  0.3758
 3104SOL    HW120774   1.659   3.155   7.201 -1.7289 -0.0915  0.3184
 3104SOL    HW220775   1.615   3.284   7.120 -2.6203 -0.7030  0.8981
 3105SOL     OW20776   3.506   1.557   1.735  0.3573 -0.0897 -0.2372
 3105SOL    HW120777   3.425   1.533   1.779  0.4106 -0.3751 -0.2941
 3105SOL    HW220778   3.562   1.480   1.747 -0.4142 -0.1584  2.6848
 3106SOL     OW20779   0.426   2.360  14.660  0.0053 -0.3824  0.1470
 3106SOL    HW120780   0.370   2.433  14.631  0.6903  0.3333  0.6371
 3106SOL    HW220781   0.396   2.290  14.602  0.7277 -0.1479 -0.5018
 3107SOL     OW20782   0.753   3.392  14.071  0.2522 -0.4867 -0.0170
 3107SOL    HW120783   0.723   3.483  14.074  3.4455  0.4976  1.4246
 3107SOL    HW220784   0.745   3.375  14.165  0.4371  1.3951  0.3392
 3108SOL     OW20785   0.141   3.405   7.251  1.0739 -0.2068 -0.0536
 3108SOL    HW120786   0.229   3.441   7.254  0.3915  1.3210  1.5769
 3108SOL    HW220787   0.103   3.446   7.328  0.9625  2.5210 -1.5847
 3109SOL     OW20788   2.382   4.511  15.237  0.2547 -0.7022 -0.3668
 3109SOL    HW120789   2.382   4.461  15.318 -1.2200 -0.4324 -0.2113
 3109SOL    HW220790   2.477   4.518  15.227  0.1066 -0.7487 -1.8267
 3110SOL     OW20791   0.888   4.193  12.400  0.0265 -0.4631 -0.2043
 3110SOL    HW120792   0.912   4.262  12.338  1.9939  0.3094  1.4175
 3110SOL    HW220793   0.817   4.231  12.451  1.2117 -1.6824  2.3736
 3111SOL     OW20794   4.457   1.894   6.959  0.0652  0.1136 -0.0406
 3111SOL    HW120795   4.534   1.898   7.016  0.3881  2.0044 -0.5948
 3111SOL    HW220796   4.444   1.987   6.939 -1.2492  0.2581  1.4574
 3112SOL     OW20797   4.355   4.584   4.485  0.0115 -0.4648  0.4870
 3112SOL    HW120798   4.264   4.583   4.455 -0.4233 -1.3309  1.8405
 3112SOL    HW220799   4.343   4.563   4.578  2.3772 -0.1140  0.8648
 3113SOL     OW20800   2.011   1.502   8.354  0.0960  0.0632  0.0831
 3113SOL    HW120801   2.044   1.436   8.293  0.9077  1.4757 -1.0145
 3113SOL    HW220802   1.999   1.576   8.294  0.6843 -0.3085 -0.4884
 3114SOL     OW20803   3.717   0.813   7.934  0.7264  0.0562  0.2456
 3114SOL    HW120804   3.724   0.843   7.844 -0.2805  0.1834  0.2108
 3114SOL    HW220805   3.782   0.870   7.974  2.3978 -1.1256 -0.8149
 3115SOL     OW20806   3.723   0.842   6.590 -0.0563 -1.1669  0.0724
 3115SOL    HW120807   3.731   0.873   6.680  1.3826  0.5266 -0.6527
 3115SOL    HW220808   3.663   0.911   6.564  1.9067  0.6740  0.4455
 3116SOL     OW20809   2.887   4.104  15.418  0.4826  0.4256  0.0196
 3116SOL    HW120810   2.966   4.110  15.472  0.3632 -0.0948  0.2506
 3116SOL    HW220811   2.910   4.024  15.371  0.9739 -0.5268  1.8975
 3117SOL     OW20812   1.577   4.295  13.839 -0.3872 -0.0651 -0.1196
 3117SOL    HW120813   1.652   4.299  13.780  0.5626 -0.4769  1.0469
 3117SOL    HW220814   1.515   4.340  13.782 -1.6420 -1.8332 -0.1580
 3118SOL     OW20815   1.621   1.592   8.618  0.0587  0.4629  0.0663
 3118SOL    HW120816   1.601   1.625   8.530  2.4784 -0.5642 -0.8803
 3118SOL    HW220817   1.595   1.500   8.621  0.7982  0.2951  1.3393
 3119SOL     OW20818   0.422   0.882  13.439  0.2626  0.3743 -0.1008
 3119SOL    HW120819   0.480   0.835  13.498  0.6713 -0.2891 -1.0227
 3119SOL    HW220820   0.453   0.859  13.351 -1.6339 -2.2798 -0.0809
 3120SOL     OW20821   1.236   0.175   6.171 -0.6503  0.5243  0.7555
 3120SOL    HW120822   1.257   0.186   6.078  2.1809  2.5296  1.6378
 3120SOL    HW220823   1.322   0.180   6.212 -0.1978  0.3538 -0.1779
 3121SOL     OW20824   0.779   0.550   6.501  0.5032  0.4250 -0.1993
 3121SOL    HW120825   0.762   0.628   6.449  0.5489 -0.3407 -1.3558
 3121SOL    HW220826   0.848   0.571   6.563  0.8416  2.0670 -1.1449
 3122SOL     OW20827   1.276   3.176  11.157 -0.0855 -0.0225  0.1160
 3122SOL    HW120828   1.256   3.209  11.245 -0.9795 -1.9717  0.6253
 3122SOL    HW220829   1.351   3.233  11.138  1.2644 -1.8906 -0.2267
 3123SOL     OW20830   1.076   0.469   8.078  0.7015  0.0515 -0.3645
 3123SOL    HW120831   1.156   0.417   8.092  1.5663  1.4215 -0.1823
 3123SOL    HW220832   1.096   0.538   8.140 -0.7454  1.4442 -1.4468
 3124SOL     OW20833   3.178   1.045  14.272  0.3121  0.1052 -0.8233
 3124SOL    HW120834   3.206   1.024  14.361  2.8089  0.0713 -1.6280
 3124SOL    HW220835   3.261   1.032  14.226  1.5716 -1.2936  1.8494
 3125SOL     OW20836   2.971   0.277  16.586 -0.0473 -0.0054 -0.1452
 3125SOL    HW120837   3.014   0.250  16.505 -2.8538 -2.1135 -0.9184
 3125SOL    HW220838   2.947   0.188  16.611 -0.0266 -0.0813 -0.3913
 3126SOL     OW20839   0.808   0.427   8.202 -1.0578  0.1615  0.0968
 3126SOL    HW120840   0.853   0.345   8.223 -0.1640  0.4542 -0.6773
 3126SOL    HW220841   0.878   0.480   8.165 -1.0096  2.4184  3.3604
 3127SOL     OW20842   3.265   4.538   1.181  0.0296 -0.3170  0.1978
 3127SOL    HW120843   3.175   4.563   1.160 -1.1324 -3.6079  1.1942
 3127SOL    HW220844   3.233   4.471   1.242 -0.3242  0.3444  0.7323
 3128SOL     OW20845   4.619   2.844   5.119  0.1474 -0.0621  0.5858
 3128SOL    HW120846   4.689   2.890   5.073 -0.1914  0.5853  0.7119
 3128SOL    HW220847   4.557   2.847   5.047 -0.3054  0.4615  0.9956
 3129SOL     OW20848   3.672   1.632   5.353  0.1271 -0.1255 -0.5062
 3129SOL    HW120849   3.659   1.722   5.382 -2.4792 -1.1837  1.5954
 3129SOL    HW220850   3.748   1.645   5.296 -0.8964  1.0103 -1.6363
 3130SOL     OW20851   3.487   3.615   4.658 -0.5648 -0.7671 -0.4504
 3130SOL    HW120852   3.511   3.706   4.673  2.7610 -1.9066  1.2054
 3130SOL    HW220853   3.392   3.620   4.673 -0.5303 -1.1359 -0.1014
 3131SOL     OW20854   2.452   0.601  12.937  0.0908 -0.6153 -0.2748
 3131SOL    HW120855   2.430   0.598  13.030  0.0976 -1.2712 -0.2987
 3131SOL    HW220856   2.546   0.621  12.935 -0.0555  0.3319  1.9219
 3132SOL     OW20857   4.051   0.029   8.050  0.2272  0.0649 -0.1995
 3132SOL    HW120858   3.984   4.717   8.111  1.0345  0.3113  0.8186
 3132SOL    HW220859   4.127   0.036   8.107 -0.0751  0.5087  0.1542
 3133SOL     OW20860   0.473   3.923   5.309  0.2621  0.5861  0.5428
 3133SOL    HW120861   0.482   3.845   5.364 -0.9296 -0.4215 -0.6991
 3133SOL    HW220862   0.507   3.992   5.367 -0.6884  1.2564  0.3160
 3134SOL     OW20863   3.855   1.261   3.537 -0.3802 -0.2828 -0.1150
 3134SOL    HW120864   3.886   1.171   3.527  0.5223 -0.0076  0.1482
 3134SOL    HW220865   3.785   1.275   3.474 -0.3926  1.1435  0.2024
 3135SOL     OW20866   2.788   4.460   4.550 -0.2457 -0.1006  0.2407
 3135SOL    HW120867   2.736   4.500   4.619 -0.8956 -0.7265  0.1021
 3135SOL    HW220868   2.741   4.494   4.474 -1.3009  0.0074  0.9391
 3136SOL     OW20869   2.288   3.710  10.553 -0.3942 -0.0279  0.1771
 3136SOL    HW120870   2.278   3.616  10.568  1.9826 -0.5044 -1.2510
 3136SOL    HW220871   2.202   3.743  10.580  0.2782 -0.3440  2.6994
 3137SOL     OW20872   2.910   3.426  10.060 -0.4618  0.0198  0.0245
 3137SOL    HW120873   2.915   3.381  10.144 -3.5492 -0.1833  0.0865
 3137SOL    HW220874   2.904   3.517  10.091 -1.2464 -0.0018 -0.0705
 3138SOL     OW20875   1.228   0.953   7.734 -0.2005  0.6181 -0.1216
 3138SOL    HW120876   1.279   0.949   7.815  0.8649 -0.9471 -0.8815
 3138SOL    HW220877   1.170   0.878   7.724 -3.1112  2.7821  0.2999
 3139SOL     OW20878   3.734   0.970   1.924  0.1872  0.1036 -0.4470
 3139SOL    HW120879   3.744   1.029   1.849 -1.9022 -0.1630 -0.9472
 3139SOL    HW220880   3.662   1.014   1.970 -0.2249  0.2000 -1.1804
 3140SOL     OW20881   1.127   1.616   9.531  0.0070 -0.0502 -0.3872
 3140SOL    HW120882   1.154   1.527   9.554 -1.0835 -0.0394  0.9130
 3140SOL    HW220883   1.128   1.616   9.435  4.3830 -1.8954 -0.3559
 3141SOL     OW20884   2.690   1.500   0.777 -0.2205 -0.4810  0.1066
 3141SOL    HW120885   2.752   1.534   0.842 -0.5601  1.4470 -0.5797
 3141SOL    HW220886   2.739   1.432   0.731  1.4573  1.0894 -0.4197
 3142SOL     OW20887   2.426   0.064   3.705 -0.7244  0.4047  1.0723
 3142SOL    HW120888   2.354   0.033   3.760  0.4088 -2.8597  0.7321
 3142SOL    HW220889   2.413   0.157   3.723 -0.9364  1.4181 -4.3041
 3143SOL     OW20890   1.377   0.736   2.320 -0.1091  0.1812 -0.0328
 3143SOL    HW120891   1.362   0.830   2.304  3.5671  0.7992  0.1544
 3143SOL    HW220892   1.325   0.721   2.398 -0.4144 -2.0929 -0.6840
 3144SOL     OW20893   0.770   1.987  10.552  0.3538  0.4757  0.1686
 3144SOL    HW120894   0.827   1.933  10.606  0.5358 -1.0790 -1.5560
 3144SOL    HW220895   0.721   2.047  10.608  0.5191  0.4830  0.3021
 3145SOL     OW20896   2.153   2.470   6.009  0.5869  0.1210 -0.1166
 3145SOL    HW120897   2.137   2.560   5.982 -2.4029 -0.9198 -1.7848
 3145SOL    HW220898   2.248   2.468   6.019  0.6389 -3.2588 -1.1936
 3146SOL     OW20899   3.649   0.882  14.790 -0.6633  0.7486 -0.2381
 3146SOL    HW120900   3.662   0.822  14.716 -0.6442 -1.3775  1.4777
 3146SOL    HW220901   3.613   0.956  14.742 -0.5073  1.5984  0.9654
 3147SOL     OW20902   1.195   0.071   3.269 -0.0299 -0.5872 -0.7622
 3147SOL    HW120903   1.157   0.051   3.355  1.7546 -2.1603 -0.3594
 3147SOL    HW220904   1.183   4.705   3.232 -1.6535 -0.0734 -1.4569
 3148SOL     OW20905   3.993   1.785   2.492  0.5985 -0.2742 -0.5565
 3148SOL    HW120906   3.995   1.863   2.437 -2.9006  1.5078  1.8299
 3148SOL    HW220907   3.904   1.764   2.464  0.8947 -0.1284 -1.6102
 3149SOL     OW20908   3.619   3.879   5.786  0.2878 -0.2381 -0.2925
 3149SOL    HW120909   3.675   3.957   5.787  1.6104 -1.1684 -1.8596
 3149SOL    HW220910   3.678   3.804   5.782  2.9203  1.8341 -0.1558
 3150SOL     OW20911   4.138   1.262   5.589 -0.2170 -0.2994  0.4999
 3150SOL    HW120912   4.064   1.272   5.648  0.6294 -3.2201  2.0725
 3150SOL    HW220913   4.194   1.200   5.637  1.6230 -0.2280 -1.5505
 3151SOL     OW20914   1.904   3.529  12.240 -0.2806  0.1840 -0.8161
 3151SOL    HW120915   1.825   3.582  12.228 -0.2354  0.4722  0.1554
 3151SOL    HW220916   1.935   3.491  12.158  2.6996  0.1214  0.3445
 3152SOL     OW20917   1.026   0.722   3.679 -0.2789  0.0952 -0.4232
 3152SOL    HW120918   1.013   0.803   3.728 -0.7812  1.1453 -2.2912
 3152SOL    HW220919   0.978   0.658   3.732  0.2190  1.2123  1.3376
 3153SOL     OW20920   2.182   3.735   8.480 -0.3733 -0.1344 -0.5942
 3153SOL    HW120921   2.223   3.701   8.401 -1.5945  1.8433 -2.0549
 3153SOL    HW220922   2.093   3.699   8.476  0.7791 -2.9173 -1.0676
 3154SOL     OW20923   3.395   2.751  10.870 -0.1398 -0.0975 -0.1478
 3154SOL    HW120924   3.356   2.813  10.932  1.0060  2.4969 -2.0211
 3154SOL    HW220925   3.461   2.715  10.930 -1.1175  3.2951  2.9259
 3155SOL     OW20926   1.311   0.549   9.665 -0.3537 -0.6477 -0.1520
 3155SOL    HW120927   1.287   0.460   9.688 -0.4987 -0.6460 -0.2936
 3155SOL    HW220928   1.353   0.587   9.742  1.5889 -0.2642 -1.3936
 3156SOL     OW20929   4.087   4.143   7.020  0.1054  0.3413  0.1123
 3156SOL    HW120930   4.075   4.060   6.975  1.2702  0.8874 -1.2224
 3156SOL    HW220931   4.002   4.187   7.018 -0.8961 -1.6766 -0.8801
 3157SOL     OW20932   2.904   1.848   9.296  0.0012  0.3850  0.1055
 3157SOL    HW120933   2.917   1.763   9.340 -1.4899  0.0456 -0.1156
 3157SOL    HW220934   2.926   1.900   9.373 -0.1990 -0.5364  0.7951
 3158SOL     OW20935   0.531   4.112   5.576 -0.3051 -0.4398 -0.4644
 3158SOL    HW120936   0.490   4.194   5.604  0.8299  0.4504 -1.4156
 3158SOL    HW220937   0.576   4.098   5.660  1.6792 -0.4950 -1.5287
 3159SOL     OW20938   1.920   2.895  16.950  0.3034 -0.1288 -0.2069
 3159SOL    HW120939   1.859   2.890  17.024  1.6541 -1.1759  0.8209
 3159SOL    HW220940   1.858   2.884  16.878  0.6719  0.3669 -0.5976
 3160SOL     OW20941   0.734   0.614   4.524  0.1846  0.4096  0.3399
 3160SOL    HW120942   0.677   0.659   4.587  2.7118  1.8519  1.6109
 3160SOL    HW220943   0.767   0.697   4.489 -1.7676  1.0996  0.1312
 3161SOL     OW20944   0.921   0.408   3.343  0.3057 -0.1289 -0.7148
 3161SOL    HW120945   0.872   0.462   3.281  1.0027 -1.0756 -2.0806
 3161SOL    HW220946   1.006   0.450   3.352  1.1080 -2.3747  2.6721
 3162SOL     OW20947   1.843   0.641   6.882  0.0853 -0.0331  0.3452
 3162SOL    HW120948   1.932   0.664   6.906 -0.9332  2.2541  1.8692
 3162SOL    HW220949   1.848   0.675   6.793 -2.1800 -0.1272  0.1705
 3163SOL     OW20950   2.635   2.859   3.520  0.1508  0.2753  0.2147
 3163SOL    HW120951   2.640   2.945   3.561  1.0844 -0.2542  1.2058
 3163SOL    HW220952   2.720   2.857   3.477  0.3245  0.5009  0.5434
 3164SOL     OW20953   3.818   3.546   3.364 -0.0294  0.2068 -0.0332
 3164SOL    HW120954   3.907   3.516   3.383 -0.0280 -0.2330 -0.7383
 3164SOL    HW220955   3.838   3.639   3.349 -1.7564  0.7416  1.0815
 3165SOL     OW20956   3.422   2.011   7.474 -0.0615 -0.4633  0.0150
 3165SOL    HW120957   3.425   2.014   7.379 -0.5750 -0.4382 -0.0006
 3165SOL    HW220958   3.511   2.039   7.498 -1.0179  1.0321  1.9178
 3166SOL     OW20959   2.600   4.171   3.211  0.6203 -0.4293  0.9229
 3166SOL    HW120960   2.542   4.162   3.286 -1.5617  1.0716 -0.5695
 3166SOL    HW220961   2.601   4.081   3.178  2.5418 -0.2649  0.5014
 3167SOL     OW20962   0.402   2.101   5.407  0.1423 -0.1408 -0.4778
 3167SOL    HW120963   0.436   2.181   5.447 -0.0254 -0.1344 -0.3470
 3167SOL    HW220964   0.310   2.109   5.430  0.1103  0.5905 -0.8747
 3168SOL     OW20965   0.075   4.350   6.536  0.4035 -0.2392  0.2820
 3168SOL    HW120966   0.150   4.329   6.481 -0.3677 -0.8812 -0.5190
 3168SOL    HW220967   0.005   4.316   6.481  2.0464  0.0810 -1.9889
 3169SOL     OW20968   4.594   2.090  15.136 -0.3516  0.4777  0.0466
 3169SOL    HW120969   4.620   2.155  15.201  0.0813  0.2971  0.0517
 3169SOL    HW220970   4.661   2.115  15.072  0.5638  0.3057  0.9409
 3170SOL     OW20971   4.688   2.369   5.473 -0.2085  0.1195 -0.3899
 3170SOL    HW120972   0.045   2.357   5.527 -1.6015 -0.2434  1.5504
 3170SOL    HW220973   0.009   2.379   5.388  2.7779 -0.6419  0.9875
 3171SOL     OW20974   0.086   1.456  15.759 -0.6475  0.2043 -0.3132
 3171SOL    HW120975   0.083   1.537  15.708  0.0534 -0.5746 -1.5740
 3171SOL    HW220976   0.166   1.412  15.731 -1.3668 -1.5366  0.3454
 3172SOL     OW20977   4.575   0.396   7.731  0.0265  0.1142 -0.0838
 3172SOL    HW120978   4.537   0.441   7.655  0.6977  0.9787  0.0996
 3172SOL    HW220979   4.648   0.348   7.690 -1.7184 -2.1335 -0.5454
 3173SOL     OW20980   1.037   3.608   6.893 -0.1796 -0.2259  0.1034
 3173SOL    HW120981   1.046   3.665   6.817 -1.8145 -1.3830 -0.9616
 3173SOL    HW220982   1.124   3.568   6.894  0.2374  0.6523 -1.0255
 3174SOL     OW20983   1.991   1.080   3.529  0.0068  0.5252 -0.2583
 3174SOL    HW120984   2.043   1.023   3.585 -0.6705 -0.2581 -0.4351
 3174SOL    HW220985   2.046   1.158   3.518 -0.6547  1.2449  1.5188
 3175SOL     OW20986   1.289   1.362  13.121 -0.0027 -0.0366  0.0011
 3175SOL    HW120987   1.334   1.446  13.134 -2.3444  1.4356 -1.4713
 3175SOL    HW220988   1.262   1.358  13.212  1.1565  1.5336  0.4127
 3176SOL     OW20989   1.622   1.666   8.366 -0.5613  0.5194 -0.5542
 3176SOL    HW120990   1.685   1.738   8.371 -0.7032  0.5312  0.9630
 3176SOL    HW220991   1.670   1.593   8.327  1.0220  1.8876 -1.1831
 3177SOL     OW20992   0.875   2.639  17.132  0.2774 -0.2417 -0.7350
 3177SOL    HW120993   0.963   2.625  17.167 -0.1985 -0.3379  0.4217
 3177SOL    HW220994   0.874   2.734  17.147 -1.3014 -0.5047  0.8198
 3178SOL     OW20995   2.435   0.254   6.021 -0.0133  0.3625  0.4143
 3178SOL    HW120996   2.362   0.245   6.082  0.1970 -0.8846  0.4771
 3178SOL    HW220997   2.448   0.162   5.998 -3.5921  0.1308 -0.6200
 3179SOL     OW20998   1.168   0.507  15.918 -0.4511  0.1900 -0.4064
 3179SOL    HW120999   1.107   0.483  15.848  0.5623 -0.7438 -0.9670
 3179SOL    HW221000   1.166   0.422  15.961  1.6418  1.0511  1.3846
 3180SOL     OW21001   1.064   2.660   8.044  0.0068  0.4109 -0.4307
 3180SOL    HW121002   1.038   2.570   8.062  1.6842 -0.5617 -2.9489
 3180SOL    HW221003   1.039   2.712   8.121  0.4525 -1.3165  0.8820
 3181SOL     OW21004   0.469   4.535   9.045  0.4036 -0.0181  0.3493
 3181SOL    HW121005   0.494   4.456   9.092 -1.4692 -0.4708  0.6194
 3181SOL    HW221006   0.476   4.502   8.955  2.6425  1.1429  0.1217
 3182SOL     OW21007   4.197   0.724   7.501  0.0975  0.6856 -0.3739
 3182SOL    HW121008   4.169   0.671   7.576 -1.4586 -0.2215 -1.5888
 3182SOL    HW221009   4.194   0.661   7.430  0.9384 -1.5036  1.5400
 3183SOL     OW21010   1.100   3.818   3.992 -0.3592  0.6574 -0.0685
 3183SOL    HW121011   1.153   3.897   4.001  1.1303 -0.3445 -0.1504
 3183SOL    HW221012   1.158   3.754   4.032 -2.1582  1.3067  3.5719
 3184SOL     OW21013   3.257   1.548   4.618  0.5329 -0.3131  0.5746
 3184SOL    HW121014   3.249   1.640   4.591  1.2170  0.1968  2.1148
 3184SOL    HW221015   3.216   1.538   4.704  0.7405 -0.4102  0.6602
 3185SOL     OW21016   3.980   0.764   6.060 -0.1611  0.1379 -0.1785
 3185SOL    HW121017   4.017   0.695   6.116 -1.6354 -0.5755 -0.0554
 3185SOL    HW221018   3.972   0.823   6.135 -1.4922 -0.1421 -0.0810
 3186SOL     OW21019   3.988   3.377   3.657 -0.5328  0.5407 -0.1372
 3186SOL    HW121020   3.948   3.375   3.570 -1.1473  1.6521  0.1112
 3186SOL    HW221021   4.062   3.436   3.648 -1.9101  1.9094 -2.4988
 3187SOL     OW21022   4.109   1.057   2.067 -0.2182  0.9430  0.5713
 3187SOL    HW121023   4.061   0.980   2.097  0.8033 -0.2563 -0.8502
 3187SOL    HW221024   4.140   1.036   1.979 -1.3809  1.4588  0.0291
 3188SOL     OW21025   1.158   2.051   6.857  0.2233 -0.3149  0.3304
 3188SOL    HW121026   1.194   2.076   6.942  0.6941  2.2901 -0.6408
 3188SOL    HW221027   1.203   2.110   6.797 -0.3107  1.8037  2.0013
 3189SOL     OW21028   2.604   2.935   7.691  0.3038 -0.3188 -0.0625
 3189SOL    HW121029   2.679   2.963   7.639 -1.1068  0.0940 -1.8879
 3189SOL    HW221030   2.621   2.841   7.693 -0.3239 -0.5294 -3.3706
 3190SOL     OW21031   2.293   0.768  14.150  0.2721  0.0928 -0.1402
 3190SOL    HW121032   2.319   0.844  14.098  1.0360 -0.3979 -0.4727
 3190SOL    HW221033   2.331   0.787  14.236 -0.8700 -0.5667  0.5187
 3191SOL     OW21034   3.476   2.559  11.943  0.4252 -0.1444  0.4320
 3191SOL    HW121035   3.454   2.646  11.976 -1.9212  0.2412 -2.1622
 3191SOL    HW221036   3.534   2.526  12.012  1.9181 -1.0750 -1.2429
 3192SOL     OW21037   4.643   3.232  10.864  0.1756 -0.3914 -0.1791
 3192SOL    HW121038   4.561   3.188  10.840 -1.1152  1.1166  1.3869
 3192SOL    HW221039   4.596   3.290  10.924  1.3203 -0.6071  0.9249
 3193SOL     OW21040   3.474   3.528   7.700  0.3668 -0.1801  0.4040
 3193SOL    HW121041   3.505   3.587   7.769 -0.2294  1.0853 -0.4300
 3193SOL    HW221042   3.432   3.467   7.760 -0.5102  1.3643  1.3528
 3194SOL     OW21043   1.283   4.146   3.025  1.0711  0.6636  0.0706
 3194SOL    HW121044   1.238   4.144   3.110 -0.4674 -1.8753 -0.8197
 3194SOL    HW221045   1.236   4.222   2.991 -0.7751  0.1937  1.5502
 3195SOL     OW21046   1.555   3.573   2.152  0.0191 -0.8791 -0.1669
 3195SOL    HW121047   1.644   3.540   2.167  0.2950 -0.8699 -1.7246
 3195SOL    HW221048   1.549   3.632   2.227  0.1792  0.5539 -1.2806
 3196SOL     OW21049   0.941   0.982   6.530  0.5160 -0.4827 -0.3410
 3196SOL    HW121050   0.999   0.995   6.455  3.8460 -0.8317  2.1611
 3196SOL    HW221051   0.999   0.919   6.573  0.2200  0.5510  1.6106
 3197SOL     OW21052   1.431   0.008   9.722 -0.0583  0.4383  0.7309
 3197SOL    HW121053   1.499   4.671   9.688  0.1778  0.9660  0.2850
 3197SOL    HW221054   1.373   0.014   9.646  0.0318 -2.5591  0.4349
 3198SOL     OW21055   3.448   1.278  13.123 -0.0929  0.6831  0.4030
 3198SOL    HW121056   3.515   1.344  13.102 -0.9943  1.5837  0.3702
 3198SOL    HW221057   3.372   1.323  13.086 -0.6435  0.4754  1.2801
 3199SOL     OW21058   0.108   1.376   3.644  0.0541 -0.8379 -0.6425
 3199SOL    HW121059   0.112   1.467   3.674  1.6765  0.0264 -3.5092
 3199SOL    HW221060   0.017   1.352   3.665  0.4081 -1.0886  0.5806
 3200SOL     OW21061   2.764   3.636   6.079 -0.3169 -0.2105  0.1711
 3200SOL    HW121062   2.718   3.696   6.138 -0.7959 -1.8933  1.4909
 3200SOL    HW221063   2.695   3.570   6.074 -2.1436  1.6379  0.6670
 3201SOL     OW21064   1.042   1.305  11.942  0.2109 -0.1635  0.7008
 3201SOL    HW121065   1.057   1.227  11.889  2.1508 -0.4017  1.5948
 3201SOL    HW221066   1.081   1.274  12.024 -0.3694  0.0432  1.0574
 3202SOL     OW21067   3.365   2.519   3.029  0.5278 -0.6922  0.0134
 3202SOL    HW121068   3.437   2.557   2.977  0.6800  0.1591  0.8445
 3202SOL    HW221069   3.294   2.582   3.014  0.9370 -0.1626  0.2863
 3203SOL     OW21070   1.397   4.601   6.874  0.0221  0.3188 -0.5575
 3203SOL    HW121071   1.319   4.625   6.823  0.4376  1.3987 -0.6758
 3203SOL    HW221072   1.374   4.607   6.967 -2.7475  0.0644 -1.1993
 3204SOL     OW21073   0.084   0.921   7.029  0.1076 -0.0115  0.3768
 3204SOL    HW121074   0.147   0.928   7.101  0.5702  1.3736 -0.1625
 3204SOL    HW221075   0.110   0.998   6.977 -1.5914  0.1760 -0.2018
 3205SOL     OW21076   1.995   2.389   7.562 -0.3698 -0.0577  0.2150
 3205SOL    HW121077   2.014   2.378   7.655  0.8939  0.2271 -0.0163
 3205SOL    HW221078   1.959   2.305   7.532  0.4168  0.4809 -2.2943
 3206SOL     OW21079   0.435   2.068   7.045 -0.3368  0.9436  0.4887
 3206SOL    HW121080   0.503   2.037   6.985 -0.9710  1.1796 -0.3567
 3206SOL    HW221081   0.430   2.008   7.119  0.5322 -0.1591 -0.3292
 3207SOL     OW21082   3.617   3.708   6.845  0.0752  0.6562  0.1551
 3207SOL    HW121083   3.652   3.706   6.756  0.9200  0.5067  0.4914
 3207SOL    HW221084   3.527   3.734   6.823  0.0402  0.3620 -0.0382
 3208SOL     OW21085   4.442   2.845   4.908 -0.4253 -0.4055  0.2235
 3208SOL    HW121086   4.447   2.859   4.813  1.9145  0.1038  0.4174
 3208SOL    HW221087   4.391   2.766   4.920 -1.1048  0.4758  3.0070
 3209SOL     OW21088   2.936   4.416   6.783 -0.1018  0.2747  0.3844
 3209SOL    HW121089   2.876   4.479   6.742  2.2271  1.3592 -1.3734
 3209SOL    HW221090   2.968   4.368   6.707  0.7794  0.3838  0.6825
 3210SOL     OW21091   3.730   4.171  11.037 -0.0683  0.0970 -0.2819
 3210SOL    HW121092   3.678   4.235  10.989 -0.7015 -1.6135 -1.8949
 3210SOL    HW221093   3.819   4.204  11.045 -0.5283  1.3256 -0.2226
 3211SOL     OW21094   1.606   0.063  10.422 -0.1004  0.2498  0.1831
 3211SOL    HW121095   1.569   0.022  10.500 -2.3484  1.5316 -0.1912
 3211SOL    HW221096   1.546   0.135  10.400 -1.1405 -0.1957  1.5626
 3212SOL     OW21097   0.650   2.619   7.197  0.1526  0.8770 -0.1732
 3212SOL    HW121098   0.635   2.525   7.190  1.8271  0.6350 -0.6561
 3212SOL    HW221099   0.570   2.645   7.242  1.4010  1.0037  1.9521
 3213SOL     OW21100   3.014   1.688   9.768  0.0330  0.0931  0.3636
 3213SOL    HW121101   3.012   1.595   9.790  0.6876 -0.3703 -1.5915
 3213SOL    HW221102   3.103   1.690   9.734 -0.8814 -0.9360 -2.0726
 3214SOL     OW21103   2.359   2.594  15.655 -0.1718  0.4434  0.0573
 3214SOL    HW121104   2.323   2.677  15.624 -0.7099  0.3937  0.5534
 3214SOL    HW221105   2.451   2.610  15.678 -0.0205  0.2994 -0.4411
 3215SOL     OW21106   0.924   1.785  14.362  0.4102 -0.1057  0.4576
 3215SOL    HW121107   0.949   1.864  14.314  1.0930 -2.0081 -2.2873
 3215SOL    HW221108   0.935   1.717  14.296 -0.3671 -0.2388  0.4659
 3216SOL     OW21109   4.214   1.799   6.549  0.6551  0.3413 -0.5956
 3216SOL    HW121110   4.240   1.891   6.561  0.4428  0.3446 -0.1609
 3216SOL    HW221111   4.300   1.757   6.557  1.2835  2.0218  1.7757
 3217SOL     OW21112   4.234   4.653   0.543 -1.1152 -0.2120 -0.0280
 3217SOL    HW121113   4.217   4.715   0.614  0.7839  1.2249 -0.8218
 3217SOL    HW221114   4.157   4.596   0.553 -0.6579 -0.7437  0.5300
 3218SOL     OW21115   0.022   2.011  12.916 -0.0210  0.7407 -0.8000
 3218SOL    HW121116   4.720   1.933  12.966 -0.7006  2.6360  1.8627
 3218SOL    HW221117   4.670   2.001  12.855 -1.5570 -0.5041  1.2748
 3219SOL     OW21118   1.386   1.087   4.295 -0.4899 -0.1483  0.2379
 3219SOL    HW121119   1.356   0.996   4.286 -0.4283 -0.1806  0.3613
 3219SOL    HW221120   1.467   1.088   4.244 -0.6392  0.3808  0.0152
 3220SOL     OW21121   0.628   2.735   6.630 -0.2869 -0.1633  0.3309
 3220SOL    HW121122   0.628   2.823   6.668  0.0197  0.6769 -1.6399
 3220SOL    HW221123   0.538   2.706   6.642 -0.8603  1.5487  0.1614
 3221SOL     OW21124   2.301   2.429   7.117 -0.2964 -0.3827 -0.0171
 3221SOL    HW121125   2.236   2.360   7.107 -1.5242  0.5350  1.6467
 3221SOL    HW221126   2.365   2.380   7.169 -0.5756 -0.1369  0.5570
 3222SOL     OW21127   4.339   1.373   1.507 -0.0585 -0.4239 -0.2632
 3222SOL    HW121128   4.295   1.441   1.458 -0.7915 -1.6734 -1.3381
 3222SOL    HW221129   4.346   1.305   1.440 -2.0337 -1.5837  0.7175
 3223SOL     OW21130   1.788   3.041   8.382  0.1468  0.0374  0.0027
 3223SOL    HW121131   1.705   3.079   8.352 -1.1444 -1.6862  1.3975
 3223SOL    HW221132   1.824   3.108   8.440 -0.8756  0.5716  0.0231
 3224SOL     OW21133   0.720   1.158   4.482  0.0198  0.3331 -0.6612
 3224SOL    HW121134   0.754   1.202   4.405  0.9373 -1.0441 -1.0414
 3224SOL    HW221135   0.803   1.134   4.522 -0.2820  2.5402  1.3090
 3225SOL     OW21136   1.170   0.444  13.607  0.0763 -0.4291 -0.1542
 3225SOL    HW121137   1.107   0.430  13.536 -0.3632  2.5015 -0.3621
 3225SOL    HW221138   1.170   0.539  13.622  0.9951 -0.2276 -1.3964
 3226SOL     OW21139   2.063   0.513   4.726 -0.0905 -0.9110 -0.4165
 3226SOL    HW121140   1.977   0.472   4.722 -0.4183 -0.0619 -1.7909
 3226SOL    HW221141   2.063   0.575   4.654 -0.8459 -0.6359 -0.1735
 3227SOL     OW21142   4.626   0.151   5.246  0.4184  0.0612  0.0505
 3227SOL    HW121143   4.660   0.062   5.247  0.5831  0.1148 -0.8694
 3227SOL    HW221144   4.613   0.168   5.152  2.4337  0.2443 -0.1800
 3228SOL     OW21145   0.810   2.172   1.930 -0.4175  0.6146 -0.3288
 3228SOL    HW121146   0.772   2.209   1.850  0.8504  2.1533 -0.2045
 3228SOL    HW221147   0.903   2.163   1.911 -0.2079  1.3271  0.3852
 3229SOL     OW21148   0.323   4.131   8.411 -0.2607 -0.1030 -0.1616
 3229SOL    HW121149   0.294   4.143   8.321 -2.7759  0.9185  0.7715
 3229SOL    HW221150   0.239   4.109   8.453 -0.1074 -0.3125  0.0369
 3230SOL     OW21151   4.606   1.581  12.195 -0.0708  0.4646  0.0599
 3230SOL    HW121152   4.542   1.606  12.261  1.5566  0.1107  1.7650
 3230SOL    HW221153   4.682   1.629  12.229 -1.2546  1.1345  1.7556
 3231SOL     OW21154   2.620   0.173   7.324 -0.0387  0.2147  0.0532
 3231SOL    HW121155   2.540   0.126   7.348  0.5646 -0.7041  0.2790
 3231SOL    HW221156   2.586   0.244   7.270 -1.9876  0.5629  1.7171
 3232SOL     OW21157   0.374   4.400   3.202 -0.2184 -0.2972  0.5006
 3232SOL    HW121158   0.332   4.314   3.196 -0.9303  0.0772  0.1445
 3232SOL    HW221159   0.417   4.404   3.287  0.2153  1.5030  0.1891
 3233SOL     OW21160   3.065   3.888   0.733 -0.3129 -0.6160  0.2217
 3233SOL    HW121161   3.153   3.881   0.695 -0.0420 -2.7881  1.2388
 3233SOL    HW221162   3.022   3.966   0.699  0.9798 -0.6139 -1.4240
 3234SOL     OW21163   1.715   0.582  17.559 -0.0440 -0.0153 -0.6705
 3234SOL    HW121164   1.719   0.504  17.503  1.7784 -0.4579  0.0892
 3234SOL    HW221165   1.802   0.620  17.546  0.2465 -0.4024  0.1296
 3235SOL     OW21166   1.896   1.229   6.332  0.0491  0.1937  0.2879
 3235SOL    HW121167   1.820   1.174   6.316  1.3287 -1.1678 -1.1389
 3235SOL    HW221168   1.869   1.320   6.319 -1.0090  0.0355  1.4366
 3236SOL     OW21169   3.697   0.630   4.102 -0.2038 -0.1573  0.2213
 3236SOL    HW121170   3.668   0.565   4.038 -0.2808 -0.5538  0.6590
 3236SOL    HW221171   3.780   0.597   4.135 -0.5832  0.3428  1.6716
 3237SOL     OW21172   0.106   2.760   3.416  0.1131 -0.0875 -0.7618
 3237SOL    HW121173   0.156   2.798   3.488 -2.0723 -0.3835  0.9105
 3237SOL    HW221174   0.054   2.696   3.464  0.3062 -1.4795 -2.4051
 3238SOL     OW21175   1.584   3.944   2.161 -0.4760 -0.2542  0.0879
 3238SOL    HW121176   1.511   3.925   2.103  0.1969 -3.2929  0.2374
 3238SOL    HW221177   1.654   3.949   2.096  0.7649 -2.6098  1.2395
 3239SOL     OW21178   3.832   2.542   3.094 -0.6197  0.5662  0.1182
 3239SOL    HW121179   3.899   2.598   3.054 -0.5710 -0.7429 -1.6599
 3239SOL    HW221180   3.760   2.550   3.032 -3.7808  0.1635  3.7667
 3240SOL     OW21181   2.311   4.476   7.766 -0.1545 -0.5521 -0.3241
 3240SOL    HW121182   2.253   4.426   7.823 -1.9756  1.4318 -0.4459
 3240SOL    HW221183   2.365   4.515   7.836  0.0613  0.0044 -0.7986
 3241SOL     OW21184   3.930   3.184  11.609 -0.0740 -0.1562 -1.1663
 3241SOL    HW121185   3.866   3.251  11.586  2.3083  3.1656  2.1044
 3241SOL    HW221186   3.984   3.185  11.529  1.0475 -1.9833 -0.4292
 3242SOL     OW21187   0.661   0.382   5.404 -0.0175  0.4101  0.3944
 3242SOL    HW121188   0.574   0.363   5.440 -0.2809 -1.2095 -1.0972
 3242SOL    HW221189   0.718   0.342   5.470 -0.3157  0.4095  0.6501
 3243SOL     OW21190   1.720   2.352   4.980 -0.2696 -0.6525  0.3007
 3243SOL    HW121191   1.769   2.285   5.027 -0.0383 -2.4674 -2.5061
 3243SOL    HW221192   1.685   2.405   5.052  1.1626 -1.6707  1.7488
 3244SOL     OW21193   4.242   4.117   3.326 -0.3700 -0.3116 -0.1948
 3244SOL    HW121194   4.207   4.205   3.343 -1.4036 -0.8767  0.6417
 3244SOL    HW221195   4.173   4.071   3.278 -0.1429  0.1007 -0.9132
 3245SOL     OW21196   0.490   0.399   5.940 -0.8372 -0.5816 -0.7206
 3245SOL    HW121197   0.429   0.420   5.870 -1.0929  0.6377 -0.1351
 3245SOL    HW221198   0.569   0.438   5.903 -0.8881  1.2704  1.1519
 3246SOL     OW21199   0.029   4.032   1.111 -0.2355 -0.3218  0.1403
 3246SOL    HW121200   0.035   3.943   1.078 -1.2861  0.1017 -1.1765
 3246SOL    HW221201   4.717   4.018   1.200 -0.0311  1.6590  0.5188
 3247SOL     OW21202   3.220   4.037   7.468 -0.5430  0.2744  0.2519
 3247SOL    HW121203   3.299   3.987   7.451  1.8332  3.5753  1.4851
 3247SOL    HW221204   3.147   3.976   7.479  0.1574 -0.3168  1.5882
 3248SOL     OW21205   2.681   1.217   2.854 -0.0071 -0.0376 -0.0024
 3248SOL    HW121206   2.668   1.163   2.932 -1.0270 -0.8095 -0.7015
 3248SOL    HW221207   2.761   1.266   2.870 -0.0303 -0.1527  0.4718
 3249SOL     OW21208   0.062   0.505  11.373 -0.4473  0.5762 -0.2384
 3249SOL    HW121209   4.690   0.484  11.375 -0.2369 -0.5862 -2.8432
 3249SOL    HW221210   0.082   0.504  11.467 -0.4324  1.6113 -0.2310
 3250SOL     OW21211   3.125   2.870   8.299  0.3041  0.0031 -0.6335
 3250SOL    HW121212   3.213   2.865   8.260  0.3983  0.5159 -0.4867
 3250SOL    HW221213   3.107   2.784   8.338  0.3436  0.4497  0.3559
 3251SOL     OW21214   3.178   1.603   9.149 -0.0276 -0.4716  0.0711
 3251SOL    HW121215   3.147   1.629   9.062  1.4189  0.5271 -0.1337
 3251SOL    HW221216   3.120   1.528   9.160 -1.1075  0.4603  0.7622
 3252SOL     OW21217   1.415   2.617   0.175 -0.5741  0.4227  0.3409
 3252SOL    HW121218   1.497   2.635   0.128 -0.1032  1.5499  1.5968
 3252SOL    HW221219   1.421   2.533   0.221 -2.1206  0.6836  1.0097
 3253SOL     OW21220   2.754   1.984  13.042 -0.0223  0.3768 -0.3171
 3253SOL    HW121221   2.702   1.912  13.008  3.4668 -2.5503  0.5017
 3253SOL    HW221222   2.826   1.941  13.088 -1.4243 -0.3342  1.2153
 3254SOL     OW21223   0.498   1.082   5.605 -0.2576 -0.0162 -0.4087
 3254SOL    HW121224   0.421   1.067   5.550 -0.2054 -0.2605 -0.4134
 3254SOL    HW221225   0.561   1.082   5.533  0.4703  0.0612  0.2171
 3255SOL     OW21226   4.307   2.635   5.009 -0.4595 -0.1850  0.2289
 3255SOL    HW121227   4.276   2.657   5.097  1.3196 -3.1100  1.5571
 3255SOL    HW221228   4.296   2.540   5.016 -0.3317  0.0132  3.0129
 3256SOL     OW21229   3.051   0.659  17.441  0.1145 -0.2301  0.0877
 3256SOL    HW121230   3.129   0.693  17.485  0.8369 -0.8807 -0.6796
 3256SOL    HW221231   2.998   0.733  17.470 -0.2407 -0.9585  1.3195
 3257SOL     OW21232   3.080   1.347   8.112 -0.1789 -0.5024  0.3155
 3257SOL    HW121233   3.151   1.285   8.127 -0.8468 -1.4417 -0.3594
 3257SOL    HW221234   3.113   1.434   8.131 -1.9223  0.4785 -1.1836
 3258SOL     OW21235   4.437   0.519  11.433  0.0857 -0.1837  0.3141
 3258SOL    HW121236   4.368   0.484  11.490 -1.2159  1.9115  0.0176
 3258SOL    HW221237   4.479   0.444  11.390  1.3042 -1.5477  3.8864
 3259SOL     OW21238   3.765   4.203  10.417  0.1019  0.1766  0.0716
 3259SOL    HW121239   3.731   4.289  10.443 -1.3001 -0.3649  0.0697
 3259SOL    HW221240   3.854   4.221  10.388 -0.1262  0.6648 -0.3229
 3260SOL     OW21241   0.089   2.982  10.732  0.4073  0.2986  0.2321
 3260SOL    HW121242   0.024   3.039  10.691 -0.4116  0.0264  1.1303
 3260SOL    HW221243   0.149   3.044  10.773  1.2527 -1.3206  1.4429
 3261SOL     OW21244   0.917   4.211   3.346  0.0531 -0.4083 -0.2055
 3261SOL    HW121245   0.925   4.266   3.268 -1.3295 -0.7758 -0.6084
 3261SOL    HW221246   0.839   4.258   3.375 -1.3162 -1.7332 -1.7178
 3262SOL     OW21247   0.228   3.654   0.297 -0.6533  0.2617 -0.3312
 3262SOL    HW121248   0.160   3.629   0.235 -0.8747  2.2832 -0.9100
 3262SOL    HW221249   0.275   3.716   0.242  1.2063 -0.5324  0.3793
 3263SOL     OW21250   4.415   1.814   8.229  0.5345 -0.1479  0.3006
 3263SOL    HW121251   4.412   1.854   8.315 -2.1526 -2.8828  1.4484
 3263SOL    HW221252   4.384   1.884   8.172 -1.3976 -1.1487  0.1460
 3264SOL     OW21253   4.611   1.920  10.457  0.0507 -0.0219 -0.6012
 3264SOL    HW121254   4.694   1.964  10.471  1.0340 -2.6191  1.6236
 3264SOL    HW221255   4.555   1.998  10.461 -1.8958 -1.4518  0.5008
 3265SOL     OW21256   1.439   2.371  17.670  0.4285  0.4162  0.1625
 3265SOL    HW121257   1.529   2.357   0.014  0.2246  2.1914  1.6212
 3265SOL    HW221258   1.392   2.322   0.052  1.0586 -0.6560 -0.1857
 3266SOL     OW21259   4.507   0.852   5.713 -0.5085 -0.3218  0.3362
 3266SOL    HW121260   4.539   0.851   5.623  2.6294 -2.3014  1.4611
 3266SOL    HW221261   4.464   0.769   5.731  1.7398 -1.1813  1.7799
 3267SOL     OW21262   4.480   2.012  15.853 -0.5489 -0.1482 -0.7527
 3267SOL    HW121263   4.435   2.079  15.905  0.1289  0.3834 -0.8504
 3267SOL    HW221264   4.500   1.944  15.917 -0.7378  0.2247 -0.2971
 3268SOL     OW21265   2.923   1.542   7.089  0.2313 -0.4291  0.8190
 3268SOL    HW121266   2.867   1.547   7.167 -1.8281  1.4861 -0.8026
 3268SOL    HW221267   2.893   1.621   7.045  1.1007  1.2864  3.2887
 3269SOL     OW21268   2.030   2.008  11.667  0.4402 -0.4524  0.7192
 3269SOL    HW121269   2.121   1.983  11.677  0.9066  0.6980 -0.5642
 3269SOL    HW221270   1.992   1.933  11.620  0.7454 -1.0354  1.4085
 3270SOL     OW21271   0.535   0.687   0.131  0.3244  0.4992  0.3359
 3270SOL    HW121272   0.570   0.609   0.087 -2.1092 -0.6906  0.5315
 3270SOL    HW221273   0.614   0.705   0.183  0.6426 -2.9900  1.0996
 3271SOL     OW21274   4.285   4.716   8.545 -0.5050  0.3455  0.2804
 3271SOL    HW121275   4.297   0.087   8.520  2.1688 -0.5390 -1.7273
 3271SOL    HW221276   4.348   4.674   8.486 -0.7405 -2.6796  2.1781
 3272SOL     OW21277   2.158   2.175   0.873  0.0118  0.1322  0.1450
 3272SOL    HW121278   2.241   2.167   0.921  1.1392  3.2201 -1.2883
 3272SOL    HW221279   2.109   2.107   0.918  3.8437 -2.1933  0.8454
 3273SOL     OW21280   1.149   1.617   9.257 -0.6337 -0.2566 -0.0304
 3273SOL    HW121281   1.196   1.561   9.195  0.7871  1.4204 -0.4919
 3273SOL    HW221282   1.127   1.691   9.200 -2.3493 -1.1761 -0.5600
 3274SOL     OW21283   1.810   2.823   4.526 -0.3405 -0.0287  0.1378
 3274SOL    HW121284   1.723   2.810   4.565 -0.2229 -4.6647 -1.2222
 3274SOL    HW221285   1.856   2.877   4.591 -1.4731 -0.4203  1.2721
 3275SOL     OW21286   2.514   1.571  13.381 -0.4730  0.0509 -0.0408
 3275SOL    HW121287   2.433   1.521  13.391 -0.0972 -0.1177  2.1868
 3275SOL    HW221288   2.570   1.536  13.451  0.3542 -1.7885 -1.6275
 3276SOL     OW21289   4.439   0.266  12.482 -0.8140 -0.2870  0.2266
 3276SOL    HW121290   4.495   0.230  12.414 -1.6415 -1.1612  0.0001
 3276SOL    HW221291   4.484   0.350  12.488  1.4206 -1.6382  2.1726
 3277SOL     OW21292   0.526   1.961   3.444 -0.8702 -0.1984  0.1708
 3277SOL    HW121293   0.462   1.954   3.373 -1.2528 -0.8661  0.5749
 3277SOL    HW221294   0.492   1.889   3.497  3.2179 -1.7472  0.6653
 3278SOL     OW21295   3.639   3.154   8.549 -0.1732  0.3328  0.9650
 3278SOL    HW121296   3.598   3.136   8.633 -1.2659  2.5642  0.8868
 3278SOL    HW221297   3.721   3.104   8.553  0.2043  1.0467  1.9151
 3279SOL     OW21298   1.376   1.968   5.167 -0.5735  0.2253  0.1471
 3279SOL    HW121299   1.337   1.970   5.255  0.9131 -0.9134  0.8337
 3279SOL    HW221300   1.467   1.943   5.180  0.1189  2.0684 -1.1710
 3280SOL     OW21301   4.632   4.408   2.118  0.5057 -0.2869  0.3892
 3280SOL    HW121302   4.650   4.370   2.032  0.9987  0.4991  0.1451
 3280SOL    HW221303   4.548   4.444   2.091  1.2756  1.5333  0.3962
 3281SOL     OW21304   2.919   0.036  16.687 -0.1673 -0.5006  0.2089
 3281SOL    HW121305   2.952   4.711  16.765  1.2038 -0.8452 -0.5644
 3281SOL    HW221306   2.918   4.688  16.620 -1.0602 -0.3774  0.1039
 3282SOL     OW21307   4.550   4.466   7.429  0.5884  0.3193  0.0779
 3282SOL    HW121308   4.456   4.485   7.437  0.0357 -2.1455 -0.3255
 3282SOL    HW221309   4.545   4.384   7.379 -0.5486 -0.9797  2.3308
 3283SOL     OW21310   3.717   1.403   5.513  0.1360  0.0035 -0.3316
 3283SOL    HW121311   3.669   1.481   5.487 -0.6707 -0.1908  0.5431
 3283SOL    HW221312   3.790   1.400   5.452  0.3649 -0.4391 -0.0366
 3284SOL     OW21313   0.048   3.246  10.622  0.2184  1.1295  0.0812
 3284SOL    HW121314   4.716   3.318  10.588  0.3566  1.2283  0.0741
 3284SOL    HW221315   0.013   3.248  10.711  2.1184 -1.7406  0.8912
 3285SOL     OW21316   4.181   0.566   3.126 -0.3938  0.1306  0.0267
 3285SOL    HW121317   4.231   0.576   3.207  1.9074  1.7577 -1.5825
 3285SOL    HW221318   4.201   0.648   3.080 -0.5155  1.4089  2.2671
 3286SOL     OW21319   0.498   2.956  13.967  0.1002 -0.0682 -0.3343
 3286SOL    HW121320   0.554   3.030  13.944  2.0362 -0.7465  2.2428
 3286SOL    HW221321   0.553   2.922  14.038 -1.1882 -1.8962 -0.2105
 3287SOL     OW21322   2.582   3.184   7.240  0.2647  0.5368  0.1422
 3287SOL    HW121323   2.523   3.128   7.190  0.5961  0.1211  0.2188
 3287SOL    HW221324   2.513   3.243   7.269  0.0838  1.0766 -1.3752
 3288SOL     OW21325   1.936   1.673  17.503  0.1756  0.0195 -0.5456
 3288SOL    HW121326   1.865   1.619  17.538  1.3532 -1.3287 -0.2371
 3288SOL    HW221327   2.012   1.659  17.560  0.2594 -0.0868 -0.6861
 3289SOL     OW21328   0.282   2.203   2.954 -0.2200  0.2459  0.5978
 3289SOL    HW121329   0.191   2.204   2.925  0.2916  1.3226 -0.9963
 3289SOL    HW221330   0.286   2.283   3.007  1.6870 -0.3971  1.4360
 3290SOL     OW21331   0.279   0.873   7.767  0.0856  0.3785  0.6629
 3290SOL    HW121332   0.327   0.948   7.802 -3.6959  1.4105  3.6383
 3290SOL    HW221333   0.230   0.917   7.697  0.2927 -2.5341 -1.3011
 3291SOL     OW21334   0.667   3.174   2.310 -0.4252  0.1674  0.6699
 3291SOL    HW121335   0.760   3.166   2.292 -0.9132 -0.7723 -1.3605
 3291SOL    HW221336   0.617   3.146   2.233 -0.3476 -0.0711  0.7090
 3292SOL     OW21337   0.007   2.089   8.691  0.1265  0.1515  0.5885
 3292SOL    HW121338   4.635   2.088   8.666 -0.3551 -0.1088  2.3536
 3292SOL    HW221339   0.019   1.998   8.719  1.2752 -0.0382 -0.5406
 3293SOL     OW21340   0.973   3.262  11.981  0.4049  0.5246  0.2900
 3293SOL    HW121341   0.981   3.283  12.074 -1.7709 -3.5127  1.3926
 3293SOL    HW221342   1.021   3.179  11.973 -0.3413  0.2426 -1.3023
 3294SOL     OW21343   2.999   0.544   8.014  0.2686  0.1239 -0.0106
 3294SOL    HW121344   2.957   0.603   8.077  1.3635  1.7330 -0.7915
 3294SOL    HW221345   3.083   0.535   8.059 -0.4565  1.4706  1.6150
 3295SOL     OW21346   2.670   2.632   3.895 -0.8012 -0.3503 -0.0221
 3295SOL    HW121347   2.684   2.664   3.984  0.5250  1.4333 -0.8682
 3295SOL    HW221348   2.693   2.540   3.907 -0.2139 -0.0398  1.2609
 3296SOL     OW21349   0.328   2.939  17.236 -0.2198  0.2345  0.2158
 3296SOL    HW121350   0.246   2.945  17.186  0.5178  1.9968 -0.7893
 3296SOL    HW221351   0.303   3.006  17.299 -0.5052 -0.2707  0.6370
 3297SOL     OW21352   2.645   4.237   1.951  0.2414 -0.0316  0.5936
 3297SOL    HW121353   2.573   4.289   1.987  1.3889  0.0035  2.8902
 3297SOL    HW221354   2.710   4.302   1.979  0.0624  0.1950  0.4796
 3298SOL     OW21355   2.286   0.992   8.200 -0.3127  0.3980  0.3650
 3298SOL    HW121356   2.278   1.042   8.119 -0.0934  3.2763  2.1158
 3298SOL    HW221357   2.276   1.062   8.265 -1.5723 -1.6479  2.3725
 3299SOL     OW21358   3.988   2.739   4.980 -0.2362  0.1861 -0.0363
 3299SOL    HW121359   3.971   2.650   4.950 -1.4944  0.3205  0.2743
 3299SOL    HW221360   4.075   2.742   4.942  0.1645  0.1533  0.8714
 3300SOL     OW21361   2.997   4.205   5.000  0.6065  0.1434 -0.4119
 3300SOL    HW121362   2.968   4.214   4.909 -0.2299 -0.4732 -0.2110
 3300SOL    HW221363   2.915   4.242   5.034  0.8799 -1.0422  1.5556
 3301SOL     OW21364   3.987   0.889   6.852  0.0334  0.2156  0.5095
 3301SOL    HW121365   3.898   0.917   6.829 -0.2769  1.0843  2.6704
 3301SOL    HW221366   3.977   0.819   6.918  1.9156  0.6110  1.2075
 3302SOL     OW21367   0.880   0.761   7.200 -0.1628  0.6103  0.4706
 3302SOL    HW121368   0.953   0.818   7.176 -1.1045  2.2475  1.4642
 3302SOL    HW221369   0.839   0.830   7.253  0.5491  1.6444 -0.3164
 3303SOL     OW21370   1.013   0.961  12.135  0.4094 -0.5957  0.2946
 3303SOL    HW121371   0.999   1.043  12.184 -4.2130 -0.2067 -1.6665
 3303SOL    HW221372   1.102   0.975  12.102  0.2998 -1.3153 -0.2920
 3304SOL     OW21373   0.938   0.901  16.562  0.3118 -0.7951 -0.1253
 3304SOL    HW121374   0.990   0.840  16.509 -0.3522 -1.1321 -0.3926
 3304SOL    HW221375   0.870   0.846  16.602  0.8418 -1.4850 -0.1798
 3305SOL     OW21376   0.737   4.364   6.422 -0.9222  0.0377  0.3933
 3305SOL    HW121377   0.697   4.434   6.473 -1.9468 -0.8247  0.7551
 3305SOL    HW221378   0.828   4.394   6.430  0.6659 -4.5897 -0.0312
 3306SOL     OW21379   4.379   1.908   3.026 -0.4845  0.4896  0.2033
 3306SOL    HW121380   4.356   1.879   2.938 -1.0152 -0.8453  0.7846
 3306SOL    HW221381   4.292   1.883   3.056 -0.6174  1.0539  0.2813
 3307SOL     OW21382   0.551   3.147   6.663 -0.5474 -0.2037  0.0509
 3307SOL    HW121383   0.561   3.143   6.758  0.6642  1.2447 -0.0192
 3307SOL    HW221384   0.502   3.066   6.648  0.0920 -0.3907 -1.0001
 3308SOL     OW21385   0.911   2.278   7.391  0.0578 -0.0553  0.0997
 3308SOL    HW121386   0.899   2.342   7.461 -0.5340 -0.8628  0.7385
 3308SOL    HW221387   0.965   2.334   7.335  0.0955  0.8235  1.0118
 3309SOL     OW21388   1.861   0.700   6.623  0.3503 -0.0230 -0.0930
 3309SOL    HW121389   1.767   0.695   6.610  0.1269 -0.5868  1.7696
 3309SOL    HW221390   1.888   0.626   6.568  0.9041 -0.5195  0.8368
 3310SOL     OW21391   3.435   3.762   5.438  0.2481 -0.0381  0.0968
 3310SOL    HW121392   3.449   3.671   5.414 -1.2195  0.2742 -1.9494
 3310SOL    HW221393   3.525   3.794   5.427  0.7604 -2.1139 -1.6164
 3311SOL     OW21394   0.534   4.087  15.725 -0.0402 -0.2833 -0.1170
 3311SOL    HW121395   0.524   4.181  15.709  0.0595 -0.0012  1.4478
 3311SOL    HW221396   0.446   4.052  15.708  0.1322  0.1407 -1.9223
 3312SOL     OW21397   2.831   0.731   4.504  0.5509 -0.0596  0.5680
 3312SOL    HW121398   2.899   0.798   4.503  0.3139  0.1725 -1.1380
 3312SOL    HW221399   2.827   0.709   4.597 -1.6485 -0.3262  0.4127
 3313SOL     OW21400   0.633   4.124   7.625  0.0401 -0.1405 -0.0070
 3313SOL    HW121401   0.551   4.100   7.668 -1.3722  1.5761 -1.7734
 3313SOL    HW221402   0.703   4.089   7.681  0.5667  0.5488 -0.2314
 3314SOL     OW21403   4.628   4.424   4.413  0.1413  0.1292  0.3700
 3314SOL    HW121404   4.550   4.414   4.468  0.0951 -1.5365  0.0025
 3314SOL    HW221405   4.681   4.350   4.444 -1.6731 -1.0365  0.6640
 3315SOL     OW21406   1.085   4.283   5.362  0.4953 -0.0991  0.4945
 3315SOL    HW121407   1.098   4.287   5.267 -0.3113  2.3608  0.4947
 3315SOL    HW221408   1.056   4.195   5.384  2.6564 -0.6106  1.3596
 3316SOL     OW21409   3.199   0.357   6.320 -0.5622  0.4204  0.0008
 3316SOL    HW121410   3.165   0.442   6.292 -1.6964 -1.0517 -3.0466
 3316SOL    HW221411   3.119   0.306   6.334 -0.7477  0.3849 -1.2140
 3317SOL     OW21412   0.297   2.729   0.663  0.2189  0.7614  0.0122
 3317SOL    HW121413   0.252   2.704   0.744 -0.0189 -0.0165 -0.3643
 3317SOL    HW221414   0.280   2.651   0.610  1.4273  1.2898 -1.1503
 3318SOL     OW21415   3.700   0.110   1.382  0.4259  0.6959 -0.0174
 3318SOL    HW121416   3.676   0.161   1.460 -0.4040  0.4348 -0.0967
 3318SOL    HW221417   3.761   0.171   1.340  3.0385 -0.2979  2.3563
 3319SOL     OW21418   4.039   2.695  14.833 -0.6428  0.6120  0.6283
 3319SOL    HW121419   4.107   2.715  14.897 -1.7309  1.3561  1.5673
 3319SOL    HW221420   3.953   2.710  14.873  0.1837  2.6728  1.5915
 3320SOL     OW21421   2.723   4.268  10.670  0.0021 -0.4139  0.5012
 3320SOL    HW121422   2.676   4.351  10.661  1.8267  0.6836  1.1110
 3320SOL    HW221423   2.786   4.289  10.739 -0.9718  0.3783  1.1331
 3321SOL     OW21424   0.330   1.339  15.590 -0.2432 -0.0601 -0.2158
 3321SOL    HW121425   0.361   1.303  15.507  0.1500  1.1173 -0.5817
 3321SOL    HW221426   0.410   1.334  15.643 -1.0104 -2.3248  0.7424
 3322SOL     OW21427   3.939   0.272   6.163  0.1100  0.7484 -0.0255
 3322SOL    HW121428   3.948   0.270   6.258  2.1041 -0.3805 -0.2132
 3322SOL    HW221429   4.033   0.266   6.144 -0.3848  1.0053 -2.6275
 3323SOL     OW21430   0.364   3.029   2.384 -0.1356  0.1255  0.4647
 3323SOL    HW121431   0.354   2.936   2.367  1.6056 -0.2706  1.6600
 3323SOL    HW221432   0.277   3.051   2.351  0.9839  0.1600 -2.4137
 3324SOL     OW21433   1.763   4.235   9.904 -0.8524 -0.4805 -0.1625
 3324SOL    HW121434   1.831   4.245   9.838 -1.7154  2.5721 -0.5576
 3324SOL    HW221435   1.774   4.147   9.940 -0.1810 -0.0713  0.6408
 3325SOL     OW21436   4.242   4.294   1.596 -0.6686 -0.6436 -0.2012
 3325SOL    HW121437   4.289   4.313   1.515  0.5359 -0.3106  0.5841
 3325SOL    HW221438   4.154   4.296   1.559 -0.3866  2.0305 -0.7222
 3326SOL     OW21439   1.248   1.803   4.982  0.0584  0.4919  0.0942
 3326SOL    HW121440   1.259   1.801   4.887 -2.0930 -1.9229 -0.0736
 3326SOL    HW221441   1.332   1.763   5.004 -0.9149 -0.8089  1.4345
 3327SOL     OW21442   0.156   1.690  17.676  0.1145 -0.0427 -0.6666
 3327SOL    HW121443   0.208   1.757  17.633  1.5423 -0.1054  0.9732
 3327SOL    HW221444   0.209   1.669   0.068  1.6783 -1.5704 -2.1557
 3328SOL     OW21445   2.729   2.263  12.800  0.1693  0.4287 -0.3348
 3328SOL    HW121446   2.727   2.301  12.712  0.3353 -2.2073 -1.4851
 3328SOL    HW221447   2.808   2.304  12.836  0.2947 -0.6374  0.5908
 3329SOL     OW21448   3.394   3.481  13.317  0.4751  0.4310 -0.1127
 3329SOL    HW121449   3.389   3.396  13.273  0.3195  0.8416 -0.8959
 3329SOL    HW221450   3.414   3.536  13.242  0.2333 -0.0020 -0.4968
 3330SOL     OW21451   0.108   1.675  12.354  0.1490  0.2167  0.3944
 3330SOL    HW121452   0.168   1.727  12.300 -1.4896  1.6069 -0.0882
 3330SOL    HW221453   0.107   1.723  12.437 -2.4808 -0.7542  0.9335
 3331SOL     OW21454   2.077   4.718   8.757 -0.5601 -0.1261 -0.1973
 3331SOL    HW121455   2.095   0.068   8.819 -0.4196 -1.4003  1.2095
 3331SOL    HW221456   2.029   4.658   8.814 -0.3435 -0.0330  0.0859
 3332SOL     OW21457   0.219   4.696   6.428  0.2415 -0.2482  0.5224
 3332SOL    HW121458   0.141   4.695   6.483 -0.9713 -1.3638 -1.2278
 3332SOL    HW221459   0.286   0.005   6.490  0.1987  2.1642 -0.5806
 3333SOL     OW21460   1.854   3.697   5.761 -0.3969 -0.1623  0.1718
 3333SOL    HW121461   1.843   3.606   5.789  2.0025 -0.0118  1.6434
 3333SOL    HW221462   1.797   3.749   5.817 -2.3481 -1.5327 -0.5458
 3334SOL     OW21463   0.893   0.905   6.940 -0.1590  0.1996  0.2085
 3334SOL    HW121464   0.846   0.914   6.856 -1.5434  3.4817  1.3205
 3334SOL    HW221465   0.834   0.954   6.997  0.4648 -0.7705  1.6668
 3335SOL     OW21466   4.316   0.974  15.964 -0.1906  0.5087 -0.1490
 3335SOL    HW121467   4.369   0.953  16.041  1.0581  0.5734 -0.9859
 3335SOL    HW221468   4.349   1.063  15.949  0.2101  0.5808  1.1381
 3336SOL     OW21469   1.459   2.684   7.981 -0.1585 -0.9798 -0.3663
 3336SOL    HW121470   1.472   2.732   8.062  1.1619 -2.2374  0.1829
 3336SOL    HW221471   1.386   2.732   7.944 -0.3014 -0.3001  0.8341
 3337SOL     OW21472   1.739   3.794   5.274  0.1472  0.6231 -0.0101
 3337SOL    HW121473   1.681   3.817   5.347 -2.3113 -0.0573 -1.7632
 3337SOL    HW221474   1.823   3.780   5.318 -0.4256  0.5865  1.0712
 3338SOL     OW21475   3.499   0.311   8.996  0.1328  0.8564  0.1816
 3338SOL    HW121476   3.436   0.381   9.011 -0.0021  0.2864  2.3057
 3338SOL    HW221477   3.454   0.271   8.922  1.9666  0.4273 -0.7200
 3339SOL     OW21478   1.745   3.110  14.326  0.0354 -0.1410 -0.1580
 3339SOL    HW121479   1.834   3.145  14.336  0.6800 -1.5628 -1.0157
 3339SOL    HW221480   1.711   3.198  14.308  0.8509  0.4181  1.0328
 3340SOL     OW21481   3.312   1.560  13.045 -0.2210  0.2292  0.3214
 3340SOL    HW121482   3.397   1.559  13.000  0.3031  1.0200  1.3003
 3340SOL    HW221483   3.292   1.653  13.033 -1.9321  0.0147  1.5131
 3341SOL     OW21484   1.204   0.326  17.311  0.0332 -0.1210 -0.1598
 3341SOL    HW121485   1.187   0.367  17.397 -1.1853 -1.4519  0.2381
 3341SOL    HW221486   1.120   0.323  17.264 -0.6408 -0.6317  1.0672
 3342SOL     OW21487   2.438   3.582  15.992 -0.5010  0.4848  0.5471
 3342SOL    HW121488   2.405   3.514  15.933 -2.3140  2.2511 -0.4971
 3342SOL    HW221489   2.356   3.598  16.038 -1.2762 -1.5749 -0.1378
 3343SOL     OW21490   2.412   1.877   6.855 -0.2563  0.1126  0.6458
 3343SOL    HW121491   2.447   1.803   6.804  0.1413  0.5077  0.3455
 3343SOL    HW221492   2.340   1.903   6.799  0.5824 -0.5831 -0.7549
 3344SOL     OW21493   0.314   1.128   4.752 -0.3477  0.1354  0.4142
 3344SOL    HW121494   0.279   1.148   4.665 -2.4103  1.2655  1.4691
 3344SOL    HW221495   0.288   1.036   4.757 -0.9453  0.3635  1.6117
 3345SOL     OW21496   2.520   0.748   2.877  0.0390 -0.4865 -0.4840
 3345SOL    HW121497   2.478   0.719   2.796 -0.9326  0.7996 -0.4473
 3345SOL    HW221498   2.470   0.829   2.886 -0.1503 -0.8481  1.9118
 3346SOL     OW21499   2.142   3.486   3.603  0.0930 -0.0274 -0.1068
 3346SOL    HW121500   2.182   3.560   3.648  0.9465 -1.5629  1.6581
 3346SOL    HW221501   2.091   3.450   3.676  0.8204 -0.7004  0.0764
 3347SOL     OW21502   3.781   1.974   9.930 -0.1385  0.1039 -0.3919
 3347SOL    HW121503   3.845   1.970  10.001  0.0047  0.9159 -0.4807
 3347SOL    HW221504   3.754   1.882   9.935 -1.4362  0.5721  1.4436
 3348SOL     OW21505   4.204   1.017   9.715 -0.0148  0.4776 -0.7992
 3348SOL    HW121506   4.229   0.947   9.775  0.5964  1.4427  0.0596
 3348SOL    HW221507   4.116   0.986   9.696  0.3353 -0.9633 -0.0927
 3349SOL     OW21508   2.982   3.009   9.009  0.0311 -0.0666 -0.0181
 3349SOL    HW121509   2.981   2.914   9.015 -1.1694 -0.0936 -0.6414
 3349SOL    HW221510   2.888   3.021   9.024  0.4372  0.7310  1.8321
 3350SOL     OW21511   3.443   4.238   6.486  0.5556  0.3114 -0.1050
 3350SOL    HW121512   3.502   4.213   6.557  0.5723  0.4085 -0.0843
 3350SOL    HW221513   3.382   4.288   6.540  0.1358 -1.1353  0.7696
 3351SOL     OW21514   2.747   0.525  13.670 -0.4852  0.4244 -0.1866
 3351SOL    HW121515   2.816   0.569  13.719 -0.5562  0.3725 -0.0416
 3351SOL    HW221516   2.671   0.577  13.696 -1.7289 -1.0371 -0.9111
 3352SOL     OW21517   1.456   3.249   2.462  0.4282  0.0525  0.0230
 3352SOL    HW121518   1.405   3.330   2.454 -1.6131 -1.0594  1.7972
 3352SOL    HW221519   1.396   3.202   2.520 -2.2174  2.3335 -0.9052
 3353SOL     OW21520   3.839   0.374   8.449  0.1721 -0.1815  0.0089
 3353SOL    HW121521   3.926   0.400   8.419 -0.0044  0.4361  0.0302
 3353SOL    HW221522   3.801   0.455   8.483 -0.0670 -1.0773  1.8699
 3354SOL     OW21523   1.427   0.051  17.269  0.3727 -0.1071 -0.0447
 3354SOL    HW121524   1.438   4.682  17.238  2.9605  0.2172 -0.0457
 3354SOL    HW221525   1.445   0.097  17.187  0.8244 -1.0937 -0.4941
 3355SOL     OW21526   2.204   3.356  13.490  0.3602  0.0426 -0.1310
 3355SOL    HW121527   2.150   3.427  13.456  0.2817 -0.0261 -0.1487
 3355SOL    HW221528   2.183   3.285  13.429  0.1888  0.6332 -0.7486
 3356SOL     OW21529   1.802   3.367   2.815 -0.4477 -0.0250  0.6477
 3356SOL    HW121530   1.720   3.384   2.769  0.1399 -1.7607 -1.0105
 3356SOL    HW221531   1.864   3.383   2.745  1.2050  0.0039  2.1132
 3357SOL     OW21532   0.753   2.239   0.025 -0.3603  0.5418 -0.1800
 3357SOL    HW121533   0.670   2.270   0.061  0.3204  2.2635 -0.1136
 3357SOL    HW221534   0.731   2.148   0.044  0.9157  0.3977  0.6236
 3358SOL     OW21535   3.639   4.209   7.173 -0.1691 -0.3627  0.5339
 3358SOL    HW121536   3.707   4.248   7.118  0.3433  0.4138  1.7177
 3358SOL    HW221537   3.610   4.128   7.132  3.2665  0.6393 -3.8807
 3359SOL     OW21538   4.382   1.992   0.549  1.2704 -0.3226  0.9545
 3359SOL    HW121539   4.435   2.059   0.505 -1.1388 -1.7580 -4.1535
 3359SOL    HW221540   4.423   1.953   0.626  2.0827  0.3830  0.8790
 3360SOL     OW21541   4.229   3.338  13.162 -0.3717 -0.0756 -0.0545
 3360SOL    HW121542   4.198   3.425  13.188  1.2996  0.4685  0.1406
 3360SOL    HW221543   4.153   3.286  13.137 -0.1645 -0.2802 -0.2458
 3361SOL     OW21544   1.130   2.237   8.986  0.4502 -0.1027  0.1306
 3361SOL    HW121545   1.036   2.243   9.005  0.4684  2.2172 -0.5163
 3361SOL    HW221546   1.170   2.225   9.072 -0.9301 -2.6356  0.3855
 3362SOL     OW21547   3.130   3.021   7.221  0.4015  0.9379  0.0933
 3362SOL    HW121548   3.086   3.067   7.150 -1.0274  1.4578  1.3142
 3362SOL    HW221549   3.081   3.039   7.301 -1.1967 -1.5471 -0.3455
 3363SOL     OW21550   3.289   0.539   6.569  0.2025  0.3566 -0.1813
 3363SOL    HW121551   3.365   0.571   6.521 -0.8201  3.4176  0.2304
 3363SOL    HW221552   3.241   0.491   6.501  1.7346 -1.4060  0.0083
 3364SOL     OW21553   4.349   3.122   9.229 -0.3500  0.0211 -0.6397
 3364SOL    HW121554   4.288   3.090   9.296 -1.0466 -0.1936 -1.3771
 3364SOL    HW221555   4.400   3.177   9.288 -1.7522  0.2278  0.3753
 3365SOL     OW21556   1.960   4.067   2.255  0.0797  0.3382  0.3282
 3365SOL    HW121557   1.895   4.045   2.321 -1.3503  0.1909 -1.1476
 3365SOL    HW221558   1.906   4.118   2.194  0.2922  0.5447  0.3105
 3366SOL     OW21559   3.756   0.053   6.111  0.5794  0.5797 -0.0928
 3366SOL    HW121560   3.806   4.703   6.152  2.6140  3.6141  2.6224
 3366SOL    HW221561   3.819   0.123   6.093 -0.0216  0.9087 -0.9020
 3367SOL     OW21562   1.454   3.825  11.395 -0.2381 -0.2580  0.1298
 3367SOL    HW121563   1.448   3.730  11.407  0.8194 -0.3002  0.2540
 3367SOL    HW221564   1.486   3.842  11.306 -1.6616  0.3795 -0.2697
 3368SOL     OW21565   1.243   2.269   2.362 -0.2815  0.3960 -0.6177
 3368SOL    HW121566   1.248   2.261   2.266 -0.7660 -0.3501 -0.5775
 3368SOL    HW221567   1.156   2.307   2.378 -0.1417 -0.4238  2.0451
 3369SOL     OW21568   2.306   2.708   2.830 -0.6865 -0.0546 -0.0182
 3369SOL    HW121569   2.280   2.744   2.744 -2.5203  2.0493  1.4037
 3369SOL    HW221570   2.324   2.791   2.874 -2.1072  0.8150 -1.0570
 3370SOL     OW21571   0.676   2.879   3.283  0.2218 -0.0140 -0.2329
 3370SOL    HW121572   0.629   2.903   3.202 -0.5877 -1.6939 -0.2626
 3370SOL    HW221573   0.607   2.828   3.327 -0.0720  2.0394  1.6775
 3371SOL     OW21574   4.390   0.321   8.844 -0.1362  0.1359 -0.3236
 3371SOL    HW121575   4.446   0.323   8.922 -2.5094 -1.9193  1.4361
 3371SOL    HW221576   4.363   0.229   8.841 -1.5465  0.5101  0.8557
 3372SOL     OW21577   3.221   4.254  10.873  0.7033 -0.6248 -0.7750
 3372SOL    HW121578   3.280   4.300  10.932 -0.6475 -0.0702  0.1353
 3372SOL    HW221579   3.164   4.212  10.937  0.2985  0.2340 -0.5826
 3373SOL     OW21580   3.127   2.414   9.651  0.5257 -0.0139  0.2364
 3373SOL    HW121581   3.141   2.493   9.599  0.4388  0.3300  0.7409
 3373SOL    HW221582   3.132   2.347   9.583  2.4802 -0.9620  1.3035
 3374SOL     OW21583   0.605   4.178   7.342  0.3341  0.0040 -0.2789
 3374SOL    HW121584   0.623   4.191   7.435 -0.6307 -0.1060 -0.0737
 3374SOL    HW221585   0.632   4.089   7.319  0.4798 -0.7498  2.8158
 3375SOL     OW21586   0.980   1.720  10.962 -0.1763 -1.0165  0.4544
 3375SOL    HW121587   1.006   1.687  11.048  0.0258  2.0818  1.5758
 3375SOL    HW221588   1.055   1.777  10.948 -0.4326 -0.7888  0.0159
 3376SOL     OW21589   3.890   1.429   9.851  0.1604 -0.4220 -0.8037
 3376SOL    HW121590   3.868   1.486   9.925 -1.7184  1.1412 -2.5363
 3376SOL    HW221591   3.982   1.410   9.868  0.4001  1.1138 -0.3758
 3377SOL     OW21592   3.343   3.951  17.294 -0.3148 -0.3705 -0.5287
 3377SOL    HW121593   3.415   3.892  17.275 -1.1471 -1.4475 -0.3333
 3377SOL    HW221594   3.272   3.899  17.258 -2.1546  1.9226 -0.2555
 3378SOL     OW21595   2.386   0.098  16.617  0.0383 -0.4435 -0.1891
 3378SOL    HW121596   2.455   0.051  16.662  0.5545 -0.3875 -0.9161
 3378SOL    HW221597   2.354   0.160  16.683  2.2963 -0.9277  1.3316
 3379SOL     OW21598   1.862   2.492   7.326  0.0632  0.5928 -0.4373
 3379SOL    HW121599   1.886   2.429   7.258 -1.3343  0.2572 -0.6268
 3379SOL    HW221600   1.902   2.459   7.406  1.7244  2.7794 -0.3802
 3380SOL     OW21601   1.583   1.221   0.587 -0.5929 -0.3447 -0.7205
 3380SOL    HW121602   1.579   1.135   0.629 -0.6029 -0.6066 -1.2507
 3380SOL    HW221603   1.669   1.211   0.545  0.1099  1.5927  0.2557
 3381SOL     OW21604   1.429   0.294   1.669 -0.5500  0.7660 -0.3707
 3381SOL    HW121605   1.346   0.273   1.712 -0.3200  0.1177 -0.2414
 3381SOL    HW221606   1.433   0.388   1.687  0.4739  0.9364 -1.4977
 3382SOL     OW21607   2.411   1.742   5.161 -0.1241 -0.3095 -0.3248
 3382SOL    HW121608   2.403   1.728   5.256  2.8412 -0.7473 -0.1535
 3382SOL    HW221609   2.438   1.833   5.176  0.7606 -0.9553  1.9620
 3383SOL     OW21610   4.338   0.732   3.841 -0.2055  0.4296  0.5614
 3383SOL    HW121611   4.412   0.675   3.817 -0.0018  1.3944 -1.1243
 3383SOL    HW221612   4.377   0.819   3.831 -2.1142  1.3962  1.6495
 3384SOL     OW21613   3.177   2.652   2.457 -0.0221 -0.1886 -0.4555
 3384SOL    HW121614   3.119   2.687   2.389 -0.3752  0.0649 -0.0172
 3384SOL    HW221615   3.159   2.703   2.536 -0.9017  1.6515 -1.8426
 3385SOL     OW21616   1.545   1.977   6.845  0.0743 -0.2211  0.2598
 3385SOL    HW121617   1.491   2.021   6.910  2.1335 -0.1195  1.9130
 3385SOL    HW221618   1.538   2.044   6.776  1.4165 -0.5539 -0.2059
 3386SOL     OW21619   1.185   2.987   4.615  0.0277 -0.3865  0.0812
 3386SOL    HW121620   1.248   2.916   4.625  0.0260 -0.3434  0.4098
 3386SOL    HW221621   1.186   3.024   4.704 -3.8206 -0.9171  0.3431
 3387SOL     OW21622   3.545   2.937   4.344 -0.3405 -0.4368 -0.6859
 3387SOL    HW121623   3.613   2.876   4.318 -0.2781 -0.5409 -0.2874
 3387SOL    HW221624   3.521   2.975   4.259  3.9754  3.4503 -0.2125
 3388SOL     OW21625   2.656   0.653   1.361 -0.0701  0.1270  0.1620
 3388SOL    HW121626   2.678   0.576   1.413  0.9405  1.2785  1.4211
 3388SOL    HW221627   2.700   0.627   1.280 -0.2650 -0.0398  0.1093
 3389SOL     OW21628   4.088   0.362   9.418  0.3375 -0.0998  0.2144
 3389SOL    HW121629   4.048   0.316   9.345 -1.5025  1.7927  0.0266
 3389SOL    HW221630   4.177   0.369   9.382  0.2894 -2.0653 -0.2668
 3390SOL     OW21631   4.194   0.608  12.215 -0.0620 -0.0030 -0.8780
 3390SOL    HW121632   4.156   0.553  12.147  0.8657 -1.9240  0.1349
 3390SOL    HW221633   4.191   0.552  12.293  0.3883  0.7351 -0.3167
 3391SOL     OW21634   3.214   2.871  14.071  0.0243  0.2380 -0.3882
 3391SOL    HW121635   3.225   2.873  14.166 -0.5316 -0.1757 -0.3089
 3391SOL    HW221636   3.130   2.916  14.057 -0.3871 -0.3215  0.2407
 3392SOL     OW21637   0.931   1.566   8.689  0.4262 -0.0455  0.3519
 3392SOL    HW121638   0.891   1.483   8.716 -0.7548  0.3559 -0.1456
 3392SOL    HW221639   1.009   1.539   8.641 -0.1135  2.2246 -1.8459
 3393SOL     OW21640   2.696   3.109  16.694 -0.2596  0.1417  0.3018
 3393SOL    HW121641   2.768   3.097  16.633  1.5729  2.0301  2.0791
 3393SOL    HW221642   2.717   3.035  16.751  1.6799 -0.4452 -1.1939
 3394SOL     OW21643   3.347   4.538   6.344  0.4415  0.0257 -0.1038
 3394SOL    HW121644   3.319   4.612   6.290 -2.2358 -0.1630  1.0719
 3394SOL    HW221645   3.440   4.520   6.330  0.2163 -2.5935  1.8301
 3395SOL     OW21646   4.277   0.218   2.843 -0.0939 -0.1543 -0.2948
 3395SOL    HW121647   4.274   0.216   2.748  1.2199  0.8316 -0.3480
 3395SOL    HW221648   4.295   0.124   2.852 -1.9797 -0.5886 -1.0045
 3396SOL     OW21649   2.870   1.942   0.930  0.0377 -0.2920  0.0783
 3396SOL    HW121650   2.927   1.879   0.886 -0.5108  0.4993 -1.7743
 3396SOL    HW221651   2.872   1.907   1.019 -0.8340  1.0646  0.6236
 3397SOL     OW21652   0.473   1.677   8.990 -0.3011 -0.2410  0.9665
 3397SOL    HW121653   0.549   1.634   9.029 -1.4841 -2.5375  0.7453
 3397SOL    HW221654   0.523   1.725   8.924 -0.7524 -1.8460 -0.5108
 3398SOL     OW21655   2.242   4.680   2.587  0.0064 -0.3302  0.2831
 3398SOL    HW121656   2.245   0.051   2.612 -0.6253 -0.6043  1.3606
 3398SOL    HW221657   2.175   4.692   2.519  0.0167 -1.9409 -0.0104
 3399SOL     OW21658   1.206   4.488   5.712 -0.1221  0.1186  0.4413
 3399SOL    HW121659   1.123   4.445   5.691 -0.2109  0.4661  0.0882
 3399SOL    HW221660   1.265   4.452   5.645 -0.0903 -3.2943  2.2801
 3400SOL     OW21661   2.437   4.175   3.431 -0.0151  0.7713  0.5762
 3400SOL    HW121662   2.394   4.090   3.423  3.7646 -1.0880 -0.0118
 3400SOL    HW221663   2.374   4.245   3.414 -1.9447 -1.4900 -1.6005
 3401SOL     OW21664   1.056   3.859  11.636  0.2980  0.0576  0.7754
 3401SOL    HW121665   0.990   3.922  11.668  0.1996 -0.3935  1.4722
 3401SOL    HW221666   1.130   3.919  11.644 -0.5877  1.2382  0.1918
 3402SOL     OW21667   4.379   0.411   3.290  0.2699 -0.0106 -0.2433
 3402SOL    HW121668   4.365   0.328   3.334 -0.7420 -0.2139 -0.9373
 3402SOL    HW221669   4.423   0.389   3.208 -1.8307 -0.1063 -1.3460
 3403SOL     OW21670   4.147   4.350   8.785  0.0409  0.3491 -0.1576
 3403SOL    HW121671   4.217   4.286   8.799  1.5479  2.3636  1.3901
 3403SOL    HW221672   4.174   4.420   8.844  1.3854 -0.3895  0.1133
 3404SOL     OW21673   0.594   1.816   5.416  0.2207  0.0698  0.8095
 3404SOL    HW121674   0.517   1.830   5.471 -0.3611  1.2528 -0.3155
 3404SOL    HW221675   0.655   1.871   5.465  2.0244 -0.7391 -0.4943
 3405SOL     OW21676   2.066   3.071  13.698  0.2958  0.0520 -0.3999
 3405SOL    HW121677   2.046   3.155  13.658 -2.6831  1.0798  3.3123
 3405SOL    HW221678   2.160   3.077  13.680  0.6523  1.5278  2.0191
 3406SOL     OW21679   3.261   2.094   7.790 -0.2491  0.1890  0.0125
 3406SOL    HW121680   3.258   2.016   7.734  0.1991  0.9037 -1.0191
 3406SOL    HW221681   3.185   2.085   7.847 -0.5850  1.2174 -0.2631
 3407SOL     OW21682   2.486   0.644   7.277 -0.0773 -0.1452  0.2134
 3407SOL    HW121683   2.449   0.585   7.343  0.0191 -0.5666 -0.1100
 3407SOL    HW221684   2.405   0.683   7.244  0.3516  0.4738 -0.1022
 3408SOL     OW21685   0.847   1.769   2.687 -0.5287  0.6659  0.0873
 3408SOL    HW121686   0.802   1.852   2.701  0.0374  1.3141 -1.8422
 3408SOL    HW221687   0.815   1.753   2.598 -0.4127 -0.4532  0.2462
 3409SOL     OW21688   2.354   2.032   1.609  0.1860 -0.0952 -0.6959
 3409SOL    HW121689   2.402   2.056   1.529 -0.0670  0.2309 -0.7477
 3409SOL    HW221690   2.307   2.115   1.619  0.7259  0.3955 -2.2194
 3410SOL     OW21691   0.236   4.252   5.831 -0.8644  0.3255  0.1818
 3410SOL    HW121692   0.253   4.159   5.845 -1.1604  0.1568 -0.5908
 3410SOL    HW221693   0.267   4.298   5.909 -0.2615 -0.3568  0.3468
 3411SOL     OW21694   3.831   1.418   4.848  0.4289  0.3583 -0.5428
 3411SOL    HW121695   3.873   1.401   4.763 -1.9961 -0.3746 -1.5902
 3411SOL    HW221696   3.797   1.329   4.856 -2.3391  1.5193  0.4282
 3412SOL     OW21697   1.468   1.142   5.963 -0.1751  0.1172 -0.2661
 3412SOL    HW121698   1.471   1.047   5.972  1.8604  0.1904 -0.1738
 3412SOL    HW221699   1.526   1.153   5.887  1.7378  2.0688  1.4860
 3413SOL     OW21700   2.107   1.272   2.321 -0.5709 -0.4854  0.2193
 3413SOL    HW121701   2.126   1.230   2.237 -1.2536 -0.4867  0.0617
 3413SOL    HW221702   2.180   1.331   2.340 -0.2480 -0.2649 -1.6762
 3414SOL     OW21703   0.045   0.551   6.658 -0.3589 -0.2375  0.2558
 3414SOL    HW121704   4.711   0.515   6.728 -1.0209  0.6624  0.2032
 3414SOL    HW221705   0.004   0.513   6.581  0.2478  0.6504 -0.4950
 3415SOL     OW21706   0.927   4.348   5.668 -0.6549 -0.0648 -0.0656
 3415SOL    HW121707   0.988   4.274   5.664  0.8742  1.1112  1.2656
 3415SOL    HW221708   0.866   4.316   5.602 -1.2909  0.5584  0.2312
 3416SOL     OW21709   0.147   4.556   2.101 -0.6888 -0.0704 -0.2729
 3416SOL    HW121710   0.152   4.610   2.023  0.6245 -1.3230 -1.0539
 3416SOL    HW221711   0.104   4.476   2.070  1.3606 -0.5188 -1.9345
 3417SOL     OW21712   2.564   1.675   0.347 -0.0347  0.3548  0.3030
 3417SOL    HW121713   2.582   1.691   0.439  2.3461 -1.6612  0.1827
 3417SOL    HW221714   2.601   1.587   0.333 -3.0567 -0.8036 -0.4705
 3418SOL     OW21715   0.876   4.055  14.575  0.6431  0.3131  0.5803
 3418SOL    HW121716   0.899   4.009  14.656 -1.4542 -0.0980  0.9412
 3418SOL    HW221717   0.941   4.025  14.511  1.5456  1.8607  0.7448
 3419SOL     OW21718   3.101   4.025  10.677 -0.0161  0.1564  0.1071
 3419SOL    HW121719   3.066   4.080  10.747  0.3464  0.6261 -0.0828
 3419SOL    HW221720   3.111   3.946  10.730  0.9503 -0.0368 -0.3785
 3420SOL     OW21721   2.308   4.500   6.501 -0.3511  0.5646  0.2358
 3420SOL    HW121722   2.240   4.485   6.567  0.6209 -0.7052  0.9507
 3420SOL    HW221723   2.284   4.432   6.437 -1.4103 -0.7401  2.0019
 3421SOL     OW21724   3.090   0.778  10.477 -0.1998  0.5488  0.4150
 3421SOL    HW121725   3.098   0.696  10.525 -2.5985  1.0142  1.6151
 3421SOL    HW221726   3.166   0.771  10.420  0.1465  1.7241  0.7321
 3422SOL     OW21727   3.480   3.617   5.922 -0.0077  0.1410  0.1390
 3422SOL    HW121728   3.549   3.551   5.915 -2.1021 -2.0271  0.0389
 3422SOL    HW221729   3.499   3.674   5.848  0.5670 -0.0722  0.1272
 3423SOL     OW21730   0.333   1.969   3.257 -0.3533  0.1095  0.5832
 3423SOL    HW121731   0.251   2.017   3.259  0.0473  0.7635  1.5435
 3423SOL    HW221732   0.377   2.024   3.192  0.7074  0.5241  1.6370
 3424SOL     OW21733   0.406   1.072   4.008 -0.4373 -0.4554 -0.2489
 3424SOL    HW121734   0.446   1.038   4.088  1.6137  0.2718 -0.9905
 3424SOL    HW221735   0.478   1.078   3.946  0.1210  0.0576  0.4498
 3425SOL     OW21736   0.384   2.562   3.609  0.4843 -0.3001 -0.6968
 3425SOL    HW121737   0.363   2.569   3.702 -0.1998 -1.8175 -0.7483
 3425SOL    HW221738   0.300   2.581   3.568  0.2780  1.4650  0.5292
 3426SOL     OW21739   0.180   2.978   5.230 -0.0249 -0.2978  0.7467
 3426SOL    HW121740   0.122   2.915   5.273 -0.3027  0.1478  1.0328
 3426SOL    HW221741   0.242   2.919   5.189 -1.3406 -1.8003  0.9122
 3427SOL     OW21742   2.468   1.159   3.319 -0.1592 -0.4779 -0.3604
 3427SOL    HW121743   2.416   1.081   3.298 -0.5912 -0.4946  0.7490
 3427SOL    HW221744   2.426   1.197   3.396  0.5583  0.2693 -0.3400
 3428SOL     OW21745   1.556   0.803   5.526 -0.2725  1.0667 -0.1248
 3428SOL    HW121746   1.575   0.896   5.514  2.2656  0.2502 -2.6573
 3428SOL    HW221747   1.481   0.812   5.584  0.0159  2.6318 -0.0126
 3429SOL     OW21748   1.342   1.691   1.828 -0.0330 -0.0238 -0.4652
 3429SOL    HW121749   1.395   1.643   1.763  0.0832  0.2977 -0.6087
 3429SOL    HW221750   1.412   1.742   1.868  1.0678 -0.6258 -1.6092
 3430SOL     OW21751   2.874   1.043   5.022 -0.1483 -0.2376 -0.6115
 3430SOL    HW121752   2.837   1.114   5.075 -0.6634 -0.4548 -0.6726
 3430SOL    HW221753   2.801   0.983   5.038 -0.4087  0.6183  1.4587
 3431SOL     OW21754   2.422   3.840   2.890  0.5944 -0.2395  0.3169
 3431SOL    HW121755   2.515   3.818   2.887  0.2000 -2.0413  1.1250
 3431SOL    HW221756   2.389   3.756   2.858  1.5269 -0.0738 -1.0605
 3432SOL     OW21757   0.418   0.658   4.005 -0.5341  0.4746 -0.0304
 3432SOL    HW121758   0.387   0.568   4.010 -0.7542  0.5602  0.1896
 3432SOL    HW221759   0.361   0.702   4.068  0.1046  2.4650 -0.8349
 3433SOL     OW21760   0.202   3.379  15.038  0.0774 -0.1717  0.6051
 3433SOL    HW121761   0.165   3.339  14.960  0.2888  1.3501 -0.2865
 3433SOL    HW221762   0.292   3.346  15.041  0.3200  0.4679  0.3844
 3434SOL     OW21763   2.833   2.541  14.346 -0.1241  0.4861  0.2792
 3434SOL    HW121764   2.857   2.630  14.369 -2.3415  0.8910  1.0920
 3434SOL    HW221765   2.847   2.546  14.251 -0.2993  1.3336  0.3013
 3435SOL     OW21766   2.735   3.413   5.152 -0.2110  0.3837  0.2351
 3435SOL    HW121767   2.718   3.333   5.201 -1.2757 -0.2487 -1.1393
 3435SOL    HW221768   2.813   3.446   5.196  1.6131 -2.3200 -0.9644
 3436SOL     OW21769   0.677   4.697  14.566 -0.4331  0.6207 -0.6256
 3436SOL    HW121770   0.656   0.059  14.608 -2.2816 -0.5450  0.7117
 3436SOL    HW221771   0.703   4.640  14.638 -4.9756 -0.9357 -0.2276
 3437SOL     OW21772   1.548   2.161  15.112  0.0288  0.1842 -0.2542
 3437SOL    HW121773   1.507   2.084  15.152 -0.8719  0.5005 -0.5775
 3437SOL    HW221774   1.475   2.212  15.076 -1.0734 -1.5120 -0.4185
 3438SOL     OW21775   1.773   1.284   5.572 -0.4029  0.0679  0.8484
 3438SOL    HW121776   1.836   1.247   5.634  0.1044  3.2053  2.1962
 3438SOL    HW221777   1.824   1.344   5.519  0.1267  0.6053  1.9603
 3439SOL     OW21778   1.222   1.825  10.942 -0.4160 -0.0943  0.0848
 3439SOL    HW121779   1.226   1.804  11.035 -0.2139 -0.6661 -0.0538
 3439SOL    HW221780   1.265   1.741  10.925 -0.5145  0.0100 -0.6700
 3440SOL     OW21781   3.255   1.963   3.791 -0.0328 -0.4663  0.3424
 3440SOL    HW121782   3.257   1.918   3.876  1.2416 -0.8608  0.0994
 3440SOL    HW221783   3.251   2.056   3.814 -0.4506 -0.8683  1.9161
 3441SOL     OW21784   4.636   0.247   3.486  0.7691 -0.6284 -0.1685
 3441SOL    HW121785   4.649   0.341   3.472 -0.4021 -0.9123 -3.1102
 3441SOL    HW221786   4.542   0.239   3.501  0.7035  0.2915 -0.0691
 3442SOL     OW21787   1.935   0.948   5.914 -0.7758 -0.6090 -0.1920
 3442SOL    HW121788   1.892   0.892   5.849 -0.9933 -1.8954  1.0556
 3442SOL    HW221789   1.953   0.877   5.976  1.7887  0.3579  0.1563
 3443SOL     OW21790   4.662   1.304   6.145  0.1011  0.4725 -0.3797
 3443SOL    HW121791   4.679   1.251   6.222 -0.2206  3.3479  1.6686
 3443SOL    HW221792   4.633   1.241   6.079  1.4974  0.2530 -0.7951
 3444SOL     OW21793   4.210   3.786  12.709 -0.0244  0.0636 -0.4859
 3444SOL    HW121794   4.271   3.854  12.738 -0.0097 -0.1212 -0.0841
 3444SOL    HW221795   4.240   3.711  12.761  0.1424  0.9932  0.7520
 3445SOL     OW21796   0.201   1.745  11.526 -0.2446  0.7837 -0.2451
 3445SOL    HW121797   0.156   1.663  11.501  1.2570  0.5387 -2.1780
 3445SOL    HW221798   0.250   1.711  11.600 -0.2991  1.7148  0.2092
 3446SOL     OW21799   1.343   2.077   9.663  0.2919 -0.4730 -0.0726
 3446SOL    HW121800   1.393   2.015   9.716  1.1996 -0.0863 -0.4790
 3446SOL    HW221801   1.274   2.104   9.724  0.0614 -1.0018 -0.0979
 3447SOL     OW21802   1.144   4.587   3.045  0.5802 -0.4680  0.4687
 3447SOL    HW121803   1.053   4.583   3.016  0.6748 -0.7361  0.2033
 3447SOL    HW221804   1.185   4.605   2.960 -0.4765 -0.7493 -0.0925
 3448SOL     OW21805   3.475   2.587   4.126 -0.0952  0.0779  0.1880
 3448SOL    HW121806   3.538   2.657   4.146  1.7429 -1.3159 -0.6883
 3448SOL    HW221807   3.436   2.619   4.045  0.9427 -2.9980 -1.5138
 3449SOL     OW21808   3.231   3.098   5.550  0.1980 -0.3341 -0.0583
 3449SOL    HW121809   3.151   3.056   5.518  0.5808  0.1952 -1.6967
 3449SOL    HW221810   3.236   3.072   5.642  0.2501 -0.8827 -0.2189
 3450SOL     OW21811   3.686   1.484   2.030 -0.3724  0.3345 -0.0355
 3450SOL    HW121812   3.657   1.453   1.944  1.3179 -1.2297 -0.0378
 3450SOL    HW221813   3.753   1.418   2.049 -0.4133  0.0645 -0.8560
 3451SOL     OW21814   2.846   4.032  10.002 -0.1003 -0.3883  0.2603
 3451SOL    HW121815   2.886   4.087  10.070 -0.7018  1.9255 -1.2589
 3451SOL    HW221816   2.819   4.099   9.939 -0.8433  0.2022  1.2063
 3452SOL     OW21817   0.836   0.539  12.059 -0.1103 -0.1232 -0.2390
 3452SOL    HW121818   0.876   0.453  12.047  0.2221 -0.2648  1.9046
 3452SOL    HW221819   0.910   0.593  12.032 -1.7714  2.8677  1.0903
 3453SOL     OW21820   3.832   3.400  11.839  0.0356  0.4966 -0.1309
 3453SOL    HW121821   3.858   3.345  11.912 -1.7253  0.1078  0.2013
 3453SOL    HW221822   3.921   3.428  11.816 -0.4101  0.6697 -1.6683
 3454SOL     OW21823   4.121   2.443   1.403 -0.5351  0.6897 -0.0282
 3454SOL    HW121824   4.185   2.376   1.428 -2.7856 -1.2944  0.3708
 3454SOL    HW221825   4.178   2.518   1.383  0.1710  0.3877  0.9030
 3455SOL     OW21826   4.167   1.360   7.536  0.6648  0.0702 -0.5150
 3455SOL    HW121827   4.214   1.327   7.612  0.6159  0.5933 -0.2553
 3455SOL    HW221828   4.221   1.343   7.459  2.1351 -0.1451  0.5665
 3456SOL     OW21829   4.392   3.543   8.894  0.6022 -0.2381 -0.5334
 3456SOL    HW121830   4.346   3.624   8.872  1.4860 -0.0185 -1.5810
 3456SOL    HW221831   4.371   3.534   8.987  1.9551 -0.1376 -0.2162
 3457SOL     OW21832   1.177   2.026  10.569  0.2902  0.4298  0.6393
 3457SOL    HW121833   1.237   2.055  10.637  1.9134 -1.5479  0.0354
 3457SOL    HW221834   1.108   1.996  10.630  0.2599 -0.0112  0.3903
 3458SOL     OW21835   2.038   1.155  11.615 -0.4196  0.5136  0.1020
 3458SOL    HW121836   2.117   1.194  11.652 -1.5956  1.8595  1.1927
 3458SOL    HW221837   2.059   1.146  11.522  2.4605  1.2652  0.6829
 3459SOL     OW21838   2.933   2.272   9.821  0.3001  0.2255 -0.3190
 3459SOL    HW121839   2.978   2.210   9.763 -0.2438  0.5757 -1.1000
 3459SOL    HW221840   2.974   2.349   9.782  0.0164  1.0840  1.0954
 3460SOL     OW21841   3.973   0.035   4.945 -0.3896  0.0699  0.2373
 3460SOL    HW121842   3.902   4.715   4.995  1.0508 -3.1140 -0.2947
 3460SOL    HW221843   4.043   4.690   4.935  1.2834  1.5084  2.3817
 3461SOL     OW21844   4.683   1.556  12.619  0.1099  0.4471  0.3522
 3461SOL    HW121845   0.045   1.513  12.639  0.5092  2.2240  2.4560
 3461SOL    HW221846   4.711   1.647  12.611 -1.0532  0.9743  2.3321
 3462SOL     OW21847   3.066   3.984   6.144 -0.0047  0.4668  0.5496
 3462SOL    HW121848   3.098   4.052   6.084  0.3034  0.9090  1.2094
 3462SOL    HW221849   3.136   3.920   6.151 -1.1720 -0.5938  2.3631
 3463SOL     OW21850   3.749   3.795   6.135 -0.0506 -0.5659  0.9513
 3463SOL    HW121851   3.697   3.875   6.127  0.1961 -0.4222  0.7745
 3463SOL    HW221852   3.838   3.826   6.154 -0.6058  0.5987  1.6758
 3464SOL     OW21853   2.921   2.567   7.599 -0.6473 -0.1002  0.2170
 3464SOL    HW121854   2.833   2.604   7.612 -0.1037  0.7248  1.5674
 3464SOL    HW221855   2.966   2.651   7.588 -0.3236  0.2214  3.9541
 3465SOL     OW21856   1.778   1.620   4.646 -0.2967 -0.2176  0.1297
 3465SOL    HW121857   1.785   1.624   4.741  2.3497 -0.7575 -0.0544
 3465SOL    HW221858   1.722   1.543   4.636 -0.6990  0.3523 -1.9869
 3466SOL     OW21859   2.524   2.753  17.211 -0.2788 -0.1537  0.1149
 3466SOL    HW121860   2.583   2.684  17.241 -3.0746 -2.3796  0.5356
 3466SOL    HW221861   2.583   2.828  17.215 -0.5973  0.2345 -2.4753
 3467SOL     OW21862   3.463   0.637   7.223  0.1671 -0.3331  0.1352
 3467SOL    HW121863   3.389   0.586   7.188  1.9895 -2.8048 -0.1085
 3467SOL    HW221864   3.435   0.727   7.207  0.2893 -0.3433 -0.1189
 3468SOL     OW21865   1.728   2.187   0.983 -0.0230  0.0778 -0.3030
 3468SOL    HW121866   1.672   2.251   0.939 -0.1136  1.7290  2.2301
 3468SOL    HW221867   1.664   2.150   1.044  1.3380 -0.2504  0.9039
 3469SOL     OW21868   0.477   0.202   4.874  0.2591  0.4391  0.4083
 3469SOL    HW121869   0.445   0.156   4.797 -1.1002 -2.1493  2.4923
 3469SOL    HW221870   0.552   0.247   4.835 -1.0247 -0.9648 -3.5698
 3470SOL     OW21871   1.874   3.988  16.013  0.0565 -0.1264  0.4711
 3470SOL    HW121872   1.808   3.935  15.969 -0.4141  1.3736 -0.6192
 3470SOL    HW221873   1.857   3.950  16.100 -0.3110  1.0230  0.9087
 3471SOL     OW21874   0.905   0.971   3.213 -0.1063 -0.3852  0.1298
 3471SOL    HW121875   0.978   1.031   3.197 -1.4217  1.6533  1.8266
 3471SOL    HW221876   0.929   0.926   3.293  0.4955 -0.6810 -0.2174
 3472SOL     OW21877   4.642   2.424   8.103 -0.4980  0.2944 -0.0609
 3472SOL    HW121878   4.639   2.511   8.064  0.9431  0.1886 -0.4373
 3472SOL    HW221879   0.015   2.418   8.123  0.2864  2.3256 -3.0505
 3473SOL     OW21880   3.887   3.025   2.983 -0.0861 -0.1479  0.3714
 3473SOL    HW121881   3.818   2.959   2.984 -2.0971  1.9396 -1.4722
 3473SOL    HW221882   3.889   3.065   3.070  0.7553 -0.1185  0.3372
 3474SOL     OW21883   3.292   0.144   4.347 -0.5335 -0.3342 -0.0440
 3474SOL    HW121884   3.371   0.125   4.297 -0.9248 -2.2795  0.0858
 3474SOL    HW221885   3.294   0.066   4.403 -0.7942  0.9942  1.8221
 3475SOL     OW21886   2.169   0.419   5.491  0.5823 -0.2322 -0.3480
 3475SOL    HW121887   2.243   0.366   5.460  2.5974  1.5146  1.5689
 3475SOL    HW221888   2.128   0.419   5.404  0.0698  5.1104 -0.0830
 3476SOL     OW21889   1.988   3.633   5.353  0.1915 -0.0743  0.0531
 3476SOL    HW121890   1.989   3.541   5.325 -1.3819  0.2141 -0.9798
 3476SOL    HW221891   2.076   3.662   5.329 -0.4437  1.0110 -0.9458
 3477SOL     OW21892   3.990   2.621   6.560 -0.1650  0.4987 -0.5324
 3477SOL    HW121893   3.985   2.608   6.466  0.2149  0.4119 -0.5414
 3477SOL    HW221894   4.062   2.684   6.568  0.3203 -0.0774 -0.3760
 3478SOL     OW21895   4.171   1.579   5.786 -0.4746  0.2743 -0.9498
 3478SOL    HW121896   4.076   1.573   5.781 -0.6054  0.1754  1.3255
 3478SOL    HW221897   4.167   1.588   5.882  2.0610 -2.1989 -0.6175
 3479SOL     OW21898   2.960   1.855   4.025 -0.4050 -0.0943  0.2024
 3479SOL    HW121899   3.052   1.842   4.048 -0.2635 -1.3262 -1.0481
 3479SOL    HW221900   2.911   1.832   4.104  2.0805 -2.3100  1.1124
 3480SOL     OW21901   0.460   2.888   8.881 -0.3759  0.1163  0.1850
 3480SOL    HW121902   0.444   2.979   8.906  0.4853 -0.2551  2.0680
 3480SOL    HW221903   0.380   2.876   8.829 -0.7141  1.5500  0.3829
 3481SOL     OW21904   3.961   3.057   8.594  0.6850 -0.0087  0.2539
 3481SOL    HW121905   3.985   2.988   8.656  2.3535  0.0881 -0.2859
 3481SOL    HW221906   4.042   3.060   8.542  0.9765  2.3790  0.8344
 3482SOL     OW21907   3.580   4.612  14.181 -0.3216  0.4927  0.0260
 3482SOL    HW121908   3.530   4.551  14.235  1.3547  0.1908  1.2628
 3482SOL    HW221909   3.623   4.550  14.122  0.2171  2.8807 -2.1074
 3483SOL     OW21910   1.792   3.115   8.745  0.1943 -0.2279  0.4322
 3483SOL    HW121911   1.785   3.040   8.804 -0.3916 -1.8807 -1.7669
 3483SOL    HW221912   1.708   3.113   8.701  0.9507 -2.1267 -0.9171
 3484SOL     OW21913   3.875   4.456  15.952  0.1386  0.3523  0.1414
 3484SOL    HW121914   3.793   4.426  15.914  0.1560  0.2905  0.1531
 3484SOL    HW221915   3.890   4.391  16.021 -2.9249 -0.4536  0.0093
 3485SOL     OW21916   3.529   4.669   4.333  0.3259 -0.5590  0.1780
 3485SOL    HW121917   3.596   4.615   4.374  2.6810  0.0582 -2.8475
 3485SOL    HW221918   3.501   4.624   4.253  0.1004  1.1014 -0.6930
 3486SOL     OW21919   1.257   1.676  16.240 -0.3881  0.4712  0.1653
 3486SOL    HW121920   1.217   1.750  16.285  1.4267  1.0464  0.8307
 3486SOL    HW221921   1.289   1.625  16.314 -1.8026 -2.1379 -1.0358
 3487SOL     OW21922   0.529   2.937   5.803 -0.2693 -0.8655 -0.2459
 3487SOL    HW121923   0.603   2.954   5.862  0.2385  0.5106 -1.2673
 3487SOL    HW221924   0.469   2.900   5.867 -0.6603 -1.0320 -0.7115
 3488SOL     OW21925   1.444   0.864   1.281  0.6432  0.0264 -0.7720
 3488SOL    HW121926   1.428   0.910   1.364 -0.1256  0.7233 -1.3128
 3488SOL    HW221927   1.358   0.855   1.239  0.4454  3.2658 -1.0371
 3489SOL     OW21928   3.481   1.624   5.136 -0.2150  0.2933  0.2611
 3489SOL    HW121929   3.480   1.529   5.124  2.3078  0.1675  1.1095
 3489SOL    HW221930   3.528   1.626   5.219  1.6544  1.9606 -0.8432
 3490SOL     OW21931   0.406   2.493  12.957 -0.1781  0.3180 -0.7034
 3490SOL    HW121932   0.384   2.559  12.890  1.6186  0.4533 -1.1680
 3490SOL    HW221933   0.472   2.539  13.009 -0.0387 -0.3950 -0.2617
 3491SOL     OW21934   1.845   0.398   7.613  0.2614  0.0675  0.6810
 3491SOL    HW121935   1.919   0.340   7.595 -1.3789 -1.7258 -0.3393
 3491SOL    HW221936   1.871   0.439   7.696 -0.1703  0.9322  0.3867
 3492SOL     OW21937   2.287   0.009   5.555 -0.1105  0.1399  0.0398
 3492SOL    HW121938   2.213   0.049   5.509  1.4623  2.5536 -0.3880
 3492SOL    HW221939   2.312   4.663   5.491  0.1169  0.8914 -0.6622
 3493SOL     OW21940   1.533   1.448  13.529 -0.3097  0.9141 -0.4940
 3493SOL    HW121941   1.461   1.511  13.520 -0.0881  1.4104  1.2395
 3493SOL    HW221942   1.527   1.407  13.442 -1.5218 -0.1881  0.1120
 3494SOL     OW21943   3.810   4.264  15.230 -0.2766  0.0018 -0.2548
 3494SOL    HW121944   3.866   4.299  15.160  0.8097  0.8863  1.0493
 3494SOL    HW221945   3.801   4.347  15.277 -0.6974  0.4340 -1.1045
 3495SOL     OW21946   4.127   1.517   3.646  0.4353  0.3907  0.3326
 3495SOL    HW121947   4.088   1.605   3.643 -1.9099 -0.6332  1.1087
 3495SOL    HW221948   4.075   1.477   3.715 -0.5226  1.4670  0.2324
 3496SOL     OW21949   2.694   4.552   2.615 -0.5902  0.8223  0.4254
 3496SOL    HW121950   2.667   4.579   2.702 -1.5596  1.8434 -0.1951
 3496SOL    HW221951   2.648   4.469   2.610 -2.5368  1.9432 -0.2243
 3497SOL     OW21952   4.189   2.309   4.816  0.7735 -0.1430 -0.7564
 3497SOL    HW121953   4.250   2.334   4.747  1.6608 -3.8124 -1.2850
 3497SOL    HW221954   4.144   2.235   4.775  0.8307 -0.5577 -0.0843
 3498SOL     OW21955   3.580   2.725   8.852 -0.0916 -0.1834 -0.6809
 3498SOL    HW121956   3.529   2.736   8.933 -0.5115  0.9031 -1.0906
 3498SOL    HW221957   3.526   2.674   8.791 -1.9023  0.1931  0.5921
 3499SOL     OW21958   2.033   3.172   8.592  0.4124 -0.2946  0.0776
 3499SOL    HW121959   1.967   3.176   8.661  0.1929 -0.5712 -0.1187
 3499SOL    HW221960   2.067   3.085   8.613  0.7736  0.0875  1.0700
 3500SOL     OW21961   0.498   2.865   7.687  0.6838 -0.2162  0.7734
 3500SOL    HW121962   0.410   2.887   7.719  0.2261  0.6241 -1.0703
 3500SOL    HW221963   0.548   2.945   7.672  1.6526 -1.3643 -2.0697
 3501SOL     OW21964   4.037   0.529   8.979  0.6086  0.4126  0.4293
 3501SOL    HW121965   4.050   0.613   9.022  0.5484 -0.2198  1.6716
 3501SOL    HW221966   4.088   0.530   8.898 -1.0713 -1.4421 -0.6660
 3502SOL     OW21967   1.807   1.782  11.480  0.0502 -0.1921  0.2115
 3502SOL    HW121968   1.757   1.718  11.430  1.0263 -2.3242  1.9522
 3502SOL    HW221969   1.894   1.787  11.441 -1.3738  0.4995 -2.8384
 3503SOL     OW21970   1.700   2.152   7.759 -1.0434  0.1876  0.2781
 3503SOL    HW121971   1.646   2.210   7.706 -0.1005 -0.8432 -1.8066
 3503SOL    HW221972   1.763   2.209   7.804 -1.0290  1.7194 -1.6912
 3504SOL     OW21973   2.859   2.217   4.491  0.7498  0.1823  0.4059
 3504SOL    HW121974   2.763   2.219   4.491  0.7267 -0.8793  1.3377
 3504SOL    HW221975   2.880   2.309   4.505  0.4200  0.2570  0.4129
 3505SOL     OW21976   3.303   1.343   4.421 -0.2362  0.4135 -0.4162
 3505SOL    HW121977   3.384   1.344   4.471 -0.6677 -0.0914  0.2823
 3505SOL    HW221978   3.243   1.382   4.486 -1.1567 -2.5265  0.4846
 3506SOL     OW21979   0.879   0.143   3.212 -0.0695  0.0815 -0.4171
 3506SOL    HW121980   0.920   0.226   3.237  1.8077 -0.7373 -0.8360
 3506SOL    HW221981   0.866   0.155   3.118 -0.7790 -0.4673 -0.3860
 3507SOL     OW21982   1.884   2.544   1.693 -0.3811 -0.0786  0.4050
 3507SOL    HW121983   1.830   2.613   1.654  1.0157  1.3612  1.0016
 3507SOL    HW221984   1.971   2.571   1.661 -0.5699  1.1666  0.9509
 3508SOL     OW21985   1.556   2.270   3.159 -0.1115 -0.2557 -0.5924
 3508SOL    HW121986   1.491   2.316   3.107 -0.3296 -0.1407 -0.2233
 3508SOL    HW221987   1.567   2.186   3.115  1.2632 -0.7148  0.5949
 3509SOL     OW21988   0.748   3.613   7.703  0.6704 -1.0027 -0.0228
 3509SOL    HW121989   0.774   3.535   7.752 -3.7202 -2.0525  0.6156
 3509SOL    HW221990   0.785   3.602   7.615 -0.0559 -1.1870 -0.3092
 3510SOL     OW21991   3.636   1.903   2.427 -0.0858  0.0566  0.1407
 3510SOL    HW121992   3.610   1.917   2.336 -0.6823  1.0561  0.4547
 3510SOL    HW221993   3.645   1.808   2.424 -0.0021  0.0219  1.7296
 3511SOL     OW21994   0.263   1.992   8.314  0.5401 -0.2557 -0.8114
 3511SOL    HW121995   0.230   2.066   8.365  4.5461  0.8799  0.0998
 3511SOL    HW221996   0.199   1.999   8.244 -1.6464 -0.5190  1.1398
 3512SOL     OW21997   3.567   1.543   4.821  0.0513  0.5531 -0.0477
 3512SOL    HW121998   3.520   1.470   4.862 -2.9723  1.7024 -1.4261
 3512SOL    HW221999   3.659   1.535   4.846 -0.5380 -0.4414  1.7515
 3513SOL     OW22000   3.987   3.151  13.360  0.2465 -0.1242 -0.3359
 3513SOL    HW122001   3.907   3.098  13.369  0.3764 -0.0349  1.3626
 3513SOL    HW222002   4.004   3.162  13.267 -0.4665  3.1846 -0.0678
 3514SOL     OW22003   1.864   4.049  14.928 -0.1694 -0.2659  0.0133
 3514SOL    HW122004   1.954   4.017  14.922  0.8819  2.6449  0.2547
 3514SOL    HW222005   1.832   3.999  15.003  0.3762 -0.1246  0.3422
 3515SOL     OW22006   1.059   4.584  11.911  0.2775 -0.2803  0.1776
 3515SOL    HW122007   1.094   4.611  11.826 -4.0792 -0.4847 -1.6842
 3515SOL    HW222008   1.050   4.491  11.889 -1.9714 -0.2097  0.7623
 3516SOL     OW22009   1.585   3.032   7.829  0.2932  0.6025  0.0155
 3516SOL    HW122010   1.597   2.957   7.769  1.9972  0.1168  0.9737
 3516SOL    HW222011   1.495   3.060   7.809  0.2465  0.4989  0.0800
 3517SOL     OW22012   2.326   3.071   1.837 -0.0887 -0.2842 -0.0977
 3517SOL    HW122013   2.358   3.079   1.747  0.3114 -0.4477  0.0284
 3517SOL    HW222014   2.378   2.995   1.863 -2.2314 -1.0846  1.7385
 3518SOL     OW22015   1.189   3.960   1.404  0.9335  0.1660 -0.1087
 3518SOL    HW122016   1.120   3.937   1.341 -0.1868  0.5103  1.0085
 3518SOL    HW222017   1.142   4.029   1.450  3.2722  2.8118 -1.6349
 3519SOL     OW22018   3.778   2.795   2.755 -0.1102 -0.1243 -0.2986
 3519SOL    HW122019   3.835   2.718   2.753  1.0938  0.7396  0.6875
 3519SOL    HW222020   3.828   2.856   2.701 -0.2518  0.1211 -0.1563
 3520SOL     OW22021   4.162   1.071   3.414  0.0456 -0.2173 -0.3677
 3520SOL    HW122022   4.068   1.083   3.427  0.0166  0.4168 -1.1557
 3520SOL    HW222023   4.199   1.111   3.492 -2.3270  1.3226 -0.0356
 3521SOL     OW22024   3.466   2.341   7.378  0.6067  0.3307  0.2765
 3521SOL    HW122025   3.542   2.296   7.343  1.1906  0.8702  0.8406
 3521SOL    HW222026   3.491   2.434   7.376  1.6297  0.0336 -0.7006
 3522SOL     OW22027   1.875   0.425   8.031 -0.0545 -0.0842  0.3392
 3522SOL    HW122028   1.939   0.362   7.996 -1.3267  0.4639 -3.0049
 3522SOL    HW222029   1.798   0.370   8.048  0.2357 -1.2969 -2.1537
 3523SOL     OW22030   2.923   0.526   1.983  0.1983 -0.0892  0.5464
 3523SOL    HW122031   2.955   0.613   2.004  2.2807 -0.8816  0.7041
 3523SOL    HW222032   2.829   0.539   1.979  0.6115  2.4235 -0.7965
 3524SOL     OW22033   1.702   3.635   8.374 -0.1660  0.0001  0.2771
 3524SOL    HW122034   1.781   3.683   8.350 -0.9527  1.2486  0.1992
 3524SOL    HW222035   1.702   3.638   8.470 -2.6765  2.1097  0.2051
 3525SOL     OW22036   2.109   1.003   2.542 -0.7048  0.1264 -0.0766
 3525SOL    HW122037   2.185   0.960   2.502 -1.4058 -1.7890  0.6308
 3525SOL    HW222038   2.064   1.060   2.480  2.4527  0.4618 -2.0400
 3526SOL     OW22039   3.245   2.836   9.590 -0.0655  0.2141 -0.0058
 3526SOL    HW122040   3.178   2.779   9.628  0.8741  0.4952  2.0536
 3526SOL    HW222041   3.218   2.835   9.498  0.3718 -0.8994 -0.1283
 3527SOL     OW22042   0.245   3.081   0.269  0.3044 -0.2186 -0.1567
 3527SOL    HW122043   0.341   3.084   0.279  0.1060  3.6274  0.5326
 3527SOL    HW222044   0.226   3.023   0.342  3.2059 -0.6597  0.2570
 3528SOL     OW22045   3.043   2.294   8.447 -0.2414  0.6552 -0.2327
 3528SOL    HW122046   3.078   2.265   8.531  1.2468 -0.1236 -1.1230
 3528SOL    HW222047   2.950   2.301   8.469 -0.3179  1.4547 -0.7812
 3529SOL     OW22048   0.392   2.639   8.489  0.0384  0.0620  0.2690
 3529SOL    HW122049   0.464   2.659   8.549  0.6004 -2.9517  0.5578
 3529SOL    HW222050   0.324   2.638   8.555  0.7245 -1.5979  0.9475
 3530SOL     OW22051   2.194   1.187   8.403  0.0460 -0.0854 -1.0168
 3530SOL    HW122052   2.230   1.130   8.471  0.1796  0.0308 -0.9903
 3530SOL    HW222053   2.111   1.140   8.393  0.4037 -1.1507  1.1385
 3531SOL     OW22054   4.163   4.358   1.850 -0.1723  0.2436  0.1403
 3531SOL    HW122055   4.176   4.318   1.764 -1.2439 -0.4570  0.2952
 3531SOL    HW222056   4.128   4.280   1.893  0.2580  0.6774  1.2651
 3532SOL     OW22057   0.448   0.396   7.774  0.3069 -0.1775 -0.0835
 3532SOL    HW122058   0.454   0.491   7.771 -1.1267 -0.1508 -2.5246
 3532SOL    HW222059   0.539   0.367   7.774  0.6883  1.0308 -1.0479
 3533SOL     OW22060   4.142   2.134   0.270  0.0165 -0.3211  0.2799
 3533SOL    HW122061   4.146   2.115   0.364  1.8874  0.2713  0.3183
 3533SOL    HW222062   4.119   2.225   0.252  0.4058 -0.2462  0.1661
 3534SOL     OW22063   3.028   0.776  10.046  0.5453 -0.4533  0.4700
 3534SOL    HW122064   3.014   0.681  10.050 -1.3337 -0.2398 -0.8862
 3534SOL    HW222065   3.081   0.783  10.125 -3.0713 -0.4572  2.9302
 3535SOL     OW22066   2.495   2.584   2.271 -0.1386 -0.0254 -0.2899
 3535SOL    HW122067   2.582   2.606   2.237  0.6439  0.6411  2.0818
 3535SOL    HW222068   2.512   2.601   2.364 -1.8592 -0.3724  0.0912
 3536SOL     OW22069   2.731   2.886   5.779  0.6061 -0.4623  0.7303
 3536SOL    HW122070   2.761   2.804   5.818  0.8373 -1.4210 -1.4604
 3536SOL    HW222071   2.734   2.870   5.685  1.5207  0.6259  0.5812
 3537SOL     OW22072   0.476   4.411   3.898 -0.0126 -0.4262 -0.5555
 3537SOL    HW122073   0.477   4.316   3.896  0.2451 -0.4209 -0.6771
 3537SOL    HW222074   0.499   4.443   3.985  0.7452 -2.1796 -0.1136
 3538SOL     OW22075   1.444   0.225   4.039  0.5501 -0.1207 -0.1794
 3538SOL    HW122076   1.378   0.198   4.102  1.0207 -1.3689 -0.2072
 3538SOL    HW222077   1.504   0.150   4.034  0.3862 -0.1542 -1.7937
 3539SOL     OW22078   1.916   4.194   2.609 -0.1507 -0.9571 -0.1852
 3539SOL    HW122079   1.933   4.288   2.618  0.9631 -1.2218  0.4258
 3539SOL    HW222080   1.995   4.164   2.564 -0.0495 -1.3391  0.2514
 3540SOL     OW22081   0.611   3.405   1.450  0.5657 -0.4996  0.2056
 3540SOL    HW122082   0.636   3.394   1.358  2.2173  0.6705  0.5047
 3540SOL    HW222083   0.576   3.317   1.463  1.5634 -0.8481  0.5548
 3541SOL     OW22084   4.087   3.902   6.870  0.4333  0.3037 -0.6333
 3541SOL    HW122085   4.139   3.837   6.916  1.0672  0.8064 -0.6424
 3541SOL    HW222086   4.017   3.845   6.838 -1.7062  1.7752  1.4147
 3542SOL     OW22087   0.730   1.225   1.374  0.4527 -0.6798  0.5182
 3542SOL    HW122088   0.755   1.143   1.331 -1.1540 -0.7763 -0.2148
 3542SOL    HW222089   0.796   1.234   1.442 -0.6611  0.0519  1.5003
 3543SOL     OW22090   1.950   2.808  13.997 -0.3692  0.5089  0.3633
 3543SOL    HW122091   1.991   2.804  14.083 -0.5717  1.1502  0.4900
 3543SOL    HW222092   1.877   2.868  14.012 -0.3143  0.1951  1.8804
 3544SOL     OW22093   3.084   2.277   9.339  0.0978 -0.3006  0.2978
 3544SOL    HW122094   3.136   2.245   9.266 -0.7910  0.6863 -0.7743
 3544SOL    HW222095   3.119   2.365   9.354 -1.8490  0.4275  0.5719
 3545SOL     OW22096   0.466   0.023   8.092 -0.3881 -0.5909  0.0377
 3545SOL    HW122097   0.401   0.027   8.022 -1.6723  1.6473  1.3493
 3545SOL    HW222098   0.436   0.100   8.142  0.5126 -0.2987  0.1345
 3546SOL     OW22099   1.876   0.184   7.180  0.7392  0.3151  0.1605
 3546SOL    HW122100   1.854   0.276   7.195 -0.7468 -0.5396  3.3142
 3546SOL    HW222101   1.806   0.167   7.116 -0.0377 -0.6786  1.2672
 3547SOL     OW22102   3.376   3.498   7.152  0.4708 -0.4807 -0.5120
 3547SOL    HW122103   3.289   3.480   7.115  0.3298 -3.3665  1.1709
 3547SOL    HW222104   3.397   3.415   7.194  0.0670 -0.0268  0.5788
 3548SOL     OW22105   1.232   1.805   4.509 -0.7202 -0.1142 -0.6274
 3548SOL    HW122106   1.282   1.737   4.553  0.8014  1.8708  0.6453
 3548SOL    HW222107   1.188   1.748   4.445 -0.9877 -1.2834  0.6111
 3549SOL     OW22108   3.723   4.396  10.103 -0.0213 -0.0359 -0.5849
 3549SOL    HW122109   3.661   4.394  10.176  2.4148 -2.0876  1.4466
 3549SOL    HW222110   3.767   4.476  10.133 -1.3431  0.9213 -1.1970
 3550SOL     OW22111   2.956   2.350   5.370 -0.3530 -0.1108 -0.0930
 3550SOL    HW122112   2.970   2.276   5.310  2.2950 -0.4931  0.9769
 3550SOL    HW222113   3.019   2.417   5.342  2.7953 -2.7963  0.4339
 3551SOL     OW22114   1.594   3.740  17.209  0.1017  0.0626 -0.5163
 3551SOL    HW122115   1.528   3.682  17.245 -0.5145  0.3953 -1.1243
 3551SOL    HW222116   1.643   3.672  17.163 -1.5516 -0.9754 -0.7434
 3552SOL     OW22117   3.837   0.837   7.563 -0.5181  0.0048  0.5574
 3552SOL    HW122118   3.924   0.832   7.524 -0.5807 -1.1807  0.5645
 3552SOL    HW222119   3.794   0.758   7.531  1.1981  0.1243 -2.0382
 3553SOL     OW22120   1.400   4.371   4.839  1.0346  0.5916  0.5081
 3553SOL    HW122121   1.391   4.317   4.761  0.7836  1.0223  0.2379
 3553SOL    HW222122   1.438   4.309   4.901  2.1649 -0.1797 -0.9558
 3554SOL     OW22123   0.801   2.568   6.865 -0.5441 -0.2630 -0.3026
 3554SOL    HW122124   0.742   2.578   6.939 -0.3608 -0.9975 -0.0536
 3554SOL    HW222125   0.794   2.657   6.830 -1.6156 -0.8009 -1.4311
 3555SOL     OW22126   1.372   1.224   8.037  0.0983 -0.0091  0.1296
 3555SOL    HW122127   1.465   1.239   8.021 -0.1109 -0.3956 -1.4376
 3555SOL    HW222128   1.370   1.130   8.021  1.2277 -0.0985  0.4969
 3556SOL     OW22129   3.071   4.198   5.545 -0.0236  0.0287  0.1286
 3556SOL    HW122130   3.077   4.226   5.454 -0.2481  0.0930  0.1356
 3556SOL    HW222131   3.135   4.127   5.550 -0.1393  0.0663  2.2904
 3557SOL     OW22132   1.266   3.871   8.493  0.2301  0.1196 -0.2611
 3557SOL    HW122133   1.294   3.792   8.447 -1.2756 -1.1244  0.9543
 3557SOL    HW222134   1.299   3.848   8.580  1.3476  0.2206 -0.6521
 3558SOL     OW22135   2.951   1.580  10.299  0.1787 -0.2416  0.7495
 3558SOL    HW122136   3.000   1.594  10.380 -1.0422  0.7703  1.2969
 3558SOL    HW222137   3.020   1.544  10.242 -0.9953  1.0696 -1.5129
 3559SOL     OW22138   1.400   4.295   4.362  0.0660  0.7795 -0.1816
 3559SOL    HW122139   1.467   4.350   4.321 -0.4935  1.4776 -0.1755
 3559SOL    HW222140   1.447   4.212   4.356 -1.6148 -0.1539 -0.7373
 3560SOL     OW22141   0.424   0.639   7.722 -0.0829 -0.5971  0.0099
 3560SOL    HW122142   0.489   0.675   7.662 -1.1961  1.3674 -0.0143
 3560SOL    HW222143   0.382   0.721   7.746  0.9402 -0.7400  2.2608
 3561SOL     OW22144   0.259   0.766   4.193  0.5878 -0.0974 -0.3182
 3561SOL    HW122145   0.236   0.858   4.208 -0.4384 -0.5769  1.0757
 3561SOL    HW222146   0.307   0.748   4.274 -1.8420  0.8979  1.3336
 3562SOL     OW22147   3.728   1.145   3.784 -0.0233 -0.1642 -0.4808
 3562SOL    HW122148   3.797   1.084   3.760 -0.3779 -0.6685 -0.2088
 3562SOL    HW222149   3.661   1.102   3.730 -0.3348  0.1888 -0.3807
 3563SOL     OW22150   2.129   3.355   3.325 -0.0739 -0.7828  0.4519
 3563SOL    HW122151   2.056   3.392   3.374  0.1315 -0.5780  0.6007
 3563SOL    HW222152   2.176   3.342   3.407  1.0751  2.4379  0.2933
 3564SOL     OW22153   0.744   2.138   2.594  0.5031 -0.2518 -0.0311
 3564SOL    HW122154   0.713   2.227   2.578  0.4574 -0.1197  0.7877
 3564SOL    HW222155   0.838   2.138   2.577  0.7139 -2.0571  1.1475
 3565SOL     OW22156   0.377   0.747  14.854  0.1913  0.8816  0.1004
 3565SOL    HW122157   0.354   0.715  14.766  0.6239  3.0114 -0.7970
 3565SOL    HW222158   0.323   0.825  14.862 -1.4425 -0.1876 -0.5044
 3566SOL     OW22159   1.354   3.012   6.696  0.2448  0.0040  0.4805
 3566SOL    HW122160   1.355   3.088   6.638  0.0546 -1.2576 -1.1792
 3566SOL    HW222161   1.265   2.978   6.681  0.6724 -1.1399  0.5377
 3567SOL     OW22162   0.472   1.689  17.223  0.5512  0.2432  0.0858
 3567SOL    HW122163   0.398   1.729  17.177  0.1470 -0.4965  0.0993
 3567SOL    HW222164   0.505   1.642  17.146  0.6379  2.6667 -1.3443
 3568SOL     OW22165   4.681   1.762   8.925 -0.1128  0.1166 -0.3381
 3568SOL    HW122166   4.668   1.812   9.006 -2.4205  0.1945 -0.7635
 3568SOL    HW222167   0.055   1.746   8.921 -0.2489 -0.9638  0.7442
 3569SOL     OW22168   2.798   2.688  13.254 -0.7651  0.6951 -0.0739
 3569SOL    HW122169   2.745   2.761  13.286 -1.1496  0.8862 -1.1445
 3569SOL    HW222170   2.885   2.725  13.268 -0.7195  0.6048 -0.1225
 3570SOL     OW22171   3.555   4.396  10.327 -0.0530 -0.1527 -0.8894
 3570SOL    HW122172   3.461   4.377  10.317  0.0924 -0.8979 -0.8569
 3570SOL    HW222173   3.551   4.472  10.386 -1.4832  2.8865 -4.9004
 3571SOL     OW22174   4.234   0.901   5.958  0.4497  0.3008 -0.1043
 3571SOL    HW122175   4.165   0.852   6.004 -1.3070  1.1740 -1.8168
 3571SOL    HW222176   4.294   0.826   5.961  0.0318 -0.0471 -0.4659
 3572SOL     OW22177   0.925   4.599  12.519 -0.5444 -0.0435 -0.0832
 3572SOL    HW122178   0.843   4.648  12.509  0.9528  2.0024 -2.2543
 3572SOL    HW222179   0.923   4.597  12.615  0.2647 -3.6644 -0.1161
 3573SOL     OW22180   3.262   4.480  13.767  0.8815 -0.8682  0.2116
 3573SOL    HW122181   3.280   4.544  13.698 -2.6082  1.4712  1.4575
 3573SOL    HW222182   3.185   4.523  13.804  0.9567 -0.0760 -0.5402
 3574SOL     OW22183   0.130   0.932   1.375  0.1269 -0.4419 -0.5635
 3574SOL    HW122184   0.061   0.867   1.389 -0.2500 -0.3044 -1.7313
 3574SOL    HW222185   0.209   0.893   1.412  0.2258 -0.3863 -0.7167
 3575SOL     OW22186   2.354   3.079   1.576  0.2626  0.3469 -0.2560
 3575SOL    HW122187   2.317   3.021   1.510 -1.6280 -0.0570  1.1447
 3575SOL    HW222188   2.370   3.160   1.527 -2.6657  2.2798  1.9716
 3576SOL     OW22189   2.118   1.024   0.428 -0.2280  0.3064  0.3193
 3576SOL    HW122190   2.164   0.988   0.504  1.1430  2.1495  0.3608
 3576SOL    HW222191   2.053   1.068   0.482 -0.2414  1.2462 -0.4513
 3577SOL     OW22192   2.346   2.435   8.378  0.1204 -0.2194  0.7407
 3577SOL    HW122193   2.315   2.487   8.304  0.2264  0.3735  1.1124
 3577SOL    HW222194   2.420   2.486   8.410  0.1942 -1.0502  1.8974
 3578SOL     OW22195   0.448   2.100   2.758  0.1616 -0.0558 -0.2722
 3578SOL    HW122196   0.520   2.161   2.745  1.2261 -0.9715  1.3823
 3578SOL    HW222197   0.406   2.128   2.839  0.9076  2.6153 -0.7935
 3579SOL     OW22198   2.790   0.924  14.869  0.3233  0.4280 -0.0036
 3579SOL    HW122199   2.856   0.861  14.840 -2.2793 -1.2759 -2.2829
 3579SOL    HW222200   2.841   1.000  14.896 -0.6235  0.9322  0.3822
 3580SOL     OW22201   4.682   3.941  11.729 -0.2564 -0.2453  0.1763
 3580SOL    HW122202   4.670   3.992  11.809 -2.4692  3.0219 -2.2232
 3580SOL    HW222203   0.032   3.980  11.678 -0.5402  1.7926  1.3129
 3581SOL     OW22204   0.464   2.560  17.642  0.2129  0.1148  0.3094
 3581SOL    HW122205   0.372   2.567  17.615  0.1082 -1.3167  0.3010
 3581SOL    HW222206   0.501   2.531  17.559 -0.7653 -2.2030  0.6820
 3582SOL     OW22207   1.313   3.892   3.304 -0.2661  0.0237 -0.4731
 3582SOL    HW122208   1.386   3.898   3.366 -0.4563 -3.4268  0.1242
 3582SOL    HW222209   1.255   3.965   3.325  0.2135  0.0419  0.8251
 3583SOL     OW22210   3.300   2.290  17.321  0.6178  0.2653 -0.3510
 3583SOL    HW122211   3.360   2.250  17.258  0.2599  0.2004 -0.6510
 3583SOL    HW222212   3.218   2.245  17.300 -0.1298  1.4591  0.0298
 3584SOL     OW22213   3.440   2.583   9.622 -0.8779 -0.2819 -0.1463
 3584SOL    HW122214   3.499   2.654   9.647  0.3623 -1.8670  1.4342
 3584SOL    HW222215   3.496   2.519   9.577  2.3743  3.1461 -0.9971
 3585SOL     OW22216   1.338   0.593   3.799  0.1822  0.2418 -0.7643
 3585SOL    HW122217   1.365   0.619   3.711  3.2756  1.6933  0.6059
 3585SOL    HW222218   1.299   0.506   3.788  0.8018 -0.3169  1.4096
 3586SOL     OW22219   3.267   4.040   1.786 -0.5734  0.0133 -0.3801
 3586SOL    HW122220   3.257   4.132   1.762  0.9848  0.1771 -0.4441
 3586SOL    HW222221   3.192   4.037   1.845  0.9858 -0.9708  1.5509
 3587SOL     OW22222   1.619   4.275   4.593  0.2267 -0.0835 -0.1200
 3587SOL    HW122223   1.694   4.299   4.648 -1.2569  1.2473  1.2991
 3587SOL    HW222224   1.599   4.186   4.622 -0.7738 -0.1389 -0.9947
 3588SOL     OW22225   3.183   3.485  11.863 -0.1381  0.2376 -0.2505
 3588SOL    HW122226   3.269   3.467  11.825 -1.1862 -1.2336 -1.9550
 3588SOL    HW222227   3.117   3.474  11.795  1.7430  0.3701 -2.1115
 3589SOL     OW22228   2.970   3.096  14.321  0.3620 -0.0757 -0.6909
 3589SOL    HW122229   2.999   3.090  14.412 -0.8788 -1.4242 -0.3882
 3589SOL    HW222230   2.887   3.142  14.327 -0.1256 -0.9090 -1.0895
 3590SOL     OW22231   3.315   0.955   5.557  0.3405  0.0068  0.0321
 3590SOL    HW122232   3.354   0.966   5.643 -0.7679 -1.3022  0.6947
 3590SOL    HW222233   3.337   0.864   5.537 -0.3856 -0.6770  2.4500
 3591SOL     OW22234   4.561   3.269  14.682  0.0860 -0.0889 -0.0102
 3591SOL    HW122235   4.553   3.221  14.599  0.3600 -1.2992  0.6577
 3591SOL    HW222236   4.574   3.354  14.641  1.0568 -0.2019  0.0676
 3592SOL     OW22237   1.771   3.614   3.400 -0.0422  0.1048 -0.3139
 3592SOL    HW122238   1.833   3.667   3.350 -1.9120  3.9270  1.4070
 3592SOL    HW222239   1.695   3.599   3.343  0.3659  2.1207 -1.4041
 3593SOL     OW22240   0.263   3.724   3.387  0.3470  0.5224 -0.0214
 3593SOL    HW122241   0.332   3.725   3.453 -0.2479 -0.5420  0.6098
 3593SOL    HW222242   0.227   3.635   3.385  2.4549 -0.2796 -1.6104
 3594SOL     OW22243   4.704   4.061  11.985 -0.1248 -0.4086 -0.4931
 3594SOL    HW122244   0.078   4.063  11.975  0.1372 -2.9118  1.4050
 3594SOL    HW222245   4.684   4.024  12.071  0.0467  1.7843  0.4839
 3595SOL     OW22246   4.022   2.112   9.314  0.1213 -0.4123 -0.1350
 3595SOL    HW122247   4.113   2.130   9.339 -1.1397  1.4450  3.0491
 3595SOL    HW222248   4.006   2.182   9.251  2.0150 -0.3722 -0.5943
 3596SOL     OW22249   3.967   0.978   7.289 -0.5027 -0.2563  0.1769
 3596SOL    HW122250   3.978   1.073   7.299  0.8765 -0.4433  0.3261
 3596SOL    HW222251   3.872   0.963   7.288 -0.4860 -0.3364 -0.2895
 3597SOL     OW22252   2.141   4.142   9.406 -0.1467 -0.0892 -0.2869
 3597SOL    HW122253   2.204   4.148   9.335 -0.9900  0.6893 -0.9689
 3597SOL    HW222254   2.094   4.060   9.388 -0.0696  0.9035 -4.9128
 3598SOL     OW22255   1.454   2.974  13.475  0.0696  0.2993 -0.9395
 3598SOL    HW122256   1.446   3.048  13.415  2.2323  0.4424 -1.0636
 3598SOL    HW222257   1.402   2.908  13.430 -0.5063 -0.2560  0.5255
 3599SOL     OW22258   0.179   2.295   8.879 -0.0062 -0.2629  0.2297
 3599SOL    HW122259   0.133   2.238   8.817  0.6167  0.9374 -1.3610
 3599SOL    HW222260   0.120   2.370   8.881  0.8786  0.4930 -1.6443
 3600SOL     OW22261   3.999   2.597   2.260 -0.1855  0.1346 -0.7395
 3600SOL    HW122262   3.951   2.573   2.339 -0.1794 -1.8016 -1.3211
 3600SOL    HW222263   4.032   2.512   2.231 -0.0003  0.1246 -0.4995
 3601SOL     OW22264   0.242   0.517  17.550  0.4602  0.4579 -0.2616
 3601SOL    HW122265   0.317   0.477  17.507 -0.2098 -0.7164 -0.3324
 3601SOL    HW222266   0.173   0.509  17.484 -0.2815  1.2860  0.4052
 3602SOL     OW22267   3.978   1.605   8.087  0.0508 -0.3116 -0.6941
 3602SOL    HW122268   3.954   1.693   8.058 -0.7789  0.1837  1.4948
 3602SOL    HW222269   3.925   1.595   8.166 -0.1068  1.3641 -0.5931
 3603SOL     OW22270   4.343   3.041   3.759 -0.1540  0.0620  0.2946
 3603SOL    HW122271   4.402   2.966   3.765 -1.6772 -1.1935 -0.4007
 3603SOL    HW222272   4.328   3.065   3.850 -0.3242 -1.0447  0.5553
 3604SOL     OW22273   0.428   3.459  17.075 -0.0480 -0.1944 -0.3033
 3604SOL    HW122274   0.480   3.380  17.066  0.7704  0.4175 -0.9501
 3604SOL    HW222275   0.469   3.517  17.010 -1.1620 -0.8401 -1.5782
 3605SOL     OW22276   3.978   0.917   5.626 -0.3465 -0.1154  0.0416
 3605SOL    HW122277   4.059   0.961   5.654 -0.0745 -0.8661  0.4153
 3605SOL    HW222278   4.008   0.827   5.617 -0.1495 -0.1412  1.0340
 3606SOL     OW22279   3.456   0.991   6.529 -0.4775  0.8060 -0.0133
 3606SOL    HW122280   3.433   0.902   6.504  0.9978  0.4024  0.0745
 3606SOL    HW222281   3.386   0.997   6.593  1.3679  1.5622  1.9325
 3607SOL     OW22282   0.440   1.165   1.360 -0.0271  0.1578  0.2432
 3607SOL    HW122283   0.535   1.170   1.368 -0.2388  1.3800  1.9352
 3607SOL    HW222284   0.411   1.225   1.429 -2.5365  1.3589 -1.8307
 3608SOL     OW22285   0.734   2.186  16.424  0.7032  0.8320 -0.3587
 3608SOL    HW122286   0.829   2.187  16.411  1.0687  2.2131  2.4265
 3608SOL    HW222287   0.715   2.193  16.331 -0.6575 -0.9807 -0.2241
 3609SOL     OW22288   1.704   4.335  11.120  0.0999 -0.0682  1.1246
 3609SOL    HW122289   1.717   4.240  11.121  0.1008 -0.0570  2.1206
 3609SOL    HW222290   1.780   4.362  11.171  1.3947 -2.7467  0.6268
 3610SOL     OW22291   2.237   0.591   7.589 -0.1688  0.1100 -0.2613
 3610SOL    HW122292   2.290   0.528   7.540 -2.2880 -0.8718 -1.2964
 3610SOL    HW222293   2.302   0.659   7.605 -0.4314  0.0987  0.8163
 3611SOL     OW22294   1.761   3.788   6.099 -0.2625 -0.3337 -0.4128
 3611SOL    HW122295   1.775   3.873   6.141 -2.1819 -0.2367  0.0316
 3611SOL    HW222296   1.728   3.816   6.014  0.1113 -0.5322 -0.6219
 3612SOL     OW22297   0.979   1.608   6.703 -0.0682  0.0682 -0.1414
 3612SOL    HW122298   0.981   1.544   6.775  1.5876  0.5390  0.2407
 3612SOL    HW222299   1.046   1.668   6.736 -0.6798  0.6422  0.0524
 3613SOL     OW22300   4.605   0.572  10.652  0.1060  0.4387  0.0114
 3613SOL    HW122301   4.687   0.587  10.605 -1.2993  1.3766 -2.1609
 3613SOL    HW222302   4.558   0.510  10.597 -1.5726  1.9997 -0.3505
 3614SOL     OW22303   0.991   3.462   3.627  0.3142  0.0074  0.6595
 3614SOL    HW122304   1.023   3.453   3.717 -0.1242 -0.0021  0.8176
 3614SOL    HW222305   0.924   3.527   3.649  0.7043  0.6051  0.0593
 3615SOL     OW22306   3.309   1.355   4.010 -0.0179  0.3047 -0.0984
 3615SOL    HW122307   3.302   1.434   4.063  3.8159  0.5570 -0.0242
 3615SOL    HW222308   3.293   1.285   4.074 -1.8322  0.7516 -0.0681
 3616SOL     OW22309   0.817   2.715  11.392 -0.7157  0.1575 -0.0217
 3616SOL    HW122310   0.853   2.756  11.471  3.2990  0.3838 -1.9872
 3616SOL    HW222311   0.801   2.625  11.418 -1.0269  0.0347 -0.6460
 3617SOL     OW22312   1.295   0.733   6.549  0.3025 -0.0068  0.2912
 3617SOL    HW122313   1.229   0.724   6.479  3.0578 -0.5150 -2.2196
 3617SOL    HW222314   1.288   0.655   6.604  3.8662 -0.5121  0.0314
 3618SOL     OW22315   1.708   2.617   2.567 -0.3302  0.1155 -0.1278
 3618SOL    HW122316   1.745   2.704   2.586 -1.3465  0.7186 -0.9216
 3618SOL    HW222317   1.654   2.636   2.491  0.6021 -0.5296 -0.9439
 3619SOL     OW22318   2.577   4.320   8.417 -0.3570  0.7566  0.1894
 3619SOL    HW122319   2.560   4.227   8.432 -1.8132  0.6659 -2.0437
 3619SOL    HW222320   2.517   4.365   8.477  0.1803  0.7993  0.7027
 3620SOL     OW22321   2.171   1.799   5.696 -0.1925 -0.0544 -0.5010
 3620SOL    HW122322   2.243   1.777   5.755 -1.4002  0.1875  1.0595
 3620SOL    HW222323   2.152   1.711   5.664  0.6368 -0.1392 -0.7624
 3621SOL     OW22324   3.380   0.121   8.135 -0.3268 -0.1493 -0.1367
 3621SOL    HW122325   3.474   0.136   8.136 -0.4658  0.7244 -0.0664
 3621SOL    HW222326   3.371   0.095   8.043  1.8706 -2.3953  0.2747
 3622SOL     OW22327   3.890   1.102   9.779  0.2437  0.4541  0.1710
 3622SOL    HW122328   3.851   1.103   9.691 -1.6527  0.5871  1.0170
 3622SOL    HW222329   3.948   1.179   9.774 -0.0022  0.5200 -1.5793
 3623SOL     OW22330   2.846   0.124   8.501  0.2293  0.4337  0.1399
 3623SOL    HW122331   2.846   0.214   8.467  1.4820  1.0950  1.8970
 3623SOL    HW222332   2.763   0.084   8.476  1.0139 -1.8326  1.2143
 3624SOL     OW22333   2.496   1.477   3.478  0.2836 -0.2604  0.1276
 3624SOL    HW122334   2.511   1.408   3.413  0.4162  0.2919 -0.4285
 3624SOL    HW222335   2.577   1.484   3.528  1.5362  1.4199 -2.1575
 3625SOL     OW22336   2.305   4.369  16.193  0.1496  0.2155  0.8175
 3625SOL    HW122337   2.220   4.411  16.180  1.1774  2.0632  0.1993
 3625SOL    HW222338   2.363   4.441  16.167  0.9615 -1.2847 -1.5194
 3626SOL     OW22339   1.732   0.356   2.547 -0.3018  0.4032 -0.4582
 3626SOL    HW122340   1.721   0.306   2.628  0.8199  3.3511  1.5267
 3626SOL    HW222341   1.817   0.314   2.531 -0.5823  0.0487 -1.0318
 3627SOL     OW22342   1.290   1.190   2.808 -0.0104  0.0731  0.0729
 3627SOL    HW122343   1.200   1.162   2.824  0.4369 -2.4156 -1.7062
 3627SOL    HW222344   1.291   1.263   2.746  0.7321 -0.3413 -0.4089
 3628SOL     OW22345   0.506   4.199   5.258  0.0567  0.4035 -0.2228
 3628SOL    HW122346   0.507   4.278   5.203 -1.5395  1.6518  1.5148
 3628SOL    HW222347   0.598   4.177   5.265 -0.0572 -0.2224 -0.6934
 3629SOL     OW22348   0.662   3.127   6.320 -0.0380 -0.1564  0.0885
 3629SOL    HW122349   0.713   3.054   6.286  1.1101  0.3315  0.7884
 3629SOL    HW222350   0.572   3.103   6.299  0.2877 -1.3600  0.0425
 3630SOL     OW22351   1.049   2.317   2.016  0.0820 -0.1018 -0.2441
 3630SOL    HW122352   1.003   2.289   2.095 -0.9658 -1.4570 -1.3189
 3630SOL    HW222353   1.131   2.268   2.020 -0.2857 -0.6784  0.2651
 3631SOL     OW22354   1.876   0.171   3.803  0.0318 -0.5116  0.1532
 3631SOL    HW122355   1.895   0.113   3.876 -0.4267 -1.0851 -0.1798
 3631SOL    HW222356   1.965   0.203   3.790 -0.2016  0.5366  1.0564
 3632SOL     OW22357   1.243   4.481   4.448  0.4299 -0.3167  0.3977
 3632SOL    HW122358   1.155   4.472   4.411  0.9212 -1.0831 -0.6030
 3632SOL    HW222359   1.290   4.406   4.409 -3.5747 -2.7416  0.2777
 3633SOL     OW22360   0.163   0.760   9.684  0.0224  0.2688  0.2656
 3633SOL    HW122361   0.210   0.769   9.602  1.5530  0.1429  1.1367
 3633SOL    HW222362   0.194   0.836   9.733  1.8558 -0.2475 -0.1023
 3634SOL     OW22363   1.765   3.986   2.688 -0.7879 -0.4965 -0.2614
 3634SOL    HW122364   1.840   4.039   2.661 -1.2220  0.3061  0.0968
 3634SOL    HW222365   1.779   3.998   2.781 -0.3694 -0.3328 -0.3451
 3635SOL     OW22366   3.083   1.099   5.351 -0.1784  0.0332 -0.5537
 3635SOL    HW122367   3.031   1.158   5.297  0.2679  0.4940 -0.4763
 3635SOL    HW222368   3.173   1.105   5.319 -0.4656 -0.6897 -1.5087
 3636SOL     OW22369   3.134   3.218   1.545 -0.3732  0.0352  0.5245
 3636SOL    HW122370   3.086   3.205   1.626  0.0093  0.8720  0.8873
 3636SOL    HW222371   3.212   3.266   1.571  0.4953 -1.4524  0.6391
 3637SOL     OW22372   2.796   1.741   8.713 -0.8162 -0.0675 -0.4849
 3637SOL    HW122373   2.788   1.648   8.735  0.2493  0.0700  0.5047
 3637SOL    HW222374   2.709   1.781   8.719 -1.9004 -2.3334 -1.2117
 3638SOL     OW22375   4.337   1.909   4.605  0.0826  0.0497  0.1226
 3638SOL    HW122376   4.274   1.977   4.580  0.2855  0.2287  0.1048
 3638SOL    HW222377   4.270   1.840   4.608  0.0550 -0.0509 -2.4847
 3639SOL     OW22378   0.467   0.256   5.574 -0.4274  0.0295 -0.0979
 3639SOL    HW122379   0.506   0.169   5.586  0.9945  1.0041  2.3149
 3639SOL    HW222380   0.422   0.268   5.658 -1.3549 -1.7017 -0.3398
 3640SOL     OW22381   1.768   1.574   1.699  0.0885 -0.0765 -0.1639
 3640SOL    HW122382   1.784   1.667   1.685  0.3634 -0.1165 -0.1262
 3640SOL    HW222383   1.682   1.562   1.660  0.3890 -0.3881 -0.7366
 3641SOL     OW22384   4.627   2.497  16.495  0.2545  0.6442 -0.2584
 3641SOL    HW122385   4.564   2.426  16.498 -2.1057  2.8421  2.4141
 3641SOL    HW222386   4.599   2.549  16.571  1.5149 -0.7037  1.1148
 3642SOL     OW22387   2.521   0.892   0.373 -0.1713  0.0502 -0.5979
 3642SOL    HW122388   2.520   0.939   0.457 -1.5892 -1.9108  0.4814
 3642SOL    HW222389   2.511   0.802   0.404  1.3799 -0.2023 -0.8493
 3643SOL     OW22390   1.201   1.972   7.732 -0.5157  0.5496  0.1217
 3643SOL    HW122391   1.253   2.034   7.783  2.2029 -0.4160 -1.5033
 3643SOL    HW222392   1.166   2.042   7.675 -2.9183 -0.7207  0.0608
 3644SOL     OW22393   0.341   2.511   6.104  0.1587  0.2225 -0.1568
 3644SOL    HW122394   0.289   2.558   6.039  2.2085  1.0633 -1.2119
 3644SOL    HW222395   0.275   2.492   6.171 -0.9426 -0.8871 -1.5758
 3645SOL     OW22396   1.870   4.068   6.596  0.6220 -0.3438 -0.0445
 3645SOL    HW122397   1.842   4.076   6.505  1.8903 -0.6517 -0.4553
 3645SOL    HW222398   1.964   4.072   6.583  0.4658 -0.4416 -1.1850
 3646SOL     OW22399   2.683   1.771   3.936  0.0016 -0.3629 -0.3402
 3646SOL    HW122400   2.724   1.732   3.859  0.2307  1.4180 -1.1082
 3646SOL    HW222401   2.610   1.709   3.943  0.2232 -0.7942 -1.9772
 3647SOL     OW22402   1.320   3.612   8.413 -0.0415 -0.0191 -0.1545
 3647SOL    HW122403   1.323   3.555   8.336 -1.2993  0.3398 -0.4655
 3647SOL    HW222404   1.379   3.558   8.465 -2.0998  0.1761  2.3631
 3648SOL     OW22405   2.608   0.544   4.271 -0.0583 -0.2865 -0.4256
 3648SOL    HW122406   2.658   0.488   4.211 -2.5478 -2.0287 -0.8638
 3648SOL    HW222407   2.679   0.583   4.322 -1.1159  0.5975  0.3676
 3649SOL     OW22408   1.885   0.735   0.708 -0.0020 -0.5871 -0.4549
 3649SOL    HW122409   1.868   0.641   0.721  2.0843 -1.0087 -0.8740
 3649SOL    HW222410   1.970   0.745   0.749 -0.6765 -1.8134  1.2528
 3650SOL     OW22411   2.230   2.568   8.161  0.1968 -0.7772  0.0804
 3650SOL    HW122412   2.203   2.630   8.094  3.0693  0.2917 -0.0927
 3650SOL    HW222413   2.203   2.612   8.242  3.0448  1.6035 -0.2429
 3651SOL     OW22414   0.745   1.949   0.123  0.1555  0.2037 -0.2749
 3651SOL    HW122415   0.666   1.895   0.118  1.1160 -1.3288  1.2667
 3651SOL    HW222416   0.799   1.904   0.059  1.8709  3.1870 -0.9343
 3652SOL     OW22417   2.736   0.232   4.838  0.3428 -0.0386 -0.1176
 3652SOL    HW122418   2.641   0.233   4.830  0.4473 -1.9344 -1.6744
 3652SOL    HW222419   2.759   0.304   4.897  2.0479 -1.4427  0.9318
 3653SOL     OW22420   3.023   2.254   6.430  0.4134 -0.7554  0.4509
 3653SOL    HW122421   3.043   2.232   6.339 -0.8118  1.0947 -0.2611
 3653SOL    HW222422   2.932   2.282   6.424  0.5209 -0.2985  0.9789
 3654SOL     OW22423   2.346   1.955   8.525  0.7678  0.1105  0.2375
 3654SOL    HW122424   2.345   2.032   8.468  1.3628 -0.3108 -0.3431
 3654SOL    HW222425   2.363   1.885   8.462 -0.4922 -1.9500  2.1861
 3655SOL     OW22426   2.868   2.619  15.645  0.4594 -0.2741  0.6558
 3655SOL    HW122427   2.948   2.671  15.645 -0.4859  1.2013 -3.0395
 3655SOL    HW222428   2.890   2.554  15.578 -0.4047  0.0597  0.0393
 3656SOL     OW22429   0.938   3.601  16.694 -0.2487 -0.1212  0.0070
 3656SOL    HW122430   1.000   3.661  16.734  0.7787 -0.6356 -0.8183
 3656SOL    HW222431   0.933   3.636  16.604 -2.8924  0.1427  0.2427
 3657SOL     OW22432   4.033   0.383   3.284 -0.2644  0.0423 -0.3603
 3657SOL    HW122433   4.026   0.452   3.219 -2.4637 -1.6840 -1.9395
 3657SOL    HW222434   4.127   0.364   3.275 -0.1741  1.1414 -1.6814
 3658SOL     OW22435   3.154   4.042   7.812 -0.2659  0.0712 -0.5994
 3658SOL    HW122436   3.225   3.983   7.785  0.2594  0.6830 -0.5370
 3658SOL    HW222437   3.090   3.973   7.829  0.1997  0.0153  0.9063
 3659SOL     OW22438   1.219   4.710  10.817  0.5334  0.5347  0.0422
 3659SOL    HW122439   1.156   4.666  10.760 -0.9961  1.7334  0.8270
 3659SOL    HW222440   1.166   0.052  10.866  1.3843  1.5536 -0.3372
 3660SOL     OW22441   3.966   4.496  15.260 -0.5738  0.4189  0.2898
 3660SOL    HW122442   3.996   4.518  15.172 -0.3255 -2.1578 -0.2519
 3660SOL    HW222443   3.888   4.551  15.254 -1.0186 -0.1476  0.9725
 3661SOL     OW22444   3.506   3.884   5.001 -0.1018  0.2512 -0.0966
 3661SOL    HW122445   3.542   3.950   4.942  2.1565  0.1565  1.1602
 3661SOL    HW222446   3.583   3.834   5.029 -1.1334 -3.0707 -3.2270
 3662SOL     OW22447   3.365   4.260   3.008  0.0796 -0.0737  0.1960
 3662SOL    HW122448   3.321   4.178   2.988 -0.5201  0.1809  0.4657
 3662SOL    HW222449   3.424   4.261   2.933 -0.9128 -2.0829 -0.6059
 3663SOL     OW22450   3.269   1.063   0.516  0.2110 -0.3944  0.3159
 3663SOL    HW122451   3.348   1.099   0.475  1.3029 -2.7422  0.3801
 3663SOL    HW222452   3.290   0.970   0.517  0.0481 -0.4250  0.7577
 3664SOL     OW22453   1.451   3.004  16.939  0.1340 -0.2798  0.0804
 3664SOL    HW122454   1.542   3.004  16.910 -0.6815 -0.1279 -2.4544
 3664SOL    HW222455   1.468   3.029  17.030 -0.5543  0.1065  0.1055
 3665SOL     OW22456   4.627   3.806   2.364  0.2059  0.6189 -0.7672
 3665SOL    HW122457   4.608   3.862   2.290  2.3516  1.8113 -0.4257
 3665SOL    HW222458   0.001   3.800   2.349  0.1510  0.2891 -0.9853
 3666SOL     OW22459   1.304   2.187   2.107 -0.6196  0.9415 -0.2117
 3666SOL    HW122460   1.350   2.106   2.129  0.7934  2.1395  1.1850
 3666SOL    HW222461   1.380   2.236   2.076  0.5380 -0.7735 -0.0513
 3667SOL     OW22462   2.681   0.385   6.004  0.3086 -0.1459 -0.0481
 3667SOL    HW122463   2.593   0.349   6.003  0.5396 -0.7052  0.0007
 3667SOL    HW222464   2.652   0.471   5.973  1.8632  1.3400  2.6451
 3668SOL     OW22465   2.194   2.778   3.784 -0.0292 -0.6091  0.2620
 3668SOL    HW122466   2.120   2.728   3.751 -1.6241  1.2810  0.9608
 3668SOL    HW222467   2.195   2.855   3.727  1.4305 -1.2898 -0.6259
 3669SOL     OW22468   1.598   2.296  16.682 -0.1573  0.4118  0.1629
 3669SOL    HW122469   1.587   2.257  16.596 -1.1652 -2.5670  1.6591
 3669SOL    HW222470   1.553   2.380  16.674  0.1741  0.5493 -0.2745
 3670SOL     OW22471   0.731   0.000   6.226  0.3219 -0.1977 -0.1172
 3670SOL    HW122472   0.716   0.021   6.318 -1.8346  0.2042 -0.5390
 3670SOL    HW222473   0.825   4.707   6.219  0.3905  1.5139 -2.6938
 3671SOL     OW22474   3.299   3.520  15.331  0.1447  0.4850 -0.2424
 3671SOL    HW122475   3.334   3.433  15.351  0.7545  0.3238 -1.9467
 3671SOL    HW222476   3.313   3.561  15.416  2.4940 -1.2161  0.2030
 3672SOL     OW22477   1.285   1.498   0.068  0.6047  0.3441  0.0004
 3672SOL    HW122478   1.315   1.429   0.127  1.2084  1.7185  1.2896
 3672SOL    HW222479   1.194   1.505   0.097  0.7343  0.5421  0.3523
 3673SOL     OW22480   2.019   4.528   7.619  0.1408  0.5834 -0.0414
 3673SOL    HW122481   1.966   4.449   7.632 -0.3839  0.9168 -0.1824
 3673SOL    HW222482   2.106   4.488   7.633 -0.5530 -0.5650  0.9883
 3674SOL     OW22483   0.945   3.637  12.992  0.1631  0.8117 -0.4998
 3674SOL    HW122484   0.954   3.552  13.035 -1.8718  1.3153  0.9167
 3674SOL    HW222485   1.019   3.684  13.030 -0.8713  1.4904  0.6564
 3675SOL     OW22486   2.734   2.256   3.585 -0.2743  0.2995  0.1378
 3675SOL    HW122487   2.677   2.185   3.556  2.2366 -1.2903 -0.8560
 3675SOL    HW222488   2.825   2.236   3.564 -0.3651  1.4659 -1.3957
 3676SOL     OW22489   1.915   2.708   6.984 -0.0673 -0.4093  0.3934
 3676SOL    HW122490   1.987   2.725   6.924 -0.1747 -1.1262  0.0733
 3676SOL    HW222491   1.845   2.760   6.943  1.2560  1.7168  0.8485
 3677SOL     OW22492   1.755   2.080   6.984 -0.5689  0.3108  0.1826
 3677SOL    HW122493   1.672   2.034   6.970  0.0123 -0.7015  0.0329
 3677SOL    HW222494   1.806   2.009   7.024 -0.1179  0.9358  0.7211
 3678SOL     OW22495   0.860   2.429   4.185  0.4097  0.4698 -0.0637
 3678SOL    HW122496   0.775   2.450   4.147 -0.4556 -2.3271  0.3474
 3678SOL    HW222497   0.881   2.341   4.156  1.7382 -0.4188  3.5182
 3679SOL     OW22498   4.570   2.393   0.263 -0.2474  0.2926  0.1786
 3679SOL    HW122499   4.652   2.440   0.273 -0.3622  0.3921  0.6576
 3679SOL    HW222500   4.525   2.459   0.316 -1.0948 -1.3174  1.4499
 3680SOL     OW22501   1.861   1.702   2.509 -0.1623 -0.2439  0.1348
 3680SOL    HW122502   1.922   1.718   2.437 -2.5648  1.5940 -1.4739
 3680SOL    HW222503   1.910   1.637   2.559 -0.7165  0.0533  1.0606
 3681SOL     OW22504   2.602   1.986   4.098 -0.3455  0.0041  0.1007
 3681SOL    HW122505   2.596   2.006   4.004 -0.0908  0.1554  0.1187
 3681SOL    HW222506   2.641   1.899   4.090 -0.3181 -0.0002  0.2806
 3682SOL     OW22507   0.106   1.859   2.780 -0.2234 -0.0492  0.6342
 3682SOL    HW122508   0.136   1.865   2.871  0.0248 -1.1260  0.6302
 3682SOL    HW222509   0.029   1.916   2.784  0.1222  0.2831  2.6874
 3683SOL     OW22510   0.134   1.704   5.822  0.1487  0.5976  0.2107
 3683SOL    HW122511   0.153   1.744   5.737 -2.9026  0.1659 -0.7078
 3683SOL    HW222512   0.216   1.658   5.837  0.4917  0.6944 -1.3709
 3684SOL     OW22513   2.273   3.889   7.197 -0.0495 -0.4423  0.3927
 3684SOL    HW122514   2.223   3.817   7.234 -1.0756  0.1329  0.1145
 3684SOL    HW222515   2.276   3.954   7.267  0.1962  1.9118 -1.7754
 3685SOL     OW22516   2.043   2.768   1.514  0.1913  0.2725  0.1497
 3685SOL    HW122517   1.999   2.839   1.560  2.1986  1.4757  0.1973
 3685SOL    HW222518   1.964   2.734   1.471 -0.5489  2.0813  0.1079
 3686SOL     OW22519   2.641   0.838  12.770  0.0473 -0.1039 -0.3883
 3686SOL    HW122520   2.624   0.758  12.721  0.9679  0.6133 -1.8750
 3686SOL    HW222521   2.736   0.849  12.778 -0.0995  1.9813 -1.2790
 3687SOL     OW22522   2.065   1.358  11.343 -0.5548  0.7117  0.0115
 3687SOL    HW122523   2.058   1.398  11.256  1.0709 -0.1805 -0.5290
 3687SOL    HW222524   2.051   1.268  11.313  0.0644 -0.1361  2.2824
 3688SOL     OW22525   2.455   0.016   9.382  0.1047 -0.9982 -0.0423
 3688SOL    HW122526   2.461   4.666   9.319  0.6050  0.8685 -2.1014
 3688SOL    HW222527   2.371   0.059   9.363  0.6337  0.4888  0.9778
 3689SOL     OW22528   1.649   1.958   5.810  0.4591 -0.0508 -0.3583
 3689SOL    HW122529   1.630   2.050   5.828  0.4574  0.1022 -1.1296
 3689SOL    HW222530   1.745   1.956   5.805  0.3349  0.0447 -2.9959
 3690SOL     OW22531   0.905   2.278   3.358 -0.0467 -0.1646  0.2472
 3690SOL    HW122532   0.956   2.291   3.438 -0.0290 -1.1007  0.3815
 3690SOL    HW222533   0.967   2.306   3.292  0.6291  1.5528  1.5931
 3691SOL     OW22534   1.080   3.323   6.597 -0.2641  0.0370  0.0924
 3691SOL    HW122535   1.031   3.336   6.678 -0.0244  1.9579 -0.0701
 3691SOL    HW222536   1.038   3.381   6.534 -0.3094  1.2263  1.2132
 3692SOL     OW22537   2.444   0.351   3.584  0.6178  0.0733 -0.2835
 3692SOL    HW122538   2.519   0.378   3.531 -0.7049  1.3372 -1.5200
 3692SOL    HW222539   2.436   0.426   3.643 -0.9646 -1.2095  1.1168
 3693SOL     OW22540   0.953   4.310  12.724  0.3775  0.3019  0.5498
 3693SOL    HW122541   0.941   4.225  12.765 -1.8437 -0.0960 -0.9285
 3693SOL    HW222542   0.876   4.310  12.667  0.5205 -0.9397  0.3655
 3694SOL     OW22543   1.300   4.691   8.350 -0.3710 -0.1832  0.0513
 3694SOL    HW122544   1.236   0.034   8.382 -1.9721 -1.9749  0.3596
 3694SOL    HW222545   1.372   0.031   8.330 -0.6350 -0.5426 -2.0091
 3695SOL     OW22546   3.942   3.377   2.865 -0.3801 -0.1269 -0.8544
 3695SOL    HW122547   3.963   3.449   2.805  2.1758  1.0695  1.5113
 3695SOL    HW222548   3.896   3.413   2.940 -3.6455 -0.1582 -2.8514
 3696SOL     OW22549   3.698   1.959   7.606  1.0008 -0.0531  0.0719
 3696SOL    HW122550   3.762   1.992   7.669 -0.4539 -1.5933  2.3741
 3696SOL    HW222551   3.640   1.904   7.659 -0.1947  0.0563 -1.1479
 3697SOL     OW22552   1.419   1.781  11.478  0.7301  0.1325 -0.1917
 3697SOL    HW122553   1.418   1.722  11.402 -1.8937 -0.4042  0.2502
 3697SOL    HW222554   1.450   1.719  11.544  0.4852  0.7258  0.4685
 3698SOL     OW22555   3.085   3.584   5.628  0.1493  0.0981 -0.2191
 3698SOL    HW122556   3.131   3.534   5.561  0.7120  0.4609 -0.1025
 3698SOL    HW222557   3.020   3.640   5.585 -1.8287 -0.7190  1.6956
 3699SOL     OW22558   4.013   0.361   5.068 -0.4393  0.0353  0.2329
 3699SOL    HW122559   4.081   0.340   5.004 -2.4596  1.3795 -2.3319
 3699SOL    HW222560   4.068   0.380   5.144 -0.2060  2.7156 -0.6147
 3700SOL     OW22561   2.881   0.888   3.008  0.0471 -0.2471 -0.3485
 3700SOL    HW122562   2.886   0.977   3.044 -0.4593 -0.1939 -0.4100
 3700SOL    HW222563   2.813   0.836   3.051 -1.0554  0.0309 -1.7275
 3701SOL     OW22564   0.378   1.649   7.086 -0.6113  0.4196 -0.1890
 3701SOL    HW122565   0.359   1.667   7.178 -2.2772  0.7489 -0.6034
 3701SOL    HW222566   0.473   1.664   7.082 -0.8168  2.0964  0.8938
 3702SOL     OW22567   3.565   2.409   0.579  0.3107  0.3039 -0.7438
 3702SOL    HW122568   3.568   2.475   0.510  3.2937  1.2536  0.2886
 3702SOL    HW222569   3.569   2.472   0.650 -1.8897  0.2331 -0.5407
 3703SOL     OW22570   1.494   0.310   8.750  0.3553  0.0617 -0.1814
 3703SOL    HW122571   1.510   0.221   8.720 -0.5192 -0.3140  0.4774
 3703SOL    HW222572   1.494   0.354   8.665 -1.2818  1.9677  0.8042
 3704SOL     OW22573   1.093   0.138   5.060 -0.2240  0.0907 -0.4820
 3704SOL    HW122574   1.062   0.061   5.107 -3.1833  1.6999  0.2098
 3704SOL    HW222575   1.128   0.108   4.976 -1.7031 -1.6823 -0.4497
 3705SOL     OW22576   1.318   2.841   4.107  0.3218  0.2143  0.1308
 3705SOL    HW122577   1.284   2.904   4.170  0.0880 -0.0115  0.2286
 3705SOL    HW222578   1.261   2.766   4.123  0.9852 -0.6804 -1.6753
 3706SOL     OW22579   2.374   2.710   5.860  0.0876  0.1216 -0.1929
 3706SOL    HW122580   2.395   2.670   5.945 -1.4708 -1.5234 -0.5905
 3706SOL    HW222581   2.279   2.701   5.861  0.3752 -2.7155  1.2289
 3707SOL     OW22582   3.076   3.921   2.470  0.2920 -0.2292  0.0740
 3707SOL    HW122583   2.995   3.971   2.482 -0.2360 -1.2537  0.7614
 3707SOL    HW222584   3.088   3.925   2.375  2.2864  0.1722  0.3479
 3708SOL     OW22585   1.046   0.505   1.522  0.4410 -0.1548  0.2756
 3708SOL    HW122586   1.072   0.472   1.608  1.1015  0.0576  0.1533
 3708SOL    HW222587   1.131   0.507   1.478 -0.4989 -1.9164 -1.6249
 3709SOL     OW22588   3.000   1.567   5.900  0.7701 -0.2584 -0.0343
 3709SOL    HW122589   3.059   1.562   5.974 -0.7440 -0.0141  1.1861
 3709SOL    HW222590   3.002   1.478   5.866 -0.9248  0.4217 -1.9754
 3710SOL     OW22591   3.261   4.101   4.326  0.2300 -0.1059  0.1808
 3710SOL    HW122592   3.322   4.175   4.317  0.9970 -0.7999 -0.3106
 3710SOL    HW222593   3.213   4.112   4.408  0.9120  0.1406  0.5565
 3711SOL     OW22594   2.668   0.308  16.814  0.7704  0.1734 -0.4383
 3711SOL    HW122595   2.685   0.340  16.726  0.3244 -0.9657 -0.9391
 3711SOL    HW222596   2.653   0.215  16.801  1.4353 -0.2662  1.9546
 3712SOL     OW22597   3.227   1.372   5.364  0.4265 -0.2677  0.8837
 3712SOL    HW122598   3.241   1.310   5.436  1.2538 -0.2064  0.7793
 3712SOL    HW222599   3.201   1.451   5.411  0.7012  0.2314  0.1951
 3713SOL     OW22600   0.758   1.851  11.131 -0.3047  0.4892  0.2305
 3713SOL    HW122601   0.828   1.916  11.140 -0.0896  0.3562 -0.4696
 3713SOL    HW222602   0.772   1.813  11.044 -0.5392 -0.0810  0.4452
 3714SOL     OW22603   1.641   2.195   5.892 -0.6213 -0.0401 -0.8451
 3714SOL    HW122604   1.718   2.208   5.948  0.9342 -2.0303 -2.5116
 3714SOL    HW222605   1.573   2.225   5.953 -0.8605  1.4732 -1.8626
 3715SOL     OW22606   0.061   3.242   5.031 -0.2508 -1.0131 -0.3390
 3715SOL    HW122607   4.688   3.239   5.013 -0.4034  0.4944  0.2241
 3715SOL    HW222608   0.074   3.173   5.096  0.6439 -0.4239  0.1023
 3716SOL     OW22609   2.425   2.179   2.519  0.0070 -0.0427 -0.0999
 3716SOL    HW122610   2.478   2.230   2.457 -2.0208 -0.5029 -2.2077
 3716SOL    HW222611   2.377   2.250   2.562 -0.9431  1.1319 -3.0536
 3717SOL     OW22612   3.424   4.410   6.019 -0.2964  0.6247 -0.0183
 3717SOL    HW122613   3.355   4.356   5.982 -0.8454  1.1179  0.2879
 3717SOL    HW222614   3.389   4.499   6.023 -0.7426  0.4685 -0.5358
 3718SOL     OW22615   0.772   0.920   5.923 -0.2219 -0.3488  0.1261
 3718SOL    HW122616   0.771   0.943   6.016  1.3663  0.3488 -0.0249
 3718SOL    HW222617   0.686   0.884   5.903 -1.4599  1.0541  2.8656
 3719SOL     OW22618   2.012   2.773   5.482  0.2401  0.3772 -0.0038
 3719SOL    HW122619   1.966   2.740   5.559  2.2291  0.6710  1.2856
 3719SOL    HW222620   1.941   2.814   5.431  0.4266 -1.0617 -1.4159
 3720SOL     OW22621   4.587   1.810   5.802 -0.0985 -0.2733  0.3804
 3720SOL    HW122622   4.673   1.769   5.812  0.4889  0.7902 -0.4058
 3720SOL    HW222623   4.528   1.736   5.818  2.0500 -1.7710  1.4165
 3721SOL     OW22624   1.769   1.475   7.940 -0.3235  0.7374  0.0117
 3721SOL    HW122625   1.732   1.478   7.852  2.8660  1.4357 -1.3223
 3721SOL    HW222626   1.699   1.425   7.982  4.0011 -4.0484  1.5877
 3722SOL     OW22627   2.632   0.682   4.904  0.1219 -0.1228 -0.2209
 3722SOL    HW122628   2.608   0.649   4.817 -0.5998 -1.1863  0.3817
 3722SOL    HW222629   2.562   0.748   4.903 -0.8559 -1.1530  0.6676
 3723SOL     OW22630   1.812   1.832  12.023  0.3826  0.6160  0.2057
 3723SOL    HW122631   1.799   1.925  12.005  0.3522  0.0862 -2.5578
 3723SOL    HW222632   1.827   1.788  11.939  0.0034  1.5874 -0.3724
 3724SOL     OW22633   3.634   0.122   5.631  0.2815  0.0293  0.7065
 3724SOL    HW122634   3.631   0.028   5.645  0.5413  0.1409  1.5074
 3724SOL    HW222635   3.543   0.137   5.605  0.6670  1.5191  0.2186
 3725SOL     OW22636   0.413   3.453  13.855  0.3009 -0.3539  0.0373
 3725SOL    HW122637   0.346   3.483  13.793  0.2263 -1.2476 -0.3185
 3725SOL    HW222638   0.467   3.532  13.858  0.0732 -0.2517  1.8977
 3726SOL     OW22639   3.494   4.563   2.556  0.3242 -0.0811  0.0005
 3726SOL    HW122640   3.471   4.484   2.508 -2.4468  1.2918 -0.9081
 3726SOL    HW222641   3.451   4.556   2.641  1.5347 -0.3383  0.5841
 3727SOL     OW22642   2.227   2.322   4.823 -0.2751 -0.3354  0.2867
 3727SOL    HW122643   2.238   2.382   4.897  0.4342  0.3457 -0.3749
 3727SOL    HW222644   2.276   2.360   4.750 -0.1360  0.0492  0.5817
 3728SOL     OW22645   0.391   1.032   6.683  0.1355 -0.2134  0.3859
 3728SOL    HW122646   0.457   1.086   6.640  0.7391 -0.9389  0.3980
 3728SOL    HW222647   0.421   0.943   6.662 -1.8757 -1.3022  2.0716
 3729SOL     OW22648   1.526   1.682   5.129 -0.3084  0.1711  0.1156
 3729SOL    HW122649   1.578   1.751   5.171  1.3002 -1.2647  0.5119
 3729SOL    HW222650   1.542   1.697   5.036 -0.9139  4.1287  0.6470
 3730SOL     OW22651   1.873   0.977   2.720  0.1986 -0.0846 -0.3639
 3730SOL    HW122652   1.828   1.017   2.645  0.0368 -1.2973 -0.9211
 3730SOL    HW222653   1.965   0.985   2.698  0.2778  0.6828  0.2513
 3731SOL     OW22654   0.526   2.862   6.852 -0.6701 -0.0525  0.1384
 3731SOL    HW122655   0.464   2.935   6.860  0.3913  0.8152  0.4871
 3731SOL    HW222656   0.466   2.788   6.853  0.0448 -0.6296  0.9490
 3732SOL     OW22657   4.297   0.978   8.141 -0.7729  0.3635  0.5148
 3732SOL    HW122658   4.306   0.933   8.057 -1.0755  1.4851 -0.1189
 3732SOL    HW222659   4.380   0.947   8.177  0.0989  0.6915 -1.2271
 3733SOL     OW22660   2.793   4.675  15.666 -0.0578 -0.0392  0.3873
 3733SOL    HW122661   2.811   4.591  15.624 -0.8140  0.4409 -0.8960
 3733SOL    HW222662   2.700   4.657  15.683  0.3646 -3.1300 -0.6398
 3734SOL     OW22663   1.557   1.591   0.329 -0.8629  0.1261  0.0901
 3734SOL    HW122664   1.579   1.579   0.422  0.3176 -2.3520 -0.4795
 3734SOL    HW222665   1.564   1.499   0.304 -0.4208  0.5501 -1.3480
 3735SOL     OW22666   2.154   2.397   6.279 -0.2614  0.0449 -0.5782
 3735SOL    HW122667   2.201   2.479   6.289  1.0371 -0.5874 -1.5341
 3735SOL    HW222668   2.157   2.388   6.184 -3.1461  2.6840 -0.9306
 3736SOL     OW22669   0.979   2.881   8.491  0.4955  0.3193  0.4408
 3736SOL    HW122670   0.948   2.841   8.409  0.5607 -1.0951  1.1122
 3736SOL    HW222671   0.957   2.806   8.547  0.3873  0.7714  0.9961
 3737SOL     OW22672   2.837   1.292   1.921  0.0198  0.1250  0.6082
 3737SOL    HW122673   2.794   1.209   1.942 -1.3775  0.6431 -0.1388
 3737SOL    HW222674   2.835   1.288   1.825  0.0189 -1.0694  0.6609
 3738SOL     OW22675   0.675   3.782  13.344 -0.2711  0.7974  0.3847
 3738SOL    HW122676   0.738   3.719  13.381  0.4648 -0.0099 -2.2633
 3738SOL    HW222677   0.735   3.850  13.314  0.0977 -0.2046 -1.1025
 3739SOL     OW22678   0.369   4.398   0.713  0.2210 -0.2563  0.1003
 3739SOL    HW122679   0.363   4.440   0.799 -2.4767 -0.1934 -0.1139
 3739SOL    HW222680   0.319   4.464   0.665 -1.4576 -1.3712  0.3224
 3740SOL     OW22681   3.688   4.066  14.091 -0.3168 -0.2014 -0.2300
 3740SOL    HW122682   3.753   3.999  14.109  1.2435  1.7679  1.5008
 3740SOL    HW222683   3.743   4.141  14.068  0.4364 -0.8169 -0.4135
 3741SOL     OW22684   2.690   3.361   2.390  0.0655 -0.1301  0.0861
 3741SOL    HW122685   2.627   3.433   2.380  0.0402  0.0938  2.0024
 3741SOL    HW222686   2.760   3.401   2.441 -1.7329  2.2114  0.6991
 3742SOL     OW22687   0.436   4.668   5.730 -0.4362  0.1455 -0.2075
 3742SOL    HW122688   0.397   4.584   5.753 -0.0152  0.5636  2.0219
 3742SOL    HW222689   0.455   4.695   5.820 -1.0967 -0.4226  0.1028
 3743SOL     OW22690   3.572   0.383   1.119 -0.1886 -0.3054 -0.0931
 3743SOL    HW122691   3.661   0.383   1.154 -0.3710 -2.6173  0.3552
 3743SOL    HW222692   3.541   0.459   1.168  1.6960 -0.2276  0.9678
 3744SOL     OW22693   1.646   0.163  15.880  0.0863 -0.0045  0.1270
 3744SOL    HW122694   1.661   0.071  15.860  0.5707  0.7348 -2.9178
 3744SOL    HW222695   1.653   0.200  15.792 -2.1142 -1.6523 -0.7368
 3745SOL     OW22696   3.537   0.568  16.458  0.1810 -0.0107  0.0595
 3745SOL    HW122697   3.505   0.486  16.494 -0.7537  0.4642  0.2987
 3745SOL    HW222698   3.564   0.619  16.534  0.2396  1.6496 -1.0714
 3746SOL     OW22699   2.501   1.007   4.488 -0.5193 -0.3975 -0.4037
 3746SOL    HW122700   2.506   1.084   4.432  0.7091 -0.8333 -0.8929
 3746SOL    HW222701   2.418   1.031   4.528 -0.4739 -0.5452 -0.2209
 3747SOL     OW22702   3.246   1.629  16.684  0.4501  0.1573 -0.4500
 3747SOL    HW122703   3.192   1.664  16.613  0.1480  0.3733 -0.1185
 3747SOL    HW222704   3.244   1.534  16.671 -0.5400  0.0433  0.5346
 3748SOL     OW22705   2.062   3.949  17.421 -0.2421  0.8070  0.6280
 3748SOL    HW122706   2.048   4.044  17.428 -1.5831  0.5177  2.0289
 3748SOL    HW222707   2.033   3.918  17.507  0.8766  1.0515  1.0893
 3749SOL     OW22708   0.770   1.218   6.772 -0.0660 -0.1498  0.2524
 3749SOL    HW122709   0.694   1.265   6.737 -2.3669 -1.0529  4.0276
 3749SOL    HW222710   0.746   1.126   6.769  2.0173 -0.6988  0.4763
 3750SOL     OW22711   4.068   3.023   3.651 -0.2450 -0.1795  0.5203
 3750SOL    HW122712   4.059   2.953   3.586  0.0947 -2.1861  2.6118
 3750SOL    HW222713   4.159   3.010   3.675 -0.0475  2.7684  1.4067
 3751SOL     OW22714   0.809   1.665   9.648 -0.4775 -0.1942 -0.8951
 3751SOL    HW122715   0.722   1.676   9.686 -0.4127  1.7722 -1.3259
 3751SOL    HW222716   0.846   1.595   9.701  1.2166  0.6904 -0.9378
 3752SOL     OW22717   1.776   4.680   6.815  0.0163  0.4654 -0.5693
 3752SOL    HW122718   1.727   0.017   6.757 -1.7206 -1.0130 -0.5611
 3752SOL    HW222719   1.789   0.019   6.888  0.7824 -0.7634  0.2968
 3753SOL     OW22720   4.601   2.282   2.079 -0.0068 -0.2471  0.1588
 3753SOL    HW122721   4.661   2.335   2.132  1.9900 -3.1376  0.8324
 3753SOL    HW222722   4.650   2.274   1.997  1.1530  2.1419  0.6307
 3754SOL     OW22723   0.140   1.292  10.476  0.3011 -0.2820  0.2842
 3754SOL    HW122724   0.116   1.385  10.471 -0.3065 -0.4200  0.6344
 3754SOL    HW222725   0.218   1.294  10.420 -0.6162  1.3221 -0.9346
 3755SOL     OW22726   1.209   3.331   7.358  0.4228  0.0344 -0.1531
 3755SOL    HW122727   1.302   3.307   7.366  0.5034  0.2369 -0.5154
 3755SOL    HW222728   1.166   3.262   7.408 -0.4887  1.7933  1.4806
 3756SOL     OW22729   1.964   3.402   5.209 -0.0059 -0.1220 -0.2229
 3756SOL    HW122730   1.876   3.383   5.177  0.2663  0.4183 -1.3047
 3756SOL    HW222731   2.015   3.335   5.161 -1.1924 -0.0577 -1.5661
 3757SOL     OW22732   4.558   4.717   0.582 -0.3139  0.3287  0.7152
 3757SOL    HW122733   4.631   0.050   0.614  0.5413 -0.5727  0.2859
 3757SOL    HW222734   4.502   0.073   0.565  1.3435  1.4331  0.1895
 3758SOL     OW22735   3.334   0.885   7.182  0.0302  0.0645 -0.0302
 3758SOL    HW122736   3.335   0.973   7.143  0.0695 -0.4864 -1.2555
 3758SOL    HW222737   3.316   0.902   7.274 -2.7003  0.1251 -0.5745
 3759SOL     OW22738   1.644   0.158   7.002  0.0851  0.4104  0.6291
 3759SOL    HW122739   1.625   0.236   7.054  0.1335  0.1900  0.9752
 3759SOL    HW222740   1.573   0.168   6.939  0.7260 -0.8296 -0.2877
 3760SOL     OW22741   2.604   2.342  15.102  0.4883 -0.0285  0.2026
 3760SOL    HW122742   2.654   2.282  15.157 -0.0963 -2.9087 -2.3591
 3760SOL    HW222743   2.525   2.360  15.154  0.4073 -0.9349  0.4039
 3761SOL     OW22744   1.703   3.335   1.792 -0.3267 -0.2316 -0.4316
 3761SOL    HW122745   1.773   3.321   1.728  0.7944 -2.4028  1.2659
 3761SOL    HW222746   1.759   3.318   1.868 -2.8459 -0.8541  1.2526
 3762SOL     OW22747   0.354   3.330   4.962  0.3013  0.4275  0.1571
 3762SOL    HW122748   0.261   3.315   4.940  0.5082 -1.3697  0.5608
 3762SOL    HW222749   0.370   3.266   5.030  2.5835  0.8947  0.0574
 3763SOL     OW22750   3.112   3.559   8.584  0.2470  0.1175 -0.3137
 3763SOL    HW122751   3.035   3.615   8.591  0.5026  0.5678 -1.1944
 3763SOL    HW222752   3.119   3.522   8.672  2.8001  1.9689  0.2446
 3764SOL     OW22753   4.455   0.621   2.190  0.5241 -0.5054 -0.5475
 3764SOL    HW122754   4.512   0.545   2.180 -2.0729 -2.2977 -1.8180
 3764SOL    HW222755   4.425   0.600   2.278 -1.8194 -2.0669 -1.6836
 3765SOL     OW22756   1.604   3.640   6.804  0.2760  0.5120  0.6803
 3765SOL    HW122757   1.684   3.650   6.754 -0.1823  2.6955  0.3755
 3765SOL    HW222758   1.617   3.560   6.854  1.9826 -0.0401 -0.6770
 3766SOL     OW22759   2.623   1.874   9.528  0.1593  0.5756  0.2998
 3766SOL    HW122760   2.701   1.930   9.523 -0.5492  1.8353  3.3433
 3766SOL    HW222761   2.602   1.868   9.621  0.8011 -0.9660  0.3330
 3767SOL     OW22762   2.617   3.058   8.176 -0.1129  0.3252  0.1082
 3767SOL    HW122763   2.617   3.065   8.081  0.6952  0.3207  0.1142
 3767SOL    HW222764   2.698   3.011   8.194  0.0286  0.1347 -1.0097
 3768SOL     OW22765   2.110   1.175  12.628  0.3159  0.0119  0.3935
 3768SOL    HW122766   2.091   1.255  12.579 -0.2798  1.0250  2.2871
 3768SOL    HW222767   2.178   1.134  12.575 -0.3776 -0.4820 -0.1020
 3769SOL     OW22768   3.750   0.350   7.216 -0.2484  0.1807  0.0864
 3769SOL    HW122769   3.702   0.345   7.299 -0.5382 -0.0029 -0.0941
 3769SOL    HW222770   3.693   0.419   7.185 -0.7444  0.9591  2.6801
 3770SOL     OW22771   1.162   2.107   0.465 -0.0369  0.0263 -0.6410
 3770SOL    HW122772   1.112   2.125   0.545 -1.7992 -0.3374 -1.6810
 3770SOL    HW222773   1.090   2.070   0.414  0.7297 -1.2135 -0.8270
 3771SOL     OW22774   0.103   3.767  12.785 -0.1987  0.2020  0.1960
 3771SOL    HW122775   0.059   3.818  12.853 -1.8979 -1.2774  0.1944
 3771SOL    HW222776   0.068   3.804  12.703  2.9165  2.2328 -0.2310
 3772SOL     OW22777   3.144   2.951   4.428  0.1799  0.0314 -0.4632
 3772SOL    HW122778   3.063   2.932   4.475  0.1225 -1.1053 -1.0268
 3772SOL    HW222779   3.134   3.041   4.398  2.0759 -0.7423 -3.3914
 3773SOL     OW22780   2.381   2.995   7.143 -1.1851  0.1541  0.0656
 3773SOL    HW122781   2.332   3.022   7.065 -1.8817  1.6381  1.0272
 3773SOL    HW222782   2.363   2.901   7.136  2.1315 -0.5717  0.9526
 3774SOL     OW22783   2.112   2.213   0.262 -0.2357  0.0194 -0.1575
 3774SOL    HW122784   2.205   2.226   0.280  0.2361 -1.4622 -1.5848
 3774SOL    HW222785   2.072   2.252   0.339 -0.4931  0.4984 -0.5336
 3775SOL     OW22786   3.734   1.634   3.794  0.2580 -0.2927 -0.3221
 3775SOL    HW122787   3.671   1.574   3.835  3.5781 -1.3512  3.2065
 3775SOL    HW222788   3.683   1.672   3.722  2.4745  0.6906 -1.3678
 3776SOL     OW22789   3.924   2.252   7.531 -0.0463  0.2984  0.1109
 3776SOL    HW122790   3.987   2.298   7.475  1.5027  1.7295  2.9653
 3776SOL    HW222791   3.980   2.229   7.605  1.0033 -0.6572 -0.9850
 3777SOL     OW22792   3.515   2.637   0.800  0.0255  0.0994 -0.0565
 3777SOL    HW122793   3.432   2.672   0.831  0.4652  0.4392  0.7448
 3777SOL    HW222794   3.543   2.587   0.877 -0.5938 -1.1579 -0.6604
 3778SOL     OW22795   3.222   4.111   2.617  0.2014  0.3972  0.1341
 3778SOL    HW122796   3.158   4.060   2.567 -2.6654  2.8968  1.2704
 3778SOL    HW222797   3.190   4.201   2.620 -0.1734  0.2823 -0.2874
 3779SOL     OW22798   2.152   4.331   4.681 -0.2652  0.4322  0.1299
 3779SOL    HW122799   2.224   4.353   4.740  1.9158 -1.3396 -1.9257
 3779SOL    HW222800   2.107   4.262   4.730 -2.2025  2.3950  1.1108
 3780SOL     OW22801   0.694   4.067   6.410 -0.5063  0.2170  0.4902
 3780SOL    HW122802   0.725   4.157   6.419 -2.3764  1.0592 -1.4449
 3780SOL    HW222803   0.664   4.051   6.500 -1.8246  0.4175  0.0807
 3781SOL     OW22804   3.810   4.611   3.958  0.0836  0.4657  0.3387
 3781SOL    HW122805   3.829   4.612   4.052  0.9207  0.0386  0.1767
 3781SOL    HW222806   3.871   4.546   3.923 -0.3372  0.2468  0.0180
 3782SOL     OW22807   0.172   2.680   7.004  0.2706  0.3453 -0.4807
 3782SOL    HW122808   0.256   2.657   6.965  0.0555 -1.4977  0.1347
 3782SOL    HW222809   0.195   2.669   7.096  1.9678  0.2035 -0.9250
 3783SOL     OW22810   0.276   1.410   5.461  0.3619 -0.0818 -0.4115
 3783SOL    HW122811   0.312   1.369   5.382  0.4902 -0.9760  0.1088
 3783SOL    HW222812   0.357   1.442   5.500  0.5483  0.4829 -1.2469
 3784SOL     OW22813   3.017   4.529   1.563  0.4012  0.2936 -0.3928
 3784SOL    HW122814   3.009   4.456   1.503  1.7526  1.1762 -1.6569
 3784SOL    HW222815   3.088   4.496   1.618 -0.0915  1.5099  0.9778
 3785SOL     OW22816   2.799   0.018   6.984 -0.6106 -0.0427 -0.0727
 3785SOL    HW122817   2.878   0.043   6.936 -1.7260  1.7996 -0.9106
 3785SOL    HW222818   2.847   4.695   7.056 -0.1795  2.8194  1.3773
 3786SOL     OW22819   0.152   2.948  13.768 -0.4265 -0.6250 -0.0470
 3786SOL    HW122820   0.116   3.021  13.819 -0.9112 -1.9381  1.4790
 3786SOL    HW222821   0.147   2.987  13.680 -0.7739  0.3295  0.3946
 3787SOL     OW22822   0.225   4.462   4.075  0.7820 -1.1729  0.0723
 3787SOL    HW122823   0.149   4.521   4.078  0.5601 -1.4149 -0.9296
 3787SOL    HW222824   0.210   4.411   3.995  0.9532 -0.7986 -0.2002
 3788SOL     OW22825   3.207   2.991  11.388 -0.8124 -0.4205 -0.0192
 3788SOL    HW122826   3.139   3.052  11.359  1.6527  1.0731 -2.5678
 3788SOL    HW222827   3.292   3.007  11.348 -1.7090  1.2203 -1.2814
 3789SOL     OW22828   4.234   1.640   5.281  0.1369  0.1273 -0.1889
 3789SOL    HW122829   4.244   1.590   5.363  0.1932 -2.7079 -1.9373
 3789SOL    HW222830   4.270   1.570   5.226 -1.1325 -2.1541  1.8643
 3790SOL     OW22831   3.083   2.415   3.068  0.2790 -0.4138 -0.6839
 3790SOL    HW122832   3.028   2.382   3.139 -0.1356 -0.5031 -1.0487
 3790SOL    HW222833   3.013   2.438   3.006 -1.3833  0.0600  1.3670
 3791SOL     OW22834   4.678   3.804   7.348 -0.2612  0.3315 -0.0729
 3791SOL    HW122835   4.657   3.746   7.275 -1.7558  0.2461  0.4206
 3791SOL    HW222836   4.605   3.865   7.344  0.1095  0.8785  1.4629
 3792SOL     OW22837   0.778   3.524  17.090  0.3288  0.3916 -0.0122
 3792SOL    HW122838   0.754   3.600  17.036  1.9480  2.2387  1.8234
 3792SOL    HW222839   0.860   3.550  17.132  0.4226 -0.3446  0.2452
 3793SOL     OW22840   2.984   2.119   4.234  0.0561 -0.6577  0.1431
 3793SOL    HW122841   2.947   2.152   4.315  1.8818  1.6954  0.0207
 3793SOL    HW222842   2.945   2.032   4.229  0.5213 -0.7319 -2.5210
 3794SOL     OW22843   1.335   3.290   6.638  0.1023  0.6225 -0.0264
 3794SOL    HW122844   1.241   3.296   6.620  0.1050  0.0750 -0.2298
 3794SOL    HW222845   1.359   3.380   6.614  0.3223  1.0333  1.7811
 3795SOL     OW22846   2.343   1.819   3.083 -0.2260  0.8156 -0.2131
 3795SOL    HW122847   2.355   1.853   2.994  1.9505 -0.7977 -0.5425
 3795SOL    HW222848   2.330   1.900   3.132  0.5824 -0.9640  2.9265
 3796SOL     OW22849   4.290   3.116   5.631  0.2958  0.8968  0.4894
 3796SOL    HW122850   4.284   3.070   5.715 -1.0907 -0.8353 -0.5502
 3796SOL    HW222851   4.368   3.078   5.592 -2.0905 -0.4633 -3.0153
 3797SOL     OW22852   4.023   0.152   0.503 -0.2385 -0.5814 -0.2655
 3797SOL    HW122853   4.004   0.163   0.410  2.9013 -0.5068 -0.8992
 3797SOL    HW222854   3.959   0.084   0.525  2.6860 -3.2490  0.0227
 3798SOL     OW22855   0.465   2.381  16.780  0.1587  0.1497 -0.5585
 3798SOL    HW122856   0.394   2.360  16.719  1.0485 -1.7392 -0.9535
 3798SOL    HW222857   0.542   2.387  16.724  0.4859 -2.0064 -0.3253
 3799SOL     OW22858   3.137   1.495   8.720 -0.3536  0.6849  0.0591
 3799SOL    HW122859   3.058   1.500   8.775 -0.8291 -0.8403 -0.5067
 3799SOL    HW222860   3.133   1.410   8.678  1.1621  0.9937 -0.7047
 3800SOL     OW22861   3.897   2.240   6.407  0.5941 -0.5227  0.5659
 3800SOL    HW122862   3.915   2.148   6.387 -0.4789 -0.6692  0.2283
 3800SOL    HW222863   3.811   2.252   6.367  0.5640 -2.1194  0.1410
 3801SOL     OW22864   2.077   3.150  13.334 -0.8692  0.0251 -0.1062
 3801SOL    HW122865   2.112   3.074  13.381 -1.4000  0.4025  0.9093
 3801SOL    HW222866   1.997   3.158  13.386 -1.1330 -1.7919 -0.2546
 3802SOL     OW22867   0.643   1.237   5.844  0.1649 -1.2233  0.4099
 3802SOL    HW122868   0.572   1.271   5.789  2.3584  0.3036 -1.4559
 3802SOL    HW222869   0.647   1.147   5.811 -0.3706 -1.5970  1.3636
 3803SOL     OW22870   2.650   3.006   3.765 -0.2035 -0.2155  0.2024
 3803SOL    HW122871   2.718   2.938   3.772 -0.8144 -0.7427  0.9667
 3803SOL    HW222872   2.566   2.968   3.790 -0.4062  0.8725  1.1505
 3804SOL     OW22873   2.478   3.011   8.401 -0.1621  0.0706  0.0283
 3804SOL    HW122874   2.386   3.009   8.373  0.3593 -1.4441 -1.5512
 3804SOL    HW222875   2.524   3.030   8.319 -1.1184  0.9043 -0.3183
 3805SOL     OW22876   2.117   2.732   5.951  0.1341  0.5213 -0.0584
 3805SOL    HW122877   2.146   2.823   5.956  3.1500 -0.2705 -2.9652
 3805SOL    HW222878   2.024   2.754   5.956 -0.6735 -2.7337 -0.7782
 3806SOL     OW22879   3.119   1.757   3.664 -0.1334  0.6079 -0.3220
 3806SOL    HW122880   3.149   1.843   3.694  2.1022  0.6341 -2.6404
 3806SOL    HW222881   3.024   1.761   3.679  0.2966  3.6493  1.5161
 3807SOL     OW22882   4.310   3.549   8.248 -0.5742  0.1045 -0.0310
 3807SOL    HW122883   4.324   3.524   8.157  1.4155  0.4858  0.1709
 3807SOL    HW222884   4.272   3.471   8.287 -0.1962 -1.5420 -2.9524
 3808SOL     OW22885   3.995   3.789   8.760 -0.1428  0.1169 -0.1092
 3808SOL    HW122886   4.075   3.752   8.799  0.1427 -0.9866 -1.7630
 3808SOL    HW222887   3.934   3.763   8.829  0.9204  1.5495  1.3710
 3809SOL     OW22888   4.180   4.363   2.201 -0.2588  0.3331  0.3906
 3809SOL    HW122889   4.241   4.419   2.151 -0.9508  0.5256 -0.2376
 3809SOL    HW222890   4.096   4.407   2.190 -0.2038  0.7151  1.4712
 3810SOL     OW22891   4.620   1.227   6.962  0.0280 -0.1900  0.2558
 3810SOL    HW122892   4.664   1.210   7.045  0.9708 -0.3296 -0.2651
 3810SOL    HW222893   4.579   1.312   6.974 -4.1625 -2.6317  3.2287
 3811SOL     OW22894   3.783   0.454   6.047  0.0867 -0.5233  0.6138
 3811SOL    HW122895   3.841   0.401   6.101  1.5183  0.4986  0.0737
 3811SOL    HW222896   3.768   0.399   5.971  2.0802 -3.8248  2.6480
 3812SOL     OW22897   3.088   0.759   1.392  0.5892 -0.5133  0.3028
 3812SOL    HW122898   3.179   0.731   1.399  0.3219 -1.4793 -0.1761
 3812SOL    HW222899   3.040   0.683   1.423 -1.2329  0.5099  0.0191
 3813SOL     OW22900   4.130   0.166   4.748  0.0142  0.0351  0.1567
 3813SOL    HW122901   4.094   0.119   4.823 -1.1790  0.5314 -0.0987
 3813SOL    HW222902   4.225   0.162   4.761 -0.0212 -3.2649 -0.7267
 3814SOL     OW22903   3.710   1.225   7.948  0.2289 -0.1410  0.3495
 3814SOL    HW122904   3.726   1.158   7.882 -1.3171 -1.0623  0.9058
 3814SOL    HW222905   3.791   1.275   7.939 -0.6656  1.1919 -0.2699
 3815SOL     OW22906   0.892   3.156  14.623  0.2749  0.2073 -0.3846
 3815SOL    HW122907   0.942   3.138  14.543  0.6379 -0.2637 -0.0521
 3815SOL    HW222908   0.940   3.106  14.689 -0.2061  1.3804  0.8569
 3816SOL     OW22909   1.350   1.029   3.916  0.1248 -0.5600  0.1383
 3816SOL    HW122910   1.424   1.085   3.893 -0.6458  0.6980  0.7585
 3816SOL    HW222911   1.392   0.944   3.930  0.5846 -0.1849  1.0221
 3817SOL     OW22912   4.073   2.286   7.791 -0.4853 -0.0461  0.4760
 3817SOL    HW122913   4.136   2.358   7.800 -0.3366 -0.0603 -0.4527
 3817SOL    HW222914   4.103   2.216   7.848  1.6119  1.4707  1.2324
 3818SOL     OW22915   2.591   0.808   3.882 -0.5959  0.2381 -0.5423
 3818SOL    HW122916   2.546   0.854   3.812  1.8432  1.1454 -1.5075
 3818SOL    HW222917   2.530   0.837   3.950  0.5539  2.1421 -0.3486
 3819SOL     OW22918   0.285   2.099  17.135  0.0942 -0.0915 -0.3040
 3819SOL    HW122919   0.316   2.089  17.224 -2.0089  1.9838  0.6571
 3819SOL    HW222920   0.268   2.007  17.112  3.1349 -1.1726  1.9144
 3820SOL     OW22921   2.272   1.038   8.614 -0.3769  0.0328 -0.0436
 3820SOL    HW122922   2.204   0.999   8.669 -0.8611  0.0929 -0.6018
 3820SOL    HW222923   2.329   1.075   8.682 -0.8139 -0.2197  0.4618
 3821SOL     OW22924   0.083   4.294  15.263 -0.0496  0.2509  0.4026
 3821SOL    HW122925   0.047   4.208  15.243  2.7655 -0.7526 -0.3223
 3821SOL    HW222926   0.051   4.347  15.190  1.9155  0.5396 -0.2528
 3822SOL     OW22927   4.428   1.230   7.794 -1.0241  0.0097  0.0680
 3822SOL    HW122928   4.406   1.320   7.769  4.0170  1.0649 -0.5591
 3822SOL    HW222929   4.436   1.251   7.887 -2.1018  4.1132 -0.7733
 3823SOL     OW22930   2.490   1.769  17.609 -0.2150  0.2784 -0.1890
 3823SOL    HW122931   2.471   1.701  17.674  0.4146  0.5169  0.2364
 3823SOL    HW222932   2.422   1.752  17.543  0.6639  0.0417 -1.0419
 3824SOL     OW22933   4.093   0.297   9.129 -0.4375  0.1754 -0.0504
 3824SOL    HW122934   4.075   0.374   9.074 -0.7092  0.0523 -0.1327
 3824SOL    HW222935   4.165   0.337   9.179  1.2199 -0.8850 -1.5630
 3825SOL     OW22936   1.871   4.339   9.192  0.2297  0.2539  0.3827
 3825SOL    HW122937   1.952   4.356   9.240  0.6750 -0.8435  0.0131
 3825SOL    HW222938   1.859   4.245   9.209  1.7589 -0.1225 -0.5762
 3826SOL     OW22939   3.378   1.952   9.708 -1.0986 -0.1005 -0.0636
 3826SOL    HW122940   3.473   1.946   9.696 -1.5050 -0.2872 -3.1663
 3826SOL    HW222941   3.345   1.866   9.684 -0.4945 -1.1523  2.9102
 3827SOL     OW22942   0.124   3.451   3.459  0.1754 -0.1233 -0.2663
 3827SOL    HW122943   0.071   3.436   3.538  0.0890 -1.0701 -0.5061
 3827SOL    HW222944   0.074   3.410   3.388  1.6679  3.0215 -3.1619
 3828SOL     OW22945   4.571   1.438  12.847  0.4339 -0.2220  0.1677
 3828SOL    HW122946   4.619   1.459  12.927 -0.9467 -2.7768  1.6252
 3828SOL    HW222947   4.618   1.481  12.775  0.7396 -0.7761  0.0365
 3829SOL     OW22948   2.339   4.041   5.662 -0.2954  0.4250 -0.8480
 3829SOL    HW122949   2.277   3.975   5.632 -0.1311 -0.0462 -0.1549
 3829SOL    HW222950   2.346   4.022   5.756  2.0831  0.2454 -1.0731
 3830SOL     OW22951   4.374   1.219  10.647  0.6433  0.1634 -0.0118
 3830SOL    HW122952   4.469   1.235  10.646  0.7700 -0.6856 -2.9360
 3830SOL    HW222953   4.358   1.304  10.607 -1.6063 -1.2166 -2.0341
 3831SOL     OW22954   4.431   3.575   6.291 -0.2431  0.3513 -0.3560
 3831SOL    HW122955   4.499   3.518   6.256 -0.3321 -0.2867  0.5345
 3831SOL    HW222956   4.432   3.643   6.222 -0.3379 -0.1840 -0.8853
 3832SOL     OW22957   3.478   0.979   0.400  0.1108  0.7517  0.0055
 3832SOL    HW122958   3.558   1.030   0.393  1.3378 -1.4299 -2.2101
 3832SOL    HW222959   3.442   0.979   0.311 -0.2046  2.4091  0.1437
 3833SOL     OW22960   1.912   2.039   3.103  0.8947  0.2086 -0.1191
 3833SOL    HW122961   1.855   1.974   3.064 -1.4780  1.3839  1.3889
 3833SOL    HW222962   1.993   1.988   3.103  0.3893 -0.6089  2.4876
 3834SOL     OW22963   1.786   1.908   3.596  0.0419  0.7354  0.4603
 3834SOL    HW122964   1.775   1.936   3.505 -1.5501  0.1508  0.4586
 3834SOL    HW222965   1.698   1.926   3.630 -0.0362 -3.3644  2.4617
 3835SOL     OW22966   3.134   3.296   0.886 -0.0635  0.4615 -0.1931
 3835SOL    HW122967   3.139   3.235   0.960 -1.7090  0.6295  0.0663
 3835SOL    HW222968   3.067   3.355   0.921 -0.4398  0.4850 -0.9713
 3836SOL     OW22969   2.656   2.003   7.403 -0.4977  0.2085 -0.2349
 3836SOL    HW122970   2.671   1.919   7.447 -0.8715  0.3241  0.1162
 3836SOL    HW222971   2.611   2.055   7.470  1.6962 -0.5726  1.8451
 3837SOL     OW22972   4.306   1.979   7.433 -0.1883 -0.1695  0.1897
 3837SOL    HW122973   4.363   2.049   7.465  0.1569 -0.6506  0.6334
 3837SOL    HW222974   4.376   1.930   7.390 -0.0776  0.3689 -0.2355
 3838SOL     OW22975   4.027   2.292   4.465 -1.0047 -0.3944  0.7885
 3838SOL    HW122976   4.029   2.388   4.464 -0.2571 -0.4254 -0.5702
 3838SOL    HW222977   4.018   2.273   4.372  0.5799 -1.1624  0.7796
 3839SOL     OW22978   4.404   0.072  16.483 -0.5024 -0.2310  0.0032
 3839SOL    HW122979   4.445   0.139  16.430 -1.0076  0.1022  0.0336
 3839SOL    HW222980   4.466   0.068  16.556 -1.6735  0.9752  1.0710
 3840SOL     OW22981   4.384   2.112   0.177 -0.0780 -0.3547 -0.0500
 3840SOL    HW122982   4.444   2.126   0.251  0.6530 -1.0798 -0.4937
 3840SOL    HW222983   4.304   2.114   0.229 -1.1413 -3.3147 -1.5811
 3841SOL     OW22984   3.042   4.037   3.058 -0.1878  0.4264 -0.0711
 3841SOL    HW122985   3.117   4.033   2.998 -1.0798 -1.7706 -1.0599
 3841SOL    HW222986   2.972   4.087   3.016 -0.7177  0.1750  0.5117
 3842SOL     OW22987   2.473   3.511   5.098 -0.3571  0.4860 -0.1519
 3842SOL    HW122988   2.475   3.504   5.002  0.8643 -2.1595  0.0541
 3842SOL    HW222989   2.562   3.482   5.120 -0.8668 -0.8296  0.1805
 3843SOL     OW22990   2.146   3.556   8.006 -0.2062 -0.6456  0.1637
 3843SOL    HW122991   2.090   3.479   7.998  0.6857 -1.2244 -0.4559
 3843SOL    HW222992   2.230   3.514   7.992 -1.2694 -2.5364 -0.5218
 3844SOL     OW22993   3.029   4.478   8.673  0.1993 -0.0394  0.1205
 3844SOL    HW122994   3.059   4.555   8.721 -1.3811  0.0030  1.0170
 3844SOL    HW222995   3.029   4.508   8.582 -0.6411  0.3007  0.2394
 3845SOL     OW22996   1.055   2.548   7.757 -0.0011 -0.5940  0.2872
 3845SOL    HW122997   1.018   2.627   7.796  1.6059 -1.3115  3.2360
 3845SOL    HW222998   1.149   2.566   7.751 -0.0864  0.7339  3.2681
 3846SOL     OW22999   2.924   1.950  11.590 -0.5439 -0.0476  0.5638
 3846SOL    HW123000   2.927   1.907  11.504  0.5270  1.3666 -0.1377
 3846SOL    HW223001   2.988   2.021  11.577 -0.7366  0.5685  2.9516
 3847SOL     OW23002   1.991   2.580   5.012  0.4108 -0.3051  0.6023
 3847SOL    HW123003   1.936   2.567   5.089 -1.5805 -2.2053 -1.1826
 3847SOL    HW223004   2.066   2.525   5.034  1.3520  1.0953  0.9211
 3848SOL     OW23005   2.422   3.932  13.249  0.0402  0.1091 -0.0697
 3848SOL    HW123006   2.474   3.995  13.299 -1.2296  0.5016  0.7736
 3848SOL    HW223007   2.330   3.956  13.265  0.6782  1.5996  1.3419
 3849SOL     OW23008   1.266   1.981  13.228  0.0717  0.1640  0.2071
 3849SOL    HW123009   1.360   1.988  13.209 -0.7285  4.2482 -2.1709
 3849SOL    HW223010   1.270   1.901  13.281  0.4171 -0.7167 -1.1676
 3850SOL     OW23011   3.328   2.677  13.153 -0.0805 -0.0941  0.4907
 3850SOL    HW123012   3.296   2.767  13.153 -1.1910 -0.4912  0.7956
 3850SOL    HW223013   3.408   2.682  13.100  0.0995  1.2132  0.8971
 3851SOL     OW23014   0.395   3.409   7.368 -0.3331  0.2070 -0.2204
 3851SOL    HW123015   0.488   3.429   7.363 -0.0896  0.0407  3.8510
 3851SOL    HW223016   0.400   3.315   7.387 -1.1219 -0.1264 -1.6469
 3852SOL     OW23017   1.203   3.946   8.053  0.3711  0.0347 -0.0028
 3852SOL    HW123018   1.277   4.001   8.028 -0.5751  1.0090 -0.6140
 3852SOL    HW223019   1.174   3.921   7.966  1.2161  1.5966 -0.7205
 3853SOL     OW23020   1.410   0.805   9.229 -0.1696  0.1262  0.2646
 3853SOL    HW123021   1.329   0.763   9.257 -1.0105  0.6469 -1.3191
 3853SOL    HW223022   1.395   0.820   9.135  0.1973  3.3309  0.7194
 3854SOL     OW23023   4.425   3.181  15.160 -0.5767  0.8323 -0.0843
 3854SOL    HW123024   4.400   3.271  15.182  0.6097  1.5836 -1.7605
 3854SOL    HW223025   4.395   3.134  15.237  1.6192 -1.2931 -0.5159
 3855SOL     OW23026   2.962   0.918  15.937  0.3653  0.0346 -0.0440
 3855SOL    HW123027   2.920   0.972  15.871  0.1499 -0.0715  0.0050
 3855SOL    HW223028   2.933   0.827  15.930  0.0869 -0.0978  2.6722
 3856SOL     OW23029   3.432   4.039  14.660  0.7655  0.4842 -0.3308
 3856SOL    HW123030   3.369   3.968  14.673  2.6302 -1.2860 -0.9339
 3856SOL    HW223031   3.506   3.987  14.691  0.2863 -0.3802 -0.6372
 3857SOL     OW23032   4.475   0.575  10.899 -0.4261 -0.1065 -0.1195
 3857SOL    HW123033   4.528   0.586  10.820 -1.6123  0.8159 -0.7967
 3857SOL    HW223034   4.409   0.641  10.878 -0.6773 -0.0167  0.9733
 3858SOL     OW23035   4.673   2.744   8.415 -0.5834 -0.3584  0.1097
 3858SOL    HW123036   4.588   2.753   8.371  0.0279 -2.5119 -1.4994
 3858SOL    HW223037   4.717   2.819   8.376 -0.0998 -0.3649  0.6512
 3859SOL     OW23038   3.265   3.178   0.452  0.6648  0.0178  0.2816
 3859SOL    HW123039   3.208   3.113   0.490  2.4931 -1.3983  0.6132
 3859SOL    HW223040   3.274   3.229   0.532 -1.3794  1.2140 -0.2689
 3860SOL     OW23041   3.517   2.816   0.392  0.1185 -0.2316  0.2070
 3860SOL    HW123042   3.581   2.880   0.360 -3.9178  4.1754  0.9980
 3860SOL    HW223043   3.581   2.760   0.437 -0.1765 -1.4938 -0.9251
 3861SOL     OW23044   3.743   0.891  16.310  0.3357  0.2397  0.7482
 3861SOL    HW123045   3.658   0.847  16.301 -0.0194  0.9450  0.6009
 3861SOL    HW223046   3.761   0.872  16.402  0.1521 -0.2250  0.6880
 3862SOL     OW23047   2.336   0.442   4.801  0.0420  0.2844 -0.2998
 3862SOL    HW123048   2.244   0.467   4.810  0.8222  2.0524  2.7235
 3862SOL    HW223049   2.361   0.463   4.891 -1.2004 -0.7081  0.2678
 3863SOL     OW23050   0.359   4.209   8.860  0.4141  0.1054 -0.5267
 3863SOL    HW123051   0.405   4.217   8.944  0.2264  1.8784 -0.5981
 3863SOL    HW223052   0.419   4.150   8.813  0.9565 -0.1851  0.5191
 3864SOL     OW23053   0.778   4.509   5.450 -0.2687 -0.0253  0.0428
 3864SOL    HW123054   0.868   4.508   5.417 -0.9523  1.2670 -1.8341
 3864SOL    HW223055   0.748   4.418   5.444  0.1559 -0.1333 -0.5417
 3865SOL     OW23056   4.697   3.679   5.882  0.5703 -0.4409  0.1130
 3865SOL    HW123057   4.690   3.652   5.791  1.6550  2.1734 -0.7585
 3865SOL    HW223058   0.024   3.603   5.915  2.0056  0.4397  0.0386
 3866SOL     OW23059   4.087   1.644   6.820  0.4248 -0.0973 -0.0367
 3866SOL    HW123060   4.036   1.698   6.881  1.6315 -0.3136  1.1384
 3866SOL    HW223061   4.110   1.716   6.761  0.7232  0.7124  1.0563
 3867SOL     OW23062   1.456   3.374  11.167 -0.8114 -0.3229 -0.1545
 3867SOL    HW123063   1.446   3.456  11.118 -0.5076 -0.3112 -0.2001
 3867SOL    HW223064   1.499   3.410  11.244 -3.0350  3.2821 -0.6051
 3868SOL     OW23065   0.770   3.998   4.218 -0.0454 -0.1223  0.0562
 3868SOL    HW123066   0.690   3.945   4.226 -0.0836 -0.0516  0.1333
 3868SOL    HW223067   0.776   4.008   4.123 -0.0682 -0.4199  0.0228
 3869SOL     OW23068   0.061   0.204   1.163  0.1349  0.0859 -0.0051
 3869SOL    HW123069   0.014   0.281   1.194 -2.1741 -1.2966 -0.0799
 3869SOL    HW223070   0.079   0.218   1.071 -1.6852  2.7696  0.0683
 3870SOL     OW23071   1.774   2.079   0.745 -0.3681 -0.1386 -1.0345
 3870SOL    HW123072   1.755   2.124   0.827 -2.5982 -1.5692 -0.7679
 3870SOL    HW223073   1.865   2.054   0.759 -0.5423 -0.5090 -0.5599
 3871SOL     OW23074   3.792   4.128   3.407 -0.0318 -0.3916  0.2470
 3871SOL    HW123075   3.821   4.169   3.488 -0.8089 -0.2923  0.4738
 3871SOL    HW223076   3.698   4.127   3.422 -0.1542  1.6002 -0.4133
 3872SOL     OW23077   0.073   2.931   6.037  0.0455 -0.2161  0.1473
 3872SOL    HW123078   0.021   2.907   6.113 -1.3357  0.8600 -0.4455
 3872SOL    HW223079   0.099   2.848   5.998  1.6669  0.3182  0.0870
 3873SOL     OW23080   3.883   0.111   2.312 -0.5583  0.1245 -0.5110
 3873SOL    HW123081   3.792   0.086   2.332 -0.4630  1.6503  1.8149
 3873SOL    HW223082   3.881   0.203   2.287  2.0857  0.8690  2.0765
 3874SOL     OW23083   3.801   0.567   9.219 -0.2000  0.2775  0.0028
 3874SOL    HW123084   3.853   0.501   9.173  0.4518 -0.6043  1.9608
 3874SOL    HW223085   3.804   0.642   9.160  0.1648  0.0891 -0.2124
 3875SOL     OW23086   3.540   1.202   9.555  0.2731 -0.3247  0.1918
 3875SOL    HW123087   3.483   1.126   9.552 -1.0855  0.6106  2.5590
 3875SOL    HW223088   3.545   1.237   9.466 -2.9620  0.5395  0.3699
 3876SOL     OW23089   1.930   0.594  16.427 -0.5293 -0.0015  0.0417
 3876SOL    HW123090   1.916   0.666  16.365  1.3281 -0.3787 -0.8299
 3876SOL    HW223091   1.846   0.598  16.472 -0.0429  0.2873  0.9237
 3877SOL     OW23092   0.619   2.910  16.732  1.3015  0.0616 -0.4216
 3877SOL    HW123093   0.533   2.869  16.723  2.3544 -1.8051 -2.0741
 3877SOL    HW223094   0.602   2.981  16.793  0.7221  0.0516 -0.5714
 3878SOL     OW23095   3.579   3.961   7.041 -0.2158  0.0703 -0.3019
 3878SOL    HW123096   3.516   3.889   7.037 -1.2681  0.9462  0.8838
 3878SOL    HW223097   3.543   4.022   6.977  0.3927  0.3563 -0.3696
 3879SOL     OW23098   2.044   0.965   8.771 -0.6908 -0.5341  0.2878
 3879SOL    HW123099   1.984   0.936   8.839  0.3739  1.2918  2.0213
 3879SOL    HW223100   1.989   1.032   8.732  0.5780  0.5335  0.3145
 3880SOL     OW23101   1.937   2.088  17.030  0.2323  0.4584 -0.2256
 3880SOL    HW123102   1.873   2.048  16.971  0.1499 -2.0147  1.5087
 3880SOL    HW223103   1.951   2.173  16.990 -0.9656  0.0858 -1.4247
 3881SOL     OW23104   4.182   3.926   3.947 -0.2884  0.1817 -0.1070
 3881SOL    HW123105   4.172   3.947   3.854  0.1799  0.0915 -0.1766
 3881SOL    HW223106   4.150   4.011   3.979  1.7175  0.4086  1.2839
 3882SOL     OW23107   4.500   1.261   2.899 -0.3300  0.5663 -0.1712
 3882SOL    HW123108   4.562   1.236   2.967 -0.3428  0.0349 -0.3581
 3882SOL    HW223109   4.452   1.333   2.940 -2.2839 -0.0056 -1.4825
 3883SOL     OW23110   4.695   1.016   3.543 -0.1292 -0.1135  0.4983
 3883SOL    HW123111   0.004   1.032   3.633  0.7018 -0.6586  0.3195
 3883SOL    HW223112   4.718   0.924   3.548 -0.2439 -0.1134  1.0694
 3884SOL     OW23113   0.006   2.045   5.468 -0.4783 -0.0221  0.0398
 3884SOL    HW123114   0.078   1.982   5.462 -1.4109 -1.1942  1.2606
 3884SOL    HW223115   4.691   2.049   5.379  0.1078  0.8607 -0.1552
 3885SOL     OW23116   2.824   2.406   4.773 -0.0875  0.2558 -0.0464
 3885SOL    HW123117   2.904   2.373   4.815  0.4240  1.8968  0.2502
 3885SOL    HW223118   2.773   2.326   4.758  1.2421 -0.7869  0.9335
 3886SOL     OW23119   3.135   0.763   4.640 -0.2576 -0.3329 -0.4076
 3886SOL    HW123120   3.170   0.749   4.552  0.5742 -1.4475  0.0934
 3886SOL    HW223121   3.164   0.682   4.681 -0.6701 -0.6492 -0.7384
 3887SOL     OW23122   1.573   0.911   9.413  0.6240 -0.3743  0.1364
 3887SOL    HW123123   1.619   0.993   9.395 -3.5004  1.3756 -2.6070
 3887SOL    HW223124   1.521   0.902   9.333  2.3439  0.5527 -1.0856
 3888SOL     OW23125   1.862   1.773   5.582 -0.3501 -0.0116 -0.2322
 3888SOL    HW123126   1.844   1.824   5.662 -0.7770 -0.7675  0.1589
 3888SOL    HW223127   1.928   1.713   5.616  1.4414  0.3963 -3.0401
 3889SOL     OW23128   2.623   2.773   5.056  0.1602  0.4700 -0.3006
 3889SOL    HW123129   2.629   2.742   4.966 -2.4697  0.8660 -0.6062
 3889SOL    HW223130   2.684   2.716   5.101 -0.4627 -0.2313 -0.3541
 3890SOL     OW23131   0.927   2.421  15.896  0.2322  0.1935  0.1459
 3890SOL    HW123132   0.853   2.482  15.890 -1.0213 -1.3405 -0.1255
 3890SOL    HW223133   0.965   2.423  15.808 -1.1089 -0.9064 -0.4515
 3891SOL     OW23134   1.994   3.015   8.078 -0.0047 -0.0933  0.2145
 3891SOL    HW123135   1.926   3.071   8.041 -0.8194 -0.8695  0.5514
 3891SOL    HW223136   2.032   3.074   8.144 -0.5382  0.4003  0.0832
 3892SOL     OW23137   0.493   3.954   8.153 -0.3780 -0.3885 -0.3173
 3892SOL    HW123138   0.459   3.870   8.185  1.2716 -0.3334  1.5859
 3892SOL    HW223139   0.408   3.995   8.137 -0.7228 -1.3384 -0.9131
 3893SOL     OW23140   3.431   2.142   6.071  0.4416  0.0970  0.3828
 3893SOL    HW123141   3.411   2.207   6.004 -0.4436 -2.5147 -1.8582
 3893SOL    HW223142   3.525   2.137   6.053  0.3225 -2.7049  0.6707
 3894SOL     OW23143   4.561   0.629   3.751 -0.0588 -0.0405 -0.1241
 3894SOL    HW123144   4.605   0.561   3.801  0.5761  0.4098 -0.0691
 3894SOL    HW223145   4.584   0.620   3.658 -3.0790  2.2188 -1.1046
 3895SOL     OW23146   2.467   1.670   6.686  0.1511 -0.2959 -0.0841
 3895SOL    HW123147   2.510   1.610   6.747  0.8503  1.2183  0.9096
 3895SOL    HW223148   2.416   1.608   6.634  1.3586  0.1956 -1.8551
 3896SOL     OW23149   4.610   0.782   8.505  0.7220 -0.5518  0.4489
 3896SOL    HW123150   4.528   0.825   8.531  0.4228 -0.6640 -0.3098
 3896SOL    HW223151   4.649   0.771   8.592  0.4500  1.0149  0.7802
 3897SOL     OW23152   1.669   2.659   2.032 -0.2662  0.3312 -0.4533
 3897SOL    HW123153   1.749   2.677   1.984  0.8300  0.5396  1.4603
 3897SOL    HW223154   1.639   2.585   1.978 -1.2017  0.4786 -0.1433
 3898SOL     OW23155   0.492   3.685   1.429 -0.5426 -0.1748 -0.2051
 3898SOL    HW123156   0.507   3.591   1.436 -0.2766  0.0261  1.9186
 3898SOL    HW223157   0.404   3.679   1.468 -2.7059  1.8509 -4.7661
 3899SOL     OW23158   2.262   0.878   2.352 -0.1072 -0.3198 -0.0354
 3899SOL    HW123159   2.327   0.821   2.393  0.5428  0.5536  0.1433
 3899SOL    HW223160   2.319   0.920   2.288 -0.3988 -1.3477 -0.9696
 3900SOL     OW23161   0.698   1.941  17.265  0.5233 -0.0037  0.1315
 3900SOL    HW123162   0.745   1.910  17.342  0.1284 -0.2774  0.2627
 3900SOL    HW223163   0.630   1.874  17.255  0.2765  0.6812 -2.7849
 3901SOL     OW23164   0.022   4.138   3.434  0.5541 -0.0950  0.0215
 3901SOL    HW123165   0.032   4.043   3.437  0.9809 -0.1027 -2.0774
 3901SOL    HW223166   4.662   4.146   3.384  0.4296  1.1344  0.4219
 3902SOL     OW23167   1.513   3.921   3.487 -0.2890  0.1252 -0.1503
 3902SOL    HW123168   1.608   3.919   3.495 -0.1784  1.2585 -1.1235
 3902SOL    HW223169   1.489   3.855   3.552 -1.9664  0.7680 -0.1127
 3903SOL     OW23170   3.920   1.447   5.347  0.1397 -0.3587  0.4835
 3903SOL    HW123171   3.935   1.381   5.280  1.7347 -0.3684  0.8402
 3903SOL    HW223172   4.003   1.494   5.360  0.1377 -0.6507  1.5540
 3904SOL     OW23173   2.443   2.682   1.345 -0.1618 -0.7159 -0.3925
 3904SOL    HW123174   2.473   2.709   1.258 -0.0847  0.1300 -0.1071
 3904SOL    HW223175   2.405   2.763   1.381  2.2079 -0.6183  1.8674
 3905SOL     OW23176   0.598   0.770  13.599 -0.2355 -0.0343 -0.2932
 3905SOL    HW123177   0.660   0.701  13.577  0.1613  0.9480 -2.1901
 3905SOL    HW223178   0.641   0.813  13.673  3.2351 -2.2004 -1.0341
 3906SOL     OW23179   2.657   4.605  10.207  0.2439  0.3663  0.2376
 3906SOL    HW123180   2.605   4.542  10.257  0.2161 -0.4108 -0.7797
 3906SOL    HW223181   2.633   4.575  10.119 -1.2007 -0.6551  0.9819
 3907SOL     OW23182   3.812   3.257   9.996 -0.1431 -0.0159  0.2737
 3907SOL    HW123183   3.839   3.176   9.952 -0.2934 -0.3963  0.8825
 3907SOL    HW223184   3.748   3.292   9.934 -0.2191  2.6011  1.8364
 3908SOL     OW23185   1.637   0.648   3.864  0.1882  0.3923  0.0819
 3908SOL    HW123186   1.678   0.607   3.787  1.4238  1.0692  0.3769
 3908SOL    HW223187   1.547   0.617   3.852 -1.1777  4.7836 -0.9752
 3909SOL     OW23188   2.495   0.863   1.446 -0.3731  0.0503  0.6638
 3909SOL    HW123189   2.552   0.787   1.434 -0.1788 -0.0549  2.3734
 3909SOL    HW223190   2.544   0.928   1.396 -0.1153 -0.3765  0.3659
 3910SOL     OW23191   3.114   2.098   8.022 -0.1880  0.7784 -0.6891
 3910SOL    HW123192   3.092   2.081   8.113 -2.5660  0.5251 -1.3148
 3910SOL    HW223193   3.026   2.120   7.991 -1.0043  1.1526  1.9242
 3911SOL     OW23194   3.663   2.152   7.344  0.0526 -0.3819  0.3398
 3911SOL    HW123195   3.677   2.074   7.292  0.4999  0.0514 -0.1901
 3911SOL    HW223196   3.672   2.111   7.430  0.7976 -0.7172  0.0939
 3912SOL     OW23197   2.859   2.152   7.262 -0.6597  0.2351  0.3085
 3912SOL    HW123198   2.790   2.106   7.309 -1.5645  0.8801 -0.4001
 3912SOL    HW223199   2.877   2.230   7.315  0.7729  0.0506  0.1029
 3913SOL     OW23200   1.937   3.147   3.619 -0.1068  0.5809  0.1466
 3913SOL    HW123201   1.878   3.191   3.558  0.1609  1.2447  0.3656
 3913SOL    HW223202   1.954   3.218   3.681  1.1438  0.1203  0.3384
 3914SOL     OW23203   0.018   1.285   8.096  0.5336  0.0500 -0.3166
 3914SOL    HW123204   0.033   1.295   8.190  1.1732  0.0151 -0.4129
 3914SOL    HW223205   0.079   1.352   8.065 -1.3171  1.7861 -0.1370
 3915SOL     OW23206   2.844   3.847  14.298  0.5180 -0.2383 -0.1778
 3915SOL    HW123207   2.775   3.818  14.238  0.0059  0.1751  0.2005
 3915SOL    HW223208   2.928   3.818  14.263 -0.7900 -1.1560 -2.5694
 3916SOL     OW23209   4.512   4.257   5.045 -0.1359 -0.1127 -0.3366
 3916SOL    HW123210   4.534   4.181   5.098 -1.1791  0.2134  0.5500
 3916SOL    HW223211   4.602   4.285   5.025  0.0641 -1.2092 -0.9643
 3917SOL     OW23212   4.143   1.840   8.783  0.1532 -0.7144  0.2377
 3917SOL    HW123213   4.147   1.745   8.786 -1.7081 -0.7748  0.9332
 3917SOL    HW223214   4.233   1.870   8.772 -0.3788  0.7756 -0.0921
 3918SOL     OW23215   0.650   4.475   8.477 -0.1883 -0.3427 -0.4270
 3918SOL    HW123216   0.588   4.402   8.481 -0.3317 -0.2145 -0.3075
 3918SOL    HW223217   0.714   4.436   8.418  0.3044 -0.3213  0.0934
 3919SOL     OW23218   0.767   1.873  10.200  0.0089 -0.6101  0.5935
 3919SOL    HW123219   0.855   1.856  10.166  0.3488  0.0428  1.1353
 3919SOL    HW223220   0.735   1.784  10.186 -1.6498 -0.0265  0.7792
 3920SOL     OW23221   0.963   1.506   9.815 -0.3018  0.3303 -0.7132
 3920SOL    HW123222   0.999   1.473   9.733 -0.9640  0.3681 -1.0152
 3920SOL    HW223223   0.962   1.427   9.869  0.1221  0.8261  0.0299
 3921SOL     OW23224   2.596   4.672  10.880 -0.4342 -0.1239  0.5808
 3921SOL    HW123225   2.645   4.672  10.963  0.6551  1.8244 -0.0493
 3921SOL    HW223226   2.537   0.019  10.915  0.8111  0.3784  1.7124
 3922SOL     OW23227   1.048   4.091   7.090 -0.1591 -0.1286  0.3263
 3922SOL    HW123228   0.968   4.040   7.097 -1.8576  2.6200  0.7215
 3922SOL    HW223229   1.021   4.183   7.090  1.2322  0.2831 -1.1299
 3923SOL     OW23230   0.087   4.151   6.116 -0.1861 -0.2945 -0.2238
 3923SOL    HW123231   0.147   4.145   6.042  0.4114  0.9403  0.1666
 3923SOL    HW223232   0.082   4.247   6.118 -0.7553 -0.3090 -0.8831
 3924SOL     OW23233   1.655   2.480   1.378  0.2397  0.4696 -0.1814
 3924SOL    HW123234   1.726   2.425   1.411 -1.8946 -2.2958 -0.2148
 3924SOL    HW223235   1.684   2.566   1.407 -0.0119  0.0046  1.4406
 3925SOL     OW23236   2.843   0.959   0.392  0.1572  0.0623 -0.0099
 3925SOL    HW123237   2.833   1.052   0.374  1.4424 -0.0042 -1.0419
 3925SOL    HW223238   2.935   0.953   0.367 -0.6221 -3.7910 -1.8707
 3926SOL     OW23239   2.238   1.686  12.936  0.0792 -0.4821 -0.7566
 3926SOL    HW123240   2.188   1.768  12.940 -2.8388 -2.1811 -1.9781
 3926SOL    HW223241   2.174   1.631  12.890  1.1267  0.0975 -2.9146
 3927SOL     OW23242   2.721   3.233  14.279 -0.1963 -0.3121 -0.3552
 3927SOL    HW123243   2.718   3.311  14.335  0.0488  1.1509 -2.3383
 3927SOL    HW223244   2.715   3.272  14.191 -0.8854 -0.3084 -0.3122
 3928SOL     OW23245   1.973   2.263   3.297 -0.5770 -0.0755 -0.4172
 3928SOL    HW123246   1.925   2.253   3.214  1.5368 -0.5697 -1.5639
 3928SOL    HW223247   1.949   2.350   3.331  0.4365  0.2872 -0.6300
 3929SOL     OW23248   1.535   3.517   5.503 -0.4815  0.0011  0.8291
 3929SOL    HW123249   1.563   3.428   5.481 -1.0527  1.1323 -4.5102
 3929SOL    HW223250   1.624   3.552   5.513 -0.6913  0.3949  1.3146
 3930SOL     OW23251   3.177   2.044  11.241 -0.2830  0.2490  0.2717
 3930SOL    HW123252   3.182   2.008  11.152  1.9688  0.1531  0.4198
 3930SOL    HW223253   3.260   2.023  11.284 -0.6349 -1.1129  0.2745
 3931SOL     OW23254   2.557   3.739   2.272 -0.7686  0.6369  0.2151
 3931SOL    HW123255   2.533   3.730   2.180  0.1647  0.3294  0.0021
 3931SOL    HW223256   2.650   3.762   2.264 -0.3105 -0.2195  3.1348
 3932SOL     OW23257   0.755   3.789   2.450 -0.0174 -0.1940 -0.4444
 3932SOL    HW123258   0.790   3.704   2.480 -0.4001  0.0671  0.7695
 3932SOL    HW223259   0.826   3.830   2.400  0.5572  0.6930  1.0891
 3933SOL     OW23260   3.450   2.115   6.528 -0.2686 -0.1094 -0.7864
 3933SOL    HW123261   3.366   2.072   6.511  0.5650 -2.5060  1.0442
 3933SOL    HW223262   3.426   2.189   6.584  2.6069 -1.1482  1.8249
 3934SOL     OW23263   0.731   3.014  13.769  0.3662 -0.3831  0.2100
 3934SOL    HW123264   0.696   2.989  13.684 -0.5210  1.5039  0.0192
 3934SOL    HW223265   0.703   2.943  13.826  0.5906 -0.1593  0.6012
 3935SOL     OW23266   2.613   1.720  12.840 -0.4990  0.1985 -0.1959
 3935SOL    HW123267   2.630   1.780  12.767 -2.7901  0.6891 -0.3392
 3935SOL    HW223268   2.702   1.708  12.872  0.5515  0.7124 -2.9403
 3936SOL     OW23269   1.187   2.660   2.280 -0.2874  0.1417  0.2328
 3936SOL    HW123270   1.115   2.645   2.218 -0.8187  2.6939  0.2718
 3936SOL    HW223271   1.257   2.612   2.235 -1.0074 -0.5773 -0.1352
 3937SOL     OW23272   0.289   3.473  17.670  0.3764 -0.2296 -0.0835
 3937SOL    HW123273   0.211   3.418  17.671 -0.2701  0.6118 -2.8070
 3937SOL    HW223274   0.342   3.426  17.605  0.7504  0.6287 -0.3997
 3938SOL     OW23275   4.596   3.542   4.965  0.5399  0.2710  0.2607
 3938SOL    HW123276   4.595   3.448   4.985 -1.0607  0.2448  0.0999
 3938SOL    HW223277   4.638   3.549   4.879  2.9850  1.2197  1.5294
 3939SOL     OW23278   4.613   3.640   7.853 -0.2234  0.4818  0.0519
 3939SOL    HW123279   4.590   3.638   7.760  1.4276 -1.2848 -0.3083
 3939SOL    HW223280   4.688   3.584   7.869 -0.5105 -0.1889 -0.9731
 3940SOL     OW23281   0.337   0.298   2.084 -0.2413  0.2812 -0.0663
 3940SOL    HW123282   0.347   0.321   1.991 -1.4427  1.1733  0.0158
 3940SOL    HW223283   0.412   0.239   2.094  1.1020  1.8729 -0.7535
 3941SOL     OW23284   0.520   0.611   0.687 -0.0316  0.8809 -0.1180
 3941SOL    HW123285   0.599   0.656   0.656  0.4750 -0.0110 -0.1233
 3941SOL    HW223286   0.467   0.608   0.607  1.0840  1.9927 -0.9137
 3942SOL     OW23287   2.749   0.730  10.748 -0.2189  0.2296  0.0113
 3942SOL    HW123288   2.723   0.745  10.657  2.0758 -0.0132 -0.6883
 3942SOL    HW223289   2.744   0.820  10.782 -1.7705  0.0764  0.1889
 3943SOL     OW23290   0.166   2.517  17.372  0.0195 -0.3562 -0.4562
 3943SOL    HW123291   0.261   2.531  17.366  0.3667 -1.7682  1.7272
 3943SOL    HW223292   0.142   2.552  17.458 -0.9968  0.1401 -0.9387
 3944SOL     OW23293   1.176   1.262   8.659  0.4062  0.3469  0.5164
 3944SOL    HW123294   1.203   1.170   8.668  1.5480  0.6755  0.4829
 3944SOL    HW223295   1.086   1.262   8.690 -0.2682 -0.9060 -1.4787
 3945SOL     OW23296   3.650   3.451   6.947  0.2129  0.2599  0.0716
 3945SOL    HW123297   3.559   3.420   6.951 -0.9558  3.6996 -0.2246
 3945SOL    HW223298   3.648   3.524   6.886 -1.8049  1.0754  1.1302
 3946SOL     OW23299   2.827   0.864   8.589  0.4603 -0.0715  0.1891
 3946SOL    HW123300   2.852   0.944   8.636  1.2453 -0.3501  0.2428
 3946SOL    HW223301   2.748   0.846   8.640  0.8126  0.6225  0.9866
 3947SOL     OW23302   1.094   3.324   2.422 -0.3403 -0.0978  0.0287
 3947SOL    HW123303   1.157   3.270   2.470  0.0415 -1.4573 -1.9990
 3947SOL    HW223304   1.071   3.394   2.483 -0.0309  1.0788 -1.2169
 3948SOL     OW23305   4.593   0.117   6.276  0.3993 -0.1243  0.3239
 3948SOL    HW123306   4.632   0.094   6.360  0.4293  0.3165  0.4333
 3948SOL    HW223307   4.509   0.150   6.309  0.6603 -0.5344  1.3944
 3949SOL     OW23308   1.598   3.998   8.274 -0.2159  0.0135 -0.0174
 3949SOL    HW123309   1.659   4.058   8.233 -1.0950  1.0094  0.1273
 3949SOL    HW223310   1.536   4.058   8.316 -1.9424 -0.8434 -1.3525
 3950SOL     OW23311   2.165   3.174   2.893 -0.4024 -0.2253  0.3883
 3950SOL    HW123312   2.191   3.239   2.958  0.9865 -0.3858  0.0029
 3950SOL    HW223313   2.070   3.176   2.906 -0.4431  0.2754  0.0077
 3951SOL     OW23314   4.523   2.261   3.807 -0.0857 -0.0331 -0.1430
 3951SOL    HW123315   4.466   2.209   3.863  0.6099 -2.1197 -1.3981
 3951SOL    HW223316   4.567   2.202   3.747 -0.7621 -0.7076  0.0307
 3952SOL     OW23317   4.210   1.264  17.170  0.1394  0.2092  0.0260
 3952SOL    HW123318   4.191   1.330  17.237  0.6899  0.1131  0.2795
 3952SOL    HW223319   4.300   1.241  17.194 -0.2020 -1.6583 -0.4709
 3953SOL     OW23320   0.308   3.429  16.213  0.1532 -0.0303  0.3227
 3953SOL    HW123321   0.337   3.342  16.240 -2.6830 -0.0213  3.4079
 3953SOL    HW223322   0.224   3.401  16.175  0.7846 -0.8110 -0.5065
 3954SOL     OW23323   3.670   2.447  12.093 -0.6272  0.1804 -0.1463
 3954SOL    HW123324   3.750   2.428  12.044  0.1354  1.8005  0.4564
 3954SOL    HW223325   3.706   2.410  12.173  1.5902 -0.4542 -1.4205
 3955SOL     OW23326   1.489   4.442   3.323  0.5484  0.0603 -0.5593
 3955SOL    HW123327   1.494   4.361   3.374 -0.4343 -2.9686 -5.2172
 3955SOL    HW223328   1.396   4.446   3.301  0.3886 -2.4426 -0.3744
 3956SOL     OW23329   4.638   2.975  17.339 -0.1200  0.2028 -0.7016
 3956SOL    HW123330   4.696   3.050  17.351 -0.1995  0.4031 -1.6016
 3956SOL    HW223331   4.671   2.941  17.256  1.1388 -1.6083  0.5324
 3957SOL     OW23332   2.756   4.120   9.341  0.0015  0.0714 -0.1080
 3957SOL    HW123333   2.780   4.029   9.357 -1.2246 -0.4326 -1.0855
 3957SOL    HW223334   2.665   4.134   9.369 -0.0713  1.1958 -0.8814
 3958SOL     OW23335   3.695   0.614   5.228 -0.5977  0.1216 -1.0192
 3958SOL    HW123336   3.660   0.703   5.234 -0.2261  0.1627  0.6469
 3958SOL    HW223337   3.733   0.614   5.141  0.4333  0.4704 -0.5622
 3959SOL     OW23338   1.048   0.236   2.826  0.0192  0.3443 -0.0204
 3959SOL    HW123339   1.026   0.268   2.738  0.5981 -2.2729 -1.1177
 3959SOL    HW223340   1.139   0.217   2.806 -0.4111  0.6910 -2.3915
 3960SOL     OW23341   2.196   1.668   7.065 -0.4315 -0.2815  0.3269
 3960SOL    HW123342   2.237   1.654   7.150 -0.6435  1.9079  0.7952
 3960SOL    HW223343   2.278   1.704   7.031 -1.6924  2.6186  0.3232
 3961SOL     OW23344   0.185   3.588  17.107  0.2658 -0.5349  0.3637
 3961SOL    HW123345   0.268   3.546  17.130  0.1463 -0.9374  0.0573
 3961SOL    HW223346   0.132   3.510  17.094 -1.9016  0.5831  2.5393
 3962SOL     OW23347   0.838   0.559  15.384 -0.5515  0.4355 -0.6151
 3962SOL    HW123348   0.873   0.646  15.403  1.4912 -0.4315 -0.3193
 3962SOL    HW223349   0.765   0.559  15.446 -1.5598 -0.6293 -1.8100
 3963SOL     OW23350   4.709   1.640   7.249  0.3950 -0.4024  0.2817
 3963SOL    HW123351   4.623   1.613   7.282 -0.0327  1.4856  0.7150
 3963SOL    HW223352   0.045   1.600   7.315  0.7153 -0.7527 -0.2079
 3964SOL     OW23353   4.666   1.210  15.675 -0.4703  0.3019 -0.1467
 3964SOL    HW123354   4.633   1.252  15.596  0.5909  1.1362 -0.1572
 3964SOL    HW223355   4.692   1.290  15.720 -1.1145 -0.3225  1.3413
 3965SOL     OW23356   1.739   0.237   2.788 -0.3503  0.6473  0.3281
 3965SOL    HW123357   1.702   0.288   2.861  1.2832 -1.2407  2.4919
 3965SOL    HW223358   1.744   0.148   2.824 -0.9593 -0.1257 -1.5061
 3966SOL     OW23359   3.067   2.057   8.283 -0.8699  0.2962  0.1401
 3966SOL    HW123360   3.062   2.136   8.337  1.5449  0.8215 -0.3757
 3966SOL    HW223361   3.008   1.988   8.314  1.1778  0.4501  4.3731
 3967SOL     OW23362   3.566   3.017   6.146 -1.0956  0.5442  0.2134
 3967SOL    HW123363   3.556   3.005   6.240  4.4518  3.6035  1.1600
 3967SOL    HW223364   3.652   2.978   6.129 -0.5392  2.0739 -0.5174
 3968SOL     OW23365   1.699   1.133   6.155  0.8773 -0.2622  0.7302
 3968SOL    HW123366   1.632   1.200   6.138  2.0439  0.5547 -0.6444
 3968SOL    HW223367   1.725   1.106   6.067  0.6012  0.3140  0.4682
 3969SOL     OW23368   4.198   0.466   7.339  0.2138 -0.2480 -0.3091
 3969SOL    HW123369   4.120   0.481   7.285  1.7357 -0.9066 -2.6537
 3969SOL    HW223370   4.264   0.453   7.271 -0.0932 -0.6272 -0.5388
 3970SOL     OW23371   4.329   4.667   2.861  0.4851  0.6531 -0.3698
 3970SOL    HW123372   4.245   4.623   2.872  1.3267 -0.9228 -0.1899
 3970SOL    HW223373   4.353   4.629   2.777  2.6653  1.5966 -0.1857
 3971SOL     OW23374   1.175   1.025  14.797  0.3888 -0.1053  0.5279
 3971SOL    HW123375   1.169   0.934  14.768 -2.1404  0.3175 -0.3523
 3971SOL    HW223376   1.190   1.012  14.890  0.2897  0.1028  0.5749
 3972SOL     OW23377   4.440   1.248  10.301  0.4275  0.2513 -0.3344
 3972SOL    HW123378   4.511   1.193  10.333  0.4884  1.5675  1.7808
 3972SOL    HW223379   4.366   1.187  10.307  0.6407 -0.0472 -0.7174
 3973SOL     OW23380   4.037   0.291  13.109  0.2821 -0.3044 -0.5940
 3973SOL    HW123381   4.065   0.351  13.040 -0.6974 -1.7397 -2.2048
 3973SOL    HW223382   4.091   0.216  13.085  1.2864 -0.1844  1.2799
 3974SOL     OW23383   2.614   0.330  16.023  0.9068  0.0764  0.5018
 3974SOL    HW123384   2.568   0.387  15.961 -1.3864 -1.6490  0.6270
 3974SOL    HW223385   2.706   0.354  16.013  0.3550  2.0984  0.1124
 3975SOL     OW23386   2.922   4.587   0.616  0.6331  0.1241 -0.0362
 3975SOL    HW123387   2.955   4.553   0.533 -0.0784 -1.7232  0.4580
 3975SOL    HW223388   2.985   4.538   0.669 -0.6089 -0.0366  1.2741
 3976SOL     OW23389   4.489   4.116  14.702  0.3436  0.1686  0.1942
 3976SOL    HW123390   4.457   4.052  14.639  1.8493  3.4999 -3.8913
 3976SOL    HW223391   4.510   4.063  14.779 -0.3106 -1.1709 -0.5400
 3977SOL     OW23392   2.046   0.341  14.973  0.3846  0.2819 -0.4435
 3977SOL    HW123393   2.016   0.265  15.023 -0.4718 -2.2282 -4.7387
 3977SOL    HW223394   2.133   0.345  15.012 -0.2595 -2.9968  1.3083
 3978SOL     OW23395   4.436   1.633   9.979  0.0878  0.3623 -0.4335
 3978SOL    HW123396   4.447   1.688  10.056  1.9099  0.0679 -0.4758
 3978SOL    HW223397   4.360   1.581  10.005  0.0932  0.7311  0.3115
 3979SOL     OW23398   0.738   3.716   5.488  0.5168  0.2598 -1.0318
 3979SOL    HW123399   0.694   3.670   5.417  0.5752  0.4722 -1.2032
 3979SOL    HW223400   0.720   3.667   5.569  0.8349 -1.7044 -2.1309
 3980SOL     OW23401   2.096   2.493  14.114 -0.0302  0.0488 -0.0062
 3980SOL    HW123402   2.045   2.572  14.128 -3.0824 -1.9286  0.1047
 3980SOL    HW223403   2.150   2.524  14.041 -0.3597  0.0146 -0.2657
 3981SOL     OW23404   0.086   0.248  15.546  0.4232 -0.2508  0.6818
 3981SOL    HW123405   0.143   0.225  15.620 -0.5801 -0.0530  1.5088
 3981SOL    HW223406   0.028   0.305  15.596  0.8511  0.0506  0.8339
 3982SOL     OW23407   1.522   4.451   9.672  0.7957 -0.5553 -0.5221
 3982SOL    HW123408   1.609   4.430   9.638  1.1238  2.6929 -1.6349
 3982SOL    HW223409   1.536   4.464   9.765  0.6620  2.0767 -0.8721
 3983SOL     OW23410   1.114   2.630   5.741 -0.3220  0.0595  0.3671
 3983SOL    HW123411   1.155   2.584   5.668 -3.1220  0.7379 -1.6317
 3983SOL    HW223412   1.117   2.720   5.708 -2.6039  0.3819  1.0705
 3984SOL     OW23413   0.200   2.660  17.005  0.4814 -0.0850 -0.0114
 3984SOL    HW123414   0.251   2.580  16.992 -1.8263 -1.4706 -0.4954
 3984SOL    HW223415   0.112   2.629  16.984 -0.1541  2.0633 -0.5416
 3985SOL     OW23416   4.202   2.841   6.623  0.4030 -0.4176 -0.2486
 3985SOL    HW123417   4.276   2.789   6.655 -1.8219 -2.7442  1.1570
 3985SOL    HW223418   4.237   2.918   6.579  2.1777 -0.5980  0.8598
 3986SOL     OW23419   1.086   2.894   0.959 -0.4022 -0.0145 -0.2260
 3986SOL    HW123420   1.054   2.841   0.885 -1.8889  1.3477 -0.5507
 3986SOL    HW223421   1.014   2.947   0.992  0.1101  2.2370 -2.7389
 3987SOL     OW23422   0.449   2.070   4.315 -0.1561 -0.4723  0.0886
 3987SOL    HW123423   0.426   2.027   4.397 -1.8635 -0.0715 -0.1934
 3987SOL    HW223424   0.488   1.997   4.267 -0.8049 -0.8937  0.2006
 3988SOL     OW23425   0.767   0.096   6.987 -0.4839 -0.4321  0.1296
 3988SOL    HW123426   0.731   0.014   6.952 -0.3012 -2.1450  3.9987
 3988SOL    HW223427   0.720   0.107   7.070  1.3321 -1.7052  1.3165
 3989SOL     OW23428   2.239   0.447   9.391  0.0552  0.0527 -0.7632
 3989SOL    HW123429   2.260   0.535   9.421  0.1375 -0.1854 -0.1301
 3989SOL    HW223430   2.268   0.386   9.458  0.6263 -0.5222 -1.5365
 3990SOL     OW23431   0.841   3.952   6.178  0.7919 -0.1531  0.6093
 3990SOL    HW123432   0.772   3.899   6.138  1.9878 -0.7216 -0.7045
 3990SOL    HW223433   0.794   4.003   6.244 -0.0304  1.2493 -1.0594
 3991SOL     OW23434   0.751   3.076  14.098 -0.3205  0.3518 -0.3613
 3991SOL    HW123435   0.825   3.022  14.125 -1.1736  0.0827  1.4331
 3991SOL    HW223436   0.736   3.131  14.175  0.6256  1.5056 -1.0053
 3992SOL     OW23437   1.952   3.036   3.272  0.0756  0.6464 -0.1012
 3992SOL    HW123438   2.019   3.103   3.255 -0.3573  1.1508  0.1768
 3992SOL    HW223439   2.003   2.955   3.270  0.7057  1.0142  1.0813
 3993SOL     OW23440   0.692   3.741  11.548  0.0495 -0.3675  0.2650
 3993SOL    HW123441   0.735   3.824  11.567 -1.6561  0.7073 -0.5394
 3993SOL    HW223442   0.715   3.686  11.622  1.5094  0.7873  0.6808
 3994SOL     OW23443   2.814   1.931   1.936  0.3949  0.0104 -0.3067
 3994SOL    HW123444   2.731   1.966   1.902  1.3576  3.2295  0.6895
 3994SOL    HW223445   2.875   2.003   1.925  2.1323 -1.8191 -2.4063
 3995SOL     OW23446   3.071   0.556  10.200  0.1361 -0.0444 -0.5870
 3995SOL    HW123447   3.022   0.475  10.183  0.5347 -1.0043  2.8510
 3995SOL    HW223448   3.056   0.575  10.293  1.2318 -0.5479 -0.3114
 3996SOL     OW23449   0.991   4.390   0.309 -0.0969  0.1244 -0.3804
 3996SOL    HW123450   0.984   4.297   0.292  1.8548 -0.8470  4.2042
 3996SOL    HW223451   0.973   4.385   0.403  0.0946 -1.9774 -0.4705
 3997SOL     OW23452   3.365   3.974   5.841 -0.5347 -0.1604  0.5221
 3997SOL    HW123453   3.457   3.955   5.825 -0.4885  1.6066 -1.3726
 3997SOL    HW223454   3.322   3.909   5.786 -1.2502  2.0607 -1.5481
 3998SOL     OW23455   0.486   2.810   9.139  0.6505 -0.0334 -0.8206
 3998SOL    HW123456   0.521   2.721   9.128  0.0683 -0.0953 -2.1302
 3998SOL    HW223457   0.443   2.820   9.054  1.7972  2.4723 -1.1018
 3999SOL     OW23458   4.203   0.807   6.702  0.6311 -0.3077  0.6560
 3999SOL    HW123459   4.264   0.860   6.752  1.0108 -1.0180  0.9457
 3999SOL    HW223460   4.123   0.819   6.754  0.1181  2.0069 -0.6576
 4000SOL     OW23461   0.624   3.992  12.259  0.1411 -0.2537 -0.1171
 4000SOL    HW123462   0.650   3.998  12.351  1.3606  2.0639 -0.6110
 4000SOL    HW223463   0.588   3.904  12.251 -2.5514  1.2128 -3.9579
 4001SOL     OW23464   0.299   3.288   6.307  0.2304 -0.5621  0.3591
 4001SOL    HW123465   0.217   3.332   6.330 -0.1494 -1.7232  1.2380
 4001SOL    HW223466   0.354   3.299   6.384 -1.2173  1.8171  1.0428
 4002SOL     OW23467   0.968   2.340  10.992 -0.2297  0.4323 -0.7589
 4002SOL    HW123468   1.010   2.320  11.076 -0.7751 -3.0342 -1.2906
 4002SOL    HW223469   0.956   2.248  10.966  0.4586  0.1908 -0.2333
 4003SOL     OW23470   1.347   3.626   3.230 -0.0864  0.0217  0.0420
 4003SOL    HW123471   1.442   3.617   3.230 -0.0196  0.7924  0.7524
 4003SOL    HW223472   1.341   3.716   3.261 -0.2006 -0.8813  2.6064
 4004SOL     OW23473   0.742   0.521   2.852 -0.3126  0.0911 -0.9185
 4004SOL    HW123474   0.696   0.511   2.768 -2.4401 -1.3048  0.4186
 4004SOL    HW223475   0.717   0.612   2.867  1.3245  0.0560  1.9750
 4005SOL     OW23476   3.022   0.954   7.585  0.8779  0.7616  0.0142
 4005SOL    HW123477   2.926   0.961   7.579  0.5112 -3.7640 -0.0868
 4005SOL    HW223478   3.030   1.004   7.667  0.4352  1.4121 -0.3385
 4006SOL     OW23479   1.098   1.942   8.522 -0.0222  0.3602 -0.0087
 4006SOL    HW123480   1.158   1.916   8.592 -0.3500  0.9794  0.5063
 4006SOL    HW223481   1.043   1.999   8.576  0.4072  2.8790 -2.2462
 4007SOL     OW23482   3.386   1.105  11.812 -0.3320 -0.2384 -0.3127
 4007SOL    HW123483   3.336   1.164  11.867 -0.7790 -0.2089 -0.7551
 4007SOL    HW223484   3.406   1.040  11.880 -1.1619 -0.1942 -0.0337
 4008SOL     OW23485   2.916   3.488   0.925 -1.0671 -0.4170 -0.4500
 4008SOL    HW123486   2.939   3.508   0.835  1.0656 -0.9358 -0.0097
 4008SOL    HW223487   2.907   3.578   0.956  1.7419 -0.3381  0.1422
 4009SOL     OW23488   1.971   0.323  17.562 -0.1337  0.4495  0.4600
 4009SOL    HW123489   2.009   0.272  17.634  1.2762 -0.2703 -0.7997
 4009SOL    HW223490   1.986   0.415  17.583  1.1543 -0.1202  2.0531
 4010SOL     OW23491   4.368   1.481   3.820 -0.0356  0.2174 -0.2409
 4010SOL    HW123492   4.325   1.548   3.873 -2.2705 -1.0586 -0.4840
 4010SOL    HW223493   4.312   1.476   3.743  0.1341  1.4557 -0.4415
 4011SOL     OW23494   4.311   0.978   8.926 -0.5228  0.3907  0.3370
 4011SOL    HW123495   4.252   0.925   8.873  1.0551 -1.2191  0.1975
 4011SOL    HW223496   4.343   0.908   8.983 -0.1213  0.8487  0.6712
 4012SOL     OW23497   1.745   0.313  16.162  0.0693 -0.0175  0.2774
 4012SOL    HW123498   1.653   0.336  16.151 -0.1383  0.0516  2.1414
 4012SOL    HW223499   1.754   0.257  16.085 -2.4907  0.6432 -0.5083
 4013SOL     OW23500   1.482   1.676   4.056 -0.3962 -0.0285 -0.3082
 4013SOL    HW123501   1.406   1.726   4.085  1.1852  1.5188  1.1864
 4013SOL    HW223502   1.506   1.631   4.137 -2.8207  0.8961  0.9224
 4014SOL     OW23503   3.867   3.380   3.928 -0.9086  0.2518  0.0143
 4014SOL    HW123504   3.903   3.291   3.922 -1.7573 -0.2920  2.7413
 4014SOL    HW223505   3.892   3.417   3.844  1.6668  1.2068  1.2084
 4015SOL     OW23506   0.568   0.155  14.312 -0.0862  0.1480  0.5210
 4015SOL    HW123507   0.487   0.205  14.322 -1.0680 -1.1050 -1.2513
 4015SOL    HW223508   0.619   0.230  14.281 -1.2342  0.3091 -0.9560
 4016SOL     OW23509   3.128   1.708   2.409  0.6865 -0.0654  0.3876
 4016SOL    HW123510   3.139   1.737   2.500  1.2429  1.0708 -0.0425
 4016SOL    HW223511   3.042   1.667   2.400 -0.2694  1.3125  3.2873
 4017SOL     OW23512   3.373   1.858   4.312  0.2777 -0.2114 -0.6610
 4017SOL    HW123513   3.466   1.845   4.295  0.7394  2.1776 -0.0221
 4017SOL    HW223514   3.365   1.954   4.316  0.6649 -0.2069 -0.0270
 4018SOL     OW23515   1.617   2.321   2.845 -0.2212  0.0288  0.4359
 4018SOL    HW123516   1.624   2.416   2.841  1.4872 -0.1291 -0.6736
 4018SOL    HW223517   1.696   2.302   2.896  0.2285  1.6440  0.3214
 4019SOL     OW23518   2.198   0.254   3.581  0.4411  0.6649  0.1782
 4019SOL    HW123519   2.155   0.297   3.506  1.9566 -1.6704 -2.0368
 4019SOL    HW223520   2.289   0.279   3.569  0.2904  0.3528 -1.6743
 4020SOL     OW23521   1.293   2.834   2.868 -0.0205  0.0361 -0.3854
 4020SOL    HW123522   1.284   2.751   2.915  1.5205  0.9464  1.4630
 4020SOL    HW223523   1.332   2.799   2.788 -3.4748  0.2018 -2.1787
 4021SOL     OW23524   0.554   0.706   9.640 -0.0228  0.0811 -0.7851
 4021SOL    HW123525   0.522   0.781   9.589 -0.0215  3.0514  3.5760
 4021SOL    HW223526   0.645   0.700   9.612 -0.2562  0.1324 -1.5644
 4022SOL     OW23527   0.325   3.852   8.692 -0.2402 -0.6010  0.3625
 4022SOL    HW123528   0.327   3.817   8.781  0.4440  3.5222  1.9724
 4022SOL    HW223529   0.414   3.886   8.683 -0.9510  0.6802 -1.8159
 4023SOL     OW23530   0.984   1.648  11.562  0.1782  0.0799  0.0326
 4023SOL    HW123531   0.932   1.606  11.493 -0.4930  0.0838  0.5398
 4023SOL    HW223532   1.010   1.576  11.620  2.1737  0.9631  0.2282
 4024SOL     OW23533   2.921   3.114  14.598 -0.1893 -0.0698  0.4139
 4024SOL    HW123534   2.828   3.106  14.619 -0.4641  2.4867  0.2256
 4024SOL    HW223535   2.951   3.027  14.625  0.0404  0.1056  0.7317
 4025SOL     OW23536   2.930   0.033  17.620  0.3771  0.0227  0.3988
 4025SOL    HW123537   2.952   4.667  17.585  1.2590  0.3552  0.1096
 4025SOL    HW223538   2.835   0.039  17.617  0.3180 -1.1342  0.0479
 4026SOL     OW23539   1.213   2.338  12.162  0.5155  0.5351 -0.0317
 4026SOL    HW123540   1.271   2.377  12.096 -1.8432  0.6467 -2.0507
 4026SOL    HW223541   1.240   2.380  12.243 -1.5901 -1.2580  1.6167
 4027SOL     OW23542   3.079   2.397   7.274  0.4102  0.4812  0.0393
 4027SOL    HW123543   3.004   2.374   7.330 -0.3940  0.7898 -0.9007
 4027SOL    HW223544   3.120   2.464   7.328  2.2557 -2.5932  2.4484
 4028SOL     OW23545   0.639   1.096   5.364 -0.0244 -0.5130  0.0070
 4028SOL    HW123546   0.668   1.187   5.356  0.6611 -0.9444 -2.2360
 4028SOL    HW223547   0.625   1.070   5.273  1.4789 -1.8180  0.1543
 4029SOL     OW23548   1.646   0.574  15.175 -0.0460  0.0385 -0.2099
 4029SOL    HW123549   1.713   0.513  15.206 -0.9489 -0.8302  0.0489
 4029SOL    HW223550   1.700   0.645  15.140 -0.5521  0.9006  0.7593
 4030SOL     OW23551   3.829   3.599   7.657 -0.0349 -0.3161  0.0593
 4030SOL    HW123552   3.811   3.693   7.659 -0.3659 -0.4078  1.0933
 4030SOL    HW223553   3.919   3.590   7.688 -0.2123  0.0324  0.6543
 4031SOL     OW23554   2.275   3.529   5.292 -0.5627 -0.6452 -0.0920
 4031SOL    HW123555   2.281   3.624   5.298 -0.6595 -0.5279 -1.8215
 4031SOL    HW223556   2.338   3.520   5.220  0.4009  2.2593  0.4158
 4032SOL     OW23557   2.102   0.694   5.796  0.1911 -0.5371 -0.0445
 4032SOL    HW123558   2.183   0.736   5.821  0.8716 -1.0911 -1.2851
 4032SOL    HW223559   2.129   0.607   5.825 -0.2332 -0.9533 -0.8733
 4033SOL     OW23560   2.863   4.477  17.242 -0.4588  0.0575  0.0693
 4033SOL    HW123561   2.788   4.445  17.293  0.3410  0.0388  1.2122
 4033SOL    HW223562   2.903   4.392  17.227  0.7964  0.4886  0.9592
 4034SOL     OW23563   0.606   1.475   7.881  0.3108  0.0750 -0.5171
 4034SOL    HW123564   0.601   1.543   7.949 -1.1495  1.3961 -1.9610
 4034SOL    HW223565   0.682   1.507   7.833  0.6779 -2.6532 -1.7759
 4035SOL     OW23566   3.258   4.425   2.036  0.3137 -0.0115  0.3427
 4035SOL    HW123567   3.180   4.444   2.087 -0.0731  1.5002 -0.8188
 4035SOL    HW223568   3.285   4.359   2.100  2.2567 -1.8119 -2.3041
 4036SOL     OW23569   1.836   3.866   4.425  0.4137 -0.6093  0.3815
 4036SOL    HW123570   1.852   3.949   4.469 -2.1183 -0.0215  0.1936
 4036SOL    HW223571   1.811   3.903   4.340  0.9338  0.8169  0.8524
 4037SOL     OW23572   3.882   3.555   3.081 -0.4837 -0.1530  0.6653
 4037SOL    HW123573   3.960   3.607   3.101 -0.6923  0.7808 -1.0153
 4037SOL    HW223574   3.809   3.616   3.081 -1.6151 -1.4843 -0.9445
 4038SOL     OW23575   1.814   4.490   7.225  0.1548  0.1627 -0.2519
 4038SOL    HW123576   1.740   4.512   7.169  2.2663  2.7875 -1.9630
 4038SOL    HW223577   1.886   4.527   7.175 -1.9278  0.4831 -3.0056
 4039SOL     OW23578   3.913   4.576   5.522  0.0965  0.0013 -0.2014
 4039SOL    HW123579   3.830   4.530   5.509 -0.0857  0.5327 -0.9332
 4039SOL    HW223580   3.977   4.546   5.457 -0.1570 -0.5870 -0.1737
 4040SOL     OW23581   0.131   1.505   3.286  0.5091  0.2607 -0.6299
 4040SOL    HW123582   0.106   1.535   3.199 -1.1723  0.8228  0.0535
 4040SOL    HW223583   0.076   1.553   3.348 -1.4877 -0.8737 -1.4963
 4041SOL     OW23584   4.682   1.429   4.530 -0.3109 -0.3779  0.5843
 4041SOL    HW123585   4.679   1.433   4.626 -2.3896 -1.7830  0.5665
 4041SOL    HW223586   0.038   1.485   4.514  2.2174 -4.0616 -0.1279
 4042SOL     OW23587   2.197   2.833   2.181 -0.0495  0.0847  0.3821
 4042SOL    HW123588   2.243   2.874   2.255 -0.4970  0.0743  0.6686
 4042SOL    HW223589   2.107   2.862   2.196  0.3506  2.2028 -1.3472
 4043SOL     OW23590   4.322   2.513  13.290 -0.4519 -0.2372 -0.5318
 4043SOL    HW123591   4.315   2.441  13.352  0.6750  0.2212  0.1246
 4043SOL    HW223592   4.268   2.577  13.337 -1.0268  0.1601 -1.7175
 4044SOL     OW23593   0.352   3.476  10.395 -0.0830 -0.2161  0.0042
 4044SOL    HW123594   0.403   3.484  10.476  0.8724 -0.4388 -0.5881
 4044SOL    HW223595   0.265   3.489  10.435  0.0664 -2.4963  1.1087
 4045SOL     OW23596   1.436   1.954   8.511 -0.2623 -0.5790  0.5073
 4045SOL    HW123597   1.369   2.007   8.553  0.0404  0.6043 -0.4951
 4045SOL    HW223598   1.515   2.008   8.509 -1.4854  1.2424  2.9448
 4046SOL     OW23599   1.161   1.485   4.060  0.4518  0.4526 -0.1316
 4046SOL    HW123600   1.227   1.476   3.991 -0.1770  3.1834 -1.0727
 4046SOL    HW223601   1.141   1.392   4.075 -2.4427  1.0106 -0.3761
 4047SOL     OW23602   3.187   1.819   4.534 -0.2296 -0.1215 -0.0674
 4047SOL    HW123603   3.249   1.854   4.470 -0.1407 -0.8857 -0.4007
 4047SOL    HW223604   3.156   1.892   4.586 -2.5853 -0.0688 -1.5553
 4048SOL     OW23605   1.515   1.766   4.360 -0.1346  0.9922  0.5441
 4048SOL    HW123606   1.568   1.790   4.436 -0.9143 -0.9126  1.7084
 4048SOL    HW223607   1.432   1.738   4.400  0.3474 -0.6669  0.3963
 4049SOL     OW23608   1.625   0.736  12.274 -0.3424  0.2724  0.6024
 4049SOL    HW123609   1.704   0.683  12.261 -0.7537 -0.8387  2.6279
 4049SOL    HW223610   1.560   0.670  12.249 -1.5370  1.2522  1.1053
 4050SOL     OW23611   3.247   1.904   6.468  0.4271 -0.2176 -0.0180
 4050SOL    HW123612   3.255   1.915   6.373 -0.1234  1.2821  0.1151
 4050SOL    HW223613   3.288   1.820   6.491  2.5280  0.4645 -1.2446
 4051SOL     OW23614   4.524   3.917   8.780  0.6025 -0.2209  0.0655
 4051SOL    HW123615   4.533   3.921   8.876 -2.7573  2.3652  0.2767
 4051SOL    HW223616   4.612   3.939   8.751  0.5711 -1.0090 -0.6173
 4052SOL     OW23617   0.470   1.771   5.870  0.3837 -0.4548  0.1167
 4052SOL    HW123618   0.515   1.694   5.905  0.9376 -0.5914 -0.9126
 4052SOL    HW223619   0.546   1.827   5.859  1.4043 -1.8341  0.2049
 4053SOL     OW23620   3.861   2.015   6.119  0.1380 -0.2891  0.2653
 4053SOL    HW123621   3.901   1.936   6.081  2.5788  0.2266  1.7536
 4053SOL    HW223622   3.877   2.005   6.213 -0.7273 -0.0922  0.4293
 4054SOL     OW23623   4.213   0.806   3.002  0.2051  0.0949  0.0518
 4054SOL    HW123624   4.137   0.853   3.036  0.9259 -1.4446  3.8832
 4054SOL    HW223625   4.227   0.874   2.936  0.2574  0.0041 -0.0299
 4055SOL     OW23626   1.152   1.319   4.867  0.5029  0.0547  0.5773
 4055SOL    HW123627   1.064   1.315   4.904  0.7582  2.3531  1.4377
 4055SOL    HW223628   1.145   1.368   4.785 -1.7320 -2.0200 -0.4684
 4056SOL     OW23629   1.495   0.189  17.043  0.3211 -0.3333 -0.0502
 4056SOL    HW123630   1.440   0.258  17.005 -0.5538 -1.6220 -1.0961
 4056SOL    HW223631   1.576   0.240  17.049  1.2598 -1.6951 -1.2165
 4057SOL     OW23632   3.183   4.291   3.417 -0.3021 -0.2748 -0.6043
 4057SOL    HW123633   3.167   4.206   3.377 -1.1237 -0.2660 -0.2892
 4057SOL    HW223634   3.241   4.337   3.357  2.0119 -0.1524  1.6931
 4058SOL     OW23635   1.932   3.548  13.957 -0.5733  0.3151  0.2187
 4058SOL    HW123636   1.864   3.480  13.954 -0.6831  0.3569  1.6859
 4058SOL    HW223637   1.885   3.609  13.900 -1.1227 -0.7652 -0.4877
 4059SOL     OW23638   2.896   1.658   1.901  0.3422 -0.6265  0.1932
 4059SOL    HW123639   2.821   1.634   1.847 -2.1055  2.6748  2.1456
 4059SOL    HW223640   2.892   1.753   1.893 -1.6451 -0.8022 -0.7069
 4060SOL     OW23641   2.537   0.566   8.271 -0.1476  0.3284  0.1265
 4060SOL    HW123642   2.522   0.654   8.238  0.8065  0.0039 -1.1232
 4060SOL    HW223643   2.500   0.565   8.360 -2.6551  0.2427 -0.9241
 4061SOL     OW23644   3.510   4.211   2.775 -0.3527 -0.0714 -0.0833
 4061SOL    HW123645   3.486   4.136   2.722  1.3507  0.5704 -1.7496
 4061SOL    HW223646   3.605   4.214   2.768 -0.4510  0.9854 -0.9648
 4062SOL     OW23647   4.550   2.688  15.857 -0.4082 -0.1756 -0.3743
 4062SOL    HW123648   4.638   2.668  15.888 -0.0833  2.4507  0.4333
 4062SOL    HW223649   4.508   2.603  15.849 -0.6010 -0.3067  1.8139
 4063SOL     OW23650   3.174   2.437   6.119 -0.3142  0.3990 -0.1691
 4063SOL    HW123651   3.190   2.529   6.097 -2.0566  0.8315  0.3901
 4063SOL    HW223652   3.258   2.413   6.159  0.4521 -0.4668 -2.2939
 4064SOL     OW23653   0.782   1.132  16.514 -0.1980  0.3115 -0.0394
 4064SOL    HW123654   0.857   1.074  16.527  0.6420  1.7353  1.5943
 4064SOL    HW223655   0.723   1.077  16.464  2.5249  0.1183 -3.0285
 4065SOL     OW23656   0.802   3.542   6.554 -0.3085  0.0510  0.4551
 4065SOL    HW123657   0.741   3.552   6.626 -0.5332 -0.8590  0.3994
 4065SOL    HW223658   0.745   3.490   6.498 -0.7120  1.1732 -0.1662
 4066SOL     OW23659   3.950   3.252   5.728 -0.4501  0.8615  0.3606
 4066SOL    HW123660   3.928   3.169   5.686  1.4658  0.7001 -0.3092
 4066SOL    HW223661   3.906   3.224   5.809  1.7697 -0.9281  0.9712
 4067SOL     OW23662   2.705   0.083   3.520 -0.2088  0.4659 -0.2488
 4067SOL    HW123663   2.780   0.024   3.530 -1.5548 -0.9532  1.2199
 4067SOL    HW223664   2.649   0.048   3.589 -0.2292 -2.0167 -1.5123
 4068SOL     OW23665   2.865   1.083   3.204 -0.4294  0.3694  0.1605
 4068SOL    HW123666   2.908   1.020   3.262  0.6819 -1.0748 -2.2491
 4068SOL    HW223667   2.934   1.147   3.192  0.4070 -0.4421  0.6848
 4069SOL     OW23668   2.782   2.726  15.929 -0.3600  0.3669  0.2945
 4069SOL    HW123669   2.862   2.713  15.879 -2.1857 -3.2702 -1.7031
 4069SOL    HW223670   2.825   2.750  16.011  0.3542 -1.3952  0.4190
 4070SOL     OW23671   1.790   1.519   4.040 -0.0792 -0.5712 -0.3108
 4070SOL    HW123672   1.713   1.479   4.082 -0.9918  0.7759 -0.7235
 4070SOL    HW223673   1.767   1.610   4.057 -0.4931 -0.4672 -1.4572
 4071SOL     OW23674   4.542   4.640   0.248  0.2439 -0.4828  1.0284
 4071SOL    HW123675   4.548   4.651   0.154 -3.5482  2.3188  1.1503
 4071SOL    HW223676   4.635   4.637   0.272  0.6024 -0.8418 -0.4130
 4072SOL     OW23677   4.567   1.918  14.874  0.4501 -0.4746  0.2998
 4072SOL    HW123678   4.568   1.935  14.968 -1.1116 -0.9940  0.4232
 4072SOL    HW223679   4.565   2.009  14.845  1.3856  0.0285  1.7989
 4073SOL     OW23680   1.262   2.571   3.900  0.1779 -0.0188 -0.8296
 4073SOL    HW123681   1.209   2.601   3.974  3.2721  2.9169  0.2140
 4073SOL    HW223682   1.327   2.524   3.952 -0.9791 -2.0025 -1.1450
 4074SOL     OW23683   1.911   1.154   2.058 -0.4013 -0.2813 -0.0896
 4074SOL    HW123684   1.892   1.091   1.987  0.7427 -0.4674 -0.2231
 4074SOL    HW223685   1.941   1.096   2.128  0.9113  0.3073 -0.1786
 4075SOL     OW23686   4.545   3.813   5.062 -0.3638  0.5021  0.6877
 4075SOL    HW123687   4.575   3.729   5.027  3.0281  1.7177  0.6527
 4075SOL    HW223688   4.597   3.862   4.999 -0.4763  0.4930  0.5880
 4076SOL     OW23689   1.292   1.367   7.064 -0.1048 -0.0398 -0.3799
 4076SOL    HW123690   1.234   1.342   7.136  0.4462 -0.5555 -0.1072
 4076SOL    HW223691   1.269   1.459   7.062  1.5589  0.3954  0.5686
 4077SOL     OW23692   1.594   3.887   7.905  0.3070  0.2442 -0.6563
 4077SOL    HW123693   1.681   3.865   7.871 -0.1600  1.1340 -2.3841
 4077SOL    HW223694   1.589   3.821   7.975  0.5221 -2.8378 -3.5381
 4078SOL     OW23695   2.837   0.858   4.786 -0.0289  0.4273  0.3552
 4078SOL    HW123696   2.836   0.764   4.802  0.8034 -0.2574 -3.4642
 4078SOL    HW223697   2.746   0.870   4.762 -1.0157 -1.0550  3.3965
 4079SOL     OW23698   3.919   2.999   2.612 -0.9455 -0.7375  0.2024
 4079SOL    HW123699   3.961   2.997   2.526 -1.6638 -1.9617 -0.1150
 4079SOL    HW223700   3.978   3.060   2.655 -0.5743 -1.3960  0.6272
 4080SOL     OW23701   1.983   0.236   2.526  0.3223 -0.3617  0.8753
 4080SOL    HW123702   2.066   0.251   2.571  0.6905 -2.0126  0.7590
 4080SOL    HW223703   2.011   0.159   2.477  1.7449  0.1381  0.9064
 4081SOL     OW23704   2.060   1.083   3.923 -0.2152  0.1754  0.5710
 4081SOL    HW123705   2.035   1.173   3.902  1.8617  0.5767 -0.0642
 4081SOL    HW223706   2.111   1.056   3.847  1.2100  3.8383  0.2680
 4082SOL     OW23707   4.177   1.060   5.380  0.3256  0.0331 -0.1926
 4082SOL    HW123708   4.227   1.109   5.446  2.7943 -2.4127 -0.2910
 4082SOL    HW223709   4.133   1.134   5.338  2.5272  1.1994 -0.4654
 4083SOL     OW23710   0.374   0.895   6.053  0.2207  0.0097  0.0046
 4083SOL    HW123711   0.407   0.869   5.967  0.5985 -2.2820  0.8532
 4083SOL    HW223712   0.332   0.979   6.035 -0.6625 -0.5526 -0.5798
 4084SOL     OW23713   2.764   0.340  11.434  0.1460 -0.2540  0.4852
 4084SOL    HW123714   2.741   0.378  11.519 -0.3140 -0.9946  0.6960
 4084SOL    HW223715   2.821   0.414  11.416  0.1289  0.2373  2.4619
 4085SOL     OW23716   1.764   3.587  14.972  0.0321 -0.0745  0.3781
 4085SOL    HW123717   1.671   3.597  14.993 -0.4162  0.1081 -1.6834
 4085SOL    HW223718   1.785   3.494  14.962 -2.5194 -0.6675  0.5603
 4086SOL     OW23719   3.547   0.008   5.969  0.8210  0.1135 -0.2946
 4086SOL    HW123720   3.484   0.080   5.959 -0.2114 -0.8420 -0.6762
 4086SOL    HW223721   3.620   0.055   6.008  1.4655 -1.6176  0.5582
 4087SOL     OW23722   4.030   4.505   6.594  0.2099 -0.2115  0.0540
 4087SOL    HW123723   3.940   4.475   6.581  0.4680 -0.7612 -0.5123
 4087SOL    HW223724   4.022   4.599   6.605  2.7671  0.2383 -1.9684
 4088SOL     OW23725   3.268   3.450   3.706 -0.1411 -0.0998 -0.2195
 4088SOL    HW123726   3.356   3.466   3.674 -0.4682 -0.3153 -1.2190
 4088SOL    HW223727   3.226   3.391   3.643 -0.3794 -1.0996  0.8699
 4089SOL     OW23728   0.506   4.157  17.450 -0.2184 -0.1638 -0.2755
 4089SOL    HW123729   0.481   4.097  17.380  0.9623 -0.1370 -0.7160
 4089SOL    HW223730   0.583   4.195  17.408  2.3982 -2.8859  2.0262
 4090SOL     OW23731   1.824   3.400   4.663  0.4594  0.0220  0.0577
 4090SOL    HW123732   1.802   3.308   4.648 -0.6532  0.4176 -0.7294
 4090SOL    HW223733   1.877   3.419   4.585  0.3706 -0.7214 -0.1825
 4091SOL     OW23734   2.031   2.722   2.672 -0.2105 -0.0239 -0.7549
 4091SOL    HW123735   2.006   2.814   2.677  0.0513 -0.2149  3.7893
 4091SOL    HW223736   2.023   2.700   2.765 -1.0450  1.4616 -0.4807
 4092SOL     OW23737   2.869   2.911   0.737  0.2505 -0.6231 -0.0904
 4092SOL    HW123738   2.786   2.864   0.730  0.2735 -0.6346 -0.3078
 4092SOL    HW223739   2.879   2.956   0.820 -0.3618 -1.7353  0.5866
 4093SOL     OW23740   1.991   2.937   6.755 -0.6945 -0.5411 -0.2583
 4093SOL    HW123741   2.057   2.868   6.764  1.1441  1.0955 -1.3838
 4093SOL    HW223742   1.908   2.897   6.781  1.0746 -2.9009  1.8244
 4094SOL     OW23743   3.384   3.745   7.078 -0.0315  0.1193  0.7892
 4094SOL    HW123744   3.349   3.753   6.989 -1.7878 -0.5257  1.4181
 4094SOL    HW223745   3.396   3.650   7.084 -1.5935 -0.2221 -1.1426
 4095SOL     OW23746   0.055   0.426  12.312 -0.1312  0.3069 -0.2136
 4095SOL    HW123747   0.074   0.422  12.405  2.0267 -0.9850 -0.6996
 4095SOL    HW223748   0.042   0.332  12.299  1.2810 -0.0755  1.1773
 4096SOL     OW23749   3.987   4.290  10.296 -0.2100 -0.4019 -0.6389
 4096SOL    HW123750   4.012   4.379  10.272  0.2621 -0.1706  0.6954
 4096SOL    HW223751   4.063   4.246  10.259  1.9577 -0.1290  3.4430
 4097SOL     OW23752   2.775   0.712   4.082 -0.2016 -0.0949 -0.2581
 4097SOL    HW123753   2.703   0.728   4.021  0.5950  0.7731 -0.9720
 4097SOL    HW223754   2.739   0.767   4.152 -0.3004 -0.6276  0.1062
 4098SOL     OW23755   3.375   1.583   9.876  0.6528 -0.0269  0.0034
 4098SOL    HW123756   3.466   1.586   9.906  0.9775 -1.2001 -0.8538
 4098SOL    HW223757   3.335   1.518   9.934  0.0941  1.3246  1.1318
 4099SOL     OW23758   2.371   1.072   6.931 -0.0505 -0.0368  0.2188
 4099SOL    HW123759   2.289   1.042   6.970  0.4231 -2.0553 -0.3378
 4099SOL    HW223760   2.363   1.021   6.850  1.2543  0.3767 -0.1690
 4100SOL     OW23761   0.367   1.345   7.721 -0.1606  0.4076  0.6547
 4100SOL    HW123762   0.415   1.418   7.759 -1.9227  1.0797  1.5500
 4100SOL    HW223763   0.285   1.386   7.696 -0.2175  1.5198  2.6721
 4101SOL     OW23764   3.974   0.963   3.033  0.3391 -0.5042  0.0814
 4101SOL    HW123765   3.948   1.034   3.091 -1.4716 -2.6095  1.8648
 4101SOL    HW223766   3.891   0.922   3.010 -0.3984  0.5332  0.8921
 4102SOL     OW23767   0.060   4.690  16.447  0.3506  0.1696 -0.2368
 4102SOL    HW123768   4.713   4.692  16.515  1.5154  3.1908  0.8178
 4102SOL    HW223769   0.101   0.056  16.453  2.2293 -0.5702 -2.1938
 4103SOL     OW23770   4.210   2.235   7.161 -0.4093 -0.0186 -0.1814
 4103SOL    HW123771   4.303   2.214   7.169  0.0112  2.1708  0.5422
 4103SOL    HW223772   4.210   2.318   7.113  0.7222 -0.9781 -1.8561
 4104SOL     OW23773   2.702   3.934  14.882 -0.0809  0.2181  0.4339
 4104SOL    HW123774   2.649   4.014  14.890  0.5811  0.6239  0.8481
 4104SOL    HW223775   2.780   3.975  14.920 -1.0453  0.1349  2.5293
 4105SOL     OW23776   0.692   1.148   1.790  0.7828 -0.1640  0.1449
 4105SOL    HW123777   0.666   1.200   1.866  0.0978 -0.8496  0.3802
 4105SOL    HW223778   0.672   1.061   1.823 -0.0532  0.3976  1.1489
 4106SOL     OW23779   3.461   0.559   3.650  0.2843  0.1861  0.2217
 4106SOL    HW123780   3.385   0.503   3.638  0.0262  0.8379 -1.2261
 4106SOL    HW223781   3.534   0.519   3.601 -2.1851 -3.6175 -0.3253
 4107SOL     OW23782   4.042   3.643   1.485 -0.1075 -0.5242 -0.0866
 4107SOL    HW123783   4.078   3.567   1.440 -1.7491 -2.1281  1.2753
 4107SOL    HW223784   4.116   3.701   1.469 -0.4892  0.0341  0.1583
 4108SOL     OW23785   1.893   3.317   1.979 -0.2319  0.0704 -0.1587
 4108SOL    HW123786   1.927   3.278   2.060 -3.3603 -1.0874  0.6306
 4108SOL    HW223787   1.945   3.394   1.999  0.2811 -0.8131  1.9443
 4109SOL     OW23788   1.687   0.611   2.469  0.2153 -0.1432 -0.4362
 4109SOL    HW123789   1.672   0.517   2.481  1.1480 -0.4844 -1.9669
 4109SOL    HW223790   1.640   0.658   2.538 -0.1143  0.0566 -0.8012
 4110SOL     OW23791   1.295   0.135   4.283  0.1313 -0.3780  0.1765
 4110SOL    HW123792   1.328   0.077   4.352 -0.9783  0.5074  1.4582
 4110SOL    HW223793   1.212   0.098   4.252 -1.4936  0.9458  2.8612
 4111SOL     OW23794   1.367   2.773   3.605 -0.6148  0.2340 -0.0041
 4111SOL    HW123795   1.297   2.710   3.620 -1.0283  0.5511 -0.5603
 4111SOL    HW223796   1.330   2.860   3.586  0.8652  1.0015  0.5887
 4112SOL     OW23797   0.469   2.779   0.167  0.2137 -0.5547 -0.1493
 4112SOL    HW123798   0.474   2.711   0.100  0.8401 -1.9459  1.3296
 4112SOL    HW223799   0.431   2.719   0.231 -2.1533 -0.4501 -1.4417
 4113SOL     OW23800   1.966   1.878   7.055  0.2667  0.4197 -0.6151
 4113SOL    HW123801   2.024   1.824   7.110 -0.1492  1.1099  0.4960
 4113SOL    HW223802   1.979   1.847   6.965  2.3990  0.3845 -0.2943
 4114SOL     OW23803   3.442   1.981   4.823 -0.4261  0.0197 -0.0788
 4114SOL    HW123804   3.440   1.970   4.728  0.3370  1.1606 -0.2308
 4114SOL    HW223805   3.477   1.897   4.852  2.1538  1.3581  0.6547
 4115SOL     OW23806   1.650   2.683   2.320 -0.3111 -0.0370  0.1992
 4115SOL    HW123807   1.634   2.660   2.228 -1.1789  0.4992  0.2142
 4115SOL    HW223808   1.610   2.770   2.325 -1.8560 -0.7042 -0.3674
 4116SOL     OW23809   0.463   4.459   7.737  0.3754 -0.1499 -0.5215
 4116SOL    HW123810   0.435   4.442   7.647  0.7810 -1.3367 -0.4322
 4116SOL    HW223811   0.373   4.476   7.766 -1.2103 -1.0073 -4.8930
 4117SOL     OW23812   1.712   4.349   5.641  0.8376 -0.0325 -1.0786
 4117SOL    HW123813   1.683   4.402   5.567  3.0060  1.9500 -0.4861
 4117SOL    HW223814   1.720   4.264   5.598  0.5201 -0.5083 -0.1930
 4118SOL     OW23815   3.537   2.212   6.993 -0.3798  0.7650 -0.9739
 4118SOL    HW123816   3.487   2.252   7.065  0.6992 -0.2968  0.3872
 4118SOL    HW223817   3.527   2.117   7.005  0.5453  0.5978 -1.5084
 4119SOL     OW23818   2.987   1.618  13.590 -0.4565  0.1221 -0.4228
 4119SOL    HW123819   2.917   1.648  13.648  2.2720  0.6002  2.6455
 4119SOL    HW223820   2.984   1.523  13.595  2.0497  0.0200 -1.0533
 4120SOL     OW23821   0.178   1.365   6.036  0.2221 -0.6782  0.3085
 4120SOL    HW123822   0.182   1.441   6.095  1.3505 -2.2263  2.2131
 4120SOL    HW223823   0.086   1.345   6.056  0.0870 -1.4784 -1.1146
 4121SOL     OW23824   4.465   2.783  10.605  0.0309  0.1732 -0.3212
 4121SOL    HW123825   4.490   2.863  10.559  1.9375 -2.8516 -4.5232
 4121SOL    HW223826   4.546   2.741  10.636 -0.4505  1.1058  2.1964
 4122SOL     OW23827   3.311   0.666  11.668  0.6378  0.2823  0.0382
 4122SOL    HW123828   3.380   0.732  11.674  2.4469 -1.6550  0.6526
 4122SOL    HW223829   3.242   0.719  11.629  0.0542 -0.7996 -0.4008
 4123SOL     OW23830   3.564   1.698  15.655 -0.2382  0.3677  0.4463
 4123SOL    HW123831   3.586   1.742  15.572 -3.7375 -0.8280 -1.1023
 4123SOL    HW223832   3.557   1.608  15.622  1.4072  0.4025 -0.0370
 4124SOL     OW23833   1.710   2.890   2.579  0.0244 -0.4287  0.4321
 4124SOL    HW123834   1.689   2.913   2.670 -0.6943 -0.4178  0.2688
 4124SOL    HW223835   1.715   2.974   2.534  0.4124  0.1215  1.5097
 4125SOL     OW23836   1.335   3.457  17.021 -0.5061  0.0025  0.3772
 4125SOL    HW123837   1.365   3.437  16.932 -1.0455  3.4444 -0.5762
 4125SOL    HW223838   1.241   3.446  17.009 -0.1794 -0.7851 -1.4134
 4126SOL     OW23839   2.099   0.476   7.835  0.7250 -0.3549 -1.1295
 4126SOL    HW123840   2.135   0.496   7.748 -1.5533 -1.1370 -2.2834
 4126SOL    HW223841   2.123   0.558   7.878 -1.2663 -1.7821  2.6528
 4127SOL     OW23842   0.422   4.462   8.192  0.0550 -0.0107  0.3582
 4127SOL    HW123843   0.450   4.547   8.159 -2.0302  1.2112  1.7878
 4127SOL    HW223844   0.479   4.453   8.268  0.3390  1.0300  0.2669
 4128SOL     OW23845   1.880   3.981   7.582 -0.7240  0.0997 -0.0884
 4128SOL    HW123846   1.861   3.947   7.669  1.4127 -0.4300  0.1853
 4128SOL    HW223847   1.965   4.024   7.594  1.0984 -3.8069  1.0955
 4129SOL     OW23848   3.113   4.137   4.567 -0.2739 -0.3161 -0.1986
 4129SOL    HW123849   3.083   4.215   4.522 -1.4625 -0.1806  0.8506
 4129SOL    HW223850   3.046   4.119   4.632  1.0604 -1.2446  0.9347
 4130SOL     OW23851   0.707   0.591  11.294 -0.1237 -0.0331 -0.2064
 4130SOL    HW123852   0.681   0.628  11.378  1.7567 -0.0673  0.3900
 4130SOL    HW223853   0.630   0.605  11.240 -0.2680 -0.7697 -0.1907
 4131SOL     OW23854   1.631   1.443   7.466  0.7155  0.4696  0.6818
 4131SOL    HW123855   1.620   1.348   7.470  0.6175  0.3650 -1.8825
 4131SOL    HW223856   1.551   1.475   7.424 -0.7976 -0.7968  2.6095
 4132SOL     OW23857   1.220   3.746   1.164  0.0856  0.3133  0.3582
 4132SOL    HW123858   1.174   3.668   1.196 -2.3699  0.7750 -2.0085
 4132SOL    HW223859   1.293   3.753   1.224  1.7055 -0.2242 -1.5459
 4133SOL     OW23860   3.270   4.432   6.572 -0.0151 -0.4408  0.5070
 4133SOL    HW123861   3.184   4.473   6.563  0.9124  2.0603  3.0946
 4133SOL    HW223862   3.302   4.462   6.487 -0.2235 -1.0477  0.2203
 4134SOL     OW23863   2.399   2.019   2.895  0.3092 -0.2674  0.1621
 4134SOL    HW123864   2.309   1.998   2.871 -0.1926 -0.2698  1.9931
 4134SOL    HW223865   2.388   2.100   2.945 -1.1547 -1.6712  2.0906
 4135SOL     OW23866   1.399   0.488   2.210 -0.0995  0.0903  0.2949
 4135SOL    HW123867   1.461   0.493   2.138 -1.5761  2.4697 -0.7960
 4135SOL    HW223868   1.406   0.572   2.256 -1.1697  1.1432 -1.5037
 4136SOL     OW23869   0.491   2.875  13.526 -0.3056 -0.3236 -0.1019
 4136SOL    HW123870   0.426   2.929  13.570 -1.9242 -1.4512 -1.0978
 4136SOL    HW223871   0.441   2.853  13.447 -4.1299  2.0948  1.6824
 4137SOL     OW23872   2.824   2.932  11.569  0.3780 -0.1069  0.8360
 4137SOL    HW123873   2.803   2.867  11.635  0.1538  0.7121  1.5696
 4137SOL    HW223874   2.779   2.905  11.489  1.6058 -1.1069  0.4836
 4138SOL     OW23875   4.464   1.942  12.803 -0.0489  0.6991 -0.0181
 4138SOL    HW123876   4.405   2.017  12.807 -2.5393 -1.2236 -0.4775
 4138SOL    HW223877   4.411   1.873  12.842 -1.1968  1.6023  0.0368
 4139SOL     OW23878   2.261   2.224   3.944  0.2047  0.1209 -0.3673
 4139SOL    HW123879   2.314   2.283   3.890  0.9668 -2.7070 -2.7006
 4139SOL    HW223880   2.178   2.272   3.950  0.6531  0.7625  0.7777
 4140SOL     OW23881   3.968   3.022  16.084  0.2674  0.0224 -0.0912
 4140SOL    HW123882   4.035   3.083  16.053  0.5344  0.6085  1.6795
 4140SOL    HW223883   4.002   3.018  16.173  2.8307 -2.4730 -1.1783
 4141SOL     OW23884   0.525   1.828  16.933  0.4236  0.0181 -0.2721
 4141SOL    HW123885   0.590   1.836  16.864  2.1701  1.3176  1.4929
 4141SOL    HW223886   0.480   1.912  16.924  1.2465  0.1253 -3.3376
 4142SOL     OW23887   4.178   4.420  12.534  0.0839  0.0761  0.0351
 4142SOL    HW123888   4.204   4.341  12.583  0.2330 -0.7054 -1.3203
 4142SOL    HW223889   4.263   4.464  12.527  1.3483 -2.2574  0.3069
 4143SOL     OW23890   0.845   3.851   1.666 -0.0201 -0.3749 -0.6381
 4143SOL    HW123891   0.772   3.870   1.725  0.5606 -0.8158  0.2305
 4143SOL    HW223892   0.923   3.851   1.722  0.1375  3.5708 -0.9014
 4144SOL     OW23893   3.110   0.918  15.102  0.8096 -0.2952  0.3614
 4144SOL    HW123894   3.069   0.982  15.044 -1.9262 -0.7876  1.7591
 4144SOL    HW223895   3.040   0.854  15.117 -0.0727  0.2804 -1.2837
 4145SOL     OW23896   2.329   2.856  15.577  0.2868 -0.4473 -0.5487
 4145SOL    HW123897   2.376   2.903  15.645 -1.4283 -1.3377  1.2567
 4145SOL    HW223898   2.293   2.932  15.532  1.0071 -0.8843 -1.8658
 4146SOL     OW23899   4.072   0.638   9.466  0.0855  0.0520  0.1471
 4146SOL    HW123900   4.067   0.543   9.458  1.3620  0.1287 -1.6788
 4146SOL    HW223901   4.146   0.654   9.408  1.2618  0.1697  1.6886
 4147SOL     OW23902   1.481   3.173   4.923  0.1264  0.4107 -0.6717
 4147SOL    HW123903   1.386   3.167   4.922  0.1698 -0.4412  1.0187
 4147SOL    HW223904   1.508   3.169   4.831  1.6166  2.2615 -0.3186
 4148SOL     OW23905   1.498   4.372   2.772 -0.0771 -0.5403  0.3054
 4148SOL    HW123906   1.537   4.446   2.725 -0.0845  0.1998  1.4664
 4148SOL    HW223907   1.503   4.401   2.863  1.0426  1.4975 -0.3983
 4149SOL     OW23908   2.914   0.072   0.222 -0.0740 -0.6884 -0.1655
 4149SOL    HW123909   2.927   4.698   0.216  0.1132 -0.7345  1.0050
 4149SOL    HW223910   2.949   0.089   0.135  1.4041  0.1218  0.5751
 4150SOL     OW23911   1.238   4.251   2.660 -0.3266 -0.3732 -0.4075
 4150SOL    HW123912   1.264   4.176   2.606  0.4839 -0.2740 -0.1599
 4150SOL    HW223913   1.318   4.286   2.700 -0.9891  0.3474  0.2925
 4151SOL     OW23914   3.683   3.899   4.434 -0.1418  0.3717  0.1375
 4151SOL    HW123915   3.633   3.900   4.515 -0.6914  0.2783 -0.2010
 4151SOL    HW223916   3.611   3.907   4.371 -1.3263 -0.9665  1.3359
 4152SOL     OW23917   0.930   0.167   2.039  0.3620  0.2299 -0.7101
 4152SOL    HW123918   0.848   0.214   2.023  0.7149  1.5711  1.4393
 4152SOL    HW223919   0.968   0.154   1.952  2.2630 -0.1953  0.1676
 4153SOL     OW23920   4.523   3.329   5.872 -0.3235 -0.0183 -0.0179
 4153SOL    HW123921   4.459   3.286   5.928 -0.9493  0.5765 -0.2756
 4153SOL    HW223922   4.556   3.251   5.827 -0.6689 -0.4980  0.5605
 4154SOL     OW23923   1.164   4.309   2.256 -0.0565  0.2176 -0.2397
 4154SOL    HW123924   1.165   4.224   2.301 -0.4394  0.2246 -0.2238
 4154SOL    HW223925   1.072   4.334   2.265  0.3672  1.3316  1.0290
 4155SOL     OW23926   3.044   4.552  12.382 -0.4354  0.5583  0.0483
 4155SOL    HW123927   2.964   4.586  12.422 -1.0104 -1.8393  0.9160
 4155SOL    HW223928   3.054   4.609  12.305  0.0495  0.8616  0.3430
 4156SOL     OW23929   2.390   4.570  16.011  0.4244 -0.8950 -0.3114
 4156SOL    HW123930   2.480   4.585  15.981  0.1001 -0.5968 -1.1341
 4156SOL    HW223931   2.349   4.555  15.926  0.1890 -1.0874 -0.1608
 4157SOL     OW23932   1.128   2.482   8.786 -0.0651  0.1529  0.6155
 4157SOL    HW123933   1.041   2.501   8.822  0.0555 -0.1640  1.0825
 4157SOL    HW223934   1.147   2.393   8.817  1.1761 -0.2145 -1.2065
 4158SOL     OW23935   4.607   3.887   7.990  0.0431  0.1348  0.3866
 4158SOL    HW123936   4.554   3.864   8.067 -0.5022  1.4291  0.3916
 4158SOL    HW223937   4.601   3.805   7.941  0.2409  0.9041 -0.9221
 4159SOL     OW23938   4.676   3.607   0.155 -0.1508  0.4178 -0.4239
 4159SOL    HW123939   4.638   3.525   0.186 -0.8777  0.9732  0.1582
 4159SOL    HW223940   4.619   3.668   0.201 -1.4778 -0.4956 -0.8388
 4160SOL     OW23941   0.648   2.527   7.888  0.0598 -0.0938  0.3407
 4160SOL    HW123942   0.714   2.560   7.949 -0.7379  1.3326  0.4372
 4160SOL    HW223943   0.672   2.434   7.889  0.3964 -0.0154 -0.1399
 4161SOL     OW23944   2.440   3.557  14.036  0.3794 -0.5882 -0.2961
 4161SOL    HW123945   2.357   3.530  13.999 -0.3488  0.8594  0.2500
 4161SOL    HW223946   2.420   3.577  14.128  1.8539 -0.3288 -0.0203
 4162SOL     OW23947   2.008   1.453   2.932 -0.2177  0.7623  0.4742
 4162SOL    HW123948   1.984   1.414   3.016 -2.3370  0.8067 -0.1055
 4162SOL    HW223949   2.046   1.536   2.960 -0.3492 -0.3369  3.9275
 4163SOL     OW23950   0.417   1.212   7.156 -0.4735  0.2395  0.2440
 4163SOL    HW123951   0.402   1.232   7.248 -0.3197  0.9727  0.1106
 4163SOL    HW223952   0.369   1.267   7.094  0.6315  1.6880  0.6764
 4164SOL     OW23953   2.538   0.859  10.275 -0.3576 -0.3779  0.1723
 4164SOL    HW123954   2.533   0.779  10.223  1.9809  0.3491 -1.1495
 4164SOL    HW223955   2.517   0.920  10.205  1.7465 -0.1197 -0.2113
 4165SOL     OW23956   3.289   4.168  17.474  0.2616  0.0890 -0.6731
 4165SOL    HW123957   3.344   4.147  17.549  2.5931  2.1709 -1.7927
 4165SOL    HW223958   3.320   4.101  17.413  0.0640  0.7246 -1.4725
 4166SOL     OW23959   4.205   2.153   3.762 -0.9455  0.1672 -0.3489
 4166SOL    HW123960   4.113   2.131   3.773 -0.2337 -1.2712  2.7524
 4166SOL    HW223961   4.237   2.081   3.707 -0.6772  0.5179 -0.6518
 4167SOL     OW23962   0.251   4.259   2.088 -0.2414 -0.0366 -0.0123
 4167SOL    HW123963   0.294   4.292   2.167  2.9154 -0.3832 -1.5868
 4167SOL    HW223964   0.225   4.169   2.108 -2.2180  0.9026  1.6421
 4168SOL     OW23965   0.079   4.225   8.941  0.0035  0.2891 -1.1297
 4168SOL    HW123966   0.166   4.210   8.904  0.2427 -0.0879 -0.4047
 4168SOL    HW223967   0.101   4.223   9.034  0.8980  0.4453 -1.3404
 4169SOL     OW23968   0.691   3.419   1.187 -0.3051 -0.4421  0.0922
 4169SOL    HW123969   0.675   3.484   1.118 -0.4772 -1.3401 -0.7194
 4169SOL    HW223970   0.787   3.419   1.191 -0.3665  1.7476  1.1907
 4170SOL     OW23971   0.021   1.356   5.353 -0.0066  0.3728 -0.0278
 4170SOL    HW123972   0.093   1.366   5.416 -0.1623  0.3376  0.1543
 4170SOL    HW223973   4.665   1.365   5.408 -0.3182  2.8569 -0.8451
 4171SOL     OW23974   1.756   1.326   3.429  0.6882 -0.3358 -0.3625
 4171SOL    HW123975   1.803   1.289   3.504  0.6211  2.6410  1.1663
 4171SOL    HW223976   1.666   1.297   3.439  1.1012 -1.6599 -0.5366
 4172SOL     OW23977   4.257   3.375   5.709 -0.4195 -0.3715  0.6017
 4172SOL    HW123978   4.256   3.429   5.630  0.3771 -0.1771  0.7238
 4172SOL    HW223979   4.242   3.284   5.682  0.1370 -0.4642  0.6002
 4173SOL     OW23980   2.334   4.710   0.025  0.5657 -0.0050  0.8195
 4173SOL    HW123981   2.335   0.023   0.115  1.5561  1.0831  0.4001
 4173SOL    HW223982   2.364   0.069  17.667 -0.3512 -0.9459 -1.5347
 4174SOL     OW23983   2.430   3.141   3.186  0.0168 -0.2080 -0.2584
 4174SOL    HW123984   2.488   3.155   3.260 -1.2238  1.6002  0.3751
 4174SOL    HW223985   2.352   3.117   3.235  1.5144  1.5150  2.9394
 4175SOL     OW23986   3.266   2.480  14.587  0.1031  0.0601 -0.1972
 4175SOL    HW123987   3.224   2.398  14.558 -0.9489  0.7687 -0.6613
 4175SOL    HW223988   3.257   2.546  14.519 -0.3365 -1.1611 -1.3221
 4176SOL     OW23989   3.537   2.379   8.286 -0.6152  0.3632 -0.1160
 4176SOL    HW123990   3.601   2.444   8.257 -2.0203  1.5538 -0.5938
 4176SOL    HW223991   3.486   2.418   8.357  0.4712 -3.1469  2.5600
 4177SOL     OW23992   2.411   4.652   1.116 -0.1652  0.1393  0.0863
 4177SOL    HW123993   2.370   4.664   1.201  2.9198 -0.9868  1.7079
 4177SOL    HW223994   2.386   4.568   1.078  1.2200 -0.4065  0.3721
 4178SOL     OW23995   2.850   3.787   2.328 -0.4589  1.0004  0.3142
 4178SOL    HW123996   2.846   3.693   2.308 -0.2296  0.6792  1.7563
 4178SOL    HW223997   2.939   3.804   2.296  0.7313  0.6290  3.4626
 4179SOL     OW23998   0.678   3.068  13.291  0.3091  0.2121  0.1495
 4179SOL    HW123999   0.678   3.105  13.379  2.7021  0.2899  0.1275
 4179SOL    HW224000   0.705   2.979  13.314  1.8766 -0.0649 -2.8452
 4180SOL     OW24001   4.243   0.610   5.157 -0.2213  0.4897 -0.5355
 4180SOL    HW124002   4.217   0.688   5.205  0.7369  1.2598 -1.2862
 4180SOL    HW224003   4.224   0.534   5.212 -2.1309  0.5783 -1.0753
 4181SOL     OW24004   0.117   4.456   5.687 -0.3140 -0.8921 -0.1044
 4181SOL    HW124005   0.132   4.367   5.718  2.3993 -0.4328 -0.0593
 4181SOL    HW224006   0.140   4.434   5.597 -0.1230 -1.9778  0.2042
 4182SOL     OW24007   0.284   1.352  10.876 -0.0772  0.4549 -0.2224
 4182SOL    HW124008   0.246   1.433  10.842 -0.3575  0.4147 -0.0097
 4182SOL    HW224009   0.232   1.338  10.956 -1.4333  0.4450 -1.0955
 4183SOL     OW24010   0.718   3.204  10.855 -0.2216  0.4126  0.1849
 4183SOL    HW124011   0.730   3.143  10.782  0.7730 -0.9923  1.5062
 4183SOL    HW224012   0.776   3.277  10.835  0.6896 -0.5143 -0.5473
 4184SOL     OW24013   2.447   1.445   8.949 -0.2596  0.2362 -0.2608
 4184SOL    HW124014   2.352   1.444   8.936 -0.5407  1.3693  1.7816
 4184SOL    HW224015   2.489   1.373   8.901 -1.1886 -0.7695  0.4409
 4185SOL     OW24016   4.222   3.032   1.155  0.2609  0.1840  0.0689
 4185SOL    HW124017   4.163   3.096   1.117 -1.0898 -1.5614 -0.7883
 4185SOL    HW224018   4.163   3.006   1.226  0.5427 -0.4887  0.0614
 4186SOL     OW24019   2.776   1.546   6.717 -0.0917  0.3118 -0.2653
 4186SOL    HW124020   2.751   1.622   6.664  5.2229  3.0775  1.2710
 4186SOL    HW224021   2.780   1.595   6.799 -2.2438  0.4033 -0.2140
 4187SOL     OW24022   0.006   4.491  12.890  0.1709  0.3420 -0.0233
 4187SOL    HW124023   4.673   4.561  12.928 -0.7923  0.2997 -1.3152
 4187SOL    HW224024   0.087   4.536  12.864 -0.8601  2.0481 -0.2843
 4188SOL     OW24025   4.666   3.169   3.749  0.2661  0.2917  0.2872
 4188SOL    HW124026   0.027   3.211   3.724  0.2407  0.1757  0.0129
 4188SOL    HW224027   4.654   3.092   3.694 -1.0897  0.5792  0.1842
 4189SOL     OW24028   2.392   4.367   5.684 -0.4121  0.1499 -0.2666
 4189SOL    HW124029   2.483   4.382   5.711 -0.6737  1.2124  0.0173
 4189SOL    HW224030   2.382   4.274   5.705  1.8348 -0.0104  0.1184
 4190SOL     OW24031   4.614   3.853   2.696 -0.5688  0.2572  0.0975
 4190SOL    HW124032   4.651   3.800   2.626 -1.1392  0.5817 -0.4460
 4190SOL    HW224033   4.699   3.892   2.719 -0.9983  0.8491  0.6855
 4191SOL     OW24034   1.037   2.892   3.794  0.1378  0.7391  0.2695
 4191SOL    HW124035   0.988   2.962   3.751 -0.1503 -0.1035 -0.7994
 4191SOL    HW224036   1.004   2.888   3.884 -0.2862 -0.6215  0.0662
 4192SOL     OW24037   2.763   1.784   3.634  0.3429  0.3135 -0.0173
 4192SOL    HW124038   2.760   1.875   3.665 -0.7229  0.2902 -0.0448
 4192SOL    HW224039   2.673   1.762   3.613  0.5355 -1.1600  0.6880
 4193SOL     OW24040   2.780   1.657  13.770  0.0504  0.2252 -0.1030
 4193SOL    HW124041   2.779   1.592  13.840 -1.5735  1.0600  0.6391
 4193SOL    HW224042   2.781   1.743  13.812  2.0122  0.8456 -1.4097
 4194SOL     OW24043   1.374   4.104   8.421 -0.1443  0.0686  0.5338
 4194SOL    HW124044   1.422   4.127   8.501 -0.8175  0.8309  0.7185
 4194SOL    HW224045   1.326   4.025   8.444 -1.4010  1.1717  1.7039
 4195SOL     OW24046   1.835   4.310   5.907  0.2900  0.0236 -0.6382
 4195SOL    HW124047   1.770   4.322   5.837  0.4290 -0.0125 -0.7730
 4195SOL    HW224048   1.777   4.340   5.977  0.2666 -2.0404  0.2090
 4196SOL     OW24049   4.442   0.988   0.380  0.0126 -0.1669  0.0199
 4196SOL    HW124050   4.357   0.945   0.385  0.2105 -0.4997  0.5655
 4196SOL    HW224051   4.473   0.972   0.291 -1.5475  2.4829 -0.9999
 4197SOL     OW24052   4.572   2.319   4.861 -0.2544 -0.9155  0.4592
 4197SOL    HW124053   4.594   2.324   4.954 -0.2233  2.3968  0.3048
 4197SOL    HW224054   4.628   2.253   4.820 -0.3696 -0.2439 -0.8002
 4198SOL     OW24055   0.825   1.020   5.649  0.0545 -0.6737 -0.1489
 4198SOL    HW124056   0.830   0.926   5.630  1.5189 -0.1686 -2.1874
 4198SOL    HW224057   0.809   1.001   5.742 -0.5809 -0.4836 -0.2201
 4199SOL     OW24058   3.749   4.046  14.615  0.4213 -0.7059  0.3208
 4199SOL    HW124059   3.704   3.988  14.676  0.2561 -0.5512  0.3454
 4199SOL    HW224060   3.702   4.015  14.537  0.0916  0.6550 -0.0170
 4200SOL     OW24061   2.718   4.365   5.752 -0.5807 -0.4982 -0.3147
 4200SOL    HW124062   2.727   4.409   5.837  0.8770  0.8599 -1.1594
 4200SOL    HW224063   2.787   4.299   5.751  1.8376  1.9819  0.9005
 4201SOL     OW24064   2.649   2.273   8.123 -0.0087 -0.0940  0.1655
 4201SOL    HW124065   2.675   2.327   8.048 -1.4975 -0.6907 -0.7893
 4201SOL    HW224066   2.554   2.274   8.111  0.1546  1.8749 -0.9887
 4202SOL     OW24067   2.967   4.530   5.541  0.2925  0.0099 -0.0218
 4202SOL    HW124068   2.954   4.608   5.595  2.1218 -0.8501  1.6626
 4202SOL    HW224069   3.052   4.504   5.576  0.8257 -0.0871 -1.3962
 4203SOL     OW24070   4.209   3.131   1.825 -0.0552 -0.1027 -0.1252
 4203SOL    HW124071   4.124   3.152   1.863  0.2217 -1.4893  1.2563
 4203SOL    HW224072   4.235   3.052   1.872  1.5167  0.0348 -0.7557
 4204SOL     OW24073   1.664   0.070   3.431 -0.1193 -0.1731  0.5749
 4204SOL    HW124074   1.666   0.093   3.524 -2.3844 -1.7031  0.9912
 4204SOL    HW224075   1.634   0.152   3.391  0.4960 -0.2027  0.0474
 4205SOL     OW24076   0.704   0.812  12.269 -0.0423  0.4581  0.2526
 4205SOL    HW124077   0.746   0.849  12.347  2.3213  0.3181 -0.9670
 4205SOL    HW224078   0.664   0.893  12.237 -0.0081 -0.0889 -1.1757
 4206SOL     OW24079   2.263   2.795   4.042  0.1783 -0.2875 -0.4977
 4206SOL    HW124080   2.221   2.775   3.958  0.9734 -0.9686 -0.7234
 4206SOL    HW224081   2.196   2.844   4.091  0.2676  0.3666 -1.0231
 4207SOL     OW24082   0.955   0.155   8.003  0.3579  0.2171 -0.3514
 4207SOL    HW124083   0.882   0.166   7.942  0.4705 -1.7519 -0.8663
 4207SOL    HW224084   0.963   0.059   7.999 -0.0822  0.1388  0.5600
 4208SOL     OW24085   2.009   1.361  13.757  0.0138  0.1592  0.3151
 4208SOL    HW124086   2.014   1.438  13.813 -1.7558  2.5105 -2.7684
 4208SOL    HW224087   2.080   1.315  13.802 -1.2721 -1.2054  0.9188
 4209SOL     OW24088   0.072   0.251   7.412 -0.1536  0.1296  0.0865
 4209SOL    HW124089   4.706   0.221   7.440 -0.1262  0.4927  0.5471
 4209SOL    HW224090   0.063   0.345   7.421  1.4907  0.2075  0.8229
 4210SOL     OW24091   2.540   3.746   6.193 -0.1811 -0.4355  0.0784
 4210SOL    HW124092   2.452   3.763   6.226  0.4678  0.6244  1.2903
 4210SOL    HW224093   2.556   3.829   6.147  0.3861 -1.4978 -1.6215
 4211SOL     OW24094   0.175   1.054   6.197 -0.3704  0.3165 -0.2207
 4211SOL    HW124095   0.227   0.983   6.234  1.3995  1.5141 -0.4299
 4211SOL    HW224096   0.238   1.126   6.193  0.2058 -0.0203  3.3132
 4212SOL     OW24097   3.852   2.975  10.497  0.1773  0.1648 -0.4172
 4212SOL    HW124098   3.815   3.050  10.542 -2.9481 -1.1144 -0.8894
 4212SOL    HW224099   3.780   2.940  10.445  0.7903 -1.3721 -0.2605
 4213SOL     OW24100   2.208   3.742   8.963 -0.2491 -0.1778 -0.0489
 4213SOL    HW124101   2.224   3.675   8.896 -2.8291 -2.1114  1.2578
 4213SOL    HW224102   2.115   3.722   8.978 -0.4628  0.3848 -0.5936
 4214SOL     OW24103   1.036   2.632   4.990 -0.0343  0.0863 -0.2448
 4214SOL    HW124104   1.014   2.700   5.054 -0.6736 -0.4933  0.1460
 4214SOL    HW224105   1.102   2.687   4.948 -1.6208  1.7152 -0.6043
 4215SOL     OW24106   2.613   1.967  15.178  0.0692  0.3146 -0.3378
 4215SOL    HW124107   2.558   1.990  15.253  0.0671  0.4661 -0.3876
 4215SOL    HW224108   2.574   2.020  15.108 -2.0940  2.3516  2.4151
 4216SOL     OW24109   4.062   0.922   9.396 -0.0789 -0.2148  0.7498
 4216SOL    HW124110   4.120   0.886   9.329  1.2500  0.0401  1.7521
 4216SOL    HW224111   4.070   0.860   9.469 -1.4164 -0.9032  0.3111
 4217SOL     OW24112   3.535   4.205   7.867 -0.1259  0.5161  0.5253
 4217SOL    HW124113   3.448   4.184   7.833  0.9590 -1.7448 -0.8457
 4217SOL    HW224114   3.537   4.301   7.876 -0.0713  0.4104  1.7076
 4218SOL     OW24115   0.336   1.862   5.656  0.0266 -0.2208  0.4482
 4218SOL    HW124116   0.376   1.825   5.735  0.0521  0.2779  0.6695
 4218SOL    HW224117   0.301   1.948   5.680  0.7449  0.7470 -2.0068
 4219SOL     OW24118   3.670   2.443   6.683  0.4811  0.3314  0.5435
 4219SOL    HW124119   3.707   2.514   6.735 -0.5391  2.4055 -1.5513
 4219SOL    HW224120   3.735   2.372   6.686 -0.0822 -0.2916 -1.8316
 4220SOL     OW24121   3.179   3.553  12.998 -0.7217  0.5143  0.7940
 4220SOL    HW124122   3.254   3.601  13.032  2.3402 -2.4583 -1.8360
 4220SOL    HW224123   3.136   3.520  13.078 -1.5580 -1.1530 -0.3405
 4221SOL     OW24124   2.575   3.757   1.994  0.2875 -0.0683  0.0887
 4221SOL    HW124125   2.642   3.693   1.967 -0.4279 -0.7430 -0.0968
 4221SOL    HW224126   2.621   3.840   1.998 -1.1177  0.7340 -0.5236
 4222SOL     OW24127   2.897   2.816   7.801 -0.2562 -0.4999 -0.3684
 4222SOL    HW124128   2.918   2.866   7.879  1.0649  0.1382 -1.1291
 4222SOL    HW224129   2.814   2.781   7.834 -0.9280  2.0490  0.6541
 4223SOL     OW24130   2.154   3.104  15.781 -0.2158  0.2768  0.0872
 4223SOL    HW124131   2.133   3.082  15.690  0.1588  0.2966 -0.0050
 4223SOL    HW224132   2.243   3.069  15.789  0.9715  3.4129  0.4510
 4224SOL     OW24133   0.588   2.728   8.663 -0.6657  0.4449 -0.0843
 4224SOL    HW124134   0.592   2.816   8.625  3.3206 -0.2789 -1.3502
 4224SOL    HW224135   0.551   2.759   8.745 -1.1219 -1.2922  0.3704
 4225SOL     OW24136   0.708   0.884   1.938  0.1259  0.5597  0.0861
 4225SOL    HW124137   0.682   0.860   2.027 -0.8832 -0.9402 -0.6039
 4225SOL    HW224138   0.802   0.896   1.952  0.8347 -2.6917 -1.7970
 4226SOL     OW24139   4.663   0.932   2.507 -0.0038 -0.3287  0.1477
 4226SOL    HW124140   4.581   0.883   2.503 -0.6983  0.8490  0.0161
 4226SOL    HW224141   4.640   1.004   2.566  1.7636  1.4251 -1.3026
 4227SOL     OW24142   0.056   0.968   6.554 -0.0666  0.7406  1.3511
 4227SOL    HW124143   0.132   0.985   6.609  0.5353  0.4489  0.6080
 4227SOL    HW224144   4.711   1.025   6.594 -1.8335 -2.9869  3.7545
 4228SOL     OW24145   1.032   0.964  10.375 -0.1052 -0.4715  0.0943
 4228SOL    HW124146   1.013   0.904  10.303 -0.5703 -0.4998  0.2403
 4228SOL    HW224147   1.049   0.902  10.446 -1.2255 -0.7888  0.0906
 4229SOL     OW24148   4.334   2.332   1.932 -0.0554  0.2978  0.3869
 4229SOL    HW124149   4.279   2.337   2.010 -0.1977  1.2679  0.2257
 4229SOL    HW224150   4.421   2.317   1.969 -0.6321 -1.0762  1.1796
 4230SOL     OW24151   0.947   0.757   6.267  0.2365 -0.4104  0.8127
 4230SOL    HW124152   0.921   0.724   6.181  1.3415 -0.8539  0.6439
 4230SOL    HW224153   0.885   0.827   6.284  0.8165  1.0478 -3.1032
 4231SOL     OW24154   1.330   0.159   2.817  0.6889  0.0971 -0.2153
 4231SOL    HW124155   1.371   0.100   2.882 -1.0377 -2.6896 -1.6395
 4231SOL    HW224156   1.380   0.239   2.834  0.2954  0.2953  0.0235
 4232SOL     OW24157   4.094   3.177   2.723 -0.1855 -0.3638 -0.5371
 4232SOL    HW124158   4.065   3.214   2.807  1.2788  0.6981 -0.5026
 4232SOL    HW224159   4.149   3.252   2.698 -1.7722  0.9619 -0.0128
 4233SOL     OW24160   4.590   0.409   8.017 -0.0792  1.0935 -0.0409
 4233SOL    HW124161   4.668   0.353   8.015 -0.8165  0.0284  1.0075
 4233SOL    HW224162   4.560   0.407   7.926  0.6024 -0.1996 -0.2510
 4234SOL     OW24163   1.744   1.429  14.520  0.4460 -0.1169 -0.3645
 4234SOL    HW124164   1.666   1.484  14.518  1.1166  0.8153 -0.9251
 4234SOL    HW224165   1.802   1.465  14.587 -0.9567  2.3493 -0.5092
 4235SOL     OW24166   3.305   3.697  14.098 -0.2123 -0.0299 -0.3270
 4235SOL    HW124167   3.347   3.628  14.149 -1.3260 -0.0757  0.5312
 4235SOL    HW224168   3.366   3.771  14.102 -0.1636 -0.0782 -0.1631
 4236SOL     OW24169   2.290   3.619  14.269 -0.0992  0.2870  0.2886
 4236SOL    HW124170   2.197   3.604  14.286 -0.3226  1.1105 -0.1988
 4236SOL    HW224171   2.313   3.699  14.316  0.0997  0.6491 -0.4151
 4237SOL     OW24172   3.027   4.226  15.118 -0.1780 -0.7467 -0.2516
 4237SOL    HW124173   2.991   4.274  15.192  0.2698  0.5890 -0.9128
 4237SOL    HW224174   3.079   4.166  15.172  1.9811  0.6312 -0.8003
 4238SOL     OW24175   1.631   0.017   4.088 -0.2025  0.7194 -0.2160
 4238SOL    HW124176   1.708   4.694   4.051  1.4929  3.5802 -0.1031
 4238SOL    HW224177   1.556   4.699   4.042 -0.4515  1.0685 -0.1112
 4239SOL     OW24178   1.097   0.555   9.981 -0.8951  0.3800  0.0835
 4239SOL    HW124179   1.009   0.520   9.982 -1.0299  0.7215  0.2843
 4239SOL    HW224180   1.145   0.474   9.996 -2.0359 -0.5071 -1.1199
 4240SOL     OW24181   2.211   2.632   7.537  0.1659 -0.0435  0.4035
 4240SOL    HW124182   2.133   2.672   7.576  0.3554 -0.3631  1.1207
 4240SOL    HW224183   2.189   2.539   7.530  0.1083  0.0493 -0.5420
 4241SOL     OW24184   3.724   2.434   9.965  0.0293 -0.5178  0.3127
 4241SOL    HW124185   3.722   2.358   9.907  1.0958  0.4984 -1.0384
 4241SOL    HW224186   3.818   2.435   9.979 -0.0076  0.0128  0.5217
 4242SOL     OW24187   3.716   4.351  17.678 -0.0480 -0.0391  0.0858
 4242SOL    HW124188   3.769   4.421  17.639 -1.1365  0.6583 -0.1242
 4242SOL    HW224189   3.764   4.272  17.652 -0.6039 -0.0292 -0.9798
 4243SOL     OW24190   0.146   4.672   8.400  0.6762  0.2416 -0.4720
 4243SOL    HW124191   0.103   0.013   8.460  0.4002 -0.4671  0.0701
 4243SOL    HW224192   0.224   0.004   8.386  0.7285 -0.1085 -1.4647
 4244SOL     OW24193   4.102   2.083   7.962  0.3254  0.0452 -0.3588
 4244SOL    HW124194   4.184   2.073   8.010  1.3129  1.0811 -1.8357
 4244SOL    HW224195   4.042   2.018   7.999  2.0018 -0.7595  0.9439
 4245SOL     OW24196   0.656   1.631   2.307  0.3059  0.3119  0.4259
 4245SOL    HW124197   0.581   1.616   2.364 -0.9659  1.4166 -0.9517
 4245SOL    HW224198   0.682   1.539   2.310  0.5640  0.4497  2.0835
 4246SOL     OW24199   0.249   4.653   2.623 -0.1332  0.6554  1.2054
 4246SOL    HW124200   0.333   4.607   2.627  0.8705  2.4389  0.5803
 4246SOL    HW224201   0.227   4.637   2.531 -0.0124  2.4327  0.8621
 4247SOL     OW24202   1.575   4.427  14.915 -0.0417 -0.1242 -0.1117
 4247SOL    HW124203   1.630   4.476  14.975  0.6989 -0.4883 -0.4979
 4247SOL    HW224204   1.605   4.468  14.834 -0.5479 -0.6950 -0.5973
 4248SOL     OW24205   0.924   1.255   6.196 -0.1977  0.1524 -0.4301
 4248SOL    HW124206   1.011   1.220   6.216 -0.5815  0.2886  1.5034
 4248SOL    HW224207   0.913   1.329   6.255  1.5355  0.5765 -0.6429
 4249SOL     OW24208   0.228   1.152   2.558 -0.1106  0.0394  0.4675
 4249SOL    HW124209   0.195   1.220   2.501  0.4865  1.1799  1.4820
 4249SOL    HW224210   0.263   1.204   2.631 -0.8570  1.5125 -0.2428
 4250SOL     OW24211   1.160   4.615  12.177 -0.1880 -0.4652 -0.5130
 4250SOL    HW124212   1.166   4.709  12.195 -1.9900 -0.8116  1.8692
 4250SOL    HW224213   1.139   4.617  12.084 -0.8328  0.2045 -0.3544
 4251SOL     OW24214   2.058   1.906   0.024 -0.2001  0.6101 -0.2332
 4251SOL    HW124215   2.068   1.813   0.043 -1.2977  0.4723 -0.3062
 4251SOL    HW224216   2.149   1.933   0.034  0.7346 -2.0835 -1.3749
 4252SOL     OW24217   4.270   1.709   7.444 -0.2791 -0.1099 -0.2007
 4252SOL    HW124218   4.211   1.713   7.519 -0.4396 -0.2854 -0.3167
 4252SOL    HW224219   4.272   1.804   7.431 -1.7749  0.0250  0.6455
 4253SOL     OW24220   1.300   3.998  11.599 -0.0726  0.2396 -0.4860
 4253SOL    HW124221   1.379   4.025  11.645 -1.0280  2.9481 -0.4579
 4253SOL    HW224222   1.338   3.935  11.537 -2.6818 -2.6076  0.7751
 4254SOL     OW24223   2.759   0.345  10.324  0.1047 -0.0727 -0.2176
 4254SOL    HW124224   2.816   0.378  10.254 -1.9910  1.3515 -1.2639
 4254SOL    HW224225   2.733   0.432  10.353 -1.4720 -0.7433  0.3652
 4255SOL     OW24226   1.230   4.455   3.271 -0.5951  0.1559 -0.2033
 4255SOL    HW124227   1.206   4.479   3.181 -0.8060 -0.3053 -0.2718
 4255SOL    HW224228   1.153   4.497   3.311 -0.3883  0.2857  0.0557
 4256SOL     OW24229   1.186   0.681   5.503 -0.0088  0.8552 -0.0908
 4256SOL    HW124230   1.208   0.642   5.587  0.9068  2.2889  0.3388
 4256SOL    HW224231   1.147   0.604   5.461 -0.0740  1.7767 -1.7429
 4257SOL     OW24232   3.579   4.434  11.300 -0.3499 -1.1651 -0.0664
 4257SOL    HW124233   3.569   4.450  11.206 -0.2715  0.4782  0.1942
 4257SOL    HW224234   3.643   4.363  11.300 -0.5195 -1.2946  2.5810
 4258SOL     OW24235   2.050   1.582   1.762  0.1827 -0.7839 -0.4253
 4258SOL    HW124236   2.044   1.540   1.848  2.1590  1.2798  0.7157
 4258SOL    HW224237   1.958   1.586   1.734  0.2276 -1.0221 -0.6006
 4259SOL     OW24238   2.110   3.979  10.153 -0.0475 -0.2149  0.3040
 4259SOL    HW124239   2.116   4.007  10.244 -1.4495  1.0006  0.0358
 4259SOL    HW224240   2.202   3.990  10.132 -0.0551  2.8490  1.8419
 4260SOL     OW24241   0.545   4.114   2.264  0.0989 -0.3686 -0.3181
 4260SOL    HW124242   0.494   4.061   2.325  1.4586 -2.6274 -1.1233
 4260SOL    HW224243   0.514   4.200   2.291 -1.1388 -0.9571  0.1019
 4261SOL     OW24244   2.380   2.946  16.490 -0.2135  0.1925 -0.0973
 4261SOL    HW124245   2.312   2.910  16.433 -1.0388  2.4936 -0.5691
 4261SOL    HW224246   2.351   2.913  16.575  1.2777  0.1503  0.3926
 4262SOL     OW24247   1.092   1.951   9.189  0.0759 -0.0306 -0.4789
 4262SOL    HW124248   1.047   2.035   9.176  0.1901 -0.1718 -1.7660
 4262SOL    HW224249   1.110   1.955   9.283  0.5675 -0.9001 -0.5441
 4263SOL     OW24250   1.917   2.376  13.022  0.3110  0.1260 -0.3349
 4263SOL    HW124251   1.958   2.452  12.981  0.6297  0.1115 -0.0474
 4263SOL    HW224252   1.853   2.423  13.077 -0.3148  0.6048 -1.4780
 4264SOL     OW24253   0.097   1.814  14.222  0.3020  0.1779  0.5742
 4264SOL    HW124254   0.124   1.755  14.151  0.0294  2.0701 -1.1212
 4264SOL    HW224255   0.080   1.900  14.183 -1.5170 -1.0179 -1.2584
 4265SOL     OW24256   1.611   3.199   4.201  0.7461 -0.5473  0.2308
 4265SOL    HW124257   1.618   3.129   4.136  2.6206 -1.9777  1.9883
 4265SOL    HW224258   1.521   3.226   4.183  0.7394  0.1408  1.2945
 4266SOL     OW24259   1.498   2.398   7.941 -0.3485  0.4530 -0.7542
 4266SOL    HW124260   1.467   2.485   7.966  0.1814  0.6491 -0.7983
 4266SOL    HW224261   1.586   2.386   7.976 -1.4510 -2.4702  1.0405
 4267SOL     OW24262   3.709   2.886   3.173  0.3174 -0.0959  0.5023
 4267SOL    HW124263   3.634   2.933   3.211  0.1349 -0.9326  1.2045
 4267SOL    HW224264   3.660   2.803   3.177 -0.1137  0.2267  2.1219
 4268SOL     OW24265   1.038   1.959  11.160 -0.1842 -0.3869  0.5459
 4268SOL    HW124266   1.072   1.903  11.229  0.6520  2.2631  2.2659
 4268SOL    HW224267   1.039   2.041  11.210 -1.0709  1.1190 -1.8733
 4269SOL     OW24268   1.349   0.825   4.254 -0.1621 -0.2799  0.0802
 4269SOL    HW124269   1.432   0.787   4.283 -0.8519 -2.1901 -0.4585
 4269SOL    HW224270   1.316   0.773   4.180  0.1343 -2.7552  1.7066
 4270SOL     OW24271   3.422   2.299  11.845  0.5566  0.5776  0.5276
 4270SOL    HW124272   3.427   2.323  11.753 -0.2757 -0.3111  0.2532
 4270SOL    HW224273   3.434   2.383  11.890 -1.3257 -0.0322  2.1933
 4271SOL     OW24274   0.894   2.816   2.797 -0.0627  0.0971  0.7561
 4271SOL    HW124275   0.920   2.854   2.713 -1.2652  0.3884  0.5204
 4271SOL    HW224276   0.903   2.892   2.855  1.7649 -0.7525  1.5877
 4272SOL     OW24277   3.105   1.928   8.966 -0.5132  0.1077 -0.2329
 4272SOL    HW124278   3.062   1.844   8.976  0.6645 -0.4818 -0.1260
 4272SOL    HW224279   3.139   1.924   8.877 -2.8251 -1.2082 -1.0286
 4273SOL     OW24280   3.537   0.582  13.861  0.2239 -0.1444 -0.0207
 4273SOL    HW124281   3.529   0.503  13.914 -2.8329 -0.9417 -1.6550
 4273SOL    HW224282   3.630   0.593  13.880  0.8524  0.3534 -3.2711
 4274SOL     OW24283   1.540   1.899   3.691 -0.3066 -0.3508  0.0476
 4274SOL    HW124284   1.537   1.830   3.624 -0.6275 -0.0505 -0.2499
 4274SOL    HW224285   1.465   1.874   3.745 -0.2268  1.6703  1.0704
 4275SOL     OW24286   4.160   2.045  16.986 -0.0664 -0.4143 -0.0244
 4275SOL    HW124287   4.117   2.047  16.901 -1.6507 -5.3098  0.6945
 4275SOL    HW224288   4.077   2.041  17.034  0.0068 -1.8905 -0.0388
 4276SOL     OW24289   1.287   1.185   9.369 -0.2905 -0.3589 -0.4695
 4276SOL    HW124290   1.286   1.092   9.346 -3.1271 -0.8216  1.5318
 4276SOL    HW224291   1.200   1.222   9.361  0.0125  0.6404  0.8679
 4277SOL     OW24292   1.711   0.273  10.984 -0.1766 -0.2023  0.1667
 4277SOL    HW124293   1.767   0.351  10.988  0.1712 -0.4623  0.4025
 4277SOL    HW224294   1.630   0.320  11.007  0.4593  0.7115  0.5612
 4278SOL     OW24295   2.698   1.269   6.816 -0.0094  0.8719 -0.0844
 4278SOL    HW124296   2.713   1.248   6.908 -1.2309  0.0584 -0.0752
 4278SOL    HW224297   2.636   1.202   6.787  0.1921  1.7184 -2.5053
 4279SOL     OW24298   1.980   3.217   2.242 -0.0741  0.3294  0.1437
 4279SOL    HW124299   1.973   3.129   2.280  1.8855 -0.5894 -1.6323
 4279SOL    HW224300   2.054   3.251   2.293 -0.5071  1.3189  0.1116
 4280SOL     OW24301   2.406   2.253   3.046 -0.0274  1.0887  0.0507
 4280SOL    HW124302   2.472   2.286   3.106  0.2155 -2.6494  1.8269
 4280SOL    HW224303   2.344   2.325   3.054 -2.6621 -1.1771  0.3022
 4281SOL     OW24304   2.503   3.809   7.550  0.3044 -0.1387 -0.0330
 4281SOL    HW124305   2.506   3.842   7.640  0.6072 -2.4914  0.8300
 4281SOL    HW224306   2.502   3.892   7.504  3.0351  0.6594  1.3720
 4282SOL     OW24307   0.016   4.273   0.626  0.0272 -0.0157 -0.9311
 4282SOL    HW124308   0.037   4.236   0.712 -1.2981  3.4799  0.8960
 4282SOL    HW224309   4.704   4.195   0.580  0.6047  0.0381 -1.4279
 4283SOL     OW24310   3.491   4.566   5.745 -0.0505 -0.7595  0.2903
 4283SOL    HW124311   3.403   4.596   5.721  0.8357  1.7256  0.1366
 4283SOL    HW224312   3.504   4.628   5.817 -2.2546 -0.1029  0.1352
 4284SOL     OW24313   4.210   0.632  15.856  0.6247 -0.1643  0.2495
 4284SOL    HW124314   4.177   0.623  15.946 -0.5493  2.3344  0.0514
 4284SOL    HW224315   4.263   0.711  15.861 -0.2916  0.4658 -0.1905
 4285SOL     OW24316   2.591   1.733   7.896 -1.0789 -0.3065  0.4669
 4285SOL    HW124317   2.523   1.681   7.938  0.8230 -1.5101  2.0746
 4285SOL    HW224318   2.530   1.801   7.867 -0.6436  0.6778  1.8280
 4286SOL     OW24319   2.199   2.760  12.809 -0.2113  0.0899 -0.0091
 4286SOL    HW124320   2.155   2.806  12.737 -1.2245  0.2926  0.7327
 4286SOL    HW224321   2.287   2.795  12.796 -1.0995  2.2399 -0.2649
 4287SOL     OW24322   0.659   1.919  12.706  0.4203 -0.5963 -0.1433
 4287SOL    HW124323   0.631   2.002  12.668  0.0711 -1.5900 -2.0694
 4287SOL    HW224324   0.602   1.857  12.660 -0.5105 -1.8267  2.6003
 4288SOL     OW24325   0.494   4.514   4.165  0.1134 -0.0056  0.2848
 4288SOL    HW124326   0.506   4.560   4.248 -4.4010  0.7658  0.4988
 4288SOL    HW224327   0.399   4.501   4.162  0.0277  0.1179  3.1125
 4289SOL     OW24328   2.209   1.913   4.744 -0.3703 -0.0332 -0.2635
 4289SOL    HW124329   2.160   1.977   4.691 -0.7222  0.3478  0.5233
 4289SOL    HW224330   2.156   1.833   4.738 -0.1076 -0.3682  1.7612
 4290SOL     OW24331   3.301   1.970   5.665 -0.4591 -0.2648  0.2004
 4290SOL    HW124332   3.323   1.935   5.752  0.0221  0.6011  0.4259
 4290SOL    HW224333   3.239   1.902   5.638 -2.6696  2.1573 -0.8358
 4291SOL     OW24334   0.372   3.620   5.470 -0.0943 -0.1678 -0.1266
 4291SOL    HW124335   0.384   3.526   5.467 -1.4709 -0.2746 -1.9801
 4291SOL    HW224336   0.339   3.634   5.381 -1.6673  1.0833  0.6424
 4292SOL     OW24337   1.559   1.016   2.933 -0.3152 -0.4247  0.2000
 4292SOL    HW124338   1.638   0.963   2.935 -0.9697 -1.4424 -0.7062
 4292SOL    HW224339   1.537   1.003   2.840  0.3520 -0.2519  0.0158
 4293SOL     OW24340   3.760   1.529   9.073  0.5268 -0.0993 -0.6586
 4293SOL    HW124341   3.667   1.523   9.051  0.5292 -0.0211 -0.6868
 4293SOL    HW224342   3.758   1.561   9.164 -1.5590 -0.7130 -0.4775
 4294SOL     OW24343   0.098   4.404  12.028  0.3191 -0.2871 -0.2850
 4294SOL    HW124344   0.090   4.426  11.935  1.8514 -4.4813 -1.3672
 4294SOL    HW224345   0.090   4.309  12.020  2.3804 -0.7770  3.4563
 4295SOL     OW24346   2.403   2.231   8.065 -0.1615 -0.4486 -0.4134
 4295SOL    HW124347   2.406   2.135   8.059  2.9649 -0.3891  0.4706
 4295SOL    HW224348   2.377   2.253   7.976  2.3755  1.3872 -0.6970
 4296SOL     OW24349   0.910   1.261   5.906  0.5163 -0.2193  0.3415
 4296SOL    HW124350   0.918   1.236   5.998 -0.0350  0.1130  0.4736
 4296SOL    HW224351   0.816   1.249   5.892  0.3945 -0.9279  1.7837
 4297SOL     OW24352   1.853   3.452   4.932 -0.0712 -0.3485 -0.4744
 4297SOL    HW124353   1.798   3.500   4.870  0.1342 -0.6722 -0.9068
 4297SOL    HW224354   1.893   3.390   4.871 -0.5073 -0.4697 -0.6373
 4298SOL     OW24355   4.421   0.561   0.121  0.2896  0.1346 -0.5597
 4298SOL    HW124356   4.441   0.593   0.209  0.6797 -0.0090 -0.5935
 4298SOL    HW224357   4.411   0.469   0.148 -2.1027  0.2412 -1.0660
 4299SOL     OW24358   1.030   4.312  10.094  0.2527  0.0999  0.0854
 4299SOL    HW124359   1.053   4.222  10.119 -1.9161 -0.2041  1.0062
 4299SOL    HW224360   1.102   4.327  10.033 -1.3820  2.1437 -1.3626
 4300SOL     OW24361   0.610   4.489   5.891 -0.5251 -0.2068 -0.1370
 4300SOL    HW124362   0.695   4.532   5.898 -0.8191  0.8023 -2.6709
 4300SOL    HW224363   0.586   4.498   5.983 -1.3743 -2.0370 -0.1649
 4301SOL     OW24364   2.916   2.814   2.869 -0.1063 -0.4348 -0.0625
 4301SOL    HW124365   2.916   2.746   2.937 -1.4723  1.1214  1.5090
 4301SOL    HW224366   2.892   2.896   2.913  0.4360 -1.0272  1.3581
 4302SOL     OW24367   2.831   3.902   5.111  0.1947 -0.0183 -0.2554
 4302SOL    HW124368   2.832   3.980   5.166 -1.2738 -0.3606  0.2548
 4302SOL    HW224369   2.922   3.873   5.107 -0.3380 -1.5930 -1.0178
 4303SOL     OW24370   3.539   1.688  15.928  0.1469 -0.3859  0.3092
 4303SOL    HW124371   3.566   1.675  15.837  0.3278 -1.1248  0.4738
 4303SOL    HW224372   3.512   1.779  15.920 -0.5264 -0.7583 -1.7796
 4304SOL     OW24373   2.226   0.861   7.814  0.1568 -0.1453 -0.7572
 4304SOL    HW124374   2.137   0.866   7.849  0.9031 -0.7675  1.2271
 4304SOL    HW224375   2.249   0.771   7.836  0.0834 -0.3832 -1.6794
 4305SOL     OW24376   4.449   0.192   7.274  0.1254 -0.0117  0.7154
 4305SOL    HW124377   4.398   0.124   7.318 -0.0837 -0.3125  0.0022
 4305SOL    HW224378   4.506   0.138   7.219  0.6769  1.4595 -0.1665
 4306SOL     OW24379   1.292   1.440   9.876 -0.2575  0.2727  0.1578
 4306SOL    HW124380   1.353   1.423   9.947 -1.2135  0.7216  1.0776
 4306SOL    HW224381   1.217   1.468   9.927 -0.2551 -0.8466  0.7894
 4307SOL     OW24382   4.169   3.096   5.380  0.0908 -0.0008  0.0620
 4307SOL    HW124383   4.171   3.067   5.471 -2.6603 -0.3218  0.0042
 4307SOL    HW224384   4.201   3.184   5.399 -1.5239  0.3843  0.9607
 4308SOL     OW24385   3.162   2.972   6.012  0.0598  0.1382  0.1637
 4308SOL    HW124386   3.123   2.946   6.096  0.9344  2.3056  1.2281
 4308SOL    HW224387   3.162   2.889   5.964  1.9767  0.5821 -0.6079
 4309SOL     OW24388   2.392   4.398   8.588 -0.0305  0.3136 -0.4625
 4309SOL    HW124389   2.311   4.366   8.547 -0.0258  1.1692 -1.1338
 4309SOL    HW224390   2.380   4.493   8.591  0.5641  0.4702 -2.5806
 4310SOL     OW24391   2.352   0.042   2.332  0.1192  0.1599 -0.5505
 4310SOL    HW124392   2.360   0.137   2.327 -0.4130  0.2899  1.1357
 4310SOL    HW224393   2.379   0.024   2.422 -3.6910  0.0343  0.5636
 4311SOL     OW24394   3.842   3.400   9.420 -0.2657  0.0061 -0.7099
 4311SOL    HW124395   3.870   3.354   9.340  1.2290  2.3196 -1.4957
 4311SOL    HW224396   3.777   3.460   9.384 -0.9972  1.1874  2.5890
 4312SOL     OW24397   1.165   4.541   0.065  0.0529 -0.3329 -0.0644
 4312SOL    HW124398   1.142   4.449   0.067  0.2751 -0.4194 -1.2867
 4312SOL    HW224399   1.123   4.568   0.147 -0.5042  2.2251 -1.1958
 4313SOL     OW24400   0.878   3.080   2.935  0.9435 -0.0629  0.2768
 4313SOL    HW124401   0.916   3.025   3.004 -0.9158 -1.5231  0.1672
 4313SOL    HW224402   0.864   3.165   2.976  1.4548  0.0804  0.1462
 4314SOL     OW24403   2.847   1.237   6.566 -0.3957 -0.4152 -0.1001
 4314SOL    HW124404   2.881   1.235   6.656  0.5125 -2.7800 -0.4832
 4314SOL    HW224405   2.759   1.217   6.597  0.2653 -0.7327  1.5661
 4315SOL     OW24406   4.011   3.694   6.333  0.5019  0.5284 -0.2229
 4315SOL    HW124407   3.923   3.701   6.369  1.1239 -0.9060  1.5365
 4315SOL    HW224408   4.026   3.788   6.322 -1.7248  0.8340 -0.6846
 4316SOL     OW24409   3.219   3.885   0.985 -0.0250  0.2256 -0.0109
 4316SOL    HW124410   3.248   3.794   0.975  1.5492  0.7618 -0.3981
 4316SOL    HW224411   3.140   3.874   0.932  2.0195 -2.9305 -2.4204
 4317SOL     OW24412   3.921   4.549  17.595 -0.5535 -0.2149  0.4980
 4317SOL    HW124413   3.936   4.590  17.680 -0.0909  0.2180  0.2058
 4317SOL    HW224414   3.873   4.615  17.546 -0.3612 -1.6014 -1.5665
 4318SOL     OW24415   0.445   3.187   8.052  0.5387 -0.4661  0.2950
 4318SOL    HW124416   0.421   3.276   8.026 -0.2498 -0.2397  1.8101
 4318SOL    HW224417   0.421   3.146   7.969  0.4665  1.0848 -0.4389
 4319SOL     OW24418   4.576   1.338   3.686 -0.9076  0.5878  0.1767
 4319SOL    HW124419   4.504   1.358   3.746 -0.8665 -1.0056  0.7533
 4319SOL    HW224420   4.542   1.327   3.598 -1.1341  1.5282  0.1439
 4320SOL     OW24421   1.683   1.795  17.166 -0.2125 -0.3190 -0.1157
 4320SOL    HW124422   1.657   1.874  17.119 -2.9561 -0.6090  0.8921
 4320SOL    HW224423   1.716   1.738  17.097 -0.2428  0.1791 -0.5396
 4321SOL     OW24424   3.520   0.638   9.189  0.5871 -0.3587 -0.3995
 4321SOL    HW124425   3.585   0.570   9.207  0.5748  0.0012  0.9392
 4321SOL    HW224426   3.563   0.712   9.233  3.6042 -1.5225 -1.3426
 4322SOL     OW24427   3.008   4.668   1.187 -0.1248 -0.3509  0.1152
 4322SOL    HW124428   2.923   4.636   1.157 -1.0243  2.1879 -0.0339
 4322SOL    HW224429   3.023   4.709   1.102 -1.0652 -1.1002 -0.4101
 4323SOL     OW24430   1.825   3.463   7.980  0.3334 -0.1420  0.2310
 4323SOL    HW124431   1.892   3.402   7.949 -1.8956 -1.3874 -2.0747
 4323SOL    HW224432   1.786   3.484   7.896 -0.7057  1.2307  1.0654
 4324SOL     OW24433   0.162   4.367  12.575 -0.2119 -0.0082  0.0264
 4324SOL    HW124434   0.244   4.324  12.552 -0.8051  0.2515 -2.6569
 4324SOL    HW224435   0.130   4.384  12.486  1.6145 -1.5260 -0.9197
 4325SOL     OW24436   2.770   1.225   5.180 -0.4712  0.0200  0.1913
 4325SOL    HW124437   2.771   1.310   5.224  1.5852  0.0996 -0.0260
 4325SOL    HW224438   2.676   1.229   5.161 -0.3561 -0.9728 -0.5493
 4326SOL     OW24439   4.498   3.266   4.993  0.3415 -0.1757  0.3532
 4326SOL    HW124440   4.461   3.187   5.033 -0.1705 -0.0068  0.2121
 4326SOL    HW224441   4.433   3.268   4.923  0.7346 -0.9021 -0.0327
 4327SOL     OW24442   3.283   1.173   8.214  1.0260  0.2470 -0.0412
 4327SOL    HW124443   3.338   1.150   8.139  0.8831 -0.6290  0.1251
 4327SOL    HW224444   3.338   1.132   8.281  1.0752 -1.9227 -1.4313
 4328SOL     OW24445   2.311   0.941   2.918 -0.0037  0.2880  0.5366
 4328SOL    HW124446   2.298   1.014   2.857  1.9890 -0.3073 -0.5837
 4328SOL    HW224447   2.227   0.953   2.963  0.1837 -1.3704  1.3191
 4329SOL     OW24448   3.011   2.423  10.603 -0.0578 -0.0416 -0.2849
 4329SOL    HW124449   3.098   2.407  10.567 -0.3911 -0.9914 -0.6893
 4329SOL    HW224450   2.968   2.445  10.520  0.6147 -0.5936 -0.7695
 4330SOL     OW24451   2.204   4.531   2.957 -0.0110  0.0337  0.1947
 4330SOL    HW124452   2.121   4.489   2.978 -0.8760  2.3663  1.5230
 4330SOL    HW224453   2.250   4.450   2.933  0.0338  0.0773  0.1326
 4331SOL     OW24454   2.320   3.471   2.137  0.2375 -0.7597 -0.1156
 4331SOL    HW124455   2.373   3.429   2.070 -0.5281 -0.1510 -1.0981
 4331SOL    HW224456   2.330   3.558   2.098 -1.4243  0.2476  1.6973
 4332SOL     OW24457   0.350   2.241   3.823  0.2976  0.2921 -0.3172
 4332SOL    HW124458   0.355   2.233   3.728 -0.6861 -0.4686 -0.3048
 4332SOL    HW224459   0.305   2.326   3.829 -0.7592 -0.1724 -1.5711
 4333SOL     OW24460   0.134   3.488   7.850 -0.4827  0.2238  0.1338
 4333SOL    HW124461   0.201   3.529   7.905 -0.0141 -0.4697  0.0904
 4333SOL    HW224462   0.164   3.493   7.759 -1.4558  0.0508 -0.2011
 4334SOL     OW24463   1.384   4.135   7.380 -0.0181 -0.2614 -0.4229
 4334SOL    HW124464   1.336   4.090   7.311 -1.6295  0.0798  0.4799
 4334SOL    HW224465   1.371   4.227   7.359  0.3276 -0.3749 -1.1288
 4335SOL     OW24466   0.593   3.485   2.147  0.0603 -0.0286 -0.3752
 4335SOL    HW124467   0.652   3.468   2.074 -0.4136  0.8160 -0.9587
 4335SOL    HW224468   0.626   3.417   2.206 -0.4535  0.1002  0.0586
 4336SOL     OW24469   0.627   3.017   2.541 -0.6141 -1.2655  0.3765
 4336SOL    HW124470   0.694   2.967   2.495 -1.4317 -2.7514  0.7850
 4336SOL    HW224471   0.590   3.071   2.471 -0.6155 -0.0240  1.3302
 4337SOL     OW24472   1.412   2.651   2.690  0.1823  0.2752 -0.2016
 4337SOL    HW124473   1.405   2.711   2.616  0.1699  1.1771  0.5314
 4337SOL    HW224474   1.442   2.573   2.644  0.6490  1.5852 -2.1200
 4338SOL     OW24475   4.653   0.117   5.695 -0.1334  0.3469  0.4970
 4338SOL    HW124476   4.682   0.145   5.608 -3.2084 -0.0175 -0.6561
 4338SOL    HW224477   4.641   0.199   5.743 -1.6218  0.7321 -0.5093
 4339SOL     OW24478   1.711   0.847   6.260 -0.8519 -0.2260 -0.1736
 4339SOL    HW124479   1.731   0.788   6.187  1.1504 -0.6689  0.7335
 4339SOL    HW224480   1.736   0.930   6.218  1.3074 -0.2071  1.1527
 4340SOL     OW24481   3.472   0.941   5.779  0.0801  0.7857  0.1871
 4340SOL    HW124482   3.562   0.930   5.748 -1.8694 -1.1790 -4.8511
 4340SOL    HW224483   3.489   0.966   5.870  1.1345  2.0341 -0.3542
 4341SOL     OW24484   4.411   4.386   8.504 -0.3612  0.1942  0.1299
 4341SOL    HW124485   4.446   4.475   8.507 -0.3532  0.2614 -2.5910
 4341SOL    HW224486   4.427   4.359   8.414 -0.7175 -1.1468  0.4636
 4342SOL     OW24487   2.977   4.091   6.870 -0.4249  0.2384 -0.0670
 4342SOL    HW124488   2.906   4.029   6.856 -2.0487  1.8579  0.8743
 4342SOL    HW224489   2.965   4.163   6.808  0.1863  0.1991 -0.2294
 4343SOL     OW24490   1.446   0.532   6.352  0.0777  0.8075 -0.2445
 4343SOL    HW124491   1.469   0.505   6.263 -1.9515 -0.6563 -0.3120
 4343SOL    HW224492   1.353   0.554   6.347 -0.2644 -0.7426 -0.8009
 4344SOL     OW24493   0.344   3.085   6.078 -0.0570  0.9359 -0.4397
 4344SOL    HW124494   0.356   3.103   6.172  0.2790  1.4619 -0.5801
 4344SOL    HW224495   0.347   2.989   6.081 -0.9769  0.8809 -1.4502
 4345SOL     OW24496   0.257   2.135   4.736 -0.2447 -0.1872 -0.0454
 4345SOL    HW124497   0.348   2.162   4.734 -0.0018 -1.2848 -3.5609
 4345SOL    HW224498   0.255   2.051   4.691 -0.4055 -0.4600  0.4643
 4346SOL     OW24499   2.382   2.220   3.438 -0.0443  0.1650  0.1855
 4346SOL    HW124500   2.330   2.213   3.518  0.1982  1.3433  0.4352
 4346SOL    HW224501   2.454   2.160   3.459 -1.5024 -1.8752 -0.6807
 4347SOL     OW24502   1.379   1.327   4.383  0.6879 -0.1229  0.3393
 4347SOL    HW124503   1.378   1.237   4.351 -0.3756 -0.2262  0.6458
 4347SOL    HW224504   1.349   1.373   4.305 -4.0718 -2.5782  0.7101
 4348SOL     OW24505   4.641   3.059   0.826  1.3966  0.0945 -0.0413
 4348SOL    HW124506   4.595   2.975   0.831 -0.5019  1.2943  2.5314
 4348SOL    HW224507   4.632   3.069   0.731 -1.9800 -0.3643  0.2620
 4349SOL     OW24508   3.601   1.971   2.153  0.0800 -0.7911  0.1209
 4349SOL    HW124509   3.612   2.065   2.141  1.3451 -0.7194  1.7802
 4349SOL    HW224510   3.653   1.938   2.080 -1.4752  0.3625 -1.5010
 4350SOL     OW24511   4.065   3.418   3.372 -0.0352 -0.5741 -0.6339
 4350SOL    HW124512   4.149   3.454   3.343  0.7245 -0.8868  1.1813
 4350SOL    HW224513   4.077   3.329   3.341  0.9439 -0.5143 -0.4385
 4351SOL     OW24514   4.336   4.383   4.269  0.3612 -0.1834  0.8949
 4351SOL    HW124515   4.427   4.411   4.282  1.0010 -2.3313  1.0646
 4351SOL    HW224516   4.301   4.463   4.229  0.7176  0.0307  1.0111
 4352SOL     OW24517   1.766   3.880   3.579  0.3042 -0.0653  0.2185
 4352SOL    HW124518   1.784   3.883   3.673  0.2860  2.3766  0.1425
 4352SOL    HW224519   1.745   3.786   3.576 -0.1546  0.0979 -1.4730
 4353SOL     OW24520   3.850   1.723   5.686 -0.0250 -0.1570  0.4390
 4353SOL    HW124521   3.760   1.698   5.668  0.1319 -0.3864 -0.0057
 4353SOL    HW224522   3.886   1.635   5.692  1.9093  0.6099 -0.0144
 4354SOL     OW24523   3.577   1.266  13.651 -0.4804 -0.0649  0.1300
 4354SOL    HW124524   3.578   1.353  13.612 -0.0272 -0.9417 -1.8059
 4354SOL    HW224525   3.608   1.211  13.579 -1.4101  0.5641 -0.7434
 4355SOL     OW24526   0.085   3.964   8.733  0.0252 -0.0309 -0.3491
 4355SOL    HW124527   0.087   4.057   8.713 -2.4393  0.1743  0.2666
 4355SOL    HW224528   0.171   3.926   8.720  0.7192  2.3625 -2.6687
 4356SOL     OW24529   2.962   2.121   3.521  0.2855  0.1646 -0.2995
 4356SOL    HW124530   2.945   2.056   3.453  1.9488 -3.1448  2.4351
 4356SOL    HW224531   2.954   2.066   3.599 -2.4072 -0.4839 -1.0128
 4357SOL     OW24532   3.363   3.490   4.213  0.4972  0.0012 -0.2510
 4357SOL    HW124533   3.365   3.483   4.117  2.6475 -0.8622 -0.1421
 4357SOL    HW224534   3.273   3.458   4.215  0.2137  0.9301  1.0575
 4358SOL     OW24535   0.540   3.223   1.815 -0.0265  0.0705  0.3626
 4358SOL    HW124536   0.541   3.213   1.720 -0.0220  0.5618  0.3116
 4358SOL    HW224537   0.582   3.309   1.823  2.7464 -1.4258  1.7237
 4359SOL     OW24538   3.949   3.708   2.087  0.1560 -0.0079  0.3318
 4359SOL    HW124539   4.011   3.780   2.101  0.4115 -0.4267  1.3340
 4359SOL    HW224540   3.978   3.676   2.002  0.2136  1.6595 -0.2817
 4360SOL     OW24541   2.103   2.089   4.565 -0.2198 -0.4283  0.3478
 4360SOL    HW124542   2.168   2.098   4.495  0.0021  0.4829  0.6674
 4360SOL    HW224543   2.028   2.077   4.506 -0.8831 -0.4637  1.2065
 4361SOL     OW24544   1.473   1.661   2.682 -0.4050  0.0765  0.1238
 4361SOL    HW124545   1.402   1.666   2.746  1.2697  0.7210  1.9235
 4361SOL    HW224546   1.428   1.699   2.607  0.8775  0.7914 -0.2851
 4362SOL     OW24547   3.818   1.448   6.804  0.1422 -0.1198  0.0943
 4362SOL    HW124548   3.781   1.375   6.754  1.9100  0.1659 -1.6186
 4362SOL    HW224549   3.737   1.497   6.819  0.6901  1.8807 -3.2954
 4363SOL     OW24550   2.913   0.313   3.951  0.2560 -0.2794  0.0247
 4363SOL    HW124551   2.942   0.320   3.860  0.8500 -0.4685  0.2022
 4363SOL    HW224552   2.942   0.393   3.996 -1.3806  1.0868 -1.3257
 4364SOL     OW24553   2.035   0.912   4.335 -0.0680  0.6854  0.8155
 4364SOL    HW124554   2.003   0.993   4.295 -1.3092  0.3087  1.0623
 4364SOL    HW224555   2.118   0.903   4.289  0.6192 -0.3154  2.2604
 4365SOL     OW24556   2.921   0.080  12.985  0.2414  0.0602  1.0082
 4365SOL    HW124557   2.902   0.083  13.079 -1.2531  1.8551  0.6386
 4365SOL    HW224558   2.974   0.158  12.971  0.0177  0.0621  0.1963
 4366SOL     OW24559   4.483   4.147   9.984 -0.5929  0.8843  0.7943
 4366SOL    HW124560   4.508   4.239   9.992 -2.4589  1.5121 -0.5950
 4366SOL    HW224561   4.569   4.107   9.976  0.5488  3.5101  0.1361
 4367SOL     OW24562   1.497   1.308   8.636 -0.3861 -0.5348  0.4693
 4367SOL    HW124563   1.425   1.255   8.670 -0.9074  0.6580  1.2218
 4367SOL    HW224564   1.571   1.261   8.676  2.0143  2.3854 -0.4987
 4368SOL     OW24565   0.134   3.644   6.722 -0.1979  0.8377  0.3382
 4368SOL    HW124566   0.126   3.725   6.673  1.6119  0.6388 -0.2795
 4368SOL    HW224567   0.043   3.619   6.739  0.7061 -1.2944  2.0556
 4369SOL     OW24568   0.218   2.671   0.942  0.2916  0.2250 -0.0894
 4369SOL    HW124569   0.130   2.676   0.904  1.3138  2.2575 -2.2376
 4369SOL    HW224570   0.216   2.749   0.997  0.4642 -0.6596  1.1514
 4370SOL     OW24571   2.959   1.119  14.953  0.2187  0.6309  0.3462
 4370SOL    HW124572   2.944   1.190  15.015  3.3509  0.6758  1.0599
 4370SOL    HW224573   3.040   1.160  14.921  0.2217  0.1926 -0.2047
 4371SOL     OW24574   2.571   1.513  15.102  0.4108  0.0856  0.0324
 4371SOL    HW124575   2.584   1.418  15.105  2.7983  0.4696  1.9854
 4371SOL    HW224576   2.491   1.528  15.051 -0.7991 -2.6264  1.1264
 4372SOL     OW24577   3.685   1.295  11.541 -0.3916 -0.0570  0.2110
 4372SOL    HW124578   3.605   1.319  11.587 -0.7640  0.0826 -0.5014
 4372SOL    HW224579   3.760   1.332  11.588  0.0051 -0.3089 -0.2159
 4373SOL     OW24580   1.454   4.158   5.086 -0.2448  0.3138 -0.2575
 4373SOL    HW124581   1.480   4.198   5.168 -2.1106  0.2797  0.3545
 4373SOL    HW224582   1.513   4.083   5.077 -1.3475 -0.3144 -2.3394
 4374SOL     OW24583   0.943   4.295   3.979 -0.2286 -0.1128 -0.1966
 4374SOL    HW124584   1.025   4.289   4.028  0.1540 -1.4488 -1.0213
 4374SOL    HW224585   0.870   4.294   4.040 -0.5675  1.5527 -0.5654
 4375SOL     OW24586   2.653   0.610   6.623  0.2697  0.0418 -0.0549
 4375SOL    HW124587   2.676   0.521   6.650 -0.1867  0.7483  2.7061
 4375SOL    HW224588   2.740   0.643   6.601  1.3067 -2.5722  0.2054
 4376SOL     OW24589   0.963   1.978   4.538 -0.2480 -0.0813 -0.1018
 4376SOL    HW124590   0.894   1.933   4.587  0.4280 -0.1088  0.8328
 4376SOL    HW224591   1.033   1.913   4.539  0.3452  0.5626  0.7281
 4377SOL     OW24592   2.188   1.854   6.362  0.4493 -0.8648  0.9890
 4377SOL    HW124593   2.142   1.876   6.281  2.1351 -2.3747 -0.3941
 4377SOL    HW224594   2.235   1.938   6.364  0.6168 -0.9784  1.8619
 4378SOL     OW24595   0.733   4.446   7.669 -0.0513 -0.4552 -0.4514
 4378SOL    HW124596   0.778   4.376   7.717  0.3237 -0.3943 -0.7236
 4378SOL    HW224597   0.661   4.460   7.731 -0.3813 -0.4920 -0.8248
 4379SOL     OW24598   1.805   3.871   3.101 -0.2735 -0.2943 -0.2669
 4379SOL    HW124599   1.736   3.814   3.069  0.8372 -2.1165  0.5510
 4379SOL    HW224600   1.788   3.954   3.057  1.6323  0.0350 -0.3885
 4380SOL     OW24601   3.118   2.339   2.000  0.2572  0.0157 -0.3142
 4380SOL    HW124602   3.210   2.361   1.984 -0.1876  0.2267 -2.5340
 4380SOL    HW224603   3.068   2.418   1.980 -0.2947 -0.3049 -0.1923
 4381SOL     OW24604   3.130   3.840   6.592  0.2710 -0.1227  0.0907
 4381SOL    HW124605   3.091   3.776   6.652 -0.5773  0.5652  0.2616
 4381SOL    HW224606   3.082   3.830   6.510  1.8532 -1.3716 -0.6896
 4382SOL     OW24607   1.255   0.315   7.864  0.3569  0.2320  0.3461
 4382SOL    HW124608   1.162   0.330   7.844 -0.1395  0.0989  2.5889
 4382SOL    HW224609   1.255   0.328   7.959 -0.0043  0.6934  0.2849
 4383SOL     OW24610   3.973   4.267   6.769  0.2423  0.0560 -0.1099
 4383SOL    HW124611   4.012   4.331   6.710 -1.0514 -0.9496 -2.0547
 4383SOL    HW224612   4.029   4.191   6.752 -2.6373 -2.2972  0.7175
 4384SOL     OW24613   0.738   3.488   9.120 -0.6814 -0.8320  0.3563
 4384SOL    HW124614   0.741   3.458   9.211 -0.1935  0.2848  0.7061
 4384SOL    HW224615   0.724   3.582   9.127  2.1694 -0.4539  1.1235
 4385SOL     OW24616   3.431   1.313   5.170 -0.6349 -0.2791  0.1166
 4385SOL    HW124617   3.367   1.301   5.240 -2.1358  1.1856 -0.9995
 4385SOL    HW224618   3.509   1.276   5.212 -0.0779 -0.8152 -1.4015
 4386SOL     OW24619   1.564   1.511   3.634  0.1827 -0.4069 -0.1139
 4386SOL    HW124620   1.508   1.467   3.571 -0.4789 -2.8662  2.1616
 4386SOL    HW224621   1.573   1.592   3.583 -0.3473 -0.5259 -0.3964
 4387SOL     OW24622   1.349   0.826  10.607  0.0477  0.3250 -0.1661
 4387SOL    HW124623   1.258   0.856  10.602 -0.3335 -0.9020 -0.7963
 4387SOL    HW224624   1.366   0.839  10.700  1.5262  0.3739 -0.4488
 4388SOL     OW24625   2.831   0.433   7.293 -0.6627 -0.0109 -0.5652
 4388SOL    HW124626   2.891   0.359   7.283 -2.1772 -1.1325 -1.4123
 4388SOL    HW224627   2.764   0.400   7.232  0.1136 -0.4035 -1.2177
 4389SOL     OW24628   3.513   2.916   9.891 -0.0878 -0.5797 -0.1317
 4389SOL    HW124629   3.503   2.822   9.904  1.4539 -0.7409 -0.1105
 4389SOL    HW224630   3.602   2.929   9.858 -0.7049  0.7328 -1.2903
 4390SOL     OW24631   4.484   1.078   8.665  0.1800 -0.1211 -0.1639
 4390SOL    HW124632   4.452   0.993   8.693 -1.6703  0.6242 -0.0322
 4390SOL    HW224633   4.576   1.074   8.693  0.2299 -0.2151 -0.3420
 4391SOL     OW24634   1.281   4.447   5.461 -0.0848  0.3364  0.3324
 4391SOL    HW124635   1.203   4.400   5.432  0.3526  0.1712 -0.5903
 4391SOL    HW224636   1.295   4.516   5.396 -0.3195 -1.6340 -1.8005
 4392SOL     OW24637   2.670   0.002   8.905  0.1005 -0.0565  0.3131
 4392SOL    HW124638   2.744   0.043   8.861 -1.3534  1.5588 -0.6170
 4392SOL    HW224639   2.592   0.003   8.850 -0.6038 -1.3099  1.2650
 4393SOL     OW24640   1.958   1.810   0.880  0.1736  0.6297 -0.7941
 4393SOL    HW124641   1.995   1.864   0.810 -0.2894 -0.0154 -1.5392
 4393SOL    HW224642   1.927   1.868   0.949  1.1486  1.0921 -0.7406
 4394SOL     OW24643   0.582   0.178   8.446 -0.6242 -0.0965  0.2504
 4394SOL    HW124644   0.633   0.112   8.398 -0.9454 -0.4586  0.4116
 4394SOL    HW224645   0.637   0.198   8.521  0.2661 -0.1659 -0.3747
 4395SOL     OW24646   4.714   3.260  11.829 -0.0774 -0.2573  0.2233
 4395SOL    HW124647   0.081   3.247  11.793 -0.5738  0.0227 -1.0910
 4395SOL    HW224648   4.664   3.290  11.752 -2.3139 -0.0848  1.7327
 4396SOL     OW24649   1.818   1.301  12.990  0.3277 -0.1586  0.1421
 4396SOL    HW124650   1.879   1.251  12.937  0.8808  0.3496  0.2971
 4396SOL    HW224651   1.867   1.303  13.072 -0.5605 -3.1048  0.7229
 4397SOL     OW24652   3.757   4.717  17.477 -0.4251 -0.0305  0.0474
 4397SOL    HW124653   3.669   4.690  17.504 -0.4404 -0.3154 -0.2895
 4397SOL    HW224654   3.740   0.090  17.474  1.8311  0.3484 -0.8571
 4398SOL     OW24655   0.027   0.143   8.558  0.0100 -0.6490  0.2235
 4398SOL    HW124656   0.063   0.160   8.645 -0.1992  2.4185 -0.3017
 4398SOL    HW224657   0.058   0.213   8.501  2.2296 -2.4624 -0.8076
 4399SOL     OW24658   2.331   2.471   5.478 -0.3155 -0.7747  0.0087
 4399SOL    HW124659   2.387   2.484   5.555 -0.7520 -1.7734  0.4857
 4399SOL    HW224660   2.308   2.564   5.471  0.0535 -0.8086 -1.7642
 4400SOL     OW24661   2.327   2.013   0.127 -0.2952 -0.3904 -0.1186
 4400SOL    HW124662   2.253   1.974   0.173 -0.9695 -0.0328 -0.8834
 4400SOL    HW224663   2.320   2.106   0.152 -1.7291 -0.1721 -1.2898
 4401SOL     OW24664   0.518   1.104  14.253 -0.1793 -0.1264  0.2641
 4401SOL    HW124665   0.608   1.107  14.221 -0.3353 -0.7458 -0.2339
 4401SOL    HW224666   0.475   1.154  14.184 -0.2825 -1.0117 -0.3088
 4402SOL     OW24667   1.936   1.683   5.104  0.7567  0.1574  0.2985
 4402SOL    HW124668   1.901   1.725   5.182 -0.1993  0.6928 -0.4210
 4402SOL    HW224669   2.001   1.750   5.083  1.0387 -0.9219 -2.2742
 4403SOL     OW24670   0.173   0.273  12.999 -0.1841 -0.0863  0.3607
 4403SOL    HW124671   0.162   0.180  13.018  1.2723 -0.0291  1.5110
 4403SOL    HW224672   0.217   0.299  13.080 -0.2108 -1.9105  0.9660
 4404SOL     OW24673   1.265   0.238   8.952 -0.4122 -0.4723 -0.1796
 4404SOL    HW124674   1.283   0.277   9.038 -1.1117 -2.8396  1.0529
 4404SOL    HW224675   1.327   0.274   8.889 -1.7167  2.1029  0.0124
 4405SOL     OW24676   3.031   3.254   0.114  0.5725  0.2269  0.0627
 4405SOL    HW124677   3.041   3.349   0.111 -1.0464  0.4142  0.5618
 4405SOL    HW224678   3.122   3.236   0.136  1.2765  2.2337 -1.1780
 4406SOL     OW24679   1.653   2.833   5.688 -0.5377  0.0723 -0.1691
 4406SOL    HW124680   1.673   2.891   5.762 -2.6121 -0.5114  0.8522
 4406SOL    HW224681   1.587   2.890   5.648 -1.9399 -0.7552  0.9360
 4407SOL     OW24682   1.185   2.655   5.990  0.4815  0.3323  0.0917
 4407SOL    HW124683   1.167   2.659   5.896 -0.3478 -0.0088  0.2330
 4407SOL    HW224684   1.273   2.618   5.982  1.1325  1.6487  1.2291
 4408SOL     OW24685   2.655   2.335   4.169  0.7040  0.1656  0.5178
 4408SOL    HW124686   2.590   2.393   4.131 -1.2806 -2.5003 -0.1285
 4408SOL    HW224687   2.706   2.317   4.090 -0.3016  1.5356 -0.4483
 4409SOL     OW24688   3.625   3.462  14.681 -0.3729  0.2904  0.0264
 4409SOL    HW124689   3.569   3.476  14.757  0.7012  0.9889  0.6970
 4409SOL    HW224690   3.620   3.551  14.645  0.9751  0.7015  0.8525
 4410SOL     OW24691   3.662   0.147  13.413  0.0369  0.5250 -0.0946
 4410SOL    HW124692   3.573   0.142  13.377 -0.7052 -0.7362  1.8660
 4410SOL    HW224693   3.715   0.091  13.357  1.0744  0.2140  1.2012
 4411SOL     OW24694   0.951   1.748   9.989  0.2443 -0.1907 -0.4695
 4411SOL    HW124695   0.876   1.799   9.958  0.7271 -1.1501 -3.1721
 4411SOL    HW224696   0.936   1.665   9.945  2.1630 -0.6512 -0.2604
 4412SOL     OW24697   1.658   1.544   7.705 -1.0498  0.0111 -0.2637
 4412SOL    HW124698   1.648   1.502   7.619 -0.7438  0.4584 -0.5192
 4412SOL    HW224699   1.569   1.575   7.719 -0.7824  0.7607 -0.2296
 4413SOL     OW24700   2.879   4.636   7.253  0.4607 -0.0048 -0.1979
 4413SOL    HW124701   2.906   4.547   7.272  0.5681 -0.0780 -0.6975
 4413SOL    HW224702   2.800   4.641   7.306 -0.5897 -0.1612 -1.7735
 4414SOL     OW24703   1.698   1.711   0.037  0.0301 -0.5420  0.1075
 4414SOL    HW124704   1.618   1.731  17.674  0.1638 -0.7380 -0.1900
 4414SOL    HW224705   1.759   1.763  17.670 -2.1565  2.2988  0.3242
 4415SOL     OW24706   4.485   1.881   8.526 -0.0088 -0.6039  0.0538
 4415SOL    HW124707   4.455   1.886   8.617 -0.5000  0.5255 -0.1680
 4415SOL    HW224708   4.569   1.840   8.544  0.4498  0.4416  0.3108
 4416SOL     OW24709   4.517   0.180  17.539 -0.0585 -0.6843 -0.0649
 4416SOL    HW124710   4.531   0.264  17.495 -0.0614  0.4420  2.0841
 4416SOL    HW224711   4.470   0.147  17.462  1.3484 -1.9486 -0.3859
 4417SOL     OW24712   0.487   2.734   6.312  0.3949  0.2848  0.8845
 4417SOL    HW124713   0.520   2.648   6.336 -1.6851 -0.7512  0.0460
 4417SOL    HW224714   0.447   2.725   6.226  0.1973  0.5767  0.9440
 4418SOL     OW24715   0.167   2.966   2.865  0.4810  0.4106 -0.4225
 4418SOL    HW124716   0.222   2.997   2.937  0.7642  0.5174 -0.6870
 4418SOL    HW224717   0.172   3.043   2.808 -2.5712 -0.0854 -1.3505
 4419SOL     OW24718   0.209   1.640   8.591 -0.5652  0.3718 -0.2984
 4419SOL    HW124719   0.273   1.601   8.651  1.9592  3.1375 -1.1719
 4419SOL    HW224720   0.225   1.591   8.511 -2.0439  0.1887 -0.4782
 4420SOL     OW24721   3.318   0.511   7.899  0.2326  0.1003 -0.2427
 4420SOL    HW124722   3.371   0.523   7.978 -0.3003  2.7084 -0.2767
 4420SOL    HW224723   3.310   0.597   7.857  0.0193 -0.9786 -2.3954
 4421SOL     OW24724   0.686   1.389  14.467  0.1207  0.0341 -0.1128
 4421SOL    HW124725   0.737   1.343  14.399  1.0411 -0.2098  0.7447
 4421SOL    HW224726   0.599   1.360  14.443  1.0485 -0.3604 -3.0796
 4422SOL     OW24727   0.868   1.230   4.770 -0.5666 -0.2826 -0.2387
 4422SOL    HW124728   0.896   1.149   4.811 -0.5629 -0.5730 -0.8192
 4422SOL    HW224729   0.902   1.227   4.680  0.8200 -0.3878  0.2941
 4423SOL     OW24730   1.588   2.561  14.598  0.0428 -0.0943 -0.6144
 4423SOL    HW124731   1.652   2.523  14.538  1.2858 -0.8344  1.1728
 4423SOL    HW224732   1.646   2.626  14.639  3.1395 -3.1050 -0.2429
 4424SOL     OW24733   3.914   0.996   3.494  0.0943  0.3376  0.7758
 4424SOL    HW124734   3.936   0.905   3.473 -1.7459  0.6991 -2.6282
 4424SOL    HW224735   3.891   0.971   3.584 -3.3368 -0.4930 -0.3308
 4425SOL     OW24736   0.239   3.502  14.094  0.3295  0.4152  0.1775
 4425SOL    HW124737   0.320   3.548  14.115 -0.7308  0.9452  3.2188
 4425SOL    HW224738   0.257   3.410  14.076  3.6386  0.9752  0.6361
 4426SOL     OW24739   4.615   2.541   6.369 -0.2682  0.4689 -0.1422
 4426SOL    HW124740   4.588   2.450   6.382  0.2542  0.4781  1.0448
 4426SOL    HW224741   4.593   2.539   6.276 -0.7374 -2.2961  0.0107
 4427SOL     OW24742   4.512   4.597   2.513  0.0704  0.0044 -0.4320
 4427SOL    HW124743   4.570   4.521   2.511  0.5223  0.2632  3.4582
 4427SOL    HW224744   4.556   4.638   2.439  2.5459  0.0794  1.0860
 4428SOL     OW24745   0.355   2.954  14.581 -0.5555  0.0561 -0.4521
 4428SOL    HW124746   0.265   2.973  14.554 -0.5878  1.4348  0.6669
 4428SOL    HW224747   0.334   2.875  14.631  1.3512 -0.6519 -0.7807
 4429SOL     OW24748   2.941   2.139   1.288 -0.3882  0.2118 -0.6831
 4429SOL    HW124749   3.012   2.200   1.309 -0.7257  0.0272  1.0281
 4429SOL    HW224750   2.860   2.188   1.304  0.6279  0.6615  3.2721
 4430SOL     OW24751   0.745   2.783   1.078 -0.0268 -0.3063  0.2593
 4430SOL    HW124752   0.664   2.823   1.047 -0.0600  0.4509  1.3173
 4430SOL    HW224753   0.798   2.789   0.998  0.9692  0.9873  1.0112
 4431SOL     OW24754   3.785   2.702   6.773 -0.3981  0.2286 -0.0652
 4431SOL    HW124755   3.841   2.705   6.695 -1.4213 -1.2403 -0.8583
 4431SOL    HW224756   3.847   2.699   6.846  1.5807  2.0926 -1.6603
 4432SOL     OW24757   3.322   1.040   3.767 -0.3802  0.0114  0.0684
 4432SOL    HW124758   3.380   1.031   3.692 -0.5724  0.9097 -0.1866
 4432SOL    HW224759   3.312   0.947   3.787  0.3512 -0.5405 -2.2094
 4433SOL     OW24760   1.663   0.860  10.923  0.1349  0.1174 -0.2242
 4433SOL    HW124761   1.589   0.915  10.896  0.8831  0.8872 -0.6819
 4433SOL    HW224762   1.662   0.788  10.860  1.3030  0.7700 -0.9824
 4434SOL     OW24763   3.592   3.857   7.968 -0.3844 -0.2821 -0.0663
 4434SOL    HW124764   3.646   3.905   7.905 -2.1544  1.0668 -0.5641
 4434SOL    HW224765   3.631   3.879   8.052  1.6831  3.7980 -2.1083
 4435SOL     OW24766   3.623   3.580  10.815 -0.2845 -0.2809 -0.2840
 4435SOL    HW124767   3.692   3.574  10.881  1.7864 -1.1116 -2.5134
 4435SOL    HW224768   3.568   3.644  10.860  1.1712  1.0203 -0.3362
 4436SOL     OW24769   1.500   2.261  14.768  0.2857  0.0149  0.1080
 4436SOL    HW124770   1.485   2.170  14.792 -0.1914 -0.0674 -0.5293
 4436SOL    HW224771   1.433   2.290  14.830 -0.6407 -1.2193 -0.3288
 4437SOL     OW24772   1.931   4.043  10.471 -0.2533  0.0587  0.4947
 4437SOL    HW124773   1.889   3.979  10.413 -0.1135 -0.3553  0.8563
 4437SOL    HW224774   1.858   4.083  10.518 -0.7341 -3.1434  2.4366
 4438SOL     OW24775   1.289   2.436  12.448  0.1481 -0.0919  0.5223
 4438SOL    HW124776   1.331   2.352  12.463  1.8522  0.9617  1.6822
 4438SOL    HW224777   1.295   2.470  12.537 -1.6813 -0.9467  0.9699
 4439SOL     OW24778   3.195   3.560   7.595 -0.1169 -0.0693 -0.1570
 4439SOL    HW124779   3.161   3.621   7.660  0.6937 -3.3724  3.3694
 4439SOL    HW224780   3.289   3.571   7.610 -0.0869 -0.4111 -0.0959
 4440SOL     OW24781   3.052   2.543   7.863  0.0481 -0.5830  0.0271
 4440SOL    HW124782   3.017   2.550   7.774  1.8077 -2.6299 -0.8337
 4440SOL    HW224783   3.128   2.488   7.846  0.2745 -0.1979 -0.1845
 4441SOL     OW24784   3.421   1.424   8.079 -0.9354  0.2425 -0.3144
 4441SOL    HW124785   3.408   1.335   8.044 -2.5838  0.1891  0.4472
 4441SOL    HW224786   3.361   1.475   8.025 -0.3003  1.0536 -0.2582
 4442SOL     OW24787   4.092   3.553   6.932  0.0346 -0.0026 -0.2025
 4442SOL    HW124788   4.117   3.539   6.841  1.2819  1.6028 -0.1083
 4442SOL    HW224789   3.998   3.539   6.936  0.2882 -1.4804  0.5784
 4443SOL     OW24790   4.575   3.616   6.517  0.2964  0.3459  0.2215
 4443SOL    HW124791   4.514   3.617   6.443  1.2018 -0.3624 -0.5376
 4443SOL    HW224792   4.604   3.525   6.522 -0.2716  0.1301 -0.3393
 4444SOL     OW24793   1.903   0.056   8.030  0.3742  0.4536 -0.1220
 4444SOL    HW124794   1.964   0.103   7.973  0.8303 -1.2818 -1.0538
 4444SOL    HW224795   1.954   4.705   8.067 -0.0686 -0.4476 -1.2777
 4445SOL     OW24796   3.085   0.162   9.492 -0.3943  0.0922 -0.2156
 4445SOL    HW124797   3.160   0.103   9.496 -2.6474 -2.6718  0.9505
 4445SOL    HW224798   3.115   0.253   9.500 -1.1520  0.3455 -0.2369
 4446SOL     OW24799   3.119   4.583   8.421  0.0911 -0.6954  0.4509
 4446SOL    HW124800   3.133   4.601   8.328 -0.5531  1.8295  0.8477
 4446SOL    HW224801   3.023   4.588   8.421  0.1184 -0.2241  1.2158
 4447SOL     OW24802   1.544   2.865   8.171 -0.1448  0.7599 -0.1711
 4447SOL    HW124803   1.505   2.943   8.211 -2.2822 -0.2789 -0.2169
 4447SOL    HW224804   1.542   2.807   8.247  0.1816  0.2124 -0.5845
 4448SOL     OW24805   2.139   4.277   5.122 -0.1240  0.1499  0.1317
 4448SOL    HW124806   2.142   4.236   5.208 -0.2012  2.4926  1.2521
 4448SOL    HW224807   2.194   4.221   5.068  0.2166 -0.9039  1.5762
 4449SOL     OW24808   2.018   2.141   6.125  0.1716 -0.4784 -0.0071
 4449SOL    HW124809   2.043   2.180   6.042 -0.0430  0.3956  0.3423
 4449SOL    HW224810   2.049   2.052   6.109  1.5173 -0.3632  2.0262
 4450SOL     OW24811   4.655   1.314   7.408  0.1974  0.0254  0.2332
 4450SOL    HW124812   4.594   1.368   7.458  0.5390 -0.7432  1.4949
 4450SOL    HW224813   4.611   1.230   7.419 -1.0841  0.7174  0.3047
 4451SOL     OW24814   0.954   1.038   1.923  0.3053  0.4984  0.4247
 4451SOL    HW124815   1.027   1.009   1.978 -0.8461 -1.9946  0.6208
 4451SOL    HW224816   0.923   1.112   1.976 -0.6845 -0.3289  0.9967
 4452SOL     OW24817   4.447   0.947   3.547 -0.0724  0.0311  0.0547
 4452SOL    HW124818   4.529   0.994   3.535 -0.4531  0.6555 -0.0699
 4452SOL    HW224819   4.415   0.924   3.460 -0.5584 -2.4825  0.8845
 4453SOL     OW24820   3.241   2.390   7.745 -0.4227  0.2463  0.3262
 4453SOL    HW124821   3.205   2.302   7.752  2.6070 -0.6868  3.8937
 4453SOL    HW224822   3.332   2.378   7.717 -1.4468 -0.4340 -2.7600
 4454SOL     OW24823   3.432   2.611   2.567 -0.4405  0.0810 -0.1586
 4454SOL    HW124824   3.444   2.697   2.608 -0.3689 -0.4808  0.9905
 4454SOL    HW224825   3.345   2.608   2.529 -0.7716  2.6630  0.3464
 4455SOL     OW24826   2.525   3.132  16.319 -0.3015 -0.3255  0.3767
 4455SOL    HW124827   2.481   3.138  16.403 -0.4224 -2.6609  0.4696
 4455SOL    HW224828   2.569   3.048  16.323 -0.5452 -0.4524  0.3748
 4456SOL     OW24829   2.093   3.040  16.777  0.0382  0.0220  0.4599
 4456SOL    HW124830   2.040   3.004  16.848 -1.7770 -1.9745 -1.9523
 4456SOL    HW224831   2.030   3.044  16.705  0.3474 -1.8452  0.1048
 4457SOL     OW24832   4.431   1.911  14.461 -0.5316 -0.4309 -0.2221
 4457SOL    HW124833   4.366   1.842  14.452 -0.2977 -0.6768 -0.0068
 4457SOL    HW224834   4.379   1.980  14.503  2.3808  0.1436  2.4135
 4458SOL     OW24835   0.339   4.532   0.032  0.3639  0.2227 -0.2938
 4458SOL    HW124836   0.308   4.504   0.118 -2.2788  0.3524 -1.1949
 4458SOL    HW224837   0.398   4.461   0.007  0.6429 -0.1994  1.5656
 4459SOL     OW24838   0.562   3.242   4.250 -0.2035 -0.4182 -0.1598
 4459SOL    HW124839   0.599   3.258   4.337 -0.6661  0.3624 -0.1047
 4459SOL    HW224840   0.607   3.162   4.224  2.0941  0.8562 -0.1763
 4460SOL     OW24841   1.784   0.954   3.336  0.1180 -0.7115 -0.5729
 4460SOL    HW124842   1.829   0.997   3.409 -2.0306  1.0531 -0.2766
 4460SOL    HW224843   1.710   0.921   3.386  0.2243 -0.5923 -0.3357
 4461SOL     OW24844   3.228   3.285   9.014 -0.3152 -0.1443 -0.1974
 4461SOL    HW124845   3.162   3.265   9.081  0.7096  3.1542  1.8185
 4461SOL    HW224846   3.229   3.210   8.955 -2.0886  0.2352 -0.7322
 4462SOL     OW24847   1.834   3.071  14.995 -0.5773  0.1065  0.0823
 4462SOL    HW124848   1.896   3.002  14.972 -1.2514  0.1969 -1.9841
 4462SOL    HW224849   1.759   3.025  15.033 -1.2312  0.1680 -1.1199
 4463SOL     OW24850   4.662   2.436   3.953 -0.7441 -0.0267  0.1724
 4463SOL    HW124851   4.607   2.391   3.890  0.1371 -0.3822 -0.3409
 4463SOL    HW224852   4.596   2.444   4.022  0.0629  2.1002  0.7035
 4464SOL     OW24853   4.034   2.005   2.358 -0.1560  0.2691  0.1308
 4464SOL    HW124854   4.000   1.988   2.270 -1.3861  4.3565 -0.1889
 4464SOL    HW224855   4.124   2.027   2.332 -0.4814  0.4142 -0.8909
 4465SOL     OW24856   0.932   3.935   3.299  0.3144 -0.0158  0.3172
 4465SOL    HW124857   0.870   4.004   3.324  0.8964  1.1616 -1.4645
 4465SOL    HW224858   1.012   3.987   3.309  0.1597  0.1632  0.6053
 4466SOL     OW24859   4.089   2.717   3.724 -0.3315 -0.0717  0.6379
 4466SOL    HW124860   4.117   2.626   3.731 -1.5345 -0.4379  0.6764
 4466SOL    HW224861   3.999   2.700   3.699  0.0570  0.9252 -1.4244
 4467SOL     OW24862   2.028   3.088  16.012  0.2241  0.2825  0.0690
 4467SOL    HW124863   2.076   3.102  15.930 -2.0779  2.9454 -0.8171
 4467SOL    HW224864   2.082   3.015  16.043 -0.5364 -1.6445 -3.1404
 4468SOL     OW24865   2.927   2.442   5.656 -0.1767 -0.2548 -0.0414
 4468SOL    HW124866   3.005   2.404   5.695 -0.4638 -0.1624  0.6137
 4468SOL    HW224867   2.933   2.408   5.566  1.2352 -1.4765  0.5145
 4469SOL     OW24868   3.493   2.897   5.073 -0.3850 -0.7630  0.1025
 4469SOL    HW124869   3.525   2.823   5.021 -0.2529  1.0856 -2.3887
 4469SOL    HW224870   3.531   2.974   5.032  0.8598 -0.2978  2.1114
 4470SOL     OW24871   4.586   3.469  17.607  0.2490  0.2882 -0.1645
 4470SOL    HW124872   4.636   3.513  17.676 -1.9500  1.9370  0.3523
 4470SOL    HW224873   4.500   3.454  17.645  0.4582 -0.5140 -0.0069
 4471SOL     OW24874   2.499   0.844  11.988 -0.5792  0.0534 -0.5129
 4471SOL    HW124875   2.417   0.866  11.944 -1.6442 -3.3013 -0.1705
 4471SOL    HW224876   2.518   0.936  12.009  1.6239 -0.7654  1.1331
 4472SOL     OW24877   2.629   0.614   0.913 -0.4544  0.8082 -0.1909
 4472SOL    HW124878   2.723   0.595   0.906 -1.1588 -2.0747 -1.8075
 4472SOL    HW224879   2.588   0.533   0.943  0.8936 -0.0368 -0.6415
 4473SOL     OW24880   0.791   4.043  11.617  0.1521  0.2004  0.4106
 4473SOL    HW124881   0.764   4.091  11.696  1.9568  0.1743  1.0261
 4473SOL    HW224882   0.715   4.073  11.566 -0.3624 -0.3455  0.8542
 4474SOL     OW24883   0.424   2.774  15.027  0.4280  0.2981  0.0898
 4474SOL    HW124884   0.387   2.686  15.026 -0.0810  0.5107  0.0621
 4474SOL    HW224885   0.519   2.761  15.035  0.1214 -1.3689  1.0691
 4475SOL     OW24886   2.887   3.741  10.630  0.0624 -0.0970 -0.1303
 4475SOL    HW124887   2.917   3.749  10.721 -0.0172  0.3604 -0.1405
 4475SOL    HW224888   2.973   3.747  10.589  0.0190 -1.9323 -0.4790
 4476SOL     OW24889   0.973   2.782   2.069  0.3670 -0.2456 -0.1749
 4476SOL    HW124890   1.016   2.704   2.032 -0.2566 -1.4040  1.5312
 4476SOL    HW224891   0.949   2.832   1.991  0.1166  0.8338  0.6046
 4477SOL     OW24892   1.851   2.624   7.864 -0.6795  0.0537 -0.4084
 4477SOL    HW124893   1.864   2.573   7.944 -1.7562 -2.4656 -1.8364
 4477SOL    HW224894   1.816   2.703   7.906  2.3319  0.3445  1.5771
 4478SOL     OW24895   0.539   2.257   4.692  0.1055  0.0535  0.1623
 4478SOL    HW124896   0.609   2.275   4.755  0.9038 -1.2946 -0.3293
 4478SOL    HW224897   0.602   2.254   4.620 -1.5253  1.1073 -1.3060
 4479SOL     OW24898   2.924   3.392   3.796 -0.1351  0.3966 -0.4198
 4479SOL    HW124899   2.848   3.343   3.825  2.3251 -3.8286 -1.1645
 4479SOL    HW224900   2.896   3.426   3.711  1.6068 -0.8334 -1.4903
 4480SOL     OW24901   0.132   4.336  14.313 -0.3366  0.1140 -0.1778
 4480SOL    HW124902   0.071   4.264  14.323 -1.9862  1.3574 -1.2738
 4480SOL    HW224903   0.111   4.383  14.393  1.4184  0.7713 -0.0946
 4481SOL     OW24904   1.578   2.877   1.825 -0.4994  0.2126  0.2714
 4481SOL    HW124905   1.574   2.818   1.901  2.2854 -0.1187  0.1694
 4481SOL    HW224906   1.488   2.874   1.793  0.0640 -1.3027 -1.2007
 4482SOL     OW24907   4.400   2.729   8.029  0.4014  0.1567  0.1317
 4482SOL    HW124908   4.311   2.743   8.063  1.4960  3.2312  1.6943
 4482SOL    HW224909   4.408   2.821   8.005  0.0405  0.1449 -0.0350
 4483SOL     OW24910   4.050   3.955   8.160  0.6040 -0.4020 -0.4256
 4483SOL    HW124911   4.130   3.954   8.107  1.0392  1.0401  0.1954
 4483SOL    HW224912   4.076   3.890   8.225  0.3299 -1.8372 -1.7566
 4484SOL     OW24913   3.201   2.359   4.463 -0.0091  0.1380 -0.1228
 4484SOL    HW124914   3.228   2.390   4.377  0.4750 -0.0644 -0.0405
 4484SOL    HW224915   3.113   2.397   4.471 -0.4588 -1.3835  1.9520
 4485SOL     OW24916   2.067   2.037   7.544 -0.4719 -0.3781 -0.1045
 4485SOL    HW124917   2.149   1.987   7.544 -0.2147  0.0496 -1.2370
 4485SOL    HW224918   2.068   2.089   7.463  1.2291 -1.1638 -0.5925
 4486SOL     OW24919   1.455   1.106  12.858 -0.3839  0.1347 -0.2796
 4486SOL    HW124920   1.542   1.106  12.818  0.4511  2.2085  1.5455
 4486SOL    HW224921   1.409   1.053  12.792 -0.1799  1.4400 -1.4920
 4487SOL     OW24922   0.543   2.465   6.361 -0.3836  0.0833  0.1663
 4487SOL    HW124923   0.485   2.389   6.364 -0.5974  0.3647  2.8551
 4487SOL    HW224924   0.627   2.421   6.353 -0.5245 -0.4884  1.7942
 4488SOL     OW24925   3.464   1.981  11.826  0.0812  0.3867 -0.3743
 4488SOL    HW124926   3.452   1.923  11.751  0.5520  0.0659 -0.2002
 4488SOL    HW224927   3.391   2.043  11.821 -0.4421 -0.0438  1.6350
 4489SOL     OW24928   4.481   2.213   6.923 -0.5579  0.1182  0.2349
 4489SOL    HW124929   4.560   2.256   6.890 -0.3937 -0.5306 -0.2150
 4489SOL    HW224930   4.485   2.238   7.016  0.5864 -0.2284  0.2824
 4490SOL     OW24931   2.979   2.895   5.095 -0.1298  0.0941 -0.1688
 4490SOL    HW124932   2.957   2.810   5.057 -2.4471 -0.2727  1.9713
 4490SOL    HW224933   2.996   2.947   5.016  0.7958 -0.4232 -0.3155
 4491SOL     OW24934   0.803   0.233   5.603 -0.4793  0.7336 -0.2440
 4491SOL    HW124935   0.885   0.184   5.598 -1.4951 -1.0401  0.2520
 4491SOL    HW224936   0.745   0.156   5.601  0.4209  0.0657 -0.5152
 4492SOL     OW24937   0.160   0.098   3.480 -0.4361 -0.2085 -0.0555
 4492SOL    HW124938   0.116   0.063   3.558 -0.0586  2.6474  1.4302
 4492SOL    HW224939   0.090   0.158   3.454  0.1016  1.1619  1.6109
 4493SOL     OW24940   3.756   4.391   1.387 -0.2825 -0.3801 -0.0415
 4493SOL    HW124941   3.746   4.300   1.359 -0.4211 -1.0577  2.1983
 4493SOL    HW224942   3.721   4.432   1.308  0.8892  0.1245 -0.2973
 4494SOL     OW24943   0.655   2.568   7.603  0.4570  0.3686 -0.1917
 4494SOL    HW124944   0.722   2.499   7.607  1.1064  0.9919 -0.3665
 4494SOL    HW224945   0.639   2.567   7.698 -2.2892  1.1225 -0.6651
 4495SOL     OW24946   0.331   0.305   3.777 -0.2679 -0.9241 -0.6072
 4495SOL    HW124947   0.347   0.329   3.686  0.7041  0.5704 -0.0608
 4495SOL    HW224948   0.237   0.290   3.785 -0.3816  0.6122  1.1155
 4496SOL     OW24949   1.632   3.536   7.446  0.1342 -0.2573  0.0822
 4496SOL    HW124950   1.632   3.626   7.478  2.1165  0.0448 -0.8166
 4496SOL    HW224951   1.619   3.546   7.352  1.4742 -1.3731 -0.2179
 4497SOL     OW24952   2.732   1.501   7.847 -0.5731  0.2042  0.1556
 4497SOL    HW124953   2.798   1.549   7.797 -0.9554 -0.0225 -0.5797
 4497SOL    HW224954   2.661   1.566   7.845 -1.0610 -0.3173  0.5760
 4498SOL     OW24955   4.132   4.370  16.018 -0.7890  0.2413  0.0379
 4498SOL    HW124956   4.089   4.289  15.990  0.2252  0.0162 -0.8734
 4498SOL    HW224957   4.107   4.431  15.948 -1.4926 -0.0518  0.0340
 4499SOL     OW24958   2.641   0.169  16.393 -0.6258  0.1480 -0.3090
 4499SOL    HW124959   2.642   0.197  16.485  0.6012 -2.9749  0.6278
 4499SOL    HW224960   2.565   0.219  16.364 -0.7101 -0.4316 -1.0688
 4500SOL     OW24961   3.861   3.942   5.089  0.2269  0.1469  0.3468
 4500SOL    HW124962   3.899   3.858   5.062 -2.2875 -0.0742 -2.5799
 4500SOL    HW224963   3.920   3.969   5.159  0.0267 -3.3778  1.8698
 4501SOL     OW24964   0.762   2.877   5.075  0.3450  0.3824  0.3405
 4501SOL    HW124965   0.854   2.863   5.097  0.7609 -0.3802 -1.8951
 4501SOL    HW224966   0.774   2.943   5.007 -0.4663  0.1625 -0.0173
 4502SOL     OW24967   0.457   1.001   2.861  0.0497  0.0547 -0.2954
 4502SOL    HW124968   0.374   0.994   2.814 -0.9443 -1.1761  1.6383
 4502SOL    HW224969   0.502   0.923   2.827 -1.0318  0.1215 -1.8982
 4503SOL     OW24970   4.616   3.604  14.043 -0.2149  0.6385 -0.1231
 4503SOL    HW124971   4.668   3.528  14.066  0.7493  1.1115 -0.7497
 4503SOL    HW224972   4.552   3.550  13.996  0.5664  0.0858 -0.5501
 4504SOL     OW24973   3.757   1.624   2.469 -0.4521 -0.1556  0.2608
 4504SOL    HW124974   3.699   1.576   2.530  0.0496 -0.3871  0.5540
 4504SOL    HW224975   3.755   1.553   2.405  1.7826 -1.7795  2.0089
 4505SOL     OW24976   4.426   0.224   5.441 -0.0253 -0.2991  0.0154
 4505SOL    HW124977   4.446   0.147   5.388  0.5104  1.1163 -1.8360
 4505SOL    HW224978   4.505   0.272   5.417 -0.5530  0.9132  0.6702
 4506SOL     OW24979   4.223   2.382  13.538 -0.1536  0.1497  0.3442
 4506SOL    HW124980   4.180   2.313  13.589 -1.2421  0.6273  0.0637
 4506SOL    HW224981   4.221   2.455  13.600 -1.1098  0.1978  0.2485
 4507SOL     OW24982   4.296   1.521  16.510 -0.9910  0.8790  0.0728
 4507SOL    HW124983   4.281   1.590  16.575  0.6943  2.4486 -1.2441
 4507SOL    HW224984   4.276   1.440  16.559 -0.8848  0.2853 -0.8773
 4508SOL     OW24985   3.249   1.697   9.634 -0.8131  0.2113  0.5328
 4508SOL    HW124986   3.295   1.632   9.687  0.5617 -0.2561 -1.2184
 4508SOL    HW224987   3.238   1.655   9.549 -0.3825  3.0835 -0.9516
 4509SOL     OW24988   4.478   0.358  15.210  0.3740  0.3050  0.2379
 4509SOL    HW124989   4.573   0.347  15.213  0.7037  3.3587  0.8550
 4509SOL    HW224990   4.445   0.272  15.236 -0.3689 -0.1432 -2.1681
 4510SOL     OW24991   4.488   3.535   7.577  0.0465 -0.3693  0.4893
 4510SOL    HW124992   4.425   3.595   7.538  0.0864  0.1989  1.2840
 4510SOL    HW224993   4.431   3.459   7.568 -0.8430 -0.0232  3.1820
 4511SOL     OW24994   4.339   0.634   6.946 -0.2029 -0.1568 -0.1766
 4511SOL    HW124995   4.330   0.579   7.025 -0.4144  0.7021  0.3977
 4511SOL    HW224996   4.399   0.697   6.985 -0.4240  0.5931 -1.0725
 4512SOL     OW24997   4.001   0.050   6.620 -0.3323 -0.0814 -0.1607
 4512SOL    HW124998   4.029   0.129   6.666 -1.4067  0.5170 -0.5378
 4512SOL    HW224999   3.913   0.066   6.584 -0.9108 -1.0925  0.8115
 4513SOL     OW25000   0.646   0.019   5.558 -0.0142 -0.4110 -0.1588
 4513SOL    HW125001   0.696   4.665   5.525  1.1784 -0.1187  0.9888
 4513SOL    HW225002   0.565   4.701   5.591  0.7808 -0.0486  2.2410
 4514SOL     OW25003   1.665   3.755   1.374 -0.5085  0.2867 -0.1054
 4514SOL    HW125004   1.733   3.821   1.389 -0.1704  0.3018 -1.7207
 4514SOL    HW225005   1.596   3.798   1.325  0.2972  1.3259 -0.3187
 4515SOL     OW25006   1.838   3.089   5.400 -0.1065 -0.8104 -0.1754
 4515SOL    HW125007   1.915   3.144   5.386  0.0269 -1.6871 -2.9010
 4515SOL    HW225008   1.849   3.014   5.342 -0.4443 -1.7844  1.0041
 4516SOL     OW25009   3.009   3.963   8.430 -0.7007  0.3986 -0.3536
 4516SOL    HW125010   2.941   3.899   8.452  0.9456 -1.3414 -0.3729
 4516SOL    HW225011   2.967   4.047   8.407  0.2748  0.4036 -2.1490
 4517SOL     OW25012   1.627   3.825  11.183  0.5597 -0.6627  0.3585
 4517SOL    HW125013   1.660   3.896  11.238  0.5151 -0.2159 -0.1877
 4517SOL    HW225014   1.568   3.863  11.117  1.0056  0.3606  0.5466
 4518SOL     OW25015   4.378   3.015   8.142 -0.1905 -0.1939  0.1721
 4518SOL    HW125016   4.471   2.997   8.135  0.2648  1.2267  2.3972
 4518SOL    HW225017   4.361   3.040   8.051 -0.4916  0.6917  0.4649
 4519SOL     OW25018   4.699   1.923   7.108 -0.2123 -0.1544  0.5821
 4519SOL    HW125019   0.040   1.880   7.167 -0.4100 -1.1079  0.1063
 4519SOL    HW225020   0.036   1.915   7.033 -0.1218  0.9896  0.5292
 4520SOL     OW25021   3.606   1.803   4.920  0.2313 -0.2352  0.1802
 4520SOL    HW125022   3.546   1.736   4.886  2.0748 -1.6469 -0.2991
 4520SOL    HW225023   3.657   1.771   4.994  0.6835 -0.7255 -0.3448
 4521SOL     OW25024   0.792   2.214  13.967 -0.3234  0.1337 -0.1183
 4521SOL    HW125025   0.846   2.260  14.031  0.6542 -0.1016 -0.7674
 4521SOL    HW225026   0.856   2.183  13.903  0.3099  1.6051 -0.2142
 4522SOL     OW25027   4.301   4.176   3.869  0.4516  0.1583  0.1143
 4522SOL    HW125028   4.270   4.184   3.959 -0.5838  0.6581 -0.2917
 4522SOL    HW225029   4.324   4.268   3.857 -0.3821  0.3447  0.0156
 4523SOL     OW25030   1.739   2.422   0.380 -0.9087  0.0573  0.1996
 4523SOL    HW125031   1.647   2.449   0.375 -0.5679  1.4985  1.6696
 4523SOL    HW225032   1.732   2.327   0.392  1.0087 -0.1528 -0.4498
 4524SOL     OW25033   0.909   2.821   7.599  0.1200  0.3242  0.2284
 4524SOL    HW125034   0.833   2.855   7.552 -0.5046  1.3141  1.9430
 4524SOL    HW225035   0.867   2.771   7.669  2.4567 -0.5519  1.0243
 4525SOL     OW25036   4.557   3.827   6.895  0.0652  0.2886  0.1403
 4525SOL    HW125037   4.583   3.769   6.967 -1.9780 -1.8497 -0.8228
 4525SOL    HW225038   4.548   3.751   6.837  2.1870  0.8458 -0.9346
 4526SOL     OW25039   0.815   4.660  11.718  0.0788 -0.4127  0.3160
 4526SOL    HW125040   0.780   4.582  11.761 -1.0032 -0.3481 -0.4614
 4526SOL    HW225041   0.902   4.672  11.757  2.8726 -2.4397 -5.3377
 4527SOL     OW25042   1.029   2.958   7.226  0.2354  0.6222 -0.0501
 4527SOL    HW125043   0.960   2.892   7.234  0.8680  0.0073  0.3337
 4527SOL    HW225044   0.965   3.028   7.222  0.8274  1.2177  0.9335
 4528SOL     OW25045   2.380   3.168   5.765  0.1952 -0.0944 -0.4574
 4528SOL    HW125046   2.383   3.097   5.701  0.7644  0.2272 -0.7792
 4528SOL    HW225047   2.475   3.175   5.774  0.4601 -2.6052 -1.1055
 4529SOL     OW25048   2.459   0.636  12.652 -0.2659  0.1409  0.0322
 4529SOL    HW125049   2.446   0.612  12.743  0.1930 -1.0615 -0.2150
 4529SOL    HW225050   2.364   0.637  12.635 -0.3507  0.0171  0.5027
 4530SOL     OW25051   1.150   0.131  12.281 -0.0091  0.0461 -0.3152
 4530SOL    HW125052   1.228   0.153  12.332 -0.1787 -0.8232  0.3119
 4530SOL    HW225053   1.080   0.192  12.306 -0.9490 -0.7403 -1.0519
 4531SOL     OW25054   4.545   3.416   5.563  0.6468 -0.1193  0.1673
 4531SOL    HW125055   4.524   3.425   5.656 -0.6559 -1.0077 -0.0558
 4531SOL    HW225056   4.459   3.447   5.536 -0.7358 -3.1618  1.0731
 4532SOL     OW25057   2.557   2.061   2.179 -0.3422  0.7092  0.0875
 4532SOL    HW125058   2.596   2.120   2.243  0.5360  1.6967 -1.3440
 4532SOL    HW225059   2.520   2.122   2.115 -0.6079 -0.3780 -0.7979
 4533SOL     OW25060   0.360   0.309   3.459  0.0355 -0.7106  0.3448
 4533SOL    HW125061   0.390   0.282   3.372 -1.0612 -1.0939  0.0730
 4533SOL    HW225062   0.298   0.239   3.480 -1.1718  0.5158  0.9048
 4534SOL     OW25063   0.466   1.700   7.618 -0.3133 -0.1805 -0.4706
 4534SOL    HW125064   0.533   1.637   7.594 -0.0233  0.6166 -1.7207
 4534SOL    HW225065   0.492   1.740   7.701 -1.8194  1.5222 -0.8144
 4535SOL     OW25066   2.029   4.137   4.867 -0.4761  0.6106  0.0000
 4535SOL    HW125067   1.991   4.156   4.952  1.0971 -0.0417  0.8398
 4535SOL    HW225068   2.068   4.051   4.885 -0.4107  0.7735  0.6005
 4536SOL     OW25069   3.517   1.269  12.814  0.0910  0.3709 -0.4618
 4536SOL    HW125070   3.612   1.276  12.826 -0.1869 -2.2365  3.4126
 4536SOL    HW225071   3.497   1.178  12.835  0.0430  0.8526  1.5788
 4537SOL     OW25072   4.606   0.903   3.140 -0.0759 -1.1176 -0.1003
 4537SOL    HW125073   4.642   0.988   3.117 -1.7408 -0.0315  1.3859
 4537SOL    HW225074   4.669   0.844   3.097  1.6988 -0.4166  1.5029
 4538SOL     OW25075   2.455   3.703  13.539 -0.1743 -0.2829  0.3331
 4538SOL    HW125076   2.437   3.632  13.601  1.7811  0.5892  1.9319
 4538SOL    HW225077   2.394   3.669  13.474  0.7783 -0.6795 -0.3668
 4539SOL     OW25078   0.694   2.356  16.650  0.2279 -0.4668 -0.4226
 4539SOL    HW125079   0.705   2.309  16.567 -0.3442 -0.3968 -0.5381
 4539SOL    HW225080   0.779   2.342  16.692  0.0585  3.6280  1.2857
 4540SOL     OW25081   0.818   1.398  14.781  0.3901  0.0501  0.1433
 4540SOL    HW125082   0.870   1.317  14.781 -0.1063 -0.2680  0.3795
 4540SOL    HW225083   0.830   1.438  14.695 -0.6764  1.0062  0.4363
 4541SOL     OW25084   0.575   0.400   4.269 -0.2712  0.0314  0.1800
 4541SOL    HW125085   0.610   0.489   4.269 -1.2483  0.4134  2.4661
 4541SOL    HW225086   0.549   0.394   4.177  0.1175  0.9211  0.0160
 4542SOL     OW25087   1.387   3.926   7.703  0.4732  0.3429 -0.4004
 4542SOL    HW125088   1.451   3.971   7.649  1.7684 -2.1581 -0.9515
 4542SOL    HW225089   1.443   3.896   7.775  0.3264  1.2156  0.0748
 4543SOL     OW25090   0.215   3.758   5.994 -0.0881 -0.0203  1.0263
 4543SOL    HW125091   0.191   3.750   6.087 -0.2379  1.2254  1.0896
 4543SOL    HW225092   0.135   3.729   5.950 -0.4115 -0.0707  1.6466
 4544SOL     OW25093   3.966   2.175  12.263 -0.0490  0.2122  0.1826
 4544SOL    HW125094   4.019   2.255  12.263 -0.7100  0.6586  0.4285
 4544SOL    HW225095   4.000   2.118  12.194  0.9512  1.3243 -0.2444
 4545SOL     OW25096   3.293   4.464   2.788  0.3859  0.2863  0.3466
 4545SOL    HW125097   3.354   4.407   2.835 -0.0767 -1.0760 -0.7150
 4545SOL    HW225098   3.223   4.410   2.752 -0.5735  2.4622 -1.0282
 4546SOL     OW25099   2.210   3.281  11.953  0.3011  0.8396 -0.4682
 4546SOL    HW125100   2.218   3.353  12.015  1.5731 -0.4434  0.8520
 4546SOL    HW225101   2.128   3.242  11.981  0.2836  1.1656 -0.0667
 4547SOL     OW25102   4.671   1.095   6.325 -0.1533  0.0057  0.8585
 4547SOL    HW125103   4.699   1.059   6.410  2.0071 -0.2803  0.0140
 4547SOL    HW225104   0.026   1.076   6.269 -1.9332  0.4917 -1.7112
 4548SOL     OW25105   1.645   3.203   6.083  0.0718  0.1648  0.1109
 4548SOL    HW125106   1.694   3.175   6.160  0.6853  0.9267 -0.0012
 4548SOL    HW225107   1.666   3.129   6.027  0.7331  1.8968 -1.9014
 4549SOL     OW25108   3.099   2.979   0.560 -0.4814 -0.5896 -0.1732
 4549SOL    HW125109   3.055   3.026   0.489  0.1505 -1.3900 -1.0965
 4549SOL    HW225110   3.027   2.971   0.623 -0.1716  0.1012  0.2708
 4550SOL     OW25111   1.758   2.640  16.143  0.1857  0.2567  0.1542
 4550SOL    HW125112   1.733   2.581  16.214 -1.0712 -0.0686 -0.5687
 4550SOL    HW225113   1.851   2.652  16.161  0.0915  3.3331 -1.4175
 4551SOL     OW25114   4.567   2.779   2.755 -0.4352 -0.2529  0.2320
 4551SOL    HW125115   4.502   2.739   2.698 -2.2203  2.1289  0.6113
 4551SOL    HW225116   4.643   2.736   2.715  1.6013  1.3734  2.3623
 4552SOL     OW25117   3.441   4.320   7.363  0.2952  0.3895  0.8009
 4552SOL    HW125118   3.354   4.281   7.349  0.4507 -0.8541  3.2052
 4552SOL    HW225119   3.497   4.282   7.295 -0.1731  0.6339  0.2766
 4553SOL     OW25120   2.623   1.633   9.028 -0.0825  0.3005 -0.0737
 4553SOL    HW125121   2.551   1.576   9.001 -0.7903  1.2104 -0.1351
 4553SOL    HW225122   2.598   1.664   9.116  0.8535  1.0957 -0.0860
 4554SOL     OW25123   3.620   0.174  12.373  0.0500  0.2477 -0.0716
 4554SOL    HW125124   3.525   0.163  12.371 -0.0009  0.9757 -1.8119
 4554SOL    HW225125   3.649   0.083  12.365 -1.8889 -0.4168  0.5041
 4555SOL     OW25126   3.042   1.455   1.653 -0.1594 -0.2647 -0.5950
 4555SOL    HW125127   3.067   1.540   1.690  2.3583 -1.5720  0.7730
 4555SOL    HW225128   3.129   1.417   1.639  0.4257  2.1329 -3.3258
 4556SOL     OW25129   2.783   1.088   7.514 -0.2121  0.6422 -0.1669
 4556SOL    HW125130   2.783   1.146   7.589 -0.4934  0.2960  0.1038
 4556SOL    HW225131   2.687   1.086   7.509 -0.1217  1.9326 -2.3403
 4557SOL     OW25132   1.628   1.004   7.781  0.3029 -0.3033  0.5201
 4557SOL    HW125133   1.684   1.064   7.732 -0.2907 -1.2440 -1.2926
 4557SOL    HW225134   1.679   1.009   7.862  0.3100 -0.2712  0.5135
 4558SOL     OW25135   1.686   1.165  17.410 -0.2039  0.0216  0.0701
 4558SOL    HW125136   1.695   1.070  17.419 -1.4932 -0.0382  0.6368
 4558SOL    HW225137   1.671   1.193  17.500  2.1683  0.1522  0.4381
 4559SOL     OW25138   2.613   4.323   2.403  0.2051  0.3054 -0.5296
 4559SOL    HW125139   2.617   4.375   2.323  1.1106  1.5203  0.3129
 4559SOL    HW225140   2.592   4.242   2.356 -0.2878 -0.1894  0.5381
 4560SOL     OW25141   2.971   0.956   3.806 -0.1245 -0.0404  0.4805
 4560SOL    HW125142   2.900   0.996   3.757  0.0601  1.5962  1.5659
 4560SOL    HW225143   2.968   0.985   3.898  0.8470 -3.8676  1.7296
 4561SOL     OW25144   1.146   4.058   2.358  0.2270  0.4497  0.1300
 4561SOL    HW125145   1.123   4.033   2.447  4.3902  1.6095  1.5553
 4561SOL    HW225146   1.240   4.042   2.362  0.0384 -1.2198 -2.0116
 4562SOL     OW25147   4.441   0.707   8.932  0.1294 -0.0632  0.7217
 4562SOL    HW125148   4.522   0.659   8.950  0.1294 -0.2927  0.1044
 4562SOL    HW225149   4.425   0.729   9.024  0.7084 -2.1467  1.3330
 4563SOL     OW25150   4.578   1.023   4.267  0.0269  0.7121  0.3100
 4563SOL    HW125151   4.523   0.945   4.267  0.9088  0.0964  0.0711
 4563SOL    HW225152   4.530   1.068   4.337  0.3557  0.7485  0.5107
 4564SOL     OW25153   1.359   3.458  11.956  0.5636  0.2672 -0.2297
 4564SOL    HW125154   1.386   3.433  12.044  0.4147  0.3578 -0.1587
 4564SOL    HW225155   1.396   3.381  11.912  0.1873 -0.2811  0.4121
 4565SOL     OW25156   0.028   1.703  16.292  0.1691  0.2324  0.0109
 4565SOL    HW125157   4.680   1.670  16.234  0.9031 -1.5927  0.1560
 4565SOL    HW225158   0.084   1.627  16.309 -0.2324 -0.4318 -1.6368
 4566SOL     OW25159   4.017   2.039  17.641 -1.0306 -0.0413  0.3969
 4566SOL    HW125160   3.966   2.112  17.607 -0.8644  0.2296  0.7263
 4566SOL    HW225161   3.991   2.056   0.047  1.6072 -2.9882  1.7000
 4567SOL     OW25162   3.244   3.211   3.501 -0.0389 -0.0254 -0.1480
 4567SOL    HW125163   3.327   3.174   3.532 -0.5223 -1.0972 -0.1150
 4567SOL    HW225164   3.246   3.185   3.409 -0.1862  0.5794 -0.3157
 4568SOL     OW25165   4.135   3.423   7.366 -0.0462 -0.5379 -0.3806
 4568SOL    HW125166   4.052   3.382   7.391 -0.0526 -0.3529 -0.0982
 4568SOL    HW225167   4.108   3.505   7.325 -0.7367 -0.8288 -0.5108
 4569SOL     OW25168   4.310   3.530   1.714  0.8353 -0.4647  0.1149
 4569SOL    HW125169   4.377   3.547   1.780 -2.7335 -0.9015  3.7880
 4569SOL    HW225170   4.342   3.591   1.648 -1.4893  0.8752  0.2334
 4570SOL     OW25171   4.328   1.983   9.127 -0.4241  0.0247 -0.4274
 4570SOL    HW125172   4.304   1.956   9.216 -1.6656  1.9703 -0.1683
 4570SOL    HW225173   4.307   2.076   9.136  1.0008  0.5554 -2.4808
 4571SOL     OW25174   3.181   4.688   7.503 -0.1286  0.1069  0.2025
 4571SOL    HW125175   3.238   4.631   7.555  1.1044 -0.6821 -2.0441
 4571SOL    HW225176   3.194   4.640   7.421 -1.0670  0.3531 -0.0900
 4572SOL     OW25177   4.295   3.741   4.649  0.3068 -0.0779 -0.3189
 4572SOL    HW125178   4.349   3.736   4.570 -1.6513  1.3016 -1.7684
 4572SOL    HW225179   4.241   3.663   4.634 -1.5461  1.0637  0.4687
 4573SOL     OW25180   2.347   1.503   4.994  0.2921  0.0614 -0.7898
 4573SOL    HW125181   2.404   1.562   5.043 -0.1253  0.0187 -0.2461
 4573SOL    HW225182   2.328   1.562   4.922  0.4154  1.6690  0.5102
 4574SOL     OW25183   4.163   1.262   6.932  0.0024 -0.0591 -0.2966
 4574SOL    HW125184   4.105   1.325   6.974  0.0056 -1.4720  1.7857
 4574SOL    HW225185   4.226   1.332   6.910 -1.6314  1.2730 -0.7165
 4575SOL     OW25186   3.234   1.259   5.903 -0.0379  0.5610  0.1457
 4575SOL    HW125187   3.325   1.290   5.896 -0.4651  1.8693  0.3274
 4575SOL    HW225188   3.182   1.302   5.835 -1.0866  0.2401  0.7578
 4576SOL     OW25189   4.420   3.454   2.499 -0.2401 -0.2770 -0.1602
 4576SOL    HW125190   4.371   3.372   2.511  0.9056 -0.7328  1.4999
 4576SOL    HW225191   4.401   3.472   2.407 -1.9737 -0.8407  0.0867
 4577SOL     OW25192   4.122   0.285   0.133 -0.1655 -0.0958 -0.5689
 4577SOL    HW125193   4.112   0.192   0.154 -0.5004 -0.1564 -0.9920
 4577SOL    HW225194   4.217   0.286   0.125 -0.0815  1.7173  0.8068
 4578SOL     OW25195   4.362   1.585  12.355 -0.7746  0.2707  0.0983
 4578SOL    HW125196   4.315   1.502  12.341  0.4375 -0.4077 -0.0040
 4578SOL    HW225197   4.381   1.583  12.449 -1.4014  2.8548  0.2561
 4579SOL     OW25198   0.080   1.071   7.894 -0.2197  0.0376 -0.5608
 4579SOL    HW125199   0.040   1.121   7.966  0.7098 -0.7667  0.5033
 4579SOL    HW225200   0.171   1.100   7.890 -0.5558  0.9245 -1.8180
 4580SOL     OW25201   0.552   2.902   5.247  0.5929 -0.1475  0.1380
 4580SOL    HW125202   0.639   2.912   5.208  0.1603 -1.5511 -1.1628
 4580SOL    HW225203   0.562   2.923   5.340  0.5965  4.8202 -1.0244
 4581SOL     OW25204   2.155   0.648   3.019  0.3123  0.1348  0.1229
 4581SOL    HW125205   2.161   0.620   2.928 -0.4207  1.2691 -0.2679
 4581SOL    HW225206   2.113   0.734   3.016  3.5501  1.5884 -3.0531
 4582SOL     OW25207   1.040   3.269   9.142 -0.3169  0.0217 -0.3271
 4582SOL    HW125208   1.093   3.198   9.176  1.0657 -0.0840 -2.7142
 4582SOL    HW225209   1.077   3.335   9.200 -0.5418 -0.1372  0.0003
 4583SOL     OW25210   1.155   4.643   7.023 -0.0160 -0.7632 -0.5321
 4583SOL    HW125211   1.119   4.556   7.037  1.1525 -0.8441  2.0264
 4583SOL    HW225212   1.152   4.676   7.112 -0.7319 -0.7107 -0.5814
 4584SOL     OW25213   4.306   3.426  15.225 -0.2793  0.5940 -0.5498
 4584SOL    HW125214   4.319   3.469  15.141  0.4101  0.7912 -0.3451
 4584SOL    HW225215   4.303   3.497  15.289  1.8226  0.9128 -0.8008
 4585SOL     OW25216   1.903   0.400   8.418 -0.5137  0.7201  0.1382
 4585SOL    HW125217   1.947   0.471   8.464 -0.4492  1.3675 -0.9245
 4585SOL    HW225218   1.845   0.447   8.358 -1.7871 -0.0496  0.7811
 4586SOL     OW25219   1.488   0.209   6.306 -0.0088 -0.0327 -0.8304
 4586SOL    HW125220   1.501   0.258   6.387  0.7483 -0.8538 -0.4509
 4586SOL    HW225221   1.567   0.158   6.320 -1.0299 -0.9381  1.6117
 4587SOL     OW25222   1.456   1.855  11.951  0.6259 -0.2726  0.0463
 4587SOL    HW125223   1.508   1.873  12.029  1.7715 -1.9295 -0.3316
 4587SOL    HW225224   1.391   1.925  11.954  0.2847 -0.5147 -1.4553
 4588SOL     OW25225   0.147   0.295   6.585  0.6150  0.2249  0.4783
 4588SOL    HW125226   0.133   0.369   6.526 -0.2783  1.0324  1.7058
 4588SOL    HW225227   0.242   0.298   6.578  0.6207  1.0418  0.8045
 4589SOL     OW25228   2.088   4.598   4.282 -0.5351 -0.5869 -0.6565
 4589SOL    HW125229   2.035   4.538   4.229 -2.4559 -0.9020  1.6353
 4589SOL    HW225230   2.141   4.537   4.334 -2.2638 -1.3743  0.1618
 4590SOL     OW25231   0.919   2.108   7.069  0.6376 -0.0781  0.4578
 4590SOL    HW125232   0.963   2.179   7.022  2.5923  0.1417  2.6104
 4590SOL    HW225233   0.985   2.057   7.117 -0.9173 -0.4550  2.1956
 4591SOL     OW25234   2.283   2.302   1.823  0.2474 -0.0853 -0.5112
 4591SOL    HW125235   2.212   2.253   1.865 -0.8463  1.8431 -0.1339
 4591SOL    HW225236   2.259   2.293   1.731 -1.4476  3.0608 -0.3739
 4592SOL     OW25237   0.676   1.318   3.170 -0.2031  0.5922 -0.2294
 4592SOL    HW125238   0.751   1.375   3.185 -0.9409  1.4477  0.1628
 4592SOL    HW225239   0.614   1.368   3.223 -0.6430 -0.0429 -0.1481
 4593SOL     OW25240   2.680   3.381   3.126 -0.4527 -0.0131  0.0943
 4593SOL    HW125241   2.774   3.373   3.112 -0.0807  2.7290  0.8511
 4593SOL    HW225242   2.658   3.403   3.036 -0.7613 -1.5869 -0.2101
 4594SOL     OW25243   4.495   4.085   6.762  0.1813  0.3864  0.0083
 4594SOL    HW125244   4.497   4.053   6.672 -2.3960  3.0293 -0.9791
 4594SOL    HW225245   4.513   4.004   6.810 -1.0002  0.0251 -0.1790
 4595SOL     OW25246   4.536   2.946  14.661 -0.4396 -0.8653  0.1779
 4595SOL    HW125247   4.526   2.869  14.605  0.9740 -0.3028 -0.8452
 4595SOL    HW225248   4.536   3.012  14.592 -3.2985 -0.7287  0.2765
 4596SOL     OW25249   4.165   4.435   5.870 -0.2192  0.3241 -0.3939
 4596SOL    HW125250   4.216   4.516   5.878  0.3157  0.0546 -1.0929
 4596SOL    HW225251   4.139   4.433   5.778 -0.9082  0.7874 -0.2070
 4597SOL     OW25252   2.939   0.171   7.568 -0.1354 -0.7870 -0.3450
 4597SOL    HW125253   2.962   0.163   7.475 -1.0398 -2.1935 -0.4349
 4597SOL    HW225254   3.019   0.143   7.612  1.7393 -0.3493 -3.4675
 4598SOL     OW25255   3.741   4.033  11.784  0.0561  0.0349 -0.6717
 4598SOL    HW125256   3.817   3.978  11.800  0.2463  1.0049  1.7929
 4598SOL    HW225257   3.753   4.081  11.702  1.3870  1.4361  0.3466
 4599SOL     OW25258   1.901   1.088   7.648 -0.4451  0.2055 -0.3106
 4599SOL    HW125259   1.887   1.019   7.584  2.0045 -1.1765  0.6565
 4599SOL    HW225260   1.976   1.140   7.618  0.5681 -0.0748  1.7215
 4600SOL     OW25261   2.980   1.807   3.050 -0.0839  0.2294 -0.5306
 4600SOL    HW125262   2.980   1.713   3.065 -0.1609 -0.0704 -2.4063
 4600SOL    HW225263   2.891   1.828   3.023 -0.1470  0.3771 -0.2095
 4601SOL     OW25264   1.018   1.711   8.376 -0.3083  0.2222 -0.2471
 4601SOL    HW125265   1.048   1.780   8.435 -0.9711  0.3180 -0.0180
 4601SOL    HW225266   1.067   1.642   8.420  0.9163  1.2312 -0.0381
 4602SOL     OW25267   3.978   4.612  14.006 -0.1676  0.1231  0.1146
 4602SOL    HW125268   3.907   4.548  13.998 -1.3773  1.6528 -1.5401
 4602SOL    HW225269   3.942   4.685  14.056  0.3220 -1.0745  2.2138
 4603SOL     OW25270   2.442   2.719   4.316 -0.5395 -0.3561  0.4443
 4603SOL    HW125271   2.406   2.683   4.235  0.1228 -1.2048  0.5257
 4603SOL    HW225272   2.527   2.677   4.328 -0.0957 -0.5291 -3.4198
 4604SOL     OW25273   0.604   2.982   4.105 -0.5381  0.0699  0.2411
 4604SOL    HW125274   0.524   2.932   4.091 -0.8656  0.5796  0.2757
 4604SOL    HW225275   0.604   3.028   4.021  0.2860 -0.1037  0.1440
 4605SOL     OW25276   3.683   1.891   3.356  0.0937 -0.1620 -0.3017
 4605SOL    HW125277   3.618   1.868   3.288  1.7265  0.0564 -1.9358
 4605SOL    HW225278   3.666   1.982   3.378  4.4414  0.5906 -0.1502
 4606SOL     OW25279   0.642   3.155  13.542 -0.0439  0.3845 -0.5474
 4606SOL    HW125280   0.617   3.248  13.549 -1.0354  0.3114 -3.1750
 4606SOL    HW225281   0.567   3.118  13.588 -1.2962  1.7657 -1.4471
 4607SOL     OW25282   2.308   2.056   3.207  0.3061 -0.3886 -0.5370
 4607SOL    HW125283   2.305   2.130   3.147  1.1802 -0.3260 -0.5056
 4607SOL    HW225284   2.290   2.096   3.292  0.3474 -3.1632  0.7858
 4608SOL     OW25285   2.870   2.407  14.575 -0.3075 -0.3443  0.4858
 4608SOL    HW125286   2.861   2.315  14.548  1.1100 -0.2339 -0.3129
 4608SOL    HW225287   2.869   2.458  14.494  0.4693  2.4279  2.2325
 4609SOL     OW25288   2.357   1.928   1.900 -0.0775  0.2707  0.1085
 4609SOL    HW125289   2.307   1.947   1.820 -0.7645 -0.3387  0.3835
 4609SOL    HW225290   2.439   1.975   1.885  1.6768 -3.0920 -0.8915
 4610SOL     OW25291   0.687   0.542   7.125 -0.6447 -0.7312  0.0152
 4610SOL    HW125292   0.619   0.509   7.183 -0.2099 -2.0777 -0.2202
 4610SOL    HW225293   0.740   0.607   7.171 -1.2925 -0.8884  0.9638
 4611SOL     OW25294   3.215   2.309  14.989 -0.2728  0.5755  0.4476
 4611SOL    HW125295   3.205   2.225  14.944 -1.1811  0.8685  0.0950
 4611SOL    HW225296   3.173   2.361  14.921  0.2853  0.6544  0.1585
 4612SOL     OW25297   2.088   0.195  16.112 -0.0290  0.4420  0.1337
 4612SOL    HW125298   2.043   0.185  16.028  1.9092 -0.6977 -0.7594
 4612SOL    HW225299   2.175   0.156  16.105 -1.1352 -2.4472  2.1479
 4613SOL     OW25300   2.571   1.952   5.427 -0.1853 -0.1026 -0.1220
 4613SOL    HW125301   2.663   1.947   5.454  0.1344 -0.4799 -1.3184
 4613SOL    HW225302   2.526   1.967   5.511  1.8464  0.7705  0.8067
 4614SOL     OW25303   1.116   2.421   8.496  0.4497  0.5969  0.3449
 4614SOL    HW125304   1.108   2.459   8.583 -1.0797 -0.4761  0.6866
 4614SOL    HW225305   1.031   2.430   8.452 -0.1106  1.4807  1.6140
 4615SOL     OW25306   1.361   2.899   1.022 -0.5893 -0.2814  0.1301
 4615SOL    HW125307   1.333   2.964   1.087 -2.3380  0.1232 -1.0140
 4615SOL    HW225308   1.279   2.887   0.974 -1.2930 -1.3979  1.6022
 4616SOL     OW25309   4.599   1.971   9.095 -0.5629  0.6299  0.0406
 4616SOL    HW125310   4.579   2.059   9.062 -1.1549  0.2960 -0.4950
 4616SOL    HW225311   4.513   1.929   9.090 -1.3408  2.1987  0.1912
 4617SOL     OW25312   1.598   4.401   4.196 -0.9022  0.0326 -0.4584
 4617SOL    HW125313   1.585   4.484   4.151 -0.6849  0.1675 -0.2682
 4617SOL    HW225314   1.588   4.338   4.124  1.8075 -2.1796  1.0640
 4618SOL     OW25315   3.393   2.557   8.046 -0.0920  0.4448 -0.3887
 4618SOL    HW125316   3.442   2.533   7.968 -1.4532 -2.5300 -0.3170
 4618SOL    HW225317   3.389   2.472   8.090 -0.8205 -0.7171 -2.7134
 4619SOL     OW25318   3.644   1.580  12.745 -0.0896 -0.1419  0.7108
 4619SOL    HW125319   3.570   1.545  12.696 -0.7161  1.3846  0.5718
 4619SOL    HW225320   3.619   1.671  12.734  1.6331  0.1817 -0.5589
 4620SOL     OW25321   0.495   4.367  15.575 -0.0070  0.5043 -0.4965
 4620SOL    HW125322   0.439   4.407  15.508  1.4963  1.5804 -1.0968
 4620SOL    HW225323   0.572   4.349  15.523  0.4641  0.9892  0.0304
 4621SOL     OW25324   1.680   0.737   3.190  0.2136 -0.2064  0.8264
 4621SOL    HW125325   1.724   0.821   3.204 -1.7810  0.8706  0.6765
 4621SOL    HW225326   1.670   0.702   3.279  0.0969 -1.5490  0.2896
 4622SOL     OW25327   1.361   0.966   8.040  0.1321  0.8918 -0.0436
 4622SOL    HW125328   1.445   0.933   8.072 -1.1954 -1.2725  1.2047
 4622SOL    HW225329   1.299   0.896   8.060  1.8413 -1.2577 -2.1037
 4623SOL     OW25330   3.041   4.573   2.198 -0.2931  0.0679 -0.5437
 4623SOL    HW125331   3.012   4.661   2.172 -0.0603  0.2297 -0.2452
 4623SOL    HW225332   3.096   4.603   2.269 -0.1940  0.5245 -0.8136
 4624SOL     OW25333   2.293   4.708   1.383  0.0033  0.4047  0.1182
 4624SOL    HW125334   2.385   0.006   1.399  0.5533 -0.0741 -2.3872
 4624SOL    HW225335   2.265   4.658   1.459  0.3188 -2.8418 -1.9175
 4625SOL     OW25336   0.337   3.586   2.134  0.6643 -0.0453  0.1151
 4625SOL    HW125337   0.333   3.572   2.228  2.5685 -0.7391  0.0953
 4625SOL    HW225338   0.409   3.524   2.122  0.7577  0.2825 -1.0174
 4626SOL     OW25339   0.363   3.620   6.332 -0.1375 -0.0249 -0.7993
 4626SOL    HW125340   0.285   3.593   6.382  1.2716 -0.9321  0.9070
 4626SOL    HW225341   0.372   3.546   6.273 -1.0325  0.4195 -1.4923
 4627SOL     OW25342   2.138   2.730  16.981  0.1426 -0.4162  0.3883
 4627SOL    HW125343   2.071   2.798  16.979 -1.2160 -1.7046  2.4310
 4627SOL    HW225344   2.164   2.743  17.073 -1.0057  1.0771  0.4925
 4628SOL     OW25345   4.534   0.194   3.889  0.2855 -0.1810  0.3644
 4628SOL    HW125346   4.487   0.270   3.855  0.7534  0.5897  1.4560
 4628SOL    HW225347   4.498   0.179   3.976  0.9870 -1.7934  0.3806
 4629SOL     OW25348   2.680   0.205  11.873  0.4316 -0.4817  0.2431
 4629SOL    HW125349   2.606   0.163  11.917 -0.7808  0.7762 -0.5909
 4629SOL    HW225350   2.757   0.153  11.896  1.3747  0.0068 -1.7523
 4630SOL     OW25351   2.362   3.493  13.686 -0.5419 -0.0812 -0.0787
 4630SOL    HW125352   2.314   3.482  13.768 -2.2089 -1.1503 -1.2224
 4630SOL    HW225353   2.316   3.431  13.630  0.1612 -1.5187  0.9232
 4631SOL     OW25354   1.095   0.244   9.415  0.0363 -0.3814 -0.0342
 4631SOL    HW125355   1.044   0.265   9.493 -1.3334 -0.0068 -1.0301
 4631SOL    HW225356   1.049   0.286   9.343  0.5516  0.5165  0.1565
 4632SOL     OW25357   3.821   2.270   3.133 -0.5235 -0.0825 -0.0290
 4632SOL    HW125358   3.794   2.259   3.042  2.3647 -1.3762 -0.7170
 4632SOL    HW225359   3.840   2.364   3.139 -0.0119 -0.3225  2.3739
 4633SOL     OW25360   1.878   1.484  11.507  0.1085  0.4864  0.2701
 4633SOL    HW125361   1.930   1.418  11.462 -0.3202  0.5194 -0.2773
 4633SOL    HW225362   1.952   1.533  11.543  2.6944 -1.0573 -2.9145
 4634SOL     OW25363   1.286   2.952  13.133 -0.5787  0.1102  0.4760
 4634SOL    HW125364   1.317   3.042  13.139  0.2271 -0.0727 -0.9125
 4634SOL    HW225365   1.323   2.920  13.051 -2.5096  1.1116 -0.7954
 4635SOL     OW25366   0.359   2.605   0.343 -0.1102 -0.4938 -0.1092
 4635SOL    HW125367   0.410   2.525   0.337  0.9617 -0.1306  4.1074
 4635SOL    HW225368   0.295   2.581   0.411 -0.6612 -2.1149 -1.1996
 4636SOL     OW25369   0.316   0.128   2.789  0.2244 -0.7106 -0.2802
 4636SOL    HW125370   0.407   0.112   2.764  0.5660 -0.9927  1.1400
 4636SOL    HW225371   0.265   0.072   2.731  0.3443 -1.3733  0.2509
 4637SOL     OW25372   4.634   0.729  11.529 -0.4442 -0.0654  0.5202
 4637SOL    HW125373   4.634   0.719  11.624  1.6669 -0.1010  0.4961
 4637SOL    HW225374   4.566   0.664  11.510  0.7986 -0.9108 -1.0468
 4638SOL     OW25375   1.732   0.883   7.126 -0.1460 -0.1536 -0.3015
 4638SOL    HW125376   1.657   0.883   7.066  0.4331  1.1453 -1.0443
 4638SOL    HW225377   1.742   0.788   7.136 -1.7248 -0.0204  2.3383
 4639SOL     OW25378   0.310   1.795   2.107 -0.0239 -0.5440 -0.0085
 4639SOL    HW125379   0.307   1.807   2.012  2.1345  2.0921  0.2546
 4639SOL    HW225380   0.340   1.705   2.107  1.0487 -0.1871  0.4075
 4640SOL     OW25381   2.047   0.282  13.389  0.7230  0.4754  0.0650
 4640SOL    HW125382   2.119   0.308  13.332  1.5652  1.6945  1.6669
 4640SOL    HW225383   2.017   0.367  13.422 -0.3100 -0.0322  0.4444
 4641SOL     OW25384   3.369   2.214   2.248 -0.3275  0.3497  0.6138
 4641SOL    HW125385   3.333   2.282   2.305 -2.1764 -0.7272  0.7108
 4641SOL    HW225386   3.293   2.156   2.252 -0.7406  0.7973 -0.8326
 4642SOL     OW25387   4.301   3.171   4.008  0.4064  0.2850 -0.0169
 4642SOL    HW125388   4.333   3.251   3.966  3.1993 -0.7341  0.1214
 4642SOL    HW225389   4.308   3.191   4.101  0.1966  0.2645  0.0033
 4643SOL     OW25390   2.829   4.245  17.527  0.1199  0.2902 -0.4050
 4643SOL    HW125391   2.738   4.245  17.557  0.6374  2.0734  1.2339
 4643SOL    HW225392   2.877   4.196  17.594  0.0991  0.5455 -0.2038
 4644SOL     OW25393   0.941   2.766   4.685 -0.2473 -0.2278 -0.6477
 4644SOL    HW125394   0.964   2.725   4.769 -0.0219 -1.3524 -1.2616
 4644SOL    HW225395   1.019   2.730   4.641  0.2091  0.5240 -0.4514
 4645SOL     OW25396   4.002   3.514   5.727  0.1082 -0.1610 -0.0843
 4645SOL    HW125397   3.975   3.422   5.722 -1.7110  0.5553 -3.2447
 4645SOL    HW225398   4.089   3.506   5.766  0.0738 -2.4766 -0.4688
 4646SOL     OW25399   3.857   1.556   4.115 -0.3813  0.5599 -0.3058
 4646SOL    HW125400   3.803   1.478   4.130  0.1435  0.3353  0.3966
 4646SOL    HW225401   3.918   1.526   4.047  0.5525 -3.3522  2.2321
 4647SOL     OW25402   0.155   2.281   5.243  0.0230 -0.0885  0.3176
 4647SOL    HW125403   0.169   2.368   5.206 -0.1638 -1.0705 -2.0272
 4647SOL    HW225404   0.243   2.244   5.240 -0.0698 -0.3081  0.3316
 4648SOL     OW25405   1.858   1.879   6.736  0.0531  0.1526  0.3812
 4648SOL    HW125406   1.866   1.968   6.769  2.1219 -0.3053  1.1200
 4648SOL    HW225407   1.935   1.854   6.684 -0.9555 -0.6091 -0.7636
 4649SOL     OW25408   2.989   1.972   9.886 -0.1506  0.4214 -0.7492
 4649SOL    HW125409   3.028   1.884   9.888 -1.7284 -0.2591  0.2262
 4649SOL    HW225410   2.894   1.962   9.892  0.1090 -1.3214  0.3963
 4650SOL     OW25411   3.639   1.584   6.381 -0.3409  0.1255 -0.1144
 4650SOL    HW125412   3.681   1.616   6.460  1.5523  1.8620 -1.8236
 4650SOL    HW225413   3.697   1.510   6.364 -0.6369 -0.2862  0.6231
 4651SOL     OW25414   4.225   4.230  12.712  0.2452  0.0625 -0.4462
 4651SOL    HW125415   4.251   4.289  12.783  0.3839  0.6931 -1.0182
 4651SOL    HW225416   4.305   4.177  12.707  0.3030  0.0131  0.9195
 4652SOL     OW25417   4.286   3.577  16.529 -0.4911 -0.6903  0.0888
 4652SOL    HW125418   4.234   3.655  16.514 -1.1712 -0.7041  2.4153
 4652SOL    HW225419   4.335   3.603  16.607  0.5934  0.3141 -0.9231
 4653SOL     OW25420   3.192   0.326   3.664  0.3449  0.2855 -0.3203
 4653SOL    HW125421   3.142   0.400   3.697  0.3961 -0.9857  2.6298
 4653SOL    HW225422   3.134   0.279   3.604  0.3922 -0.1177 -0.0571
 4654SOL     OW25423   3.057   2.707  15.915  0.2235 -0.4035  0.2402
 4654SOL    HW125424   3.090   2.624  15.950 -1.2444 -0.9454  0.3490
 4654SOL    HW225425   3.022   2.741  15.997  1.3607  1.6215 -0.1053
 4655SOL     OW25426   4.269   0.623   6.054  0.3147  0.2374  0.2277
 4655SOL    HW125427   4.352   0.611   6.100  0.4122 -3.5585 -0.8630
 4655SOL    HW225428   4.206   0.586   6.115  1.3910 -1.2050  0.4731
 4656SOL     OW25429   1.527   2.801  11.607  0.0104  0.6920  0.4353
 4656SOL    HW125430   1.515   2.857  11.683 -0.2664 -1.0673  1.6783
 4656SOL    HW225431   1.445   2.816  11.559  0.1549  1.8616  0.5537
 4657SOL     OW25432   4.139   0.760   6.446 -0.4918 -0.9206 -0.4297
 4657SOL    HW125433   4.172   0.790   6.531 -1.7257 -1.5419  0.2672
 4657SOL    HW225434   4.216   0.753   6.390  0.4441  2.3773  0.4484
 4658SOL     OW25435   0.807   1.877  14.906  1.0020  0.2722 -0.0279
 4658SOL    HW125436   0.899   1.875  14.932  1.2436 -1.6396 -0.9999
 4658SOL    HW225437   0.785   1.786  14.883  0.5310  1.0681 -2.6512
 4659SOL     OW25438   4.358   1.714  12.925 -0.1632 -0.2549 -0.3320
 4659SOL    HW125439   4.289   1.657  12.959  0.9996 -0.4489  1.7241
 4659SOL    HW225440   4.414   1.656  12.874 -1.0954 -1.6001  0.1654
 4660SOL     OW25441   4.491   1.960  14.196  0.1024  0.0966 -0.1943
 4660SOL    HW125442   4.465   1.947  14.287 -1.6130  0.3648 -0.6439
 4660SOL    HW225443   4.583   1.987  14.203  0.5698 -1.8711  1.2986
 4661SOL     OW25444   2.370   0.502   6.643 -0.2960 -0.1245 -0.6097
 4661SOL    HW125445   2.383   0.417   6.686  0.7133  0.0760 -0.5158
 4661SOL    HW225446   2.458   0.541   6.650 -0.2495 -0.7067  2.4026
 4662SOL     OW25447   0.269   1.991   3.789 -0.3052  0.3282  0.1869
 4662SOL    HW125448   0.330   2.056   3.823 -0.2092 -0.7513  2.0779
 4662SOL    HW225449   0.198   2.012   3.850 -0.1367  1.4770 -0.0041
 4663SOL     OW25450   3.291   2.212   4.781  0.1882 -0.4207  0.2242
 4663SOL    HW125451   3.361   2.166   4.828 -1.2260 -1.8726  0.9217
 4663SOL    HW225452   3.271   2.140   4.722  3.2380 -0.4480 -0.7316
 4664SOL     OW25453   1.335   1.535  14.055 -0.0124 -0.0350  0.2141
 4664SOL    HW125454   1.409   1.591  14.031 -1.2564  1.4161 -0.2492
 4664SOL    HW225455   1.337   1.475  13.980  0.4996 -0.1570  0.3280
 4665SOL     OW25456   1.927   1.636  16.089 -0.4413  0.5849 -0.1965
 4665SOL    HW125457   1.978   1.559  16.063 -1.7709  0.2320 -1.7888
 4665SOL    HW225458   1.874   1.648  16.010  1.1769  1.8945 -1.0775
 4666SOL     OW25459   0.821   0.612   6.839 -0.3378  0.1409 -0.1201
 4666SOL    HW125460   0.738   0.602   6.885 -0.3251  1.9673  0.3236
 4666SOL    HW225461   0.877   0.641   6.911  0.7111 -0.7582 -0.5843
 4667SOL     OW25462   4.219   0.878   7.897  0.3085  0.3299 -0.2895
 4667SOL    HW125463   4.240   0.898   7.806  2.8771  0.3736  0.3226
 4667SOL    HW225464   4.218   0.782   7.899  1.0489  0.3144 -0.9638
 4668SOL     OW25465   2.004   4.585  17.567 -0.1083 -0.2938 -0.0649
 4668SOL    HW125466   1.956   4.641  17.507 -0.1521  0.6189  0.8262
 4668SOL    HW225467   1.935   4.528  17.602 -0.5764 -0.9046 -1.9878
 4669SOL     OW25468   2.500   1.408   2.760 -0.1638  0.3597  0.1711
 4669SOL    HW125469   2.425   1.368   2.716 -0.7728  1.1500  0.4984
 4669SOL    HW225470   2.542   1.328   2.793 -1.2487 -0.5749 -0.7122
 4670SOL     OW25471   1.474   4.705  10.654 -0.4120 -0.4506  0.2623
 4670SOL    HW125472   1.392   0.004  10.700 -1.7618  0.2865 -2.4100
 4670SOL    HW225473   1.528   0.053  10.692  0.2175 -0.6500 -0.2722
 4671SOL     OW25474   2.304   2.446   4.272  0.1971  0.1331 -0.1636
 4671SOL    HW125475   2.323   2.465   4.180  0.7810  1.0104  0.1357
 4671SOL    HW225476   2.223   2.495   4.288  0.2012 -0.2729  1.1051
 4672SOL     OW25477   2.643   1.262   0.618 -0.1256  0.2617  0.2003
 4672SOL    HW125478   2.562   1.220   0.647 -1.3261  2.6555  0.3737
 4672SOL    HW225479   2.710   1.197   0.639 -1.1541 -0.7042  0.4953
 4673SOL     OW25480   4.074   0.277   5.511  0.1381  0.5262  0.2788
 4673SOL    HW125481   4.113   0.195   5.541  0.2573  0.1061 -1.0156
 4673SOL    HW225482   3.986   0.244   5.493  0.2620  0.2025  0.2578
 4674SOL     OW25483   0.627   1.866   2.151  0.3107  0.0046 -0.0548
 4674SOL    HW125484   0.572   1.864   2.073  1.0473  0.5090 -0.5876
 4674SOL    HW225485   0.592   1.801   2.212 -0.6173 -0.6087 -1.2316
 4675SOL     OW25486   1.404   2.801   4.653  0.8511 -0.7870 -0.2305
 4675SOL    HW125487   1.474   2.735   4.650  1.9484  0.3832 -0.1602
 4675SOL    HW225488   1.460   2.878   4.652 -1.2256  0.7065 -0.5897
 4676SOL     OW25489   1.257   4.234   1.271 -0.2146 -0.0847  0.1992
 4676SOL    HW125490   1.205   4.298   1.223 -1.5124 -0.7991  0.6439
 4676SOL    HW225491   1.263   4.264   1.362  2.2801  0.2265 -0.0820
 4677SOL     OW25492   4.363   0.421   7.146 -0.2993 -0.1516 -0.0876
 4677SOL    HW125493   4.372   0.329   7.120  3.3409 -0.4344  2.1913
 4677SOL    HW225494   4.445   0.438   7.193 -0.5331 -0.3256  0.3860
 4678SOL     OW25495   3.658   1.693   9.730  0.0601 -0.3072  0.1646
 4678SOL    HW125496   3.668   1.784   9.703 -1.0506  0.8601  3.6200
 4678SOL    HW225497   3.704   1.693   9.814  0.6246  1.2732 -0.1541
 4679SOL     OW25498   2.690   3.842   4.890 -0.2939  0.0923 -0.0170
 4679SOL    HW125499   2.704   3.748   4.889 -0.3384  0.0668  1.4603
 4679SOL    HW225500   2.750   3.879   4.955  1.1394 -0.4460 -1.0351
 4680SOL     OW25501   1.826   4.471   5.278  0.0270  0.5517 -0.0154
 4680SOL    HW125502   1.897   4.433   5.329  0.0770 -1.4507 -1.5737
 4680SOL    HW225503   1.880   4.532   5.227  0.8420 -0.6434 -0.5670
 4681SOL     OW25504   4.433   0.773   2.515 -0.0872 -0.7899  0.4878
 4681SOL    HW125505   4.444   0.759   2.609 -0.0581 -1.9421  0.3219
 4681SOL    HW225506   4.387   0.693   2.489 -0.6911 -0.2500 -0.0833
 4682SOL     OW25507   4.416   3.577  12.431  0.5471 -0.4237  0.2346
 4682SOL    HW125508   4.413   3.488  12.467  2.9430 -0.0391  1.4441
 4682SOL    HW225509   4.461   3.616  12.507 -0.7914 -0.3999  1.0118
 4683SOL     OW25510   4.033   2.244   4.163 -0.2177  0.1797  0.0933
 4683SOL    HW125511   4.019   2.227   4.070 -0.3382  1.5694 -0.1423
 4683SOL    HW225512   4.104   2.186   4.193  0.0500  0.0443 -0.7998
 4684SOL     OW25513   1.552   0.635   0.710  0.2837  0.1481  0.4577
 4684SOL    HW125514   1.529   0.682   0.790  0.5944  0.6921  0.2238
 4684SOL    HW225515   1.500   0.687   0.648  0.9967 -0.2574 -0.4634
 4685SOL     OW25516   4.501   2.237   7.200 -0.2588  0.1731  0.3118
 4685SOL    HW125517   4.588   2.266   7.227 -0.0239  0.9237 -1.2672
 4685SOL    HW225518   4.503   2.153   7.245 -0.3505  0.8684  1.6328
 4686SOL     OW25519   1.850   3.773   6.675 -0.5692 -0.1409 -0.6840
 4686SOL    HW125520   1.824   3.864   6.690 -1.0954 -0.4569  0.3018
 4686SOL    HW225521   1.944   3.788   6.663 -0.3708 -0.9952 -0.1651
 4687SOL     OW25522   2.020   4.579   4.712 -0.6029 -0.5787  0.3666
 4687SOL    HW125523   2.071   4.501   4.690 -0.0111  0.2368 -1.1914
 4687SOL    HW225524   2.062   4.624   4.785  0.5540  1.3364 -1.4744
 4688SOL     OW25525   1.155   3.914   6.485  0.0110  0.0052  0.6823
 4688SOL    HW125526   1.088   3.858   6.524  0.6060 -0.8390  0.5097
 4688SOL    HW225527   1.141   3.997   6.530  0.5432  0.4732 -0.0121
 4689SOL     OW25528   2.118   3.452   8.714 -0.3772  0.6665 -0.1970
 4689SOL    HW125529   2.157   3.419   8.795 -1.2503 -0.9817 -0.4451
 4689SOL    HW225530   2.111   3.374   8.658  0.5487 -0.5016  1.3156
 4690SOL     OW25531   4.538   1.621  10.593 -0.2925  0.4598 -0.3870
 4690SOL    HW125532   4.446   1.599  10.576  0.2846 -3.3415  1.4163
 4690SOL    HW225533   4.532   1.678  10.670  0.6714  2.1537 -1.5685
 4691SOL     OW25534   1.163   1.709  15.416 -0.9301 -0.0172 -0.5519
 4691SOL    HW125535   1.236   1.710  15.477 -0.7686  0.7742 -0.7574
 4691SOL    HW225536   1.166   1.800  15.386  3.5778 -0.6362 -2.0344
 4692SOL     OW25537   2.659   4.596   2.883  0.9975  0.1202  0.5554
 4692SOL    HW125538   2.629   4.539   2.953 -0.9691  0.9981  0.4063
 4692SOL    HW225539   2.659   4.685   2.916  2.0455  0.5996 -0.7132
 4693SOL     OW25540   0.269   3.829   7.656 -0.0880  0.3759  0.0680
 4693SOL    HW125541   0.247   3.843   7.564  1.6234  0.8336 -0.2792
 4693SOL    HW225542   0.275   3.735   7.674 -1.7356  0.5237  1.3291
 4694SOL     OW25543   4.079   4.612   4.482 -0.7351 -0.1185 -0.0066
 4694SOL    HW125544   4.006   4.670   4.506  0.3674  0.5587  1.7035
 4694SOL    HW225545   4.086   4.552   4.555 -0.2266  0.8969  0.7811
 4695SOL     OW25546   1.123   3.057  14.318  0.4402 -0.0292 -0.3217
 4695SOL    HW125547   1.072   2.999  14.261  1.4598 -0.7108 -0.5470
 4695SOL    HW225548   1.188   3.002  14.362 -0.8905 -0.2955  1.2930
 4696SOL     OW25549   1.000   1.378   8.186  0.1494 -0.1500  0.4564
 4696SOL    HW125550   1.024   1.322   8.113 -0.2257 -1.2495  1.1903
 4696SOL    HW225551   0.973   1.458   8.140  1.3214  0.1486  0.2759
 4697SOL     OW25552   3.027   2.857   4.203 -0.5690  0.1442  0.1068
 4697SOL    HW125553   3.056   2.909   4.128 -1.8819 -0.5682 -0.9026
 4697SOL    HW225554   3.073   2.906   4.271  0.1675  2.0774 -1.7576
 4698SOL     OW25555   1.699   1.396  17.068  0.1314 -0.5437 -0.1059
 4698SOL    HW125556   1.661   1.318  17.027 -1.2604  1.7092 -3.0275
 4698SOL    HW225557   1.654   1.414  17.151  0.2165  0.4675 -0.2851
 4699SOL     OW25558   0.492   1.709   1.321 -0.2102  0.0484  0.4498
 4699SOL    HW125559   0.550   1.637   1.345 -1.9586 -2.2028 -2.0980
 4699SOL    HW225560   0.491   1.708   1.225 -0.1326  0.3675  0.4440
 4700SOL     OW25561   2.229   2.105  15.382  0.3172  0.6868 -0.1565
 4700SOL    HW125562   2.168   2.088  15.310  0.5062 -0.0472 -0.1497
 4700SOL    HW225563   2.207   2.195  15.406 -3.2386 -0.4023  0.6898
 4701SOL     OW25564   2.343   0.590   6.957 -0.6878  0.2364  0.0714
 4701SOL    HW125565   2.259   0.634   6.972 -1.9749 -2.1863  0.0450
 4701SOL    HW225566   2.335   0.559   6.866  0.6449  1.0669 -0.3193
 4702SOL     OW25567   0.461   4.133   6.220  0.8356 -0.2616 -0.0499
 4702SOL    HW125568   0.427   4.043   6.228 -2.2454  0.7774 -1.3916
 4702SOL    HW225569   0.554   4.113   6.208  0.4199 -1.9275 -0.5852
 4703SOL     OW25570   4.338   1.467   4.411  0.4713 -0.3401 -0.4682
 4703SOL    HW125571   4.377   1.548   4.377 -2.5856  1.3381  0.0255
 4703SOL    HW225572   4.386   1.400   4.362 -0.9611 -1.0191 -0.9410
 4704SOL     OW25573   1.571   1.968   3.092 -0.6964  0.0220  0.2982
 4704SOL    HW125574   1.623   1.898   3.053 -0.4374  0.3875 -0.0133
 4704SOL    HW225575   1.498   1.978   3.031 -1.4321 -0.5436  1.0821
 4705SOL     OW25576   0.415   0.427  12.460 -0.6393  0.2050  0.0610
 4705SOL    HW125577   0.392   0.474  12.379  3.2048  0.5297 -0.8632
 4705SOL    HW225578   0.371   0.343  12.449  1.1067 -0.6514 -0.5559
 4706SOL     OW25579   2.583   3.128  15.178 -0.5532  0.5740 -0.0648
 4706SOL    HW125580   2.607   3.054  15.124  2.4256  0.6417  1.1470
 4706SOL    HW225581   2.669   3.167  15.191 -0.6179  0.7704 -0.2216
 4707SOL     OW25582   3.153   0.052   5.430 -0.3235 -0.2995 -0.1062
 4707SOL    HW125583   3.125   0.038   5.339  0.3264 -0.9439 -0.2032
 4707SOL    HW225584   3.246   0.076   5.428 -0.2838 -0.3165  1.5293
 4708SOL     OW25585   2.380   4.317  17.427  0.1611  0.2258  0.0761
 4708SOL    HW125586   2.344   4.401  17.455 -1.8185 -0.5491 -0.0798
 4708SOL    HW225587   2.393   4.281  17.515  0.6709  1.2851  0.4313
 4709SOL     OW25588   1.658   3.981  17.061 -0.1559  0.1137  0.1811
 4709SOL    HW125589   1.630   3.900  17.104 -0.4115 -0.4835 -1.0841
 4709SOL    HW225590   1.750   3.970  17.040 -0.4814 -1.2516 -0.5728
 4710SOL     OW25591   0.718   2.387   2.489 -0.6170  0.0533 -0.4869
 4710SOL    HW125592   0.639   2.379   2.435 -1.2140  1.6684  0.1362
 4710SOL    HW225593   0.740   2.476   2.461 -2.3318 -0.3745 -3.1768
 4711SOL     OW25594   4.016   2.115   0.504  0.5307 -0.5126  0.1983
 4711SOL    HW125595   3.961   2.142   0.578  0.7150  1.9473 -0.5803
 4711SOL    HW225596   3.950   2.095   0.438 -0.6956  0.1277  1.2106
 4712SOL     OW25597   2.205   2.261   1.564 -0.1936  0.4316  0.6630
 4712SOL    HW125598   2.119   2.219   1.564  0.0428 -0.0337  2.3500
 4712SOL    HW225599   2.178   2.323   1.496  0.3377  1.7320  1.6452
 4713SOL     OW25600   3.229   4.545   3.880  0.2065  0.0304 -0.2338
 4713SOL    HW125601   3.207   4.638   3.893  2.7520  0.3751  1.4790
 4713SOL    HW225602   3.302   4.543   3.818 -1.1815  0.3423 -1.8861
 4714SOL     OW25603   3.128   1.871  15.910  0.0987  0.2649 -0.0977
 4714SOL    HW125604   3.137   1.783  15.874  1.2066  0.3328  0.0280
 4714SOL    HW225605   3.220   1.894  15.922  0.0706  0.0815  0.4743
 4715SOL     OW25606   2.405   4.499   6.775 -0.4037 -0.5648 -0.1033
 4715SOL    HW125607   2.310   4.507   6.762 -0.7923 -1.2577  2.4084
 4715SOL    HW225608   2.429   4.408   6.759  2.3115 -0.0959  1.3413
 4716SOL     OW25609   1.802   3.373  16.062  0.1622  0.0642 -0.3060
 4716SOL    HW125610   1.847   3.325  15.993  1.9614 -0.1914  1.0458
 4716SOL    HW225611   1.722   3.396  16.015 -0.3747  0.4433  0.7847
 4717SOL     OW25612   1.432   3.002   5.641 -0.4245  0.1376  0.0067
 4717SOL    HW125613   1.433   3.055   5.720  0.1648  0.0172  0.0796
 4717SOL    HW225614   1.413   3.058   5.566  1.3530 -0.5211 -0.9171
 4718SOL     OW25615   3.065   4.515   0.410 -0.1052 -0.7837  0.9097
 4718SOL    HW125616   3.112   4.433   0.424  1.4336 -0.5636 -2.8916
 4718SOL    HW225617   3.053   4.520   0.315  1.3896 -0.9473  0.7078
 4719SOL     OW25618   2.848   1.936   5.486 -1.0812 -0.1366  0.3350
 4719SOL    HW125619   2.880   2.021   5.515  0.4589 -1.2727  1.9336
 4719SOL    HW225620   2.857   1.875   5.560  0.8121  0.4200  0.5591
 4720SOL     OW25621   0.436   0.397  10.191  0.3027  0.2156  0.0693
 4720SOL    HW125622   0.359   0.343  10.173 -1.0219  1.8684  0.8679
 4720SOL    HW225623   0.394   0.471  10.234  0.8850  0.7722 -0.3212
 4721SOL     OW25624   0.420   2.540   2.619 -0.1859 -0.5391 -0.7434
 4721SOL    HW125625   0.383   2.594   2.689 -1.3415 -4.3263  1.5828
 4721SOL    HW225626   0.514   2.560   2.626 -0.7618  1.7524  0.3687
 4722SOL     OW25627   1.246   1.438   2.640 -0.4233  0.5389  0.0315
 4722SOL    HW125628   1.301   1.447   2.561 -1.2992  0.1658 -0.6195
 4722SOL    HW225629   1.263   1.521   2.685  1.8170 -1.1073  2.2219
 4723SOL     OW25630   0.296   3.274  11.648  0.0289 -0.0278  0.2138
 4723SOL    HW125631   0.375   3.246  11.694 -1.0615 -1.0281  1.4762
 4723SOL    HW225632   0.314   3.358  11.606 -0.9687  0.6227  1.0662
 4724SOL     OW25633   3.152   4.310  10.614  0.2627  0.5006 -0.1973
 4724SOL    HW125634   3.146   4.321  10.708  1.7962  0.8594 -0.1327
 4724SOL    HW225635   3.170   4.216  10.611  1.1463  0.6698 -0.5513
 4725SOL     OW25636   0.533   4.184   4.727  0.3435 -0.7383 -0.2244
 4725SOL    HW125637   0.628   4.200   4.727 -0.0022  1.2781  0.4983
 4725SOL    HW225638   0.524   4.158   4.819  2.2801 -0.9265 -0.0850
 4726SOL     OW25639   4.679   3.997   3.037 -0.4802  0.0100  0.4079
 4726SOL    HW125640   4.641   3.993   2.949 -0.9986 -0.9952  0.6757
 4726SOL    HW225641   0.043   4.037   3.021  0.2950 -1.0378  1.8588
 4727SOL     OW25642   0.299   0.396  16.893 -0.0037  0.4177  0.5669
 4727SOL    HW125643   0.232   0.463  16.881  0.9217  1.2149 -0.2686
 4727SOL    HW225644   0.252   0.318  16.864  0.5517  1.0197 -1.9520
 4728SOL     OW25645   2.653   1.411   0.401 -0.4846  0.1621  0.1793
 4728SOL    HW125646   2.653   1.369   0.487 -0.2272  1.0387  0.6116
 4728SOL    HW225647   2.560   1.409   0.380 -0.9176  1.4273  1.9113
 4729SOL     OW25648   4.086   1.139   6.427  0.4888 -0.0194  0.5174
 4729SOL    HW125649   4.047   1.201   6.490  0.1315 -1.3883  1.6374
 4729SOL    HW225650   4.178   1.129   6.452  0.1525 -1.8233  1.0282
 4730SOL     OW25651   2.877   2.999   4.559 -0.7107 -0.5180  0.2282
 4730SOL    HW125652   2.815   3.068   4.536  0.9129  0.6646 -0.5620
 4730SOL    HW225653   2.848   2.987   4.650 -1.9077  0.9355  0.0390
 4731SOL     OW25654   1.779   0.982   0.619 -0.1269 -0.3472 -0.2681
 4731SOL    HW125655   1.818   0.897   0.641  0.4000  0.0482  0.3189
 4731SOL    HW225656   1.848   1.044   0.640  0.9759 -1.6759  0.0213
 4732SOL     OW25657   3.434   4.420  11.010  0.2614 -0.3701  0.0735
 4732SOL    HW125658   3.527   4.421  10.988  0.0469 -0.1589 -0.8017
 4732SOL    HW225659   3.406   4.510  11.026 -0.8165 -0.9581  1.6635
 4733SOL     OW25660   4.265   2.627   7.317 -0.3231 -0.0686 -0.2547
 4733SOL    HW125661   4.197   2.680   7.275 -0.8754  0.3604  1.1738
 4733SOL    HW225662   4.339   2.630   7.257  0.1927 -2.1149  0.2719
 4734SOL     OW25663   4.654   2.569   6.950  0.4917 -0.4601 -0.2084
 4734SOL    HW125664   0.018   2.614   6.955 -0.2187  1.0416 -1.5819
 4734SOL    HW225665   4.679   2.482   6.919  0.3046 -0.4557 -0.3684
 4735SOL     OW25666   0.102   1.408   2.024 -0.4040 -0.4034  0.1078
 4735SOL    HW125667   0.027   1.351   2.012 -0.2628 -0.4764 -0.4703
 4735SOL    HW225668   0.100   1.457   1.941 -0.1008 -1.1704 -0.3509
 4736SOL     OW25669   2.811   1.268   6.185 -0.6161  0.5538  0.6573
 4736SOL    HW125670   2.875   1.200   6.205 -0.9866 -0.3603 -1.3107
 4736SOL    HW225671   2.790   1.309   6.269 -1.9463 -1.4877  1.3313
 4737SOL     OW25672   1.612   2.110   5.543 -0.1904  0.0184  0.4533
 4737SOL    HW125673   1.603   2.016   5.553 -1.0932 -0.0476 -1.0341
 4737SOL    HW225674   1.601   2.123   5.448 -2.3810 -2.0862  0.4219
 4738SOL     OW25675   3.135   2.949   2.064  0.2265  0.1544 -0.0054
 4738SOL    HW125676   3.152   3.033   2.021  0.4695 -0.6814 -1.5503
 4738SOL    HW225677   3.140   2.897   1.983  1.2827 -2.3051  1.6487
 4739SOL     OW25678   4.510   1.689   2.847  0.3630 -0.3388  0.9123
 4739SOL    HW125679   4.467   1.722   2.767  0.8569 -0.1011  0.7487
 4739SOL    HW225680   4.444   1.627   2.878 -0.7289  1.2580  1.7606
 4740SOL     OW25681   2.706   2.408  15.656 -0.1452  0.7775  0.0525
 4740SOL    HW125682   2.770   2.474  15.683 -1.5537  1.7303  0.9889
 4740SOL    HW225683   2.693   2.435  15.565 -0.7437 -0.4014 -0.2100
 4741SOL     OW25684   2.193   1.979  15.621  1.0641  0.6388  0.0722
 4741SOL    HW125685   2.208   2.005  15.530 -1.9042 -3.1973 -1.5010
 4741SOL    HW225686   2.281   1.945  15.640 -0.0780 -2.4699 -0.2376
 4742SOL     OW25687   1.567   4.410   9.952  0.1838  0.5583 -0.0100
 4742SOL    HW125688   1.621   4.332   9.966  0.8228  0.9226 -0.4479
 4742SOL    HW225689   1.641   4.468   9.935 -0.6803  1.9104  0.8373
 4743SOL     OW25690   0.505   2.390   0.346 -0.1839 -0.2262 -0.4014
 4743SOL    HW125691   0.557   2.335   0.404  0.8140  1.4017  0.2417
 4743SOL    HW225692   0.522   2.350   0.260 -0.3821  0.0905 -0.5884
 4744SOL     OW25693   3.635   4.537   5.486 -0.3626 -0.1088 -0.5617
 4744SOL    HW125694   3.588   4.550   5.568 -0.6965 -0.7742 -0.6468
 4744SOL    HW225695   3.558   4.500   5.442 -1.0893 -1.0087  1.4426
 4745SOL     OW25696   2.811   0.855   6.808  0.2486 -0.2273 -0.6130
 4745SOL    HW125697   2.742   0.801   6.771 -1.0439 -0.7560  2.5848
 4745SOL    HW225698   2.768   0.911   6.873 -1.1560  0.8127 -2.4630
 4746SOL     OW25699   2.313   1.050   5.979 -0.1605 -0.0100 -0.7795
 4746SOL    HW125700   2.392   1.101   5.995 -0.3214  0.3135 -1.0165
 4746SOL    HW225701   2.244   1.080   6.038 -0.3387 -2.0524  0.0608
 4747SOL     OW25702   1.619   3.152   6.535 -0.3723  0.3414  0.4715
 4747SOL    HW125703   1.543   3.168   6.479 -0.5685  0.2792  0.7209
 4747SOL    HW225704   1.689   3.186   6.479 -1.1881 -0.0573 -0.8115
 4748SOL     OW25705   0.515   2.662   0.893  0.1976  0.3246 -0.0529
 4748SOL    HW125706   0.506   2.671   0.987  1.3053  1.4129 -0.0448
 4748SOL    HW225707   0.427   2.652   0.856  0.1163  2.5721 -0.4938
 4749SOL     OW25708   4.511   0.041  14.308  0.2733  0.5891  0.2862
 4749SOL    HW125709   4.450   0.042  14.234  0.2984 -0.1261  0.2515
 4749SOL    HW225710   4.525   4.668  14.295 -2.2373 -0.0304  2.0127
 4750SOL     OW25711   3.084   0.978   8.709  0.0219 -0.1356 -0.4355
 4750SOL    HW125712   3.098   0.884   8.710  1.1256  0.0565  0.7488
 4750SOL    HW225713   3.025   0.983   8.784 -1.5669 -0.0824 -1.6830
 4751SOL     OW25714   1.100   0.803   2.089  0.3903  0.1679 -0.7055
 4751SOL    HW125715   1.021   0.784   2.040 -1.0919  0.7294  1.4809
 4751SOL    HW225716   1.112   0.713   2.119  0.4208  0.3031 -0.3085
 4752SOL     OW25717   0.589   0.640  12.079 -0.5760 -0.2453  0.1630
 4752SOL    HW125718   0.677   0.607  12.061 -0.3966  0.0776  0.4553
 4752SOL    HW225719   0.617   0.712  12.136  0.4274  0.3426 -1.0965
 4753SOL     OW25720   2.986   0.093   7.982  0.3908  0.3924 -0.7507
 4753SOL    HW125721   3.020   0.051   8.061  1.2078 -0.9862 -1.8536
 4753SOL    HW225722   2.986   0.022   7.919 -2.5842 -0.2688 -0.0211
 4754SOL     OW25723   4.535   1.621   5.161  0.3105  0.4355 -0.3434
 4754SOL    HW125724   4.619   1.605   5.203 -0.3615  2.9406  1.9742
 4754SOL    HW225725   4.535   1.715   5.144 -0.3099  0.1087 -2.1377
 4755SOL     OW25726   3.560   3.406   7.455 -0.7168  0.3933  0.1978
 4755SOL    HW125727   3.507   3.327   7.445  0.1062 -0.1643  0.2178
 4755SOL    HW225728   3.515   3.448   7.528  0.4822  2.6018 -0.3433
 4756SOL     OW25729   3.471   0.748   6.775  0.2536  0.1410  0.8383
 4756SOL    HW125730   3.379   0.722   6.784  0.4796 -0.0964  2.4038
 4756SOL    HW225731   3.505   0.705   6.697  1.8880  0.8655  1.1601
 4757SOL     OW25732   0.012   4.490   0.476  0.0254  0.1580 -0.1524
 4757SOL    HW125733   0.005   4.410   0.527 -0.4888  1.3668  1.6698
 4757SOL    HW225734   4.648   4.536   0.477 -0.4448 -0.6908 -0.6070
 4758SOL     OW25735   4.693   0.578   3.410  0.0733  0.1568 -0.4063
 4758SOL    HW125736   4.619   0.637   3.394  0.3703  0.7655  0.4620
 4758SOL    HW225737   4.712   0.548   3.321 -2.7668  0.6428 -1.1607
 4759SOL     OW25738   2.325   2.505  11.998  0.2339 -0.0567  0.1277
 4759SOL    HW125739   2.385   2.448  11.951 -3.0289 -2.5576 -1.0023
 4759SOL    HW225740   2.366   2.592  11.999  1.0358 -0.4286 -1.0991
 4760SOL     OW25741   0.181   2.715   3.931  0.4117  0.6401  0.5450
 4760SOL    HW125742   0.207   2.786   3.988 -0.5268  1.1379  0.3607
 4760SOL    HW225743   0.086   2.717   3.916  1.0354 -1.1842 -3.9126
 4761SOL     OW25744   1.734   2.219  11.085  0.1003 -0.2574 -0.3506
 4761SOL    HW125745   1.796   2.213  11.012 -1.1750  1.4874 -1.5667
 4761SOL    HW225746   1.664   2.166  11.048 -1.6946  1.7939  0.1266
 4762SOL     OW25747   4.555   4.137   4.551  0.1466  0.1530  0.6313
 4762SOL    HW125748   4.465   4.142   4.517  0.7447 -1.6738 -1.2431
 4762SOL    HW225749   4.539   4.129   4.645 -0.4368 -2.7827  0.2873
 4763SOL     OW25750   3.337   1.096   7.717  0.3095  0.1351  0.0875
 4763SOL    HW125751   3.243   1.101   7.731  0.0971 -2.0547 -0.6667
 4763SOL    HW225752   3.373   1.106   7.806  3.1191 -1.2769 -0.9007
 4764SOL     OW25753   1.666   3.337  14.241 -0.6538  0.0552 -0.5926
 4764SOL    HW125754   1.669   3.428  14.213  0.2778 -0.2999 -1.6245
 4764SOL    HW225755   1.572   3.320  14.237 -0.8746  1.3395 -0.8058
 4765SOL     OW25756   2.830   3.979   6.007  0.0491 -0.0526  0.0749
 4765SOL    HW125757   2.885   3.960   5.931 -0.4864 -1.5027  0.0451
 4765SOL    HW225758   2.895   3.976   6.076  2.3538 -1.8056 -2.1440
 4766SOL     OW25759   1.825   4.040  17.679 -0.2984  0.1481  0.2581
 4766SOL    HW125760   1.852   4.122   0.037  1.4510 -0.1866 -0.1789
 4766SOL    HW225761   1.734   4.063  17.661 -0.6772 -1.8452 -0.2881
 4767SOL     OW25762   0.177   3.339  10.134  0.0004  0.1338 -0.0858
 4767SOL    HW125763   0.262   3.299  10.116 -1.5062 -3.2355  0.3542
 4767SOL    HW225764   0.161   3.294  10.217  0.7904 -2.1699 -1.1674
 4768SOL     OW25765   4.279   2.975   2.805 -0.2293  0.1137 -0.0084
 4768SOL    HW125766   4.219   2.995   2.732 -0.5127 -0.2905  0.1132
 4768SOL    HW225767   4.235   2.898   2.842 -0.0270 -1.1891 -2.4816
 4769SOL     OW25768   4.134   3.112   7.051  0.1226  0.0737 -0.2082
 4769SOL    HW125769   4.043   3.136   7.037  0.7079  2.2035 -0.3255
 4769SOL    HW225770   4.171   3.182   7.104  2.1051  0.0115 -1.4977
 4770SOL     OW25771   4.453   1.942  10.067  0.0346 -0.3467 -0.2020
 4770SOL    HW125772   4.427   1.888  10.141 -1.2551  2.0073  1.0705
 4770SOL    HW225773   4.371   1.992  10.062  1.0984  1.3541 -0.5892
 4771SOL     OW25774   2.600   2.394   2.813  0.1669 -0.3528  0.2895
 4771SOL    HW125775   2.569   2.406   2.723  0.4576  1.8906  0.4874
 4771SOL    HW225776   2.554   2.454   2.872  2.1377 -0.1095  1.5641
 4772SOL     OW25777   0.466   2.717   3.386  0.1962  0.4500  0.4733
 4772SOL    HW125778   0.477   2.633   3.341  0.2014 -0.0579  1.4227
 4772SOL    HW225779   0.470   2.700   3.480  2.4985 -0.1053  0.2874
 4773SOL     OW25780   0.465   0.280   0.356  0.0355 -0.0136 -0.3298
 4773SOL    HW125781   0.473   0.368   0.319  0.1975  0.5308  0.9879
 4773SOL    HW225782   0.545   0.270   0.408 -1.3514 -0.4977  1.6931
 4774SOL     OW25783   2.222   4.327  12.320  0.0080 -0.3700 -0.5418
 4774SOL    HW125784   2.256   4.317  12.231 -0.7153  1.2584 -0.9974
 4774SOL    HW225785   2.251   4.417  12.337  1.0994 -1.2714  2.2769
 4775SOL     OW25786   2.252   0.412  14.784 -0.3282 -0.5320 -0.3840
 4775SOL    HW125787   2.266   0.506  14.796  1.4318 -0.7918 -0.4634
 4775SOL    HW225788   2.182   0.384  14.844 -1.5305  1.3087 -0.9224
 4776SOL     OW25789   2.917   4.115   9.108 -0.1983  0.7600 -0.2874
 4776SOL    HW125790   2.863   4.096   9.031 -0.9758  3.6214 -0.4424
 4776SOL    HW225791   2.851   4.121   9.176  0.1290  0.4518  0.0544
 4777SOL     OW25792   0.290   2.332  15.233 -0.6648 -0.1094 -0.1008
 4777SOL    HW125793   0.333   2.247  15.239 -1.1564 -0.4024 -0.7456
 4777SOL    HW225794   0.199   2.311  15.256 -0.5669 -0.6456 -0.2013
 4778SOL     OW25795   0.707   3.596   5.750 -0.6373 -0.2631  0.1444
 4778SOL    HW125796   0.615   3.572   5.750 -0.7780  0.2929 -1.8087
 4778SOL    HW225797   0.755   3.513   5.754 -2.2565 -1.1688  0.6954
 4779SOL     OW25798   1.599   2.061   4.104  0.7679  0.4410 -0.5331
 4779SOL    HW125799   1.504   2.050   4.113  0.4743  2.9486 -0.5291
 4779SOL    HW225800   1.626   1.976   4.138  2.7710  2.2209  2.3550
 4780SOL     OW25801   3.431   3.758   2.508 -0.2529 -0.2108  0.2839
 4780SOL    HW125802   3.430   3.853   2.517 -1.7703  0.1789 -3.9014
 4780SOL    HW225803   3.456   3.756   2.415  0.0400 -2.5062  0.4219
 4781SOL     OW25804   1.890   2.089   0.149 -0.6768  0.4486 -0.2070
 4781SOL    HW125805   1.925   2.011   0.107  2.2481  2.0057 -0.6082
 4781SOL    HW225806   1.973   2.125   0.179 -0.5842  0.9355 -1.0466
 4782SOL     OW25807   1.103   0.504   4.874 -0.3450  0.4470 -0.6661
 4782SOL    HW125808   1.023   0.538   4.833 -0.2394  2.3892  0.7867
 4782SOL    HW225809   1.078   0.471   4.960 -3.1330  2.6622 -0.6506
 4783SOL     OW25810   3.766   3.758   9.584 -0.5331  0.3719  0.1962
 4783SOL    HW125811   3.828   3.737   9.515  2.2650 -1.0442  3.1374
 4783SOL    HW225812   3.778   3.698   9.658 -0.8924 -1.3025 -1.1074
 4784SOL     OW25813   0.649   1.586   6.240 -0.6022  0.1503 -0.5709
 4784SOL    HW125814   0.722   1.529   6.264 -1.3305  0.3299  2.0684
 4784SOL    HW225815   0.676   1.677   6.252 -0.7616  0.3712 -1.8832
 4785SOL     OW25816   0.057   3.489  14.288  0.5589  0.5143 -0.2770
 4785SOL    HW125817   0.065   3.580  14.318 -1.3838  0.5072  0.3048
 4785SOL    HW225818   0.128   3.482  14.225  1.4154  1.0911  0.6231
 4786SOL     OW25819   3.250   1.228  12.023 -0.1454 -0.1587  0.4093
 4786SOL    HW125820   3.160   1.255  12.041 -0.2821 -0.4386  0.1399
 4786SOL    HW225821   3.283   1.242  12.112  3.6003 -0.7047 -0.9172
 4787SOL     OW25822   1.533   0.666  17.296 -0.4016  0.2080 -0.2949
 4787SOL    HW125823   1.570   0.674  17.208 -0.5061 -0.3125 -0.3862
 4787SOL    HW225824   1.512   0.572  17.300  0.0581  0.1078 -0.1611
 4788SOL     OW25825   3.730   3.740   8.888 -0.1653  0.2743 -0.3652
 4788SOL    HW125826   3.658   3.773   8.941 -0.9201 -2.5241  0.3803
 4788SOL    HW225827   3.690   3.720   8.803 -1.1777 -0.2881  0.2392
 4789SOL     OW25828   2.353   1.533   4.493  0.2835 -0.0155  0.6594
 4789SOL    HW125829   2.287   1.566   4.433  0.8988  0.3159  0.1645
 4789SOL    HW225830   2.428   1.557   4.439  1.1709  0.6523  2.2043
 4790SOL     OW25831   2.280   2.687   3.455 -0.1897 -0.5293 -0.1573
 4790SOL    HW125832   2.340   2.730   3.394 -0.4892 -1.4220 -1.0969
 4790SOL    HW225833   2.335   2.662   3.528  0.1546 -1.9015 -0.8836
 4791SOL     OW25834   2.225   4.106  14.447 -0.1777 -0.0326 -0.6287
 4791SOL    HW125835   2.253   4.015  14.432  1.7277  0.6784 -1.4369
 4791SOL    HW225836   2.152   4.105  14.509  0.7291 -2.0376  0.4281
 4792SOL     OW25837   0.999   1.728  12.458  0.4488  0.1722 -0.0127
 4792SOL    HW125838   1.002   1.733  12.554 -0.5866  2.9673 -0.1462
 4792SOL    HW225839   1.077   1.776  12.434  1.7072 -0.0512  3.6403
 4793SOL     OW25840   1.934   0.698   9.029 -0.0693  0.1695  0.0882
 4793SOL    HW125841   1.893   0.627   9.078  0.0042 -0.4070 -0.6834
 4793SOL    HW225842   1.929   0.769   9.093  0.5047  1.2001 -1.0071
 4794SOL     OW25843   2.881   0.701   7.119  0.0371 -0.0130  0.3077
 4794SOL    HW125844   2.851   0.633   7.181  0.8602  0.8662  1.6751
 4794SOL    HW225845   2.803   0.698   7.064  1.2043  0.3587 -1.3478
 4795SOL     OW25846   0.240   1.072  15.624 -0.4192 -0.6294 -0.1208
 4795SOL    HW125847   0.146   1.086  15.612 -0.5949 -0.9047  0.9867
 4795SOL    HW225848   0.263   1.159  15.657 -0.0317 -0.3571 -1.1112
 4796SOL     OW25849   3.403   4.052  13.779  0.1150  0.0710 -0.1603
 4796SOL    HW125850   3.352   4.127  13.751  1.4137  1.7577  1.9489
 4796SOL    HW225851   3.392   4.004  13.697 -0.4949 -0.1759  0.0654
 4797SOL     OW25852   2.401   0.003   8.557 -0.0153 -0.6426 -0.4927
 4797SOL    HW125853   2.405   0.088   8.513 -2.7736 -0.1593  0.1908
 4797SOL    HW225854   2.413   0.023   8.650 -0.5512 -2.8933  0.0534
 4798SOL     OW25855   2.935   0.350  13.684 -0.8608  0.0620 -0.1323
 4798SOL    HW125856   2.857   0.404  13.670 -0.9971 -0.6124 -1.9457
 4798SOL    HW225857   2.969   0.397  13.760 -0.6861  1.2652 -0.9497
 4799SOL     OW25858   3.806   2.675   5.993 -0.4505 -0.1362 -0.2951
 4799SOL    HW125859   3.732   2.681   5.932 -1.5041 -0.1542  0.9880
 4799SOL    HW225860   3.821   2.584   6.017 -0.1965  0.6420  2.4764
 4800SOL     OW25861   2.210   2.964   8.393 -0.2814  0.2401  0.5074
 4800SOL    HW125862   2.194   2.945   8.485 -0.1964 -0.0618  0.4576
 4800SOL    HW225863   2.152   2.899   8.352 -0.8799  1.7052 -0.9877
 4801SOL     OW25864   2.922   1.428   2.623 -0.1018  0.0001  0.1530
 4801SOL    HW125865   2.830   1.430   2.595 -0.3245 -0.5510  0.8452
 4801SOL    HW225866   2.964   1.381   2.551  0.9836  0.9069  0.1979
 4802SOL     OW25867   2.531   4.680  11.377 -0.4988 -0.5223  0.3177
 4802SOL    HW125868   2.609   0.002  11.413  0.4769 -0.6064 -1.6884
 4802SOL    HW225869   2.480   0.034  11.346 -0.4205 -0.7163 -0.2903
 4803SOL     OW25870   4.160   3.667   3.104  0.0579  0.4493  0.1252
 4803SOL    HW125871   4.189   3.578   3.087  1.4863  1.0328 -0.5542
 4803SOL    HW225872   4.187   3.697   3.191 -0.5613  1.0996  0.0903
 4804SOL     OW25873   3.966   4.305   3.175  0.2657 -0.7987  0.5464
 4804SOL    HW125874   4.010   4.346   3.250  2.2571  1.0151 -1.6009
 4804SOL    HW225875   3.970   4.215   3.205  0.7895 -1.1362 -0.5375
 4805SOL     OW25876   1.169   2.223   9.829  0.3902 -0.2298  0.1529
 4805SOL    HW125877   1.097   2.205   9.890 -1.5617 -0.1599 -2.1544
 4805SOL    HW225878   1.209   2.296   9.876 -0.6062  1.2768 -1.3365
 4806SOL     OW25879   0.460   4.349   5.708 -0.5780  0.2323  0.4464
 4806SOL    HW125880   0.516   4.394   5.771 -1.7142  1.3892  0.6126
 4806SOL    HW225881   0.382   4.328   5.760 -1.0331 -0.4738 -0.5162
 4807SOL     OW25882   3.345   2.088   1.360  0.2667  0.7128 -0.1374
 4807SOL    HW125883   3.412   2.140   1.316  1.7848 -1.4310 -0.3576
 4807SOL    HW225884   3.273   2.151   1.363  0.2932  0.7814 -1.0509
 4808SOL     OW25885   3.719   0.066   1.941  0.2750  0.0466  0.4050
 4808SOL    HW125886   3.730   4.709   1.996 -1.6544  0.6424  1.6443
 4808SOL    HW225887   3.799   0.112   1.969  1.9621 -2.7628  0.2100
 4809SOL     OW25888   4.552   4.283   2.813  0.3478  0.2390 -0.3777
 4809SOL    HW125889   4.477   4.286   2.873  0.7175 -1.3019  0.1799
 4809SOL    HW225890   4.507   4.273   2.729  0.0796 -0.2069 -0.1821
 4810SOL     OW25891   4.549   2.998  17.621  0.4356  0.2952  0.3862
 4810SOL    HW125892   4.586   2.998  17.533  0.6102 -0.2058  0.4592
 4810SOL    HW225893   4.618   2.957  17.674 -0.2921 -1.8602 -0.3138
 4811SOL     OW25894   1.675   4.256   5.266  0.1341 -0.3903  0.2428
 4811SOL    HW125895   1.732   4.187   5.298  1.2365  1.0249  1.3430
 4811SOL    HW225896   1.734   4.331   5.255 -0.3368  0.2208  1.7642
 4812SOL     OW25897   1.165   1.691   7.341 -0.5109  0.1843 -0.7099
 4812SOL    HW125898   1.256   1.662   7.349 -0.0810  2.1916  1.8689
 4812SOL    HW225899   1.145   1.655   7.255  1.2685  0.2430 -1.1316
 4813SOL     OW25900   3.516   4.661  17.604  0.3794  0.2538 -0.2744
 4813SOL    HW125901   3.525   4.641   0.011 -1.4810  2.2126  0.3166
 4813SOL    HW225902   3.488   4.573  17.576 -0.4314  1.2307 -2.5827
 4814SOL     OW25903   0.172   1.436   7.492  0.2796  0.2168  0.5479
 4814SOL    HW125904   0.167   1.456   7.585 -0.6320  0.4670  0.4540
 4814SOL    HW225905   0.088   1.390   7.484  0.5530  0.0498 -1.3334
 4815SOL     OW25906   3.810   0.169  12.991  0.1978  0.5433 -0.3119
 4815SOL    HW125907   3.732   0.168  13.046  1.0164 -0.4441  0.8152
 4815SOL    HW225908   3.865   0.225  13.046 -0.4050  3.0455 -2.2612
 4816SOL     OW25909   1.568   4.210   2.489  0.1694 -0.1415  0.8939
 4816SOL    HW125910   1.523   4.294   2.495  0.0883 -0.1364  0.2331
 4816SOL    HW225911   1.657   4.242   2.501  0.4474 -0.0024 -1.6955
 4817SOL     OW25912   1.004   0.754   9.126 -0.4319 -0.1417 -0.6752
 4817SOL    HW125913   0.957   0.673   9.108  0.1217 -0.4693 -0.6541
 4817SOL    HW225914   1.040   0.770   9.038 -0.7816  0.0183 -0.7886
 4818SOL     OW25915   4.653   0.001  15.575  0.0363 -0.4148  0.0220
 4818SOL    HW125916   4.718   0.065  15.548  1.8707 -2.0736  0.5184
 4818SOL    HW225917   4.689   4.638  15.548 -3.4817 -1.9761  0.1266
 4819SOL     OW25918   4.548   1.937   7.327  0.2369 -0.3682  0.3420
 4819SOL    HW125919   4.603   1.941   7.249 -1.2986  0.8554 -0.6802
 4819SOL    HW225920   4.571   1.848   7.355  0.3681 -0.5197 -0.2609
 4820SOL     OW25921   4.491   2.166  17.220 -0.3773 -0.2424  0.4018
 4820SOL    HW125922   4.547   2.243  17.223  1.0803 -1.3180  1.1324
 4820SOL    HW225923   4.556   2.106  17.183 -0.5332  0.6905 -1.3724
 4821SOL     OW25924   2.410   0.321   5.459  0.3970 -0.1106 -0.6424
 4821SOL    HW125925   2.478   0.290   5.519  0.0502 -0.1367 -0.2647
 4821SOL    HW225926   2.453   0.284   5.382  0.8279 -1.3409  0.1975
 4822SOL     OW25927   2.469   1.916   2.618  0.6100 -0.4919 -0.3686
 4822SOL    HW125928   2.475   1.990   2.558 -0.4659  0.2296  0.4107
 4822SOL    HW225929   2.452   1.970   2.695 -3.5274 -1.3933 -0.6502
 4823SOL     OW25930   1.970   2.110   6.824 -0.0362  0.2901 -0.3490
 4823SOL    HW125931   1.900   2.136   6.884  0.1416  0.7818 -0.3521
 4823SOL    HW225932   2.025   2.188   6.837 -0.2587  0.2236  0.9436
 4824SOL     OW25933   3.044   3.919   9.241 -0.3393  0.6548 -0.0222
 4824SOL    HW125934   3.005   4.003   9.215  0.5671  1.5425  1.4702
 4824SOL    HW225935   3.089   3.936   9.324  0.4534  1.5299 -0.6349
 4825SOL     OW25936   0.099   1.483  13.523  0.7946  0.2052 -0.4097
 4825SOL    HW125937   0.119   1.558  13.580  2.5014 -0.3965 -0.2224
 4825SOL    HW225938   0.166   1.483  13.455  0.5286 -0.2472 -0.6663
 4826SOL     OW25939   1.412   1.064   6.757 -0.3345 -0.1230  0.6148
 4826SOL    HW125940   1.387   1.023   6.674  0.3607 -3.1005  1.8825
 4826SOL    HW225941   1.353   1.140   6.759 -0.4792 -0.2106 -0.4342
 4827SOL     OW25942   3.833   3.504   7.170  0.1558 -0.1290  0.5143
 4827SOL    HW125943   3.799   3.439   7.232 -3.1902 -0.7974 -2.0120
 4827SOL    HW225944   3.756   3.498   7.114  1.6212  2.2680 -1.7361
 4828SOL     OW25945   4.115   4.402   8.236  0.1008  0.0477 -0.1196
 4828SOL    HW125946   4.166   4.322   8.234 -0.8589 -0.5405 -0.8788
 4828SOL    HW225947   4.091   4.403   8.329  0.2814 -0.3476 -0.0726
 4829SOL     OW25948   3.886   0.905   3.772  0.5664 -0.1590  0.7305
 4829SOL    HW125949   3.892   0.820   3.728  1.8985  0.4849 -0.3315
 4829SOL    HW225950   3.967   0.907   3.823  0.7073 -3.2469  0.6073
 4830SOL     OW25951   3.244   2.686   9.094 -0.3569 -0.7222  0.0614
 4830SOL    HW125952   3.226   2.593   9.079 -2.1209 -0.5997  1.3935
 4830SOL    HW225953   3.160   2.716   9.060 -0.0712  0.4616  0.3921
 4831SOL     OW25954   3.488   2.295   9.346 -0.7553  0.2002 -0.3717
 4831SOL    HW125955   3.485   2.266   9.255 -0.9203 -2.4323  0.4631
 4831SOL    HW225956   3.427   2.244   9.400  0.7808 -0.2869  0.9337
 4832SOL     OW25957   4.116   2.409   0.106 -0.0367  0.5179  0.5583
 4832SOL    HW125958   4.172   2.481   0.075  2.0105 -0.7006  1.4218
 4832SOL    HW225959   4.145   2.398   0.196 -0.3165 -0.3772  0.5318
 4833SOL     OW25960   0.487   0.067   7.718 -0.5621  0.1890  0.4353
 4833SOL    HW125961   0.482   0.140   7.657  1.6004  0.7988  0.9856
 4833SOL    HW225962   0.519   0.003   7.654 -1.3264  2.5732 -2.3067
 4834SOL     OW25963   0.337   1.059   2.161  0.3311 -0.2959  0.2775
 4834SOL    HW125964   0.272   1.057   2.232  1.8741  3.0687  1.7688
 4834SOL    HW225965   0.278   1.055   2.085 -0.2459 -0.2086  0.7162
 4835SOL     OW25966   1.530   2.536   7.376  0.2906  0.1826  0.5314
 4835SOL    HW125967   1.476   2.615   7.381  0.4909  0.1982  2.4849
 4835SOL    HW225968   1.621   2.565   7.378  0.1242  0.6289  1.9893
 4836SOL     OW25969   1.468   1.758   7.876 -0.1290  0.4397  0.1702
 4836SOL    HW125970   1.455   1.853   7.881  0.0946  0.6158 -2.4889
 4836SOL    HW225971   1.401   1.721   7.933  0.9388  1.1405  1.8821
 4837SOL     OW25972   1.774   0.198   4.373 -0.3380  0.4284  0.2376
 4837SOL    HW125973   1.711   0.180   4.303 -1.2075 -2.6235  1.8233
 4837SOL    HW225974   1.828   0.268   4.337  1.3772 -0.2400  1.5034
 4838SOL     OW25975   2.712   1.972  12.700 -0.4717 -0.6531  0.2996
 4838SOL    HW125976   2.702   2.047  12.759 -0.0379  0.1164 -0.6060
 4838SOL    HW225977   2.656   1.999  12.627 -0.6958  0.7053  0.9667
 4839SOL     OW25978   4.293   4.114   8.824 -0.1310 -0.3612 -0.2947
 4839SOL    HW125979   4.380   4.078   8.808 -0.9990 -1.8796 -1.5508
 4839SOL    HW225980   4.269   4.072   8.907 -2.2660 -0.5789 -1.0065
 4840SOL     OW25981   1.634   0.602   4.425 -0.2568 -0.1892  0.0412
 4840SOL    HW125982   1.556   0.551   4.404 -1.7178  0.9903  2.5891
 4840SOL    HW225983   1.639   0.669   4.357 -0.2844 -1.1004 -0.8540
 4841SOL     OW25984   4.262   3.440   3.867 -0.5618 -0.5214  0.3412
 4841SOL    HW125985   4.191   3.493   3.904 -2.6324 -1.9443 -1.6520
 4841SOL    HW225986   4.256   3.473   3.778  1.2551 -1.7924 -0.2406
 4842SOL     OW25987   2.969   1.874   1.217 -0.2821 -0.0769  0.8582
 4842SOL    HW125988   2.952   1.968   1.223 -0.5653  0.0458 -1.7848
 4842SOL    HW225989   3.060   1.868   1.187 -0.5485  2.4900 -0.4887
 4843SOL     OW25990   2.252   1.095   5.118  0.0613 -0.1295  0.1697
 4843SOL    HW125991   2.269   1.002   5.107  0.8276 -0.1404  1.5747
 4843SOL    HW225992   2.223   1.119   5.029 -0.5684  1.7320  0.8755
 4844SOL     OW25993   1.066   0.278   4.481  0.1596  0.1212 -0.0813
 4844SOL    HW125994   1.030   0.191   4.498 -0.6625  0.0202 -2.2229
 4844SOL    HW225995   1.155   0.255   4.508 -0.2533 -1.5955 -0.1810
 4845SOL     OW25996   1.332   2.575   7.754 -0.0884  0.0003  0.1142
 4845SOL    HW125997   1.397   2.582   7.825 -0.4379 -0.4493  0.4782
 4845SOL    HW225998   1.352   2.486   7.726  0.0617 -0.0413  0.3531
 4846SOL     OW25999   4.376   0.390   3.775 -0.3369  0.4527 -0.1948
 4846SOL    HW126000   4.408   0.459   3.716 -0.0373  0.3703 -0.1312
 4846SOL    HW226001   4.283   0.381   3.758 -0.3110  1.5871 -0.9831
 4847SOL     OW26002   0.866   1.083   8.580 -0.2446 -0.3902 -0.0532
 4847SOL    HW126003   0.901   1.042   8.659 -0.4943  0.0014  0.2582
 4847SOL    HW226004   0.790   1.025   8.569  0.7767 -1.4436 -1.5045
 4848SOL     OW26005   4.504   0.667   5.155  0.8122  0.0098  0.4080
 4848SOL    HW126006   4.520   0.731   5.223 -1.6353  1.8085 -0.7266
 4848SOL    HW226007   4.415   0.640   5.176  1.1865  0.6347  2.7229
 4849SOL     OW26008   0.138   0.046   0.185 -0.1791 -0.1126  0.1931
 4849SOL    HW126009   0.182   0.127   0.157  0.7198  0.3843  3.0102
 4849SOL    HW226010   0.059   0.048   0.131  0.8326 -1.2059 -1.3083
 4850SOL     OW26011   4.268   2.975   1.480 -0.3732 -0.3775 -0.1378
 4850SOL    HW126012   4.313   2.918   1.417 -0.1908 -0.1162 -0.2480
 4850SOL    HW226013   4.183   2.987   1.439  1.4058  3.8723 -2.6651
 4851SOL     OW26014   4.594   3.779   1.230 -0.8713  0.6606  0.1576
 4851SOL    HW126015   4.620   3.854   1.284  0.8767  3.3009 -4.4064
 4851SOL    HW226016   4.622   3.712   1.293 -0.4411  1.3160  0.6660
 4852SOL     OW26017   1.228   1.352   6.537 -0.3642 -0.1668 -0.5830
 4852SOL    HW126018   1.138   1.322   6.524  0.1187 -1.6406 -0.4644
 4852SOL    HW226019   1.235   1.337   6.631 -0.7056 -1.5876 -0.7857
 4853SOL     OW26020   0.419   4.021   1.499  0.5583 -0.0687 -0.1103
 4853SOL    HW126021   0.449   3.958   1.434  2.8359  1.4285 -0.5075
 4853SOL    HW226022   0.326   4.002   1.503  0.6014 -0.1305  0.5732
 4854SOL     OW26023   0.967   0.277   7.632  0.0234 -0.0418 -0.3644
 4854SOL    HW126024   1.028   0.281   7.558  0.7585  0.4732  0.2681
 4854SOL    HW226025   0.979   0.355   7.686 -1.0987 -0.7304  0.8742
 4855SOL     OW26026   0.588   1.103  13.223 -0.7227 -0.1336  1.0455
 4855SOL    HW126027   0.652   1.141  13.163 -1.1015 -0.2235  0.5887
 4855SOL    HW226028   0.518   1.167  13.219 -0.7094 -0.1773  0.0142
 4856SOL     OW26029   1.959   3.148   5.077  0.3980 -0.0528 -0.7111
 4856SOL    HW126030   1.871   3.110   5.074  0.6791 -0.5803 -1.8953
 4856SOL    HW226031   1.995   3.074   5.125  1.4943  1.8498  1.4458
 4857SOL     OW26032   3.122   1.885  11.833  0.3183 -0.0193 -0.4445
 4857SOL    HW126033   3.136   1.979  11.844  2.9456 -0.6182  1.2090
 4857SOL    HW226034   3.173   1.860  11.756 -0.4144 -2.6939 -0.0743
 4858SOL     OW26035   0.141   4.571   4.449 -0.3263 -0.6410 -0.3589
 4858SOL    HW126036   0.053   4.554   4.415  0.0134 -1.4119 -0.8548
 4858SOL    HW226037   0.120   4.602   4.537  0.5543  1.9504 -1.0379
 4859SOL     OW26038   2.914   0.478   2.319  0.2313 -0.0201 -0.0114
 4859SOL    HW126039   2.824   0.505   2.334  0.7720  1.7335  0.0541
 4859SOL    HW226040   2.959   0.559   2.294  0.8547  0.1725  1.7155
 4860SOL     OW26041   3.563   0.887  15.372 -0.5672  0.2109  0.1326
 4860SOL    HW126042   3.634   0.908  15.312 -1.3737 -2.5463 -1.7896
 4860SOL    HW226043   3.597   0.807  15.411  0.0465  0.7992  0.8201
 4861SOL     OW26044   1.674   3.895  12.140  0.4094  1.0102 -0.0061
 4861SOL    HW126045   1.723   3.863  12.216  0.5195  0.1931 -0.4199
 4861SOL    HW226046   1.605   3.941  12.188  0.1843  0.3845  0.2774
 4862SOL     OW26047   4.112   1.687   3.066  0.4421 -0.0054 -0.4820
 4862SOL    HW126048   4.143   1.624   3.001  0.8461  0.3212 -0.6076
 4862SOL    HW226049   4.071   1.634   3.134  1.8180 -0.6368 -0.1453
 4863SOL     OW26050   2.443   2.951   3.927  0.7727 -0.1963 -0.1310
 4863SOL    HW126051   2.435   3.010   4.002  0.5093 -0.5068  0.0846
 4863SOL    HW226052   2.383   2.884   3.960  2.5243 -1.3424  0.7433
 4864SOL     OW26053   4.716   1.403   6.677  0.0393 -0.8695  0.2638
 4864SOL    HW126054   0.025   1.369   6.762 -1.0468 -0.1987  0.9191
 4864SOL    HW226055   0.070   1.448   6.638 -1.3771 -0.3598 -1.8770
 4865SOL     OW26056   1.109   1.650   4.306 -0.0803 -0.0049  0.3743
 4865SOL    HW126057   1.024   1.619   4.338  0.1538 -2.0826 -0.9967
 4865SOL    HW226058   1.110   1.589   4.232  1.1761  0.1138  0.2861
 4866SOL     OW26059   3.033   0.934   7.043  0.1389 -0.1696 -0.4840
 4866SOL    HW126060   3.029   0.976   7.129 -0.2666  1.2017 -1.1725
 4866SOL    HW226061   2.991   0.851   7.063  0.5537 -0.9067 -2.6414
 4867SOL     OW26062   3.604   2.757  11.819  0.1630  0.1470  0.3280
 4867SOL    HW126063   3.535   2.819  11.842 -1.6248 -1.7953  0.1386
 4867SOL    HW226064   3.549   2.686  11.787 -1.5436  1.0397  1.2729
 4868SOL     OW26065   4.392   4.439   0.423 -0.0167  0.9251  0.5021
 4868SOL    HW126066   4.312   4.485   0.448 -2.1666 -1.8074 -1.4396
 4868SOL    HW226067   4.435   4.513   0.380  0.9599  0.5450  0.8337
 4869SOL     OW26068   3.660   3.084   2.672  0.1101 -0.1943 -0.3404
 4869SOL    HW126069   3.741   3.042   2.642 -1.7937 -2.7676 -1.8863
 4869SOL    HW226070   3.602   3.066   2.599  1.9360 -1.1659 -1.5542
 4870SOL     OW26071   0.159   3.979  14.914  0.1056 -0.5089 -0.0979
 4870SOL    HW126072   0.132   4.037  14.843  3.3541  0.1656 -0.7919
 4870SOL    HW226073   0.073   3.956  14.950 -0.2980  3.5295  1.5369
 4871SOL     OW26074   3.239   1.847   5.311  0.4830  0.5625 -0.3060
 4871SOL    HW126075   3.279   1.914   5.255  0.0737  0.6052 -0.5429
 4871SOL    HW226076   3.146   1.861   5.293  0.7331  0.7360 -1.4617
 4872SOL     OW26077   0.819   3.401   7.840  0.5153  0.6576  0.1321
 4872SOL    HW126078   0.796   3.377   7.930 -0.6393 -1.0099 -0.6066
 4872SOL    HW226079   0.881   3.329   7.827 -1.1168 -1.2340  2.6755
 4873SOL     OW26080   2.428   3.771  13.020  0.3831 -0.3501  0.1967
 4873SOL    HW126081   2.430   3.853  13.070  0.3409 -0.3430  0.1866
 4873SOL    HW226082   2.339   3.747  13.046 -0.6010  0.6007 -2.2059
 4874SOL     OW26083   1.600   2.014   0.121 -0.0842  0.5656 -0.0206
 4874SOL    HW126084   1.694   2.027   0.112  0.1161  1.6775  3.6531
 4874SOL    HW226085   1.580   2.096   0.166  0.3379  0.1607  0.9138
 4875SOL     OW26086   4.438   3.987   7.758 -0.1864 -0.1582 -0.5408
 4875SOL    HW126087   4.524   3.962   7.792 -0.7006 -0.3505  0.6202
 4875SOL    HW226088   4.462   4.003   7.667  1.0018  1.5744  0.0631
 4876SOL     OW26089   1.977   2.891   5.169 -0.6233 -0.0342 -0.3744
 4876SOL    HW126090   1.899   2.838   5.156 -0.0843 -0.1421 -3.1773
 4876SOL    HW226091   2.041   2.842   5.117  0.4935  0.0166  0.9738
 4877SOL     OW26092   1.610   0.207   4.641 -0.8084  0.7336 -0.0024
 4877SOL    HW126093   1.680   0.228   4.578 -0.2060 -1.9696 -0.2248
 4877SOL    HW226094   1.639   0.119   4.663 -1.2978  0.0582 -2.0513
 4878SOL     OW26095   2.996   3.114  17.540  0.0170  0.1989  0.2334
 4878SOL    HW126096   3.024   3.126  17.631  0.6623 -1.3456  0.2396
 4878SOL    HW226097   2.909   3.154  17.544  1.8071  4.1004  0.4284
 4879SOL     OW26098   2.074   4.643   9.187  0.3429  0.4851 -0.0419
 4879SOL    HW126099   2.018   4.643   9.109  0.1805 -1.4816  0.0710
 4879SOL    HW226100   2.037   4.564   9.228  2.0543 -1.6430 -2.5614
 4880SOL     OW26101   1.030   4.023   3.696  0.3851  0.3868  0.2158
 4880SOL    HW126102   1.037   3.969   3.775  0.0612  2.4823  1.7007
 4880SOL    HW226103   0.951   3.987   3.655 -0.7059  2.2260  0.6990
 4881SOL     OW26104   4.373   0.379   4.531  0.6935 -0.5860  0.6140
 4881SOL    HW126105   4.411   0.438   4.465 -0.9058  0.7832  0.9194
 4881SOL    HW226106   4.407   0.296   4.496  0.5269  0.3521 -1.7846
 4882SOL     OW26107   2.317   1.195   0.478 -0.5812 -0.0655  0.2978
 4882SOL    HW126108   2.324   1.175   0.571 -1.9998  1.0192  0.6406
 4882SOL    HW226109   2.282   1.112   0.444  3.6404 -1.6299 -0.2372
 4883SOL     OW26110   1.612   1.535   6.612 -0.1412  0.5099 -0.1530
 4883SOL    HW126111   1.607   1.599   6.683  0.9489  0.3137  0.1025
 4883SOL    HW226112   1.692   1.493   6.642 -0.7287  1.9861  3.4889
 4884SOL     OW26113   3.299   4.300  13.397 -0.5018  0.2703 -0.0299
 4884SOL    HW126114   3.333   4.237  13.333  1.4497  1.0958  0.1889
 4884SOL    HW226115   3.212   4.313  13.361  0.0013  0.6557 -1.0998
 4885SOL     OW26116   2.420   1.971   8.075 -0.4144  0.1073 -0.1408
 4885SOL    HW126117   2.413   1.915   8.152  1.6706  0.6687  0.4713
 4885SOL    HW226118   2.355   1.936   8.015  1.0230 -2.1982 -0.3658
 4886SOL     OW26119   2.915   2.134   2.960  0.4380  0.0104 -0.1075
 4886SOL    HW126120   2.869   2.121   3.043 -0.9974  4.9234 -0.1863
 4886SOL    HW226121   2.845   2.137   2.895 -0.5451  0.2094  0.9609
 4887SOL     OW26122   1.909   1.659   7.700  0.2047 -0.4198 -0.1510
 4887SOL    HW126123   1.817   1.632   7.709 -0.1734  0.7329 -0.5656
 4887SOL    HW226124   1.888   1.744   7.661 -0.3597  0.3805  1.9033
 4888SOL     OW26125   3.339   2.146   8.334  0.1258  1.2071  0.1925
 4888SOL    HW126126   3.255   2.129   8.292  0.0607  1.0745  0.3776
 4888SOL    HW226127   3.381   2.214   8.280 -1.1979 -0.4205 -2.8827
 4889SOL     OW26128   0.456   2.019   6.215  0.1039 -0.0114  0.3334
 4889SOL    HW126129   0.444   2.098   6.162  0.1802 -0.5189 -0.4488
 4889SOL    HW226130   0.551   2.025   6.230  0.2975 -2.0820 -0.0771
 4890SOL     OW26131   2.510   4.046   8.451  0.3328  0.1174  0.4755
 4890SOL    HW126132   2.437   3.986   8.465  0.2041 -0.9425 -4.8626
 4890SOL    HW226133   2.587   4.014   8.498  1.0046 -1.5236 -1.7605
 4891SOL     OW26134   1.136   0.476   4.159  0.1087 -0.1081  0.1024
 4891SOL    HW126135   1.068   0.409   4.164 -1.8583  1.9865  1.6296
 4891SOL    HW226136   1.213   0.423   4.180 -0.0327  0.2107  1.4555
 4892SOL     OW26137   3.225   0.298  16.726  0.5785 -0.0463  0.3022
 4892SOL    HW126138   3.171   0.264  16.656  1.8643 -1.9786  0.2661
 4892SOL    HW226139   3.160   0.313  16.795 -0.4493 -0.1755 -0.6542
 4893SOL     OW26140   1.234   4.667   3.768  0.5431  0.1300 -0.8264
 4893SOL    HW126141   1.170   4.598   3.788  2.1671 -1.6667 -1.8364
 4893SOL    HW226142   1.266   4.656   3.678  0.8833  1.7649 -0.9042
 4894SOL     OW26143   0.895   3.125   7.759  0.0182 -0.1411 -0.0160
 4894SOL    HW126144   0.973   3.092   7.715 -0.3308 -1.1250  0.0984
 4894SOL    HW226145   0.910   3.077   7.840 -0.8372  0.0049  0.2319
 4895SOL     OW26146   4.211   1.089   3.844  0.3014 -0.4755 -0.7902
 4895SOL    HW126147   4.165   1.102   3.761 -2.3614 -0.0971  0.7509
 4895SOL    HW226148   4.301   1.084   3.811 -0.3396  0.3907 -2.6548
 4896SOL     OW26149   2.944   3.229   3.118 -0.5092 -0.4418 -1.0762
 4896SOL    HW126150   3.012   3.235   3.185 -2.1823 -0.9815  0.6709
 4896SOL    HW226151   2.996   3.244   3.039 -2.5137 -1.3766 -2.5870
 4897SOL     OW26152   0.757   0.375  14.234  0.2878  0.2410 -0.2580
 4897SOL    HW126153   0.799   0.443  14.287  1.4338 -3.1771  3.2252
 4897SOL    HW226154   0.822   0.305  14.239 -0.2275 -0.0786  2.0091
 4898SOL     OW26155   4.091   3.942   7.402  1.1091  0.2583  0.2154
 4898SOL    HW126156   4.002   3.958   7.433  0.0678 -0.7982 -2.2415
 4898SOL    HW226157   4.134   4.001   7.464 -1.6441  0.0666  2.2819
 4899SOL     OW26158   0.538   1.749   8.690 -0.1944  0.6323 -0.6727
 4899SOL    HW126159   0.595   1.743   8.614  0.0047  1.1356 -0.5662
 4899SOL    HW226160   0.477   1.818   8.663  0.2407  1.3886  0.2806
 4900SOL     OW26161   1.909   3.402   3.480 -0.4538 -0.2602  0.2782
 4900SOL    HW126162   1.977   3.448   3.529  2.1234 -0.2372 -3.2937
 4900SOL    HW226163   1.858   3.477   3.448 -0.5992  0.1353  1.4288
 4901SOL     OW26164   3.703   3.812   5.409 -0.2041 -0.3792 -0.1931
 4901SOL    HW126165   3.766   3.764   5.354  1.1167  1.1494  0.0001
 4901SOL    HW226166   3.717   3.753   5.483  1.0019 -1.5041 -1.3004
 4902SOL     OW26167   2.038   3.943   3.781  0.7860 -0.5278  0.5406
 4902SOL    HW126168   2.064   3.963   3.691 -0.4511 -0.6420  0.1656
 4902SOL    HW226169   2.120   3.902   3.808  3.0185  1.4784 -3.1192
 4903SOL     OW26170   0.154   1.572  10.440  0.7492 -0.1823 -0.0015
 4903SOL    HW126171   0.237   1.618  10.455  1.2151 -0.9610 -0.1348
 4903SOL    HW226172   0.116   1.641  10.387  1.7924 -1.5583 -2.5132
 4904SOL     OW26173   1.437   4.295  16.832  0.7506 -0.4299  0.3817
 4904SOL    HW126174   1.379   4.246  16.891  0.0908  0.1467  0.2019
 4904SOL    HW226175   1.504   4.229  16.816  2.1351  0.8273  0.9769
 4905SOL     OW26176   3.941   2.358   3.874 -0.2749  0.2547  0.7551
 4905SOL    HW126177   4.032   2.381   3.893  0.4039 -1.5645 -0.2539
 4905SOL    HW226178   3.903   2.445   3.867  1.1203  0.8539  0.8025
 4906SOL     OW26179   4.525   4.361   8.260 -0.1928  0.1602 -0.4720
 4906SOL    HW126180   4.549   4.271   8.238 -0.2047 -0.4543  2.0359
 4906SOL    HW226181   4.589   4.406   8.205  0.7665  1.0443  1.3847
 4907SOL     OW26182   4.171   4.661  16.161  0.5637 -0.2683  0.4034
 4907SOL    HW126183   4.200   4.648  16.071 -1.2681  0.8336 -0.3337
 4907SOL    HW226184   4.077   4.655  16.147  0.3885 -0.2456  1.5311
 4908SOL     OW26185   2.202   0.799   4.150  0.3429  0.1169  0.1712
 4908SOL    HW126186   2.264   0.735   4.187 -2.1676 -1.5597  1.4829
 4908SOL    HW226187   2.159   0.742   4.086  0.3240 -0.1365  0.4085
 4909SOL     OW26188   3.551   1.458   3.574  0.1167  0.9941  0.2440
 4909SOL    HW126189   3.457   1.474   3.576 -0.3021 -1.4439  0.9939
 4909SOL    HW226190   3.564   1.382   3.518 -0.2002  1.4605 -0.4529
 4910SOL     OW26191   3.778   1.728  14.190  0.4082  0.1759 -0.0866
 4910SOL    HW126192   3.733   1.668  14.249  1.2142 -1.2107 -0.8745
 4910SOL    HW226193   3.714   1.796  14.167 -0.6369 -0.0452  2.1492
 4911SOL     OW26194   1.377   0.397   4.286  0.6574 -0.8558 -0.1428
 4911SOL    HW126195   1.367   0.302   4.289  3.1213 -1.1151 -0.7170
 4911SOL    HW226196   1.443   0.413   4.219 -1.0887  1.0768 -1.4079
 4912SOL     OW26197   1.298   0.215   5.907  0.1155 -0.2277  0.0390
 4912SOL    HW126198   1.267   0.157   5.838 -0.0912 -0.4610  0.3288
 4912SOL    HW226199   1.315   0.296   5.860  0.2926  0.2133  0.8661
 4913SOL     OW26200   4.246   3.330   9.637  0.0926  0.4752  0.1189
 4913SOL    HW126201   4.170   3.383   9.663  0.9148  0.6659  2.1148
 4913SOL    HW226202   4.263   3.282   9.718  2.4149  0.3166 -0.4760
 4914SOL     OW26203   1.546   2.224   4.786  0.1362  0.1050 -0.2086
 4914SOL    HW126204   1.498   2.212   4.868  1.4247 -0.9516  0.4027
 4914SOL    HW226205   1.627   2.256   4.825 -0.4815  1.5362 -0.1225
 4915SOL     OW26206   0.508   1.206   0.849  0.4705 -0.0776  0.5637
 4915SOL    HW126207   0.599   1.187   0.828  0.6190  1.4378 -0.1811
 4915SOL    HW226208   0.473   1.118   0.863 -0.2581 -0.1512 -1.6462
 4916SOL     OW26209   4.565   3.944  10.745 -0.4366 -0.1355  0.0360
 4916SOL    HW126210   4.593   3.853  10.737  0.1383  0.0046  0.3818
 4916SOL    HW226211   4.476   3.943  10.710 -0.5961  0.1651  0.4267
 4917SOL     OW26212   1.120   4.228  16.805 -0.4936 -0.5751 -0.3148
 4917SOL    HW126213   1.157   4.170  16.871 -0.9990 -1.1308 -0.5196
 4917SOL    HW226214   1.039   4.260  16.845  0.3493  1.6029 -0.3599
 4918SOL     OW26215   1.869   3.486   6.769  0.0792 -0.0122  0.7043
 4918SOL    HW126216   1.954   3.495   6.727 -0.8575 -1.9157 -1.5901
 4918SOL    HW226217   1.808   3.464   6.699 -2.5097  0.7230  2.7133
 4919SOL     OW26218   0.116   1.979   6.334 -0.3081 -0.2204  1.0148
 4919SOL    HW126219   0.153   1.926   6.264 -2.0831 -0.6039  0.3578
 4919SOL    HW226220   0.137   1.919   6.406  4.1341  0.3713  0.1663
 4920SOL     OW26221   3.725   1.063   7.454  0.5387 -0.0565  0.1194
 4920SOL    HW126222   3.745   0.985   7.505  1.0106 -0.0764 -0.0957
 4920SOL    HW226223   3.808   1.111   7.460 -1.2113  2.6132  2.6000
 4921SOL     OW26224   3.362   4.055   4.657  0.2261 -0.3066 -0.1510
 4921SOL    HW126225   3.281   4.100   4.632 -0.3501 -1.1859  0.1379
 4921SOL    HW226226   3.417   4.131   4.640  2.9901 -2.1064  0.8500
 4922SOL     OW26227   1.228   1.905   8.227  0.5073 -0.3994  0.7037
 4922SOL    HW126228   1.244   1.885   8.320 -0.8311 -1.3920  0.7258
 4922SOL    HW226229   1.212   1.999   8.237  1.2869 -0.0491 -1.5126
 4923SOL     OW26230   3.729   3.055  13.357 -0.2241  0.1402  0.0005
 4923SOL    HW126231   3.699   3.132  13.308 -0.4926 -1.4356 -2.3403
 4923SOL    HW226232   3.659   2.992  13.340 -0.5343 -0.1246  2.2187
 4924SOL     OW26233   1.971   1.426   1.983 -0.1504 -0.0097  0.1816
 4924SOL    HW126234   1.984   1.447   2.075 -0.5538  1.3336 -0.0637
 4924SOL    HW226235   1.951   1.332   1.985 -0.7845  0.1565  1.2413
 4925SOL     OW26236   0.042   1.767  10.260  0.8389  0.0195  0.1293
 4925SOL    HW126237   0.074   1.766  10.170  2.1312 -1.4494  0.6130
 4925SOL    HW226238   0.093   1.841  10.293  1.5977  0.0174 -1.0555
 4926SOL     OW26239   2.510   3.565  10.593 -0.0305 -0.4410 -0.4058
 4926SOL    HW126240   2.453   3.511  10.539 -1.0309  0.9642 -0.7786
 4926SOL    HW226241   2.460   3.646  10.583 -0.9369 -0.6560  2.3108
 4927SOL     OW26242   2.576   4.390   6.459  0.1657  0.4746  0.1667
 4927SOL    HW126243   2.498   4.436   6.490 -1.0290 -1.0087 -0.7149
 4927SOL    HW226244   2.560   4.309   6.507 -1.4462  0.6344 -0.1024
 4928SOL     OW26245   3.607   3.829   9.261  0.0414 -0.1287 -0.1720
 4928SOL    HW126246   3.610   3.869   9.347  0.9931 -1.4563  0.4181
 4928SOL    HW226247   3.537   3.884   9.226 -0.0365 -0.5212 -0.6471
 4929SOL     OW26248   0.603   4.455   6.181  0.1714 -0.3544 -0.0989
 4929SOL    HW126249   0.641   4.542   6.190 -2.8643  1.0443 -0.8763
 4929SOL    HW226250   0.638   4.405   6.255  0.0800 -0.7395 -0.3146
 4930SOL     OW26251   1.450   4.594   5.027  0.0961 -0.0718 -0.3378
 4930SOL    HW126252   1.537   4.629   5.004  1.1641 -1.2217  1.9727
 4930SOL    HW226253   1.443   4.533   4.953 -0.0524  0.3118 -0.6414
 4931SOL     OW26254   4.466   0.654  16.071 -0.2689  0.3401  0.3675
 4931SOL    HW126255   4.472   0.711  15.995  0.6616 -0.2214  0.0205
 4931SOL    HW226256   4.390   0.692  16.117  0.4768 -1.0405  2.7414
 4932SOL     OW26257   3.325   2.285   7.153  0.2487 -0.3336 -0.0545
 4932SOL    HW126258   3.359   2.322   7.235 -0.5305  1.9250 -0.7399
 4932SOL    HW226259   3.256   2.225   7.182 -2.6678  1.4883 -3.3338
 4933SOL     OW26260   2.669   2.279   9.938  0.6729 -0.2477  0.0120
 4933SOL    HW126261   2.671   2.188   9.909 -0.1306  0.7454 -3.1848
 4933SOL    HW226262   2.728   2.323   9.876 -1.5655 -0.4867 -2.2848
 4934SOL     OW26263   2.009   4.274   7.371 -0.8021 -0.7987  0.0558
 4934SOL    HW126264   2.033   4.232   7.289 -1.4938  0.2674 -0.6831
 4934SOL    HW226265   1.948   4.342   7.343  0.1067  0.6748  1.6480
 4935SOL     OW26266   3.820   4.253   6.051 -0.1211  0.3466  0.4006
 4935SOL    HW126267   3.817   4.240   5.956  0.6353 -1.0884  0.5682
 4935SOL    HW226268   3.795   4.345   6.058  0.6742  0.6931 -1.0906
 4936SOL     OW26269   0.010   2.497   4.408  0.1665  0.2740 -0.5688
 4936SOL    HW126270   0.052   2.469   4.489  0.1024  1.8368  0.0059
 4936SOL    HW226271   0.033   2.423   4.351 -0.7255 -0.4594  0.0259
 4937SOL     OW26272   3.078   4.021   3.634 -0.2796  0.1064 -0.3542
 4937SOL    HW126273   3.020   4.093   3.609  1.8286  2.7355  2.3184
 4937SOL    HW226274   3.021   3.971   3.692 -0.0326 -1.9974 -1.9170
 4938SOL     OW26275   2.859   1.945   5.786  0.2868 -0.0402  0.0927
 4938SOL    HW126276   2.826   2.031   5.760 -1.5978 -0.6458  0.5246
 4938SOL    HW226277   2.820   1.922   5.870 -0.0962 -1.9423 -0.6181
 4939SOL     OW26278   3.413   4.031  11.458  0.0809  0.1394  0.4554
 4939SOL    HW126279   3.495   4.008  11.414  0.1351  0.0533  0.6019
 4939SOL    HW226280   3.395   4.123  11.437 -1.4169 -0.4159 -0.7215
 4940SOL     OW26281   1.107   2.029   5.757  0.3761  0.3089 -0.3211
 4940SOL    HW126282   1.190   1.985   5.736  0.3969  0.8660 -1.4081
 4940SOL    HW226283   1.077   1.954   5.808  0.8427  1.1366  1.1535
 4941SOL     OW26284   1.481   0.237  17.535  0.2967 -0.3692 -0.5960
 4941SOL    HW126285   1.515   0.147  17.539  0.3484 -0.3928 -1.5070
 4941SOL    HW226286   1.559   0.271  17.490 -0.2255  0.2956 -0.9939
 4942SOL     OW26287   4.688   3.130   6.397  0.3900 -0.2297 -0.1747
 4942SOL    HW126288   4.689   3.039   6.367  0.9738 -1.2096  2.8102
 4942SOL    HW226289   4.645   3.170   6.321 -1.2643  1.3392  1.5709
 4943SOL     OW26290   3.817   1.025  10.064 -0.0629 -0.2223 -0.4850
 4943SOL    HW126291   3.881   0.959  10.092  1.6748  2.0332  0.8194
 4943SOL    HW226292   3.829   1.045   9.971  0.2713  0.1307 -0.3679
 4944SOL     OW26293   0.338   2.069  15.194 -0.5240 -0.0675  0.3638
 4944SOL    HW126294   0.263   2.012  15.177  0.1144  0.0107 -2.6408
 4944SOL    HW226295   0.411   2.009  15.178  1.3090  1.6500  2.2010
 4945SOL     OW26296   3.740   3.413  11.511  0.2358 -0.2777  0.0981
 4945SOL    HW126297   3.750   3.399  11.605 -0.0566 -1.6453 -0.0813
 4945SOL    HW226298   3.658   3.463  11.509  0.6522  0.4117  0.2527
 4946SOL     OW26299   3.709   2.451   6.292  0.4046 -0.0185 -0.0779
 4946SOL    HW126300   3.714   2.413   6.204  1.2505 -1.0236  0.4106
 4946SOL    HW226301   3.648   2.396   6.341  1.4724 -1.2631 -0.1695
 4947SOL     OW26302   4.447   2.597   8.272  0.1070 -0.4002  0.0597
 4947SOL    HW126303   4.438   2.654   8.196 -1.6427  1.6871  1.8167
 4947SOL    HW226304   4.486   2.522   8.228  2.4995  2.4733 -2.6509
 4948SOL     OW26305   0.410   2.202   3.555 -0.5925 -0.5732  0.0052
 4948SOL    HW126306   0.433   2.139   3.487  1.3696 -0.0946  0.2198
 4948SOL    HW226307   0.486   2.261   3.554 -0.0321 -1.2928  0.3075
 4949SOL     OW26308   1.986   2.090  12.305 -0.3577 -0.0540  0.0948
 4949SOL    HW126309   1.994   2.184  12.286  1.6466 -0.0882  0.8268
 4949SOL    HW226310   1.910   2.093  12.363 -1.3898 -0.5759 -1.2138
 4950SOL     OW26311   0.941   2.596   0.160  0.2850 -0.2375  0.7869
 4950SOL    HW126312   0.955   2.618   0.068 -1.3263 -1.4011  0.2662
 4950SOL    HW226313   0.862   2.647   0.178 -0.3445  0.1685 -3.2187
 4951SOL     OW26314   1.846   2.284   2.994  0.5792 -0.0346 -0.2525
 4951SOL    HW126315   1.850   2.199   3.037  1.3151 -0.3108 -0.8658
 4951SOL    HW226316   1.904   2.277   2.918  0.3510  1.9089 -0.6190
 4952SOL     OW26317   0.557   2.479   9.869  0.1269  0.0063 -0.0957
 4952SOL    HW126318   0.582   2.465   9.960  1.7938 -1.4773 -0.7698
 4952SOL    HW226319   0.598   2.398   9.837 -1.3988  0.0107 -2.0854
 4953SOL     OW26320   2.934   3.042   9.929 -0.4120  0.6649  0.5311
 4953SOL    HW126321   2.867   3.000   9.876 -0.9623 -0.2660  1.9592
 4953SOL    HW226322   2.877   3.074   9.999 -0.3190  0.7115  0.5866
 4954SOL     OW26323   2.117   1.805  13.195  0.6075  0.2503  0.0588
 4954SOL    HW126324   2.040   1.826  13.142  1.2190 -1.6816 -1.5856
 4954SOL    HW226325   2.104   1.711  13.204 -1.8621  0.5744 -0.1429
 4955SOL     OW26326   2.155   2.386  11.690 -0.3394  1.0436 -0.5180
 4955SOL    HW126327   2.177   2.467  11.737 -0.6149  1.4801 -1.1522
 4955SOL    HW226328   2.105   2.335  11.754  0.6834 -0.4479 -0.9220
 4956SOL     OW26329   2.742   3.995   2.023  0.2575  0.1224 -0.6263
 4956SOL    HW126330   2.703   4.074   1.987 -1.3049 -1.3461 -2.1198
 4956SOL    HW226331   2.755   4.026   2.113  1.3040 -2.2527  0.0674
 4957SOL     OW26332   1.302   4.507  11.016  0.0467  0.6294 -0.3310
 4957SOL    HW126333   1.389   4.487  10.983  0.5745  0.3635  1.1996
 4957SOL    HW226334   1.266   4.563  10.948  1.6530  1.0259 -0.8513
 4958SOL     OW26335   2.326   4.211   7.446 -0.0587  0.1955  0.1657
 4958SOL    HW126336   2.362   4.299   7.434 -0.4818  0.2117 -0.9679
 4958SOL    HW226337   2.306   4.184   7.356 -1.0175  1.7681 -0.0764
 4959SOL     OW26338   4.706   2.745  11.721 -0.2844  0.4858 -0.0999
 4959SOL    HW126339   4.676   2.678  11.782 -0.1561  0.6737  0.1748
 4959SOL    HW226340   4.658   2.825  11.744  0.6782  1.3525 -1.1481
 4960SOL     OW26341   3.854   2.352   5.084 -0.0142 -0.0438 -0.3568
 4960SOL    HW126342   3.879   2.349   5.176  0.1640 -0.2011 -0.4102
 4960SOL    HW226343   3.781   2.413   5.085  0.3071  0.3842 -2.0498
 4961SOL     OW26344   2.122   2.352  11.068  0.0670 -0.6782  0.1630
 4961SOL    HW126345   2.195   2.413  11.074  0.9074 -1.7471  0.8779
 4961SOL    HW226346   2.089   2.376  10.982  1.3276 -1.6159 -0.5805
 4962SOL     OW26347   4.368   3.885  16.871 -0.1019 -0.1121  0.0483
 4962SOL    HW126348   4.388   3.958  16.929 -0.0998 -2.0691  2.5546
 4962SOL    HW226349   4.288   3.914  16.826  1.6352  1.0268 -2.2863
 4963SOL     OW26350   3.304   1.913   6.185  0.6300  0.3073 -0.0802
 4963SOL    HW126351   3.364   1.840   6.199 -3.1930 -2.3720  2.2536
 4963SOL    HW226352   3.372   1.979   6.173  0.8600 -0.0294 -0.6298
 4964SOL     OW26353   0.293   0.664   3.353  0.4118  0.6317  0.0985
 4964SOL    HW126354   0.207   0.679   3.314  1.5359  3.1345 -1.3648
 4964SOL    HW226355   0.348   0.638   3.279 -0.8912  1.3109 -1.0815
 4965SOL     OW26356   2.978   3.435   2.519  0.3940 -0.3349  0.0822
 4965SOL    HW126357   3.027   3.357   2.494  0.6838 -0.1590  0.0983
 4965SOL    HW226358   3.047   3.500   2.526 -0.5933  0.5511  1.6733
 4966SOL     OW26359   1.854   3.882   7.314  0.0711  0.1305 -0.3545
 4966SOL    HW126360   1.872   3.934   7.393  1.0395  0.5370 -0.8444
 4966SOL    HW226361   1.759   3.895   7.311  0.0117 -0.4204 -0.7814
 4967SOL     OW26362   4.204   0.781   3.345  0.1046  0.6470 -0.4765
 4967SOL    HW126363   4.217   0.876   3.347  2.0160  0.3621  1.0993
 4967SOL    HW226364   4.199   0.749   3.435 -2.7050 -0.2539 -0.9613
 4968SOL     OW26365   4.669   2.202  11.666  0.8141  0.3041  0.2573
 4968SOL    HW126366   4.681   2.111  11.639 -0.1863  0.5833 -1.1270
 4968SOL    HW226367   4.575   2.203  11.648  0.9952 -1.0508 -0.7571
 4969SOL     OW26368   2.857   2.745   4.402 -0.9850  0.2211  0.3130
 4969SOL    HW126369   2.895   2.808   4.463 -0.4030 -0.8756  1.0776
 4969SOL    HW226370   2.898   2.768   4.319  1.1785 -0.5711  1.1615
 4970SOL     OW26371   0.959   2.776   4.317  0.5349  0.1328 -0.3435
 4970SOL    HW126372   0.887   2.806   4.372  1.0111  1.1070 -0.2544
 4970SOL    HW226373   1.030   2.816   4.367  0.5822  0.6734 -0.8320
 4971SOL     OW26374   2.368   1.292   7.313 -0.2669 -0.4037 -0.1887
 4971SOL    HW126375   2.342   1.314   7.223 -1.2579  0.7892  0.3953
 4971SOL    HW226376   2.460   1.320   7.313 -0.7536  1.2273 -1.1358
 4972SOL     OW26377   1.825   1.392  17.633  1.0040  0.3284  0.6644
 4972SOL    HW126378   1.831   1.427   0.036  1.7047  1.4290  0.1716
 4972SOL    HW226379   1.765   1.318  17.644 -0.5110  1.1247 -2.0896
 4973SOL     OW26380   2.918   0.609  15.438  1.2986 -0.0061 -0.6473
 4973SOL    HW126381   2.906   0.639  15.528  1.1735 -0.2946 -0.5673
 4973SOL    HW226382   2.992   0.664  15.413  0.3925  2.5431  2.3899
 4974SOL     OW26383   2.205   1.620   0.274 -0.1291 -0.4614 -0.0506
 4974SOL    HW126384   2.293   1.638   0.243 -0.6822  0.1828 -1.2426
 4974SOL    HW226385   2.181   1.539   0.229 -1.2132 -0.7325  1.0035
 4975SOL     OW26386   2.397   1.380   0.287 -0.3827 -0.1785 -0.1601
 4975SOL    HW126387   2.319   1.340   0.250  0.2317 -1.6635  0.1448
 4975SOL    HW226388   2.395   1.335   0.372 -0.8402  2.5119  1.2492
 4976SOL     OW26389   2.928   4.202   5.768 -0.4577  0.2518 -0.5488
 4976SOL    HW126390   2.943   4.117   5.812 -1.3484 -1.0328 -2.7579
 4976SOL    HW226391   2.989   4.190   5.695 -0.3960  1.2854 -0.6630
 4977SOL     OW26392   4.322   4.573   8.284 -0.2257 -0.2861 -0.1175
 4977SOL    HW126393   4.377   4.504   8.247  2.0409  2.3227 -1.6877
 4977SOL    HW226394   4.232   4.541   8.282  0.0170 -1.0121  0.7108
 4978SOL     OW26395   2.585   2.016   6.321  0.3406  0.2289  0.6556
 4978SOL    HW126396   2.549   1.988   6.405 -1.4626 -0.8177 -0.4834
 4978SOL    HW226397   2.507   2.049   6.277 -0.7006 -1.9500  0.9153
 4979SOL     OW26398   3.667   2.598   5.456 -0.4566  0.4026  0.7957
 4979SOL    HW126399   3.621   2.666   5.407  0.2226  0.4062  0.1731
 4979SOL    HW226400   3.601   2.564   5.518 -0.1001  1.3555  1.6953
 4980SOL     OW26401   0.931   2.889   3.155 -0.4506  0.2142  0.6499
 4980SOL    HW126402   0.851   2.866   3.202 -1.1546  0.8224 -0.2484
 4980SOL    HW226403   0.990   2.888   3.230 -2.2918  1.9216  2.1008
 4981SOL     OW26404   1.696   1.188   8.779  0.4184 -0.2274  0.2020
 4981SOL    HW126405   1.706   1.110   8.834  0.2161  0.9074  1.8535
 4981SOL    HW226406   1.781   1.183   8.736  0.1166  0.1167 -0.4340
 4982SOL     OW26407   3.732   3.736   4.872 -0.1002 -0.2627 -0.6466
 4982SOL    HW126408   3.659   3.746   4.810 -1.0267 -2.0523  0.1687
 4982SOL    HW226409   3.748   3.642   4.876 -2.6472 -0.7811 -2.8981
 4983SOL     OW26410   4.152   0.605   4.909 -0.4095  0.0512  0.2767
 4983SOL    HW126411   4.188   0.621   4.996  0.7255 -2.2762  0.2412
 4983SOL    HW226412   4.218   0.545   4.872 -2.1917 -0.9144 -1.3481
 4984SOL     OW26413   2.077   4.649   7.368  0.0334  0.0613 -0.6120
 4984SOL    HW126414   2.059   4.601   7.449 -2.0037 -0.3731 -1.3486
 4984SOL    HW226415   2.049   0.017   7.393  1.4950  0.0248  1.1568
 4985SOL     OW26416   2.610   1.950   5.177 -0.2095 -0.1034 -0.2761
 4985SOL    HW126417   2.661   2.030   5.170  1.5605 -1.1959  0.1570
 4985SOL    HW226418   2.590   1.951   5.270  0.3698 -0.6374 -0.1454
 4986SOL     OW26419   0.582   1.828   4.161 -0.0278  0.2047  1.0997
 4986SOL    HW126420   0.519   1.803   4.094  1.6394 -1.7615  0.2771
 4986SOL    HW226421   0.594   1.737   4.189  0.1499 -0.4993 -1.3285
 4987SOL     OW26422   1.186   3.602   7.363 -0.2442  0.4442  0.3604
 4987SOL    HW126423   1.203   3.619   7.456 -2.3839  1.5460  0.5484
 4987SOL    HW226424   1.196   3.507   7.360 -2.3272  0.2446  0.0557
 4988SOL     OW26425   4.510   4.464   0.755  0.0453 -0.0657 -0.0440
 4988SOL    HW126426   4.511   4.532   0.822 -1.5527 -0.1678  0.0874
 4988SOL    HW226427   4.541   4.518   0.683 -0.0340 -0.0154 -0.0402
 4989SOL     OW26428   3.019   0.249   1.684 -0.1906 -0.2791 -0.4271
 4989SOL    HW126429   2.991   0.158   1.697  0.8104 -0.4477  0.5286
 4989SOL    HW226430   3.110   0.231   1.661 -0.0728 -0.0821 -0.1198
 4990SOL     OW26431   2.161   1.709   2.123  0.3177 -0.0023  0.0905
 4990SOL    HW126432   2.208   1.786   2.156  2.7120 -1.2422 -0.3846
 4990SOL    HW226433   2.213   1.705   2.042  0.2406  4.6890 -0.2177
 4991SOL     OW26434   3.637   3.264  16.542 -0.7172 -0.1327 -0.6974
 4991SOL    HW126435   3.670   3.354  16.532 -2.7533  0.4906 -1.9727
 4991SOL    HW226436   3.648   3.236  16.451  0.2695  0.0634 -0.6362
 4992SOL     OW26437   1.191   3.474  15.846 -0.1950  0.2810  0.1387
 4992SOL    HW126438   1.286   3.462  15.847  0.1054  2.7129  0.1544
 4992SOL    HW226439   1.179   3.563  15.878  0.2897  0.5247 -0.3436
 4993SOL     OW26440   1.259   4.363  11.247  0.6879 -0.3255 -1.3313
 4993SOL    HW126441   1.321   4.421  11.293  0.5621 -0.7461 -0.6376
 4993SOL    HW226442   1.250   4.401  11.159 -1.3944  0.6382 -0.7083
 4994SOL     OW26443   1.316   0.295   9.703 -0.9564  0.2026 -0.0205
 4994SOL    HW126444   1.317   0.262   9.613  1.5895  1.9490 -0.6111
 4994SOL    HW226445   1.223   0.286   9.725 -0.6785 -0.2721  0.9581
 4995SOL     OW26446   3.263   0.045   8.565  0.8458  0.4322 -0.0268
 4995SOL    HW126447   3.315   0.105   8.511  1.2772 -0.8813 -1.0950
 4995SOL    HW226448   3.202   4.716   8.510 -2.1460  2.9071  1.0819
 4996SOL     OW26449   3.974   1.977   6.409 -0.4269  0.0966  0.1159
 4996SOL    HW126450   3.947   1.943   6.495 -0.8205 -0.6197 -0.2880
 4996SOL    HW226451   4.068   1.961   6.416 -0.4734  0.0011  0.5460
 4997SOL     OW26452   2.911   3.717   5.457 -0.0880  0.0611  0.4377
 4997SOL    HW126453   2.878   3.804   5.480  0.9577  0.7044 -0.5290
 4997SOL    HW226454   2.831   3.682   5.416  1.0034 -3.5840  1.4269
 4998SOL     OW26455   2.704   2.747   2.084 -0.6848 -0.1074 -0.0317
 4998SOL    HW126456   2.703   2.818   2.149  2.1256  1.0932 -1.2656
 4998SOL    HW226457   2.763   2.787   2.019  2.2252 -1.5351  1.6984
 4999SOL     OW26458   0.292   0.421   2.794 -0.6516  0.2454 -0.2129
 4999SOL    HW126459   0.297   0.327   2.814  0.5726 -0.0948 -2.1150
 4999SOL    HW226460   0.201   0.436   2.820  0.0874  3.6272  0.3506
 5000SOL     OW26461   3.786   1.366   0.088  0.1115  0.0199  0.0057
 5000SOL    HW126462   3.712   1.309   0.069 -1.3896  2.4565 -1.4322
 5000SOL    HW226463   3.764   1.445   0.039 -0.7543 -0.2861 -0.0957
 5001SOL     OW26464   0.988   0.524  16.644 -0.2938 -0.4829  0.2576
 5001SOL    HW126465   0.940   0.442  16.642 -0.1791 -0.5499  0.2241
 5001SOL    HW226466   0.979   0.565  16.558 -2.0424 -1.3625  0.0151
 5002SOL     OW26467   2.455   0.295  16.239 -0.5898 -0.1409 -0.0090
 5002SOL    HW126468   2.392   0.226  16.220 -0.5287  0.9562 -4.2162
 5002SOL    HW226469   2.508   0.293  16.160  1.3308  2.4664  1.2090
 5003SOL     OW26470   4.486   2.475   4.172 -0.1394  0.0316 -0.5085
 5003SOL    HW126471   4.483   2.567   4.148  0.3493  0.1595 -0.0663
 5003SOL    HW226472   4.392   2.463   4.189  0.1311 -0.6052  0.5811
 5004SOL     OW26473   1.486   4.260   3.996  1.0412 -0.2082 -0.2482
 5004SOL    HW126474   1.477   4.171   3.963  0.1899 -0.8306  1.6958
 5004SOL    HW226475   1.418   4.300   3.941 -0.1374  0.5941  1.7711
 5005SOL     OW26476   3.173   1.217   4.768  0.1627  0.3146 -0.2088
 5005SOL    HW126477   3.171   1.312   4.767 -0.2840  0.3144  0.6234
 5005SOL    HW226478   3.212   1.190   4.851 -0.1240  0.4375 -0.0331
 5006SOL     OW26479   2.399   2.069   0.508  0.0881 -0.0228 -0.3195
 5006SOL    HW126480   2.347   1.989   0.495 -0.8301  0.8755 -2.1446
 5006SOL    HW226481   2.438   2.055   0.594 -0.4170 -2.6709 -0.4965
 5007SOL     OW26482   0.999   3.312   5.140 -0.4332  0.1283  0.0120
 5007SOL    HW126483   1.047   3.373   5.083  0.0966  0.4111  0.7543
 5007SOL    HW226484   0.977   3.238   5.083 -1.2554 -0.3622  0.9799
 5008SOL     OW26485   0.939   0.994   9.240 -0.2367  0.0519  0.1827
 5008SOL    HW126486   0.960   0.945   9.319  0.1488 -0.8386 -0.4621
 5008SOL    HW226487   0.992   0.950   9.173  1.0784  0.8727  0.7058
 5009SOL     OW26488   4.490   2.980   2.211 -0.1015 -0.0875  0.5567
 5009SOL    HW126489   4.568   2.928   2.231  0.5448 -0.2080 -2.2794
 5009SOL    HW226490   4.456   2.992   2.299  0.5001 -0.5168  0.8438
 5010SOL     OW26491   0.841   4.545  16.813  0.2516 -0.4936  0.7433
 5010SOL    HW126492   0.767   4.592  16.851  0.7751  1.7504 -1.0256
 5010SOL    HW226493   0.804   4.539  16.725 -1.6045  1.2714  1.4216
 5011SOL     OW26494   2.601   0.147   2.979  0.1157 -0.2362 -1.2670
 5011SOL    HW126495   2.539   0.095   3.029  1.6314 -0.9832 -0.1687
 5011SOL    HW226496   2.553   0.230   2.978  2.2389  1.0414  1.3935
 5012SOL     OW26497   4.295   0.982  17.361  0.5052  0.7391  0.1481
 5012SOL    HW126498   4.260   0.896  17.381 -0.1224  0.7300 -1.0092
 5012SOL    HW226499   4.214   1.029  17.379 -0.9805 -1.6568 -0.3180
 5013SOL     OW26500   0.546   2.942  11.741  0.1409 -0.4185  0.3052
 5013SOL    HW126501   0.607   2.868  11.731  1.6970  0.8264  0.4952
 5013SOL    HW226502   0.496   2.909  11.816  3.2357 -3.7625  0.9109
 5014SOL     OW26503   1.268   0.062   9.508 -0.0834  0.0701  0.0197
 5014SOL    HW126504   1.197   0.101   9.457 -0.4777 -0.0909  0.4448
 5014SOL    HW226505   1.256   4.690   9.488 -0.4561  0.3619 -1.1239
 5015SOL     OW26506   1.914   2.348   5.853  0.4253  0.7657 -0.2299
 5015SOL    HW126507   2.003   2.346   5.887  0.2041  1.2839  0.3779
 5015SOL    HW226508   1.934   2.280   5.788  2.4835  2.8501 -1.7474
 5016SOL     OW26509   1.977   0.193   4.150  0.4600 -0.6418  0.9497
 5016SOL    HW126510   2.006   0.103   4.136  1.1878 -0.3633  0.6179
 5016SOL    HW226511   2.059   0.242   4.164  1.2901 -2.0930  1.1884
 5017SOL     OW26512   2.743   3.920   8.605  0.4301 -0.4727 -0.2164
 5017SOL    HW126513   2.758   3.835   8.564  1.8489 -0.4850  0.3351
 5017SOL    HW226514   2.803   3.913   8.679  1.9130  2.6569 -1.1442
 5018SOL     OW26515   4.048   3.072   8.337  0.3056  0.5082  0.0608
 5018SOL    HW126516   3.957   3.072   8.310  0.3724  1.8590 -0.1604
 5018SOL    HW226517   4.072   2.982   8.316 -2.6533 -0.4121  0.6405
 5019SOL     OW26518   2.248   4.119   5.392 -0.0991  0.0361 -0.2861
 5019SOL    HW126519   2.342   4.107   5.379 -0.1458  0.9956 -1.4771
 5019SOL    HW226520   2.252   4.112   5.488  0.8963 -1.3055 -0.4314
 5020SOL     OW26521   3.203   3.072   8.459  0.3364  0.5838  0.0359
 5020SOL    HW126522   3.156   3.006   8.408 -0.0893 -0.2348  1.4821
 5020SOL    HW226523   3.166   3.152   8.423  1.3539  0.8155 -0.5034
 5021SOL     OW26524   1.058   3.701   5.953  0.2884 -0.2201 -0.2854
 5021SOL    HW126525   1.106   3.739   6.026 -0.4863  0.3651 -0.0725
 5021SOL    HW226526   0.998   3.637   5.990 -0.8868 -0.1983 -2.1281
 5022SOL     OW26527   2.833   1.606   5.207  0.0113 -0.3238 -0.7415
 5022SOL    HW126528   2.769   1.555   5.256  1.3609 -1.1633  0.1388
 5022SOL    HW226529   2.794   1.608   5.120 -1.0211 -0.2849 -0.2813
 5023SOL     OW26530   3.451   0.763   0.064  0.1328 -0.0664  0.0365
 5023SOL    HW126531   3.511   0.708   0.115 -0.8046 -0.8141  0.3358
 5023SOL    HW226532   3.509   0.839   0.053 -0.1559  0.2980  1.0050
 5024SOL     OW26533   4.292   3.435   5.154  0.3397  0.1870 -0.0143
 5024SOL    HW126534   4.339   3.512   5.186  0.2531  0.8420 -1.4314
 5024SOL    HW226535   4.355   3.376   5.113 -0.3285 -0.5718  0.0563
 5025SOL     OW26536   2.587   2.050   1.836 -0.2610  0.4085  0.2432
 5025SOL    HW126537   2.577   2.141   1.810  2.3732  0.8684  0.8122
 5025SOL    HW226538   2.599   2.017   1.748 -0.2686  1.4941 -0.1655
 5026SOL     OW26539   2.962   0.008  11.715 -0.1450  0.0281  0.3252
 5026SOL    HW126540   2.946   0.070  11.787  0.1789 -0.6787  1.0111
 5026SOL    HW226541   3.054   0.032  11.704 -0.3308 -0.7318 -2.8951
 5027SOL     OW26542   2.264   2.312   2.773  0.3840  0.0490 -0.1761
 5027SOL    HW126543   2.284   2.332   2.864 -1.9031  1.8743 -0.0789
 5027SOL    HW226544   2.319   2.381   2.736 -0.3878  0.4443 -0.5793
 5028SOL     OW26545   1.364   1.985  10.336  0.2458  0.4518  0.0832
 5028SOL    HW126546   1.374   1.895  10.307 -0.0598  0.2589  0.5701
 5028SOL    HW226547   1.305   1.979  10.412  0.0869 -0.8480 -0.1430
 5029SOL     OW26548   1.289   3.303   4.709  0.1048  0.3150 -0.7430
 5029SOL    HW126549   1.267   3.255   4.789  1.1344 -0.0198 -0.6620
 5029SOL    HW226550   1.198   3.327   4.690 -0.4376 -2.8227 -2.0106
 5030SOL     OW26551   0.658   0.292   5.138  0.6217 -0.2288  0.2675
 5030SOL    HW126552   0.569   0.302   5.103  0.4258 -2.1318  0.2259
 5030SOL    HW226553   0.663   0.332   5.225 -0.5847  1.2231 -0.3224
 5031SOL     OW26554   0.386   2.467  10.953 -0.2224 -0.4043  0.1086
 5031SOL    HW126555   0.407   2.378  10.982  2.3630 -0.3451 -1.6226
 5031SOL    HW226556   0.468   2.513  10.935  0.3772 -1.0130  1.2670
 5032SOL     OW26557   1.375   4.156   0.191 -0.0428  0.5640 -0.4024
 5032SOL    HW126558   1.363   4.153   0.286  0.4554 -0.5720 -0.3620
 5032SOL    HW226559   1.469   4.165   0.176 -0.4420  1.2522 -2.4252
 5033SOL     OW26560   3.910   4.679  16.077 -0.1635 -0.1438 -0.0082
 5033SOL    HW126561   3.917   4.624  15.999 -1.1268 -0.7723  0.3505
 5033SOL    HW226562   3.881   0.033  16.025  0.8859 -1.0254 -1.8672
 5034SOL     OW26563   2.920   4.497   9.197 -0.1104  0.0405  0.2389
 5034SOL    HW126564   2.928   4.585   9.235 -0.0645  1.7168 -3.5670
 5034SOL    HW226565   2.885   4.452   9.274 -1.5317  1.7692  0.6178
 5035SOL     OW26566   1.645   4.663   5.964  0.4751  0.1783 -0.0419
 5035SOL    HW126567   1.584   0.005   5.925  2.8122  2.2536 -0.3336
 5035SOL    HW226568   1.694   4.631   5.888 -0.5907 -0.6653 -0.3654
 5036SOL     OW26569   1.992   0.757   5.551  0.0203 -0.2326 -0.0449
 5036SOL    HW126570   2.040   0.840   5.544  0.9441 -0.8400 -0.9964
 5036SOL    HW226571   2.025   0.731   5.637  0.3084  2.6177  0.7063
 5037SOL     OW26572   2.788   1.160  12.975  0.2453 -0.3260  0.1477
 5037SOL    HW126573   2.823   1.248  12.960  0.6282 -0.6695 -0.9324
 5037SOL    HW226574   2.857   1.118  13.026  0.6346  0.6005  0.3889
 5038SOL     OW26575   0.660   0.554   9.288 -0.4186 -0.2376 -0.1735
 5038SOL    HW126576   0.718   0.591   9.355 -0.9917  1.4861 -0.6392
 5038SOL    HW226577   0.601   0.495   9.335  0.8232 -2.0678 -0.9376
 5039SOL     OW26578   0.012   3.530   7.470  0.4604  0.6954 -0.3327
 5039SOL    HW126579   4.701   3.617   7.445  0.2808  0.6631 -0.2139
 5039SOL    HW226580   4.662   3.500   7.527  2.1274 -2.7517 -0.0630
 5040SOL     OW26581   2.521   0.604   4.673 -0.6105  0.3742 -0.0806
 5040SOL    HW126582   2.453   0.551   4.716  0.8635  0.4625  2.3299
 5040SOL    HW226583   2.543   0.549   4.599 -3.2652 -1.4829  0.5004
 5041SOL     OW26584   3.322   2.492   5.808  0.5668 -0.3815  0.4937
 5041SOL    HW126585   3.289   2.405   5.829  2.4360 -1.0873  0.4836
 5041SOL    HW226586   3.373   2.477   5.729 -0.3935  2.0717 -0.5815
 5042SOL     OW26587   4.561   0.329  11.320 -0.3936 -0.5454 -0.0505
 5042SOL    HW126588   4.570   0.363  11.231 -1.2501 -1.7174 -0.5746
 5042SOL    HW226589   4.584   0.237  11.306  2.0468  0.1955 -0.9399
 5043SOL     OW26590   0.560   2.252  12.947 -0.0210  0.7428  0.6158
 5043SOL    HW126591   0.606   2.279  13.026  0.9098 -1.4277  0.8315
 5043SOL    HW226592   0.624   2.273  12.878 -1.1978 -0.9474 -0.9834
 5044SOL     OW26593   2.312   2.195   4.411  0.0023 -0.0823 -0.0642
 5044SOL    HW126594   2.297   2.286   4.385  0.8007  0.4516  1.3753
 5044SOL    HW226595   2.303   2.154   4.325  0.5444 -0.7691  0.2091
 5045SOL     OW26596   3.073   3.386  11.040 -0.2111 -0.3694 -0.0537
 5045SOL    HW126597   3.124   3.460  11.073 -0.2669  0.3214 -1.5143
 5045SOL    HW226598   3.004   3.432  10.992  0.1312  1.3268  1.0777
 5046SOL     OW26599   0.737   2.029   4.141  0.1143  0.2771  0.1289
 5046SOL    HW126600   0.648   2.053   4.114 -0.3425 -1.0362  0.4717
 5046SOL    HW226601   0.717   1.943   4.177  0.8553  0.7317  1.6411
 5047SOL     OW26602   4.635   2.023  10.769  0.0919  0.3733  0.5588
 5047SOL    HW126603   4.552   2.011  10.723  0.6628  0.9461 -0.6234
 5047SOL    HW226604   4.634   1.931  10.793 -0.0434  0.4845  0.9894
 5048SOL     OW26605   2.338   1.741   0.878 -1.1213  0.0152  0.0957
 5048SOL    HW126606   2.380   1.775   0.957 -0.1261 -0.4201 -0.2416
 5048SOL    HW226607   2.354   1.648   0.898 -1.3021 -0.0289  0.0338
 5049SOL     OW26608   3.869   2.593  11.770  0.3240  0.3603  0.3489
 5049SOL    HW126609   3.924   2.545  11.832  2.1971  0.5051 -1.1912
 5049SOL    HW226610   3.805   2.639  11.825 -0.5750  0.6326 -0.9192
 5050SOL     OW26611   1.621   1.491   5.293  0.2840  0.5018  1.0175
 5050SOL    HW126612   1.583   1.536   5.218  0.6308  2.1863  1.8636
 5050SOL    HW226613   1.543   1.480   5.348 -1.1740 -1.6384 -1.4679
 5051SOL     OW26614   2.100   1.105   6.460  0.0002 -0.3831 -0.3980
 5051SOL    HW126615   2.030   1.148   6.411  1.2602 -0.7004 -2.4998
 5051SOL    HW226616   2.064   1.114   6.548 -0.6426 -0.0605 -0.6942
 5052SOL     OW26617   2.540   1.177   6.070 -0.4508  0.6098  0.0393
 5052SOL    HW126618   2.565   1.109   6.133 -0.5273  2.6543  2.2988
 5052SOL    HW226619   2.616   1.196   6.015 -0.8475  2.4334  0.1060
 5053SOL     OW26620   0.166   2.424   4.936  0.3450  0.0154 -0.0760
 5053SOL    HW126621   0.249   2.376   4.945  0.5013  0.1606 -0.7822
 5053SOL    HW226622   0.168   2.490   5.006  1.6147  0.6840 -0.7361
 5054SOL     OW26623   2.979   0.201   0.449 -0.1040 -0.4269 -0.3700
 5054SOL    HW126624   2.962   0.157   0.366 -1.8855 -0.7549  0.1765
 5054SOL    HW226625   2.948   0.290   0.433  0.1697 -0.3012 -0.2128
 5055SOL     OW26626   4.676   4.408   4.729 -0.5473  0.4721 -0.0129
 5055SOL    HW126627   0.009   4.330   4.718 -0.8460  0.6131 -2.7007
 5055SOL    HW226628   0.031   4.466   4.736 -0.5590  0.3339  1.1310
 5056SOL     OW26629   1.411   1.687   6.094  0.3838 -0.5919  0.0151
 5056SOL    HW126630   1.394   1.604   6.050 -4.4032  0.6245 -0.4050
 5056SOL    HW226631   1.375   1.653   6.176 -0.5265 -0.8946 -0.5096
 5057SOL     OW26632   0.140   1.483   7.750 -0.6944 -0.4229  0.3211
 5057SOL    HW126633   0.045   1.471   7.755 -0.5927 -1.2183  0.3680
 5057SOL    HW226634   0.158   1.561   7.803  0.0704 -0.6859  0.4501
 5058SOL     OW26635   3.608   3.050   3.410 -0.4060  0.2781 -0.0509
 5058SOL    HW126636   3.680   3.032   3.469  2.1213  1.1139 -2.8906
 5058SOL    HW226637   3.634   3.136   3.377 -0.5923  0.9795  1.6184
 5059SOL     OW26638   3.529   3.701  14.617 -0.3298  0.0812 -0.1166
 5059SOL    HW126639   3.508   3.722  14.526 -0.1055  1.3492  0.1175
 5059SOL    HW226640   3.567   3.782  14.653  0.2354 -0.6611  0.9571
 5060SOL     OW26641   0.880   0.860   4.444  0.4576 -0.2769 -0.2069
 5060SOL    HW126642   0.814   0.887   4.381 -0.8712 -0.7213  0.9837
 5060SOL    HW226643   0.925   0.787   4.400  0.9402 -0.5312  0.6996
 5061SOL     OW26644   3.238   3.410   5.443  0.9385  0.3507  0.6840
 5061SOL    HW126645   3.179   3.338   5.422 -0.0672  1.7443 -1.3077
 5061SOL    HW226646   3.296   3.368   5.506  1.6470 -1.5002 -1.2037
 5062SOL     OW26647   1.765   3.158   4.460  1.1319 -0.5596 -0.9645
 5062SOL    HW126648   1.705   3.181   4.389  1.6714  0.8998 -0.9359
 5062SOL    HW226649   1.849   3.135   4.421  1.5837 -0.4747 -0.0350
 5063SOL     OW26650   1.010   4.494   3.797  0.1470 -0.4293  0.5055
 5063SOL    HW126651   0.939   4.495   3.733 -0.7669  1.7444  1.5490
 5063SOL    HW226652   0.975   4.420   3.845  0.8771 -2.0061 -1.4033
 5064SOL     OW26653   4.387   3.413   7.994 -0.2152  0.1721 -0.0200
 5064SOL    HW126654   4.340   3.333   7.974 -0.5865  0.3607  0.1023
 5064SOL    HW226655   4.480   3.389   8.002  0.1376  2.7609  3.9136
 5065SOL     OW26656   1.147   1.483   3.536 -0.2977  0.3453 -0.8267
 5065SOL    HW126657   1.236   1.454   3.517 -1.0589 -0.1790 -3.6894
 5065SOL    HW226658   1.155   1.504   3.629  1.4532 -0.1258 -0.8665
 5066SOL     OW26659   2.226   1.571  13.350 -0.3335 -0.3623  0.1765
 5066SOL    HW126660   2.211   1.521  13.430 -0.9840 -3.9171 -2.1771
 5066SOL    HW226661   2.244   1.655  13.392 -1.7850 -0.1838  0.4463
 5067SOL     OW26662   3.328   4.209   7.655 -0.1626  0.3084 -0.2921
 5067SOL    HW126663   3.251   4.189   7.708 -0.0215 -1.1914 -0.6646
 5067SOL    HW226664   3.301   4.166   7.574 -0.5539  2.0932 -1.1000
 5068SOL     OW26665   2.814   4.016   4.344  0.0518  0.9798  0.3396
 5068SOL    HW126666   2.841   4.000   4.435  2.3656  0.1832 -0.4840
 5068SOL    HW226667   2.812   3.925   4.315 -2.6662  1.2655 -0.4056
 5069SOL     OW26668   0.744   4.697   8.372 -0.3804  0.1401  0.4243
 5069SOL    HW126669   0.743   4.656   8.285 -2.1384  0.6548  0.1917
 5069SOL    HW226670   0.710   4.623   8.422 -0.5805  0.3920  0.6637
 5070SOL     OW26671   1.616   1.043  13.118 -0.3367  0.3106 -0.1822
 5070SOL    HW126672   1.574   1.081  13.041 -0.1757 -1.6486 -1.2554
 5070SOL    HW226673   1.560   1.072  13.190  0.9158 -0.3768  1.0812
 5071SOL     OW26674   1.956   0.818   7.939  0.0303  0.1626 -0.3920
 5071SOL    HW126675   1.908   0.895   7.971  1.4581  0.4010  1.1994
 5071SOL    HW226676   1.887   0.774   7.891  1.8330 -1.9230 -1.0421
 5072SOL     OW26677   1.789   2.200   7.462 -0.3085 -0.4107 -0.4555
 5072SOL    HW126678   1.712   2.203   7.518  0.6993  2.9848  0.7466
 5072SOL    HW226679   1.766   2.241   7.379  0.5073  1.8203  0.3901
 5073SOL     OW26680   4.082   2.808   8.338 -0.1652  0.2670 -0.0495
 5073SOL    HW126681   4.161   2.836   8.385 -0.8196 -0.0166  1.2256
 5073SOL    HW226682   4.040   2.765   8.412  1.9140  0.4844  1.2650
 5074SOL     OW26683   1.169   2.246   6.161 -0.1247 -0.1570 -0.0801
 5074SOL    HW126684   1.184   2.188   6.087 -0.4004 -1.0406  0.5556
 5074SOL    HW226685   1.122   2.320   6.122 -0.0141  0.0353  0.1492
 5075SOL     OW26686   4.143   2.352  10.015  0.2949 -0.0188 -0.5727
 5075SOL    HW126687   4.237   2.368  10.007  0.5092 -1.6577 -1.1844
 5075SOL    HW226688   4.142   2.257  10.027  0.3563 -0.0516 -0.8397
 5076SOL     OW26689   4.013   1.826   6.035 -0.6573  0.1225 -0.5115
 5076SOL    HW126690   4.004   1.731   6.041  0.9395  0.1238  1.6307
 5076SOL    HW226691   4.096   1.833   6.081 -0.4834  1.1576 -0.9929
 5077SOL     OW26692   0.869   0.672  17.602 -0.1010 -0.7200  0.7861
 5077SOL    HW126693   0.885   0.581  17.576  1.4348  0.3198 -1.9111
 5077SOL    HW226694   0.916   0.672   0.000 -2.5377  0.7702  2.1311
 5078SOL     OW26695   1.169   1.811   1.980  0.2641 -0.3367  0.7038
 5078SOL    HW126696   1.085   1.785   1.943  1.8299 -3.9227 -0.3817
 5078SOL    HW226697   1.220   1.781   1.904 -0.3319  0.1273  0.1242
 5079SOL     OW26698   2.205   1.577   4.712 -0.2210 -0.5600  0.1371
 5079SOL    HW126699   2.256   1.568   4.632  0.4766 -1.2564  0.6659
 5079SOL    HW226700   2.112   1.565   4.692 -0.5900 -0.2597  1.7208
 5080SOL     OW26701   1.636   4.564   6.337 -0.6749  0.0615  0.0018
 5080SOL    HW126702   1.716   4.614   6.355 -0.0935 -1.4104  1.5156
 5080SOL    HW226703   1.604   4.545   6.425  2.7786 -1.0676  1.0132
 5081SOL     OW26704   0.575   3.211  13.903  0.0926  0.5277 -0.6729
 5081SOL    HW126705   0.587   3.182  13.813  0.8860 -2.2231  0.3241
 5081SOL    HW226706   0.523   3.290  13.889  0.4146  0.2192 -3.4855
 5082SOL     OW26707   4.457   3.966   1.057  0.2331  0.2893  0.0797
 5082SOL    HW126708   4.537   3.932   1.096  0.1600  1.5356  1.2962
 5082SOL    HW226709   4.390   3.948   1.122  1.9747 -1.0346  1.4965
 5083SOL     OW26710   2.291   0.561   3.331 -0.1142  0.4094  0.0512
 5083SOL    HW126711   2.344   0.604   3.264  0.8275 -1.0018 -0.1267
 5083SOL    HW226712   2.340   0.478   3.331  1.1073  1.1304 -1.9840
 5084SOL     OW26713   3.259   2.398   2.790 -0.4941  0.3869 -0.1474
 5084SOL    HW126714   3.200   2.382   2.715 -0.2647  1.1660 -0.4953
 5084SOL    HW226715   3.346   2.392   2.752  0.1352  2.4214  0.9563
 5085SOL     OW26716   1.798   4.566   2.821  0.5619  0.3452 -0.4159
 5085SOL    HW126717   1.882   4.612   2.822  0.0592  1.2389 -0.1232
 5085SOL    HW226718   1.746   4.626   2.874 -0.1405  0.0533 -0.7796
 5086SOL     OW26719   0.683   0.296   2.213  0.0120 -0.3872 -0.5604
 5086SOL    HW126720   0.642   0.257   2.136 -0.9554  0.5473 -0.5176
 5086SOL    HW226721   0.663   0.389   2.208 -2.2520 -0.7639  1.3213
 5087SOL     OW26722   2.850   0.447   7.579  0.4786 -0.0583  0.1596
 5087SOL    HW126723   2.849   0.352   7.589 -0.0927 -0.2084 -1.3760
 5087SOL    HW226724   2.845   0.466   7.485 -1.6067  0.1114  0.3025
 5088SOL     OW26725   0.087   0.635  10.504 -0.2752 -0.8276  0.4980
 5088SOL    HW126726   0.149   0.564  10.519  1.3714  0.2221 -1.2845
 5088SOL    HW226727   0.146   0.708  10.482 -1.2094  0.9218  3.7230
 5089SOL     OW26728   2.046   4.600  14.045  0.2808  0.1276  0.4066
 5089SOL    HW126729   2.110   4.668  14.065 -0.0169  0.7080 -0.6110
 5089SOL    HW226730   2.090   4.521  14.014  0.2658  0.3870 -0.2720
 5090SOL     OW26731   2.198   0.714   2.724 -0.3513  0.0486  0.6556
 5090SOL    HW126732   2.243   0.793   2.755 -1.4357  1.1491 -0.5155
 5090SOL    HW226733   2.109   0.725   2.689  0.4919 -0.4422 -1.6337
 5091SOL     OW26734   0.570   2.281   7.605  0.0502  0.6007 -0.4291
 5091SOL    HW126735   0.536   2.367   7.581 -1.2607  0.1264 -0.2517
 5091SOL    HW226736   0.565   2.288   7.700 -0.2407  0.3005 -0.4215
 5092SOL     OW26737   2.278   3.868   9.351  0.3189  0.1252  0.2153
 5092SOL    HW126738   2.184   3.854   9.344  0.5161 -0.4390 -1.3001
 5092SOL    HW226739   2.300   3.872   9.257 -2.0276  1.0647 -0.2854
 5093SOL     OW26740   2.758   3.947   7.997 -0.1349  0.3575  0.2172
 5093SOL    HW126741   2.836   3.910   7.954  0.4151  0.1319  1.3973
 5093SOL    HW226742   2.764   4.042   7.989 -2.6026  0.3873 -1.0165
 5094SOL     OW26743   0.429   4.236   1.667  0.0505  0.1279  0.4151
 5094SOL    HW126744   0.356   4.243   1.728  0.5131 -3.8176  1.3717
 5094SOL    HW226745   0.415   4.150   1.627  2.7314  0.0270 -0.3206
 5095SOL     OW26746   3.175   4.646   8.160  0.0080  0.6658  0.3304
 5095SOL    HW126747   3.245   4.698   8.120 -0.5284 -0.0689 -1.5380
 5095SOL    HW226748   3.205   4.558   8.140  1.0090  0.8911  0.8200
 5096SOL     OW26749   4.048   4.504   3.630 -0.0571 -0.3720  0.1775
 5096SOL    HW126750   4.033   4.598   3.623  1.0184 -0.1997  0.0991
 5096SOL    HW226751   3.956   4.479   3.620  0.0217 -0.8114  0.5629
 5097SOL     OW26752   1.002   1.532   2.439  0.1033  0.7935  0.0394
 5097SOL    HW126753   1.083   1.487   2.463  0.9763  2.6117  0.5205
 5097SOL    HW226754   1.020   1.567   2.352  0.1658 -0.9164 -0.6478
 5098SOL     OW26755   4.677   0.630  17.545  0.2859 -0.9760  0.2889
 5098SOL    HW126756   4.676   0.646  17.451 -1.4725 -1.2602  0.2660
 5098SOL    HW226757   4.615   0.557  17.545 -0.5535 -0.2322 -3.4018
 5099SOL     OW26758   2.947   3.943   1.850 -0.1200  0.0074 -0.0269
 5099SOL    HW126759   2.980   3.874   1.908  2.4099 -0.5970 -2.1591
 5099SOL    HW226760   2.860   3.954   1.887  1.0704  2.9353  1.9197
 5100SOL     OW26761   0.410   2.724   2.949 -0.0658  0.4673 -0.1470
 5100SOL    HW126762   0.455   2.725   2.864 -1.6245 -0.1212 -0.9836
 5100SOL    HW226763   0.461   2.782   3.005 -0.1491  1.3655 -1.0128
 5101SOL     OW26764   1.242   2.985   3.504  0.0685 -0.3245  0.1830
 5101SOL    HW126765   1.161   2.943   3.475  0.4535 -2.4403  2.1761
 5101SOL    HW226766   1.247   3.068   3.458  2.5787 -0.9401 -0.6437
 5102SOL     OW26767   0.105   3.074   9.062 -0.1171  0.7660  0.1923
 5102SOL    HW126768   0.116   3.164   9.090  0.7327  0.5929  0.3938
 5102SOL    HW226769   0.083   3.029   9.144  0.9334 -1.9518 -0.9913
 5103SOL     OW26770   1.914   4.610  11.318  0.4142 -0.4812 -0.2043
 5103SOL    HW126771   1.941   4.680  11.377  1.9246  0.5378 -2.1089
 5103SOL    HW226772   1.903   4.541  11.383  2.4760 -0.6469 -0.0440
 5104SOL     OW26773   3.977   1.344   2.104  0.4475  0.1515 -0.0981
 5104SOL    HW126774   3.983   1.261   2.057  0.4521 -1.2677  2.3836
 5104SOL    HW226775   4.069   1.354   2.126  0.5024  0.1164 -0.3124
 5105SOL     OW26776   0.069   2.776   5.419 -0.3896 -0.0700  0.1846
 5105SOL    HW126777   4.715   2.738   5.373 -1.9409  0.7897  2.0030
 5105SOL    HW226778   0.008   2.810   5.485 -0.8449 -0.1466 -0.1918
 5106SOL     OW26779   2.627   4.663   8.323 -0.0912  0.1852 -0.6141
 5106SOL    HW126780   2.612   0.003   8.251 -0.8102 -2.3387 -2.6188
 5106SOL    HW226781   2.543   4.617   8.320 -0.2049  0.3831 -0.3878
 5107SOL     OW26782   3.768   2.622  11.513  0.4816  0.2473  0.3636
 5107SOL    HW126783   3.806   2.609  11.600  1.3362 -0.6126 -0.1395
 5107SOL    HW226784   3.699   2.558  11.526 -1.6345  2.8065  1.9095
 5108SOL     OW26785   0.459   4.125   3.961 -0.5618 -0.7649 -0.7518
 5108SOL    HW126786   0.481   4.035   3.988  1.0707  0.3281  1.5721
 5108SOL    HW226787   0.398   4.095   3.894 -0.1088 -0.1116 -1.4537
 5109SOL     OW26788   3.793   4.661  13.255 -0.0515  0.3016 -0.2532
 5109SOL    HW126789   3.784   4.597  13.325 -2.1847 -0.1672 -0.9360
 5109SOL    HW226790   3.816   4.610  13.178 -0.2083 -0.5723  0.2846
 5110SOL     OW26791   4.318   2.513  17.038  0.5584  0.3918 -0.2650
 5110SOL    HW126792   4.334   2.484  16.948  0.3812 -2.9971  0.8096
 5110SOL    HW226793   4.279   2.433  17.071  0.9042  0.1106 -0.5380
 5111SOL     OW26794   4.339   3.256   4.780 -0.3947  0.0856 -0.1876
 5111SOL    HW126795   4.366   3.290   4.694  1.1594 -0.4681  0.0763
 5111SOL    HW226796   4.323   3.337   4.827  1.3131 -0.5080  1.4170
 5112SOL     OW26797   0.747   2.332  11.275  0.5215 -0.2759 -0.4258
 5112SOL    HW126798   0.807   2.382  11.330 -1.4330  1.7934 -0.1904
 5112SOL    HW226799   0.745   2.247  11.319  0.4284 -0.4265 -0.7233
 5113SOL     OW26800   1.721   2.616   2.835  0.5974  0.9189 -0.1568
 5113SOL    HW126801   1.705   2.710   2.843 -1.0128  0.6505 -0.2065
 5113SOL    HW226802   1.729   2.602   2.741 -4.8058  0.9427 -0.6382
 5114SOL     OW26803   1.410   4.066   2.325 -0.0512 -0.2636  0.4926
 5114SOL    HW126804   1.487   4.044   2.272 -0.1699 -2.6651  1.3317
 5114SOL    HW226805   1.446   4.129   2.387 -1.3646  0.9873 -0.0270
 5115SOL     OW26806   3.455   3.134   7.537 -0.1351  0.0679 -0.2515
 5115SOL    HW126807   3.400   3.142   7.615  0.1198 -1.4299  0.0795
 5115SOL    HW226808   3.527   3.085   7.575 -1.5776 -0.8575  1.3104
 5116SOL     OW26809   2.827   1.643  13.146 -0.5735  0.2527  0.8147
 5116SOL    HW126810   2.871   1.725  13.170 -0.3103  0.3876 -0.1362
 5116SOL    HW226811   2.881   1.569  13.173 -0.5675  0.0649  0.2897
 5117SOL     OW26812   2.982   2.217   3.975  0.2919 -0.2314  0.5317
 5117SOL    HW126813   2.965   2.202   4.068  0.7266 -1.8769  0.3338
 5117SOL    HW226814   3.077   2.217   3.972  0.2596 -1.6313 -0.3091
 5118SOL     OW26815   2.031   1.803  11.346 -0.8038 -0.5767 -0.2670
 5118SOL    HW126816   2.023   1.844  11.260 -0.7402  1.6871  0.7940
 5118SOL    HW226817   2.092   1.730  11.335 -0.6929 -0.8483  2.2065
 5119SOL     OW26818   0.802   2.847  11.962  0.4569  0.1095 -0.0995
 5119SOL    HW126819   0.863   2.790  12.008  0.7029 -0.1623 -0.7601
 5119SOL    HW226820   0.721   2.821  12.006  0.2727  0.8330 -0.0035
 5120SOL     OW26821   3.424   4.014   9.223  0.0713 -0.1205  0.0231
 5120SOL    HW126822   3.378   4.052   9.148 -0.2132  2.7844  1.6924
 5120SOL    HW226823   3.358   4.029   9.290  0.4284 -0.3225  0.4216
 5121SOL     OW26824   1.749   4.160  14.693  0.4979 -0.0898  0.2034
 5121SOL    HW126825   1.822   4.189  14.638 -0.7260  0.1318 -1.3181
 5121SOL    HW226826   1.789   4.113  14.766  1.5423  0.1947 -0.1859
 5122SOL     OW26827   1.585   2.833   6.529 -0.2858 -0.0877  0.6109
 5122SOL    HW126828   1.592   2.928   6.530  0.4157 -0.1229 -0.4548
 5122SOL    HW226829   1.525   2.824   6.603 -1.1229  1.4512  0.1103
 5123SOL     OW26830   1.596   1.418   4.673  0.6788  0.3795 -0.2436
 5123SOL    HW126831   1.565   1.328   4.668  1.6462 -0.0573  1.7863
 5123SOL    HW226832   1.614   1.425   4.767  1.3041  0.2194 -0.3555
 5124SOL     OW26833   1.102   2.349   1.670  0.0497  0.3698  0.6572
 5124SOL    HW126834   1.083   2.404   1.746 -1.4826  1.2755 -0.3798
 5124SOL    HW226835   1.069   2.261   1.685  1.5039 -0.1676  0.6784
 5125SOL     OW26836   0.033   2.341   2.711 -0.1578  0.3614 -0.3718
 5125SOL    HW126837   0.068   2.370   2.626  3.2076 -1.2726  0.4617
 5125SOL    HW226838   0.053   2.416   2.767  0.0463  0.6632 -0.8394
 5126SOL     OW26839   4.127   2.828   7.176 -0.4876  0.0140 -0.1669
 5126SOL    HW126840   4.127   2.901   7.113 -0.8997  0.1338 -0.0290
 5126SOL    HW226841   4.124   2.872   7.261  2.7585  0.3993 -0.2540
 5127SOL     OW26842   0.553   2.314   4.323 -0.0450  0.0695 -0.4765
 5127SOL    HW126843   0.626   2.296   4.382 -0.3789  0.1262 -0.0425
 5127SOL    HW226844   0.528   2.222   4.310 -0.2124  0.0620 -0.1026
 5128SOL     OW26845   0.810   2.699  16.819 -0.1428 -0.4544 -0.4715
 5128SOL    HW126846   0.766   2.771  16.774 -0.6192  0.6336  1.6875
 5128SOL    HW226847   0.901   2.724  16.811  0.3514 -2.0519  0.1043
 5129SOL     OW26848   0.061   1.574   0.227 -0.5915  0.5398  0.6517
 5129SOL    HW126849   0.103   1.487   0.227 -0.8510  0.4158  1.2462
 5129SOL    HW226850   0.141   1.626   0.240  0.2288 -0.1963 -1.4887
 5130SOL     OW26851   3.278   3.996   9.481  0.1343  0.4475 -0.3036
 5130SOL    HW126852   3.282   3.921   9.540 -0.5932  0.7496  0.1287
 5130SOL    HW226853   3.342   4.053   9.522  0.1805  0.0285  0.2019
 5131SOL     OW26854   2.340   1.271   3.586 -0.0720 -0.0156 -0.1486
 5131SOL    HW126855   2.410   1.333   3.565  0.6974 -2.0077 -3.3940
 5131SOL    HW226856   2.263   1.310   3.544  0.6324  4.0720  2.3788
 5132SOL     OW26857   4.499   4.231   7.298  0.4381  0.0182  0.2571
 5132SOL    HW126858   4.551   4.233   7.218 -0.4439 -1.7752 -0.3711
 5132SOL    HW226859   4.414   4.198   7.267  0.2510  1.8203 -1.1397
 5133SOL     OW26860   0.962   2.276   3.816  0.8322  0.0922  0.0014
 5133SOL    HW126861   0.977   2.264   3.910  1.4874  1.1310  0.0283
 5133SOL    HW226862   0.983   2.184   3.798  0.5422  0.5376 -2.6177
 5134SOL     OW26863   3.221   0.450   3.232 -0.5061  0.4997 -0.0797
 5134SOL    HW126864   3.311   0.470   3.206  0.1705 -0.7405  1.3090
 5134SOL    HW226865   3.177   0.426   3.150 -0.6227  2.5764 -0.6071
 5135SOL     OW26866   2.343   0.213  17.552  0.1067 -0.1585 -0.4858
 5135SOL    HW126867   2.423   0.262  17.570  1.0445 -0.8884 -2.7104
 5135SOL    HW226868   2.365   0.166  17.472 -1.1329 -0.3600 -0.7091
 5136SOL     OW26869   0.457   1.370   3.875 -0.1837  0.3935  0.4316
 5136SOL    HW126870   0.522   1.300   3.888  0.8046  1.1373 -0.5070
 5136SOL    HW226871   0.413   1.337   3.797  1.1683  0.3385 -0.3178
 5137SOL     OW26872   3.097   2.070  12.408  0.6504 -0.0311  0.3945
 5137SOL    HW126873   3.143   2.088  12.490 -0.9734  2.0802  0.8685
 5137SOL    HW226874   3.170   2.066  12.347  0.7478  1.4004  0.4175
 5138SOL     OW26875   3.976   0.356   2.190 -0.5549  0.4912 -0.1979
 5138SOL    HW126876   3.973   0.305   2.109  1.7044  0.2089 -0.0825
 5138SOL    HW226877   3.931   0.437   2.166  0.7889  2.0058  2.4153
 5139SOL     OW26878   4.271   1.366   2.103  0.3800 -0.9912 -1.1681
 5139SOL    HW126879   4.311   1.281   2.121 -1.7626 -1.6456  0.4383
 5139SOL    HW226880   4.351   1.418   2.110 -0.4319  0.1757 -0.6693
 5140SOL     OW26881   3.956   0.952   4.587 -0.2283  0.3357 -0.4521
 5140SOL    HW126882   3.970   0.882   4.524 -2.9593 -0.2132 -0.4746
 5140SOL    HW226883   4.044   0.952   4.624  0.3624  0.4911 -1.8675
 5141SOL     OW26884   0.655   4.583   6.941 -0.0815  0.0023  0.3693
 5141SOL    HW126885   0.678   4.522   6.871 -1.3303  1.5496 -1.3985
 5141SOL    HW226886   0.670   4.526   7.016  2.0438  1.3593  0.9657
 5142SOL     OW26887   0.900   2.798   1.558 -0.2586 -0.0190  0.0837
 5142SOL    HW126888   0.906   2.745   1.479 -1.6450  1.6352 -1.1141
 5142SOL    HW226889   0.850   2.873   1.526  0.4427 -0.1185 -1.2131
 5143SOL     OW26890   3.339   0.222   8.792  0.8123  0.3664 -0.1739
 5143SOL    HW126891   3.315   0.152   8.731 -1.6144  0.5584  0.5488
 5143SOL    HW226892   3.272   0.287   8.770 -0.3209  0.2936  3.0973
 5144SOL     OW26893   3.975   0.921   8.027 -0.1867 -0.2235  0.0680
 5144SOL    HW126894   4.064   0.906   7.995 -0.0120 -0.8125  0.8177
 5144SOL    HW226895   3.946   1.010   8.009  0.8461 -0.5195 -3.1816
 5145SOL     OW26896   3.999   0.509  11.680 -0.8317 -0.0516  0.5590
 5145SOL    HW126897   3.987   0.550  11.594  2.3133 -0.0519  0.1084
 5145SOL    HW226898   4.076   0.455  11.661  0.1343  2.2271 -1.9777
 5146SOL     OW26899   1.668   2.855  16.808 -0.0672 -0.0347 -0.9651
 5146SOL    HW126900   1.668   2.876  16.715  0.4381  0.5552 -0.8361
 5146SOL    HW226901   1.642   2.763  16.809  0.0306 -0.0479  0.0025
 5147SOL     OW26902   2.663   2.142   2.863 -0.2773  0.3941 -0.5830
 5147SOL    HW126903   2.632   2.232   2.855 -0.9279  0.2970  1.0762
 5147SOL    HW226904   2.572   2.112   2.869 -0.3807  0.6240 -0.9704
 5148SOL     OW26905   2.888   1.991   8.808  0.1600  0.4747  0.3508
 5148SOL    HW126906   2.876   1.900   8.781 -0.3178  0.7264 -0.2980
 5148SOL    HW226907   2.970   2.012   8.761  1.0349 -0.7352  1.3343
 5149SOL     OW26908   3.255   2.208   5.825  0.2901  0.0943  0.0541
 5149SOL    HW126909   3.162   2.225   5.840 -0.0728 -1.8264  0.0504
 5149SOL    HW226910   3.252   2.150   5.748 -2.0428 -0.5976  0.6663
 5150SOL     OW26911   0.540   1.309  14.757  0.2933 -0.5713  0.4783
 5150SOL    HW126912   0.630   1.340  14.768 -0.0478  0.1954  1.1120
 5150SOL    HW226913   0.544   1.294  14.663  1.7548 -0.3717  0.5111
 5151SOL     OW26914   2.365   2.434   0.826  0.3289  0.1177  0.0530
 5151SOL    HW126915   2.295   2.408   0.765  1.0859 -0.9072 -0.3839
 5151SOL    HW226916   2.392   2.520   0.794 -0.3585 -0.5232 -2.2762
 5152SOL     OW26917   3.017   2.053   6.599 -0.1691 -0.0633  0.0381
 5152SOL    HW126918   3.027   2.136   6.552 -2.6032  0.4938  0.4845
 5152SOL    HW226919   3.087   1.997   6.566  0.8017  0.0287  1.9097
 5153SOL     OW26920   3.333   1.071   5.317 -0.0351  0.1599  1.0340
 5153SOL    HW126921   3.427   1.062   5.299 -0.3094  0.2851 -0.4180
 5153SOL    HW226922   3.311   1.010   5.387  0.4682 -1.6279 -0.3638
 5154SOL     OW26923   3.965   0.490   0.167 -0.2168 -0.1482 -0.1024
 5154SOL    HW126924   4.020   0.412   0.157  1.3098  0.8134  0.8253
 5154SOL    HW226925   3.941   0.475   0.258  1.2461 -0.9965  0.1436
 5155SOL     OW26926   3.508   3.026   4.061  0.1744  0.0343 -0.4525
 5155SOL    HW126927   3.434   3.044   4.002 -1.0630  1.1859  1.4432
 5155SOL    HW226928   3.558   3.106   4.046 -0.2305  0.4219  0.2674
 5156SOL     OW26929   0.554   4.048  16.852 -0.2050 -0.1181  0.6747
 5156SOL    HW126930   0.485   3.984  16.833  0.0193 -0.1793  0.0567
 5156SOL    HW226931   0.630   4.006  16.811 -1.0220 -2.7840  1.8702
 5157SOL     OW26932   0.408   4.112   3.539 -0.0555 -0.2921  0.1733
 5157SOL    HW126933   0.333   4.127   3.596 -0.9241  0.1415 -1.0831
 5157SOL    HW226934   0.401   4.017   3.530  0.2014 -0.4377  1.4220
 5158SOL     OW26935   3.246   2.489   6.734 -0.6364 -0.0429  0.1477
 5158SOL    HW126936   3.314   2.421   6.734  1.1046  1.7059 -1.4432
 5158SOL    HW226937   3.264   2.529   6.819  0.3924 -3.2889  1.4832
 5159SOL     OW26938   1.054   0.260   2.562  0.7664  0.1034  0.3796
 5159SOL    HW126939   1.143   0.285   2.539  0.1799  0.6179 -1.3847
 5159SOL    HW226940   1.020   0.230   2.477 -2.1423  0.2299  1.5183
 5160SOL     OW26941   2.308   2.089   6.372  0.2729  0.6038 -0.4728
 5160SOL    HW126942   2.261   2.170   6.389  0.8794  1.2262 -1.7346
 5160SOL    HW226943   2.349   2.067   6.455 -3.2089  1.7277  1.5095
 5161SOL     OW26944   2.905   1.627  14.256  0.4377 -0.6796  0.3241
 5161SOL    HW126945   2.905   1.531  14.257 -0.8659 -0.7020 -1.3942
 5161SOL    HW226946   2.903   1.656  14.164 -1.2616  0.2103  0.6475
 5162SOL     OW26947   3.388   1.850   5.898 -0.5609 -0.4191 -0.2303
 5162SOL    HW126948   3.450   1.779   5.880  0.8602  0.6575  0.4098
 5162SOL    HW226949   3.444   1.913   5.943  1.8841 -2.0973 -0.8698
 5163SOL     OW26950   3.517   4.417   3.524  0.5274 -0.1809  0.3621
 5163SOL    HW126951   3.452   4.473   3.567  0.3119  0.1935 -0.4577
 5163SOL    HW226952   3.484   4.399   3.436  1.2480 -0.9783  0.2571
 5164SOL     OW26953   3.753   0.631  11.009  0.1579  0.1862  0.2389
 5164SOL    HW126954   3.761   0.538  11.028 -0.2929  0.0843 -0.0816
 5164SOL    HW226955   3.832   0.658  11.056  0.2938  0.7174 -0.2905
 5165SOL     OW26956   4.227   0.741  17.486 -0.5361 -0.5305 -0.3489
 5165SOL    HW126957   4.300   0.767  17.542 -2.5249  0.3127  1.8099
 5165SOL    HW226958   4.189   0.674  17.542  1.2897 -1.5756 -0.3537
 5166SOL     OW26959   4.563   2.682   8.662  0.0921  0.2008  0.1719
 5166SOL    HW126960   4.609   2.718   8.586 -0.1594 -0.5583 -0.3321
 5166SOL    HW226961   4.480   2.663   8.619  0.2226 -2.5397  1.1815
 5167SOL     OW26962   4.485   2.923   8.835 -0.1593  0.4003 -0.6232
 5167SOL    HW126963   4.480   2.831   8.808  3.5831  0.5097 -1.6239
 5167SOL    HW226964   4.524   2.967   8.759  2.1575  0.1997  0.4561
 5168SOL     OW26965   3.234   1.830  12.435  0.1696  0.3610 -0.0971
 5168SOL    HW126966   3.243   1.780  12.354  2.0334 -0.0558  0.3761
 5168SOL    HW226967   3.169   1.898  12.416 -0.2150  0.2497  0.8046
 5169SOL     OW26968   3.460   1.137   1.682 -0.2344 -0.1890 -0.3950
 5169SOL    HW126969   3.547   1.163   1.713  0.2832 -1.2905 -0.9151
 5169SOL    HW226970   3.478   1.045   1.660  1.4426  0.3842 -1.3955
 5170SOL     OW26971   2.584   0.728  14.793  0.0175 -0.1514  0.0788
 5170SOL    HW126972   2.665   0.678  14.802  1.6819  2.4870  0.1199
 5170SOL    HW226973   2.625   0.815  14.799  0.3025 -0.3938  1.7436
 5171SOL     OW26974   3.260   3.956   8.548 -0.7539  0.2721 -0.1350
 5171SOL    HW126975   3.234   3.977   8.637  1.5118  0.8127  0.3802
 5171SOL    HW226976   3.174   3.974   8.509 -0.1036  1.2050 -1.1375
 5172SOL     OW26977   3.074   0.820   6.785  0.0846  0.8155 -0.1643
 5172SOL    HW126978   2.982   0.845   6.789 -0.6479 -2.1065  1.5917
 5172SOL    HW226979   3.079   0.775   6.869 -0.7665 -1.1950 -1.1934
 5173SOL     OW26980   1.193   0.568   6.783  0.1603  0.2830 -0.0558
 5173SOL    HW126981   1.272   0.614   6.812  0.3845 -0.7838  1.0039
 5173SOL    HW226982   1.196   0.494   6.843  0.2050  1.6339  1.6232
 5174SOL     OW26983   0.339   2.698   4.848  0.7019 -0.4924 -0.4461
 5174SOL    HW126984   0.320   2.618   4.798  1.5599  1.2089 -3.4773
 5174SOL    HW226985   0.434   2.698   4.838  0.6361  0.7227 -1.0622
 5175SOL     OW26986   2.449   1.113  11.384 -0.0417 -0.2964 -0.0008
 5175SOL    HW126987   2.401   1.111  11.301  0.2105 -1.3144 -0.1263
 5175SOL    HW226988   2.428   1.198  11.424  1.6828 -0.1167  0.5376
 5176SOL     OW26989   1.578   1.639   5.791  0.0151  0.2126 -0.1565
 5176SOL    HW126990   1.646   1.588   5.835  0.7212  1.2794 -0.0264
 5176SOL    HW226991   1.503   1.583   5.812  0.1735 -1.2309 -3.4564
 5177SOL     OW26992   1.889   1.227   2.485 -0.0916 -0.3661  0.1358
 5177SOL    HW126993   1.901   1.282   2.562  2.6379  0.7485 -1.0982
 5177SOL    HW226994   1.947   1.271   2.423 -0.4235  0.4666  0.4247
 5178SOL     OW26995   4.295   0.507   8.500 -0.2569 -0.3516 -0.0457
 5178SOL    HW126996   4.218   0.474   8.455  0.4642 -0.9444 -0.8426
 5178SOL    HW226997   4.336   0.549   8.425 -0.8954  1.3558  0.5469
 5179SOL     OW26998   3.526   3.158  10.268  0.4864 -0.3141 -0.3091
 5179SOL    HW126999   3.503   3.191  10.355  1.9996  1.7455 -0.6828
 5179SOL    HW227000   3.497   3.237  10.222 -1.2738  0.0544  1.4453
 5180SOL     OW27001   4.004   1.594   6.355  0.2976 -0.6664 -0.0039
 5180SOL    HW127002   4.045   1.659   6.412 -3.1888  0.7089  0.9330
 5180SOL    HW227003   3.928   1.637   6.317 -0.4392  0.7161  3.0433
 5181SOL     OW27004   1.983   3.198   6.674  0.2061 -0.3275 -0.0085
 5181SOL    HW127005   1.974   3.104   6.658  1.4701 -0.4712  0.1046
 5181SOL    HW227006   1.899   3.233   6.703  0.3986 -2.0128  2.5829
 5182SOL     OW27007   0.895   1.201  10.306 -0.2149 -0.1870  0.1582
 5182SOL    HW127008   0.959   1.133  10.328 -1.9952 -1.5460  1.1559
 5182SOL    HW227009   0.822   1.143  10.283 -1.5861  1.0048  1.5851
 5183SOL     OW27010   0.592   0.634   8.561  0.4858  0.4380  0.0010
 5183SOL    HW127011   0.519   0.688   8.592 -0.2508 -0.6909  0.2196
 5183SOL    HW227012   0.655   0.663   8.627  1.0341 -2.8098  0.8944
 5184SOL     OW27013   0.203   0.451  16.265 -0.1444  0.0154 -0.5825
 5184SOL    HW127014   0.245   0.525  16.220  0.4758  0.7817  1.2631
 5184SOL    HW227015   0.163   0.416  16.186 -0.2092  0.4661 -0.7518
 5185SOL     OW27016   0.031   0.398   4.806  0.0130  0.3041 -0.1296
 5185SOL    HW127017   0.060   0.365   4.721 -0.2441 -2.6837  0.9425
 5185SOL    HW227018   0.094   0.356   4.864  0.0379  2.6337  1.5639
 5186SOL     OW27019   1.306   1.771   3.130 -0.2046  0.4109 -0.1139
 5186SOL    HW127020   1.326   1.863   3.113 -0.0514 -0.0670 -2.5015
 5186SOL    HW227021   1.213   1.767   3.150 -0.0398  1.7168  0.9420
 5187SOL     OW27022   3.350   3.969   8.222  0.5095  0.1527 -0.9517
 5187SOL    HW127023   3.292   4.001   8.290  0.3361  0.1433 -1.0948
 5187SOL    HW227024   3.411   3.916   8.273 -0.1316 -0.9967 -1.3770
 5188SOL     OW27025   3.807   1.485   3.380  0.8779 -0.5044  0.1980
 5188SOL    HW127026   3.875   1.475   3.314  1.2928 -0.4167  0.6090
 5188SOL    HW227027   3.857   1.459   3.457  1.0586 -0.3714  0.1242
 5189SOL     OW27028   0.384   0.646   6.960  0.0742 -0.1860  0.1527
 5189SOL    HW127029   0.336   0.729   6.969  0.6716 -0.0435  2.0332
 5189SOL    HW227030   0.331   0.586   7.013 -1.2505  0.6966 -0.1619
 5190SOL     OW27031   0.092   3.214   6.095 -0.3293 -0.6481  0.2948
 5190SOL    HW127032   0.171   3.178   6.134  0.8837 -0.1954 -1.7256
 5190SOL    HW227033   0.069   3.140   6.040  0.9686  1.6703 -3.3639
 5191SOL     OW27034   1.270   3.980   4.079  0.4429 -0.3849  0.3394
 5191SOL    HW127035   1.267   4.059   4.132  0.9905 -0.1490  0.0123
 5191SOL    HW227036   1.336   4.005   4.014  0.9316 -0.5886  0.7577
 5192SOL     OW27037   4.573   1.578   3.990  0.1610 -0.5613  0.0270
 5192SOL    HW127038   4.575   1.523   4.068  0.6117 -1.5353 -0.6597
 5192SOL    HW227039   4.530   1.519   3.928  0.8692  0.4507 -1.4210
 5193SOL     OW27040   1.864   2.772   4.255  0.5874 -0.0428  0.5963
 5193SOL    HW127041   1.877   2.774   4.350 -0.3151  1.5887  0.6786
 5193SOL    HW227042   1.779   2.730   4.243  1.3591 -1.5546  0.4546
 5194SOL     OW27043   2.399   1.352  16.379 -0.5856  0.6974  0.2987
 5194SOL    HW127044   2.403   1.256  16.385 -0.7673  0.6005 -0.9167
 5194SOL    HW227045   2.318   1.358  16.327  0.3856  0.6794 -1.2196
 5195SOL     OW27046   4.501   1.457   1.868  0.2733 -0.5662  0.7410
 5195SOL    HW127047   4.516   1.475   1.961  0.8341 -1.9030  0.9203
 5195SOL    HW227048   4.585   1.477   1.827 -0.8860  0.4162 -1.1382
 5196SOL     OW27049   3.295   0.921   3.264  0.3723 -0.0695  0.1994
 5196SOL    HW127050   3.247   0.857   3.316 -2.6080  1.3246 -0.8128
 5196SOL    HW227051   3.243   0.919   3.183  1.3620 -1.0588 -0.4137
 5197SOL     OW27052   3.937   1.250  13.855  0.6494 -0.4875  0.1394
 5197SOL    HW127053   3.965   1.161  13.878 -0.5278 -1.1072 -0.7752
 5197SOL    HW227054   3.980   1.276  13.773  0.0648 -0.9830 -0.3337
 5198SOL     OW27055   1.588   0.109   7.743  0.0516  0.1771 -0.1363
 5198SOL    HW127056   1.630   0.053   7.678 -0.6499 -0.4865 -0.0245
 5198SOL    HW227057   1.523   0.053   7.785  1.2654 -0.2951  1.1318
 5199SOL     OW27058   4.058   3.930  12.881  0.0044 -0.2516  0.6845
 5199SOL    HW127059   3.995   3.861  12.902 -1.5207  0.6026 -1.0301
 5199SOL    HW227060   4.116   3.885  12.820  0.7029 -0.4654  1.5150
 5200SOL     OW27061   1.131   1.360   9.594 -0.2420 -0.2478  0.3194
 5200SOL    HW127062   1.081   1.334   9.517  2.6525 -0.4296 -1.4858
 5200SOL    HW227063   1.168   1.276   9.624 -1.2467 -0.4691  0.9406
 5201SOL     OW27064   2.166   0.248   6.087  0.1595  0.1395 -0.0245
 5201SOL    HW127065   2.111   0.176   6.055 -0.8027  0.8357  0.0354
 5201SOL    HW227066   2.163   0.224   6.180  2.2262 -1.9378 -0.4910
 5202SOL     OW27067   2.047   2.913   9.189 -0.4686 -0.1061 -0.4004
 5202SOL    HW127068   1.986   2.986   9.181 -1.0298 -0.6310 -0.9446
 5202SOL    HW227069   2.029   2.901   9.282  1.2847  0.8645  0.0639
 5203SOL     OW27070   2.272   4.547  17.512  0.2192  0.2287 -0.1258
 5203SOL    HW127071   2.307   4.605  17.579  0.1838  0.4327 -0.2866
 5203SOL    HW227072   2.182   4.574  17.530  1.1165  2.5323  0.8489
 5204SOL     OW27073   4.655   4.249   4.088 -0.3122  0.1876 -0.5658
 5204SOL    HW127074   4.641   4.321   4.026 -2.8253  0.6312  0.5078
 5204SOL    HW227075   4.703   4.298   4.155 -0.7544 -2.0192  1.3429
 5205SOL     OW27076   4.698   1.690  11.843  0.0289  0.1658 -0.6040
 5205SOL    HW127077   4.625   1.693  11.905  1.1069  0.7131  0.6329
 5205SOL    HW227078   0.054   1.642  11.874 -0.1991 -0.0208 -0.3344
 5206SOL     OW27079   3.875   0.766  15.261 -0.9129  0.0580 -0.1156
 5206SOL    HW127080   3.818   0.706  15.213 -0.5374 -0.9143  0.6532
 5206SOL    HW227081   3.865   0.713  15.340 -0.1667 -0.4590 -0.3693
 5207SOL     OW27082   0.172   1.044   8.501 -0.8093 -0.5248  0.7253
 5207SOL    HW127083   0.168   0.965   8.448  4.6270  0.2162 -0.8531
 5207SOL    HW227084   0.146   1.009   8.586  0.4326  0.4782  1.5268
 5208SOL     OW27085   1.574   2.732   7.133  0.4122  0.1746 -0.0824
 5208SOL    HW127086   1.632   2.804   7.159 -0.4270  0.9394 -0.3203
 5208SOL    HW227087   1.503   2.738   7.197 -0.1154  1.1745 -0.7492
 5209SOL     OW27088   0.663   4.137   1.511 -0.2790 -0.3789  0.4021
 5209SOL    HW127089   0.578   4.094   1.525  0.0399 -0.8535  0.8707
 5209SOL    HW227090   0.699   4.144   1.599  0.6100 -1.5769  0.1271
 5210SOL     OW27091   4.665   3.431   7.046  0.2424  0.1747  0.1014
 5210SOL    HW127092   0.018   3.405   7.101  0.1881  0.3857  0.2736
 5210SOL    HW227093   4.632   3.343   7.028  1.4273 -0.5563  1.5318
 5211SOL     OW27094   0.974   2.404  15.632 -0.2352 -0.1140 -0.1406
 5211SOL    HW127095   0.912   2.443  15.571 -1.3254  2.7257  2.8118
 5211SOL    HW227096   1.037   2.358  15.577  0.0804  2.3356 -1.8180
 5212SOL     OW27097   0.736   0.545   7.439  0.1928  0.1655  0.6836
 5212SOL    HW127098   0.699   0.467   7.481 -0.0241  0.0641  0.3014
 5212SOL    HW227099   0.679   0.618   7.463 -1.1266 -1.0630  1.2859
 5213SOL     OW27100   3.042   4.543   0.129  0.4860 -0.3826  0.0998
 5213SOL    HW127101   3.137   4.551   0.142  0.5107  1.0200 -0.8930
 5213SOL    HW227102   3.033   4.532   0.034 -1.4669 -0.9600  0.3546
 5214SOL     OW27103   1.926   3.714   3.863 -0.2141  0.0696 -0.0710
 5214SOL    HW127104   1.960   3.802   3.843  0.5576  0.0379  1.0987
 5214SOL    HW227105   1.900   3.718   3.955  1.2330 -2.4667  0.4592
 5215SOL     OW27106   3.327   1.409  17.524 -0.4924 -0.0964  0.6107
 5215SOL    HW127107   3.286   1.428  17.440 -1.5612  1.2987  1.4554
 5215SOL    HW227108   3.418   1.436  17.511 -0.7445  0.9346  0.9697
 5216SOL     OW27109   3.799   1.388   2.330 -0.1671  0.7119  0.2015
 5216SOL    HW127110   3.853   1.425   2.261  0.7476  0.6575  0.8801
 5216SOL    HW227111   3.728   1.348   2.280 -0.8178 -0.4061  2.0187
 5217SOL     OW27112   2.169   1.945  17.104 -1.0664 -0.1372  0.3155
 5217SOL    HW127113   2.117   1.871  17.135  1.1786 -2.3717 -1.2284
 5217SOL    HW227114   2.093   1.989  17.064 -0.8560 -0.7563 -0.7633
 5218SOL     OW27115   2.512   0.558  14.170  0.1497 -0.4438 -0.0651
 5218SOL    HW127116   2.519   0.530  14.261  3.3477 -1.0844 -0.5245
 5218SOL    HW227117   2.420   0.582  14.160  0.5572  0.1677 -2.4564
 5219SOL     OW27118   0.441   1.467   0.766  0.2806 -0.0463 -0.1191
 5219SOL    HW127119   0.431   1.379   0.802  0.6060  0.6222  1.6335
 5219SOL    HW227120   0.531   1.495   0.782 -0.7039  1.4628  2.8844
 5220SOL     OW27121   1.979   3.693   3.234 -0.1248 -0.1671  0.0248
 5220SOL    HW127122   1.954   3.603   3.214 -0.6158 -0.4959  2.1467
 5220SOL    HW227123   1.919   3.743   3.179  0.5010 -1.5966 -1.9654
 5221SOL     OW27124   0.255   2.734   8.075  0.3215  0.3687 -0.2453
 5221SOL    HW127125   0.343   2.738   8.114  0.1090 -0.2894  0.3026
 5221SOL    HW227126   0.212   2.672   8.133  0.3498 -0.4900 -1.1409
 5222SOL     OW27127   2.511   0.220  11.287  1.1241  0.1255  0.0240
 5222SOL    HW127128   2.581   0.286  11.294  1.4610 -0.1954 -0.3023
 5222SOL    HW227129   2.450   0.259  11.349  0.0927  1.2808 -1.7127
 5223SOL     OW27130   4.411   3.575   4.083 -0.1144  0.0972 -0.2536
 5223SOL    HW127131   4.326   3.531   4.091 -0.7360  1.2339 -0.7076
 5223SOL    HW227132   4.392   3.645   4.021  0.3724 -0.9332 -1.5656
 5224SOL     OW27133   1.585   3.035   4.640  0.1549  0.0608  0.6184
 5224SOL    HW127134   1.662   3.028   4.696 -0.3666 -1.2851  1.1830
 5224SOL    HW227135   1.638   3.037   4.560  0.2474  1.6565  0.7149
 5225SOL     OW27136   0.741   0.139  13.302  0.1802  0.5939 -0.2628
 5225SOL    HW127137   0.829   0.117  13.333 -1.1604 -0.9952  2.4179
 5225SOL    HW227138   0.759   0.220  13.254  1.8229  0.7077  0.5215
 5226SOL     OW27139   2.930   1.381   9.425  0.3523  0.0918 -0.4176
 5226SOL    HW127140   2.946   1.377   9.330 -0.9381  0.9470 -0.6784
 5226SOL    HW227141   3.019   1.383   9.460  0.8746  1.1638 -1.8043
 5227SOL     OW27142   0.948   1.473   6.947 -0.0800 -0.1747  0.6497
 5227SOL    HW127143   0.986   1.386   6.947  1.4994  0.5203  0.5079
 5227SOL    HW227144   0.855   1.453   6.954  0.0445 -1.0716 -0.4050
 5228SOL     OW27145   3.479   4.708  13.052  0.2302 -0.3924  0.0594
 5228SOL    HW127146   3.503   4.620  13.081  1.8666 -0.0327 -0.2296
 5228SOL    HW227147   3.455   0.038  13.129 -1.0103 -0.8227 -0.0268
 5229SOL     OW27148   2.269   1.275  11.714 -0.0844  0.5533 -0.0454
 5229SOL    HW127149   2.262   1.358  11.762 -0.7559  1.0361 -0.9899
 5229SOL    HW227150   2.305   1.300  11.629 -0.0685 -1.0676 -0.4984
 5230SOL     OW27151   2.892   3.414   3.435 -0.5712 -0.4982 -0.0214
 5230SOL    HW127152   2.883   3.484   3.500 -0.9957 -0.3853 -0.1968
 5230SOL    HW227153   2.913   3.460   3.354 -0.8963 -1.5539 -0.7037
 5231SOL     OW27154   1.824   1.528   5.828  0.1997  0.1611 -0.0843
 5231SOL    HW127155   1.806   1.434   5.833  0.3391  0.1396  0.0286
 5231SOL    HW227156   1.887   1.536   5.757  1.2410 -1.3252  0.6830
 5232SOL     OW27157   3.423   0.823  10.633  0.2519  0.1037  0.1742
 5232SOL    HW127158   3.413   0.807  10.727  1.4558  0.8662  0.4395
 5232SOL    HW227159   3.473   0.904  10.624 -0.0216  0.0656 -1.7652
 5233SOL     OW27160   0.020   3.863   3.456 -0.3452 -0.3721 -0.0460
 5233SOL    HW127161   4.702   3.836   3.540 -1.0711 -0.0484 -0.2818
 5233SOL    HW227162   0.100   3.810   3.454  1.2114  1.9789 -0.3251
 5234SOL     OW27163   3.980   1.782   7.021 -0.4093  0.3558  0.0157
 5234SOL    HW127164   4.036   1.853   7.053  1.1528 -0.9971  0.2990
 5234SOL    HW227165   3.892   1.819   7.022  0.8098  3.2727 -0.2753
 5235SOL     OW27166   4.585   4.564   7.720  0.7631  0.0883  0.3428
 5235SOL    HW127167   4.629   4.587   7.639  1.0301  0.5253  0.6163
 5235SOL    HW227168   4.627   4.479   7.730 -0.2502 -0.4971 -0.2616
 5236SOL     OW27169   1.111   2.634   3.688  0.1597  0.7491 -0.3700
 5236SOL    HW127170   1.180   2.589   3.737 -1.1489 -0.1204  0.6720
 5236SOL    HW227171   1.082   2.699   3.752  2.1888 -0.1780  1.4598
 5237SOL     OW27172   1.385   3.513   2.466  0.2113  0.1601  0.1630
 5237SOL    HW127173   1.418   3.596   2.432  0.4603  0.3484  0.8588
 5237SOL    HW227174   1.294   3.540   2.481 -0.0201 -0.5188 -0.0072
 5238SOL     OW27175   0.419   4.317   2.385  0.4732  0.1388  0.1785
 5238SOL    HW127176   0.393   4.392   2.332  1.5580  0.2324 -0.2047
 5238SOL    HW227177   0.426   4.363   2.468 -0.8555  1.1125 -0.2582
 5239SOL     OW27178   1.706   4.220  10.539 -0.7593  0.5554 -0.0240
 5239SOL    HW127179   1.637   4.203  10.474 -0.8918  2.1053 -0.2992
 5239SOL    HW227180   1.676   4.300  10.582 -1.4497 -0.8470  2.1189
 5240SOL     OW27181   2.230   2.952   2.436 -0.0203 -0.1285  0.4367
 5240SOL    HW127182   2.164   2.990   2.494 -0.7523  0.8849 -1.0360
 5240SOL    HW227183   2.288   3.028   2.440  1.0807 -0.8449 -1.4844
 5241SOL     OW27184   4.622   0.613  14.440 -0.2096  0.4737  0.1275
 5241SOL    HW127185   4.644   0.704  14.423 -1.3929  0.5806 -0.8655
 5241SOL    HW227186   4.706   0.572  14.459 -1.0818 -0.8684  1.1646
 5242SOL     OW27187   3.553   4.627   8.436  0.1414  0.1544  0.0702
 5242SOL    HW127188   3.485   4.629   8.504 -0.7607  1.1105 -0.8555
 5242SOL    HW227189   3.568   4.719   8.414 -2.8897  0.4572 -0.7680
 5243SOL     OW27190   3.938   3.698   9.381  0.5827 -0.3258  0.3083
 5243SOL    HW127191   3.890   3.676   9.302 -0.1711  0.7101  0.4956
 5243SOL    HW227192   4.015   3.642   9.371  0.0295 -0.7177 -1.6603
 5244SOL     OW27193   0.927   3.406   4.281  0.2175 -0.1047  0.5642
 5244SOL    HW127194   0.860   3.437   4.342 -2.9445  2.4016 -4.1372
 5244SOL    HW227195   0.915   3.312   4.292  1.3338 -0.3431 -0.1997
 5245SOL     OW27196   3.941   1.734  10.787  0.4189  0.1048 -0.6670
 5245SOL    HW127197   4.001   1.745  10.861  0.2534  0.5678 -0.6009
 5245SOL    HW227198   3.892   1.816  10.793  0.1269 -0.3368  2.9156
 5246SOL     OW27199   0.130   3.457   5.950  0.3171  0.4509  0.0740
 5246SOL    HW127200   0.219   3.461   5.986  0.0385  0.5762  0.7647
 5246SOL    HW227201   0.111   3.364   5.961 -0.4916  0.4726 -1.1729
 5247SOL     OW27202   1.393   2.412   9.891  0.1811  0.1672 -0.3574
 5247SOL    HW127203   1.371   2.504   9.879 -0.8790 -0.1842 -1.1008
 5247SOL    HW227204   1.487   2.412   9.911 -0.1571 -2.3224  1.3898
 5248SOL     OW27205   3.666   2.395   8.743  0.5187 -0.3831 -0.2862
 5248SOL    HW127206   3.731   2.326   8.731 -0.5944 -1.4997  0.1194
 5248SOL    HW227207   3.727   2.462   8.775 -1.0889  0.7213  0.4958
 5249SOL     OW27208   3.711   4.445   3.167 -0.7175  0.7809  0.7448
 5249SOL    HW127209   3.768   4.368   3.163  0.2238  1.4369  1.4226
 5249SOL    HW227210   3.771   4.505   3.211  2.9462 -1.0392 -1.7019
 5250SOL     OW27211   2.855   2.637   3.072  0.5052  0.8677  0.3452
 5250SOL    HW127212   2.871   2.591   3.154 -2.8826  0.7537  0.9141
 5250SOL    HW227213   2.845   2.566   3.009  1.8016  1.6491 -0.7620
 5251SOL     OW27214   2.000   4.454   8.457  0.1312 -0.1515  0.0961
 5251SOL    HW127215   2.059   4.528   8.467 -1.1695  0.6980  1.4683
 5251SOL    HW227216   1.962   4.471   8.371 -1.9446  0.9937  1.2170
 5252SOL     OW27217   3.229   0.798   7.845 -0.7469  0.1620 -0.0168
 5252SOL    HW127218   3.243   0.823   7.936  1.3680  1.4646 -0.7063
 5252SOL    HW227219   3.136   0.773   7.845 -0.5266 -0.6519  0.4795
 5253SOL     OW27220   1.556   4.307  15.699 -0.0003  0.1778 -0.5570
 5253SOL    HW127221   1.584   4.353  15.620 -1.1281 -0.2701 -1.2266
 5253SOL    HW227222   1.558   4.217  15.667  2.5199 -0.1695  0.6019
 5254SOL     OW27223   0.241   3.613   5.224 -0.0755  0.3078  0.1337
 5254SOL    HW127224   0.273   3.524   5.238  0.8582  0.9002  1.8275
 5254SOL    HW227225   0.148   3.604   5.204  0.0825  0.0281 -0.4901
 5255SOL     OW27226   3.831   4.257   2.030 -0.3829  0.3040 -0.2462
 5255SOL    HW127227   3.850   4.195   2.101  0.5278  1.4867  0.5271
 5255SOL    HW227228   3.894   4.225   1.966  0.1189 -0.7215  0.7527
 5256SOL     OW27229   1.909   4.356  11.495 -0.0751  0.1350  0.2874
 5256SOL    HW127230   1.940   4.339  11.583 -1.4548 -0.2047  0.7007
 5256SOL    HW227231   1.836   4.298  11.515 -0.3859  0.3990 -0.0663
 5257SOL     OW27232   3.430   2.057   4.076  0.6987  0.2209  1.1465
 5257SOL    HW127233   3.386   2.122   4.022 -2.1380 -0.3839  2.7158
 5257SOL    HW227234   3.372   1.982   4.078  0.7384  0.1987  1.4927
 5258SOL     OW27235   1.642   4.310   8.356 -0.4370  0.1866 -0.1631
 5258SOL    HW127236   1.620   4.248   8.426  0.1331  0.1777  0.0124
 5258SOL    HW227237   1.589   4.388   8.373 -0.4073 -0.0419  0.9848
 5259SOL     OW27238   2.244   0.092   7.733  0.3846  0.3422  0.3190
 5259SOL    HW127239   2.328   0.114   7.773 -0.0393  2.2369  0.1639
 5259SOL    HW227240   2.241   4.718   7.742 -0.3923  0.5740  2.5478
 5260SOL     OW27241   2.899   1.682   9.524  0.1885 -0.4490  0.4353
 5260SOL    HW127242   2.855   1.598   9.535  0.6151 -0.8467 -0.9063
 5260SOL    HW227243   2.895   1.708   9.616  0.7849  1.2848 -0.0315
 5261SOL     OW27244   3.370   2.072   2.536  0.1157  0.2957 -0.3184
 5261SOL    HW127245   3.409   2.141   2.483  2.1421  0.0373  0.8334
 5261SOL    HW227246   3.284   2.101   2.568  0.3351  1.3962 -0.7410
 5262SOL     OW27247   3.923   1.460   5.744 -0.4372  0.3769  0.4502
 5262SOL    HW127248   3.899   1.410   5.666  0.3468  0.4648  0.1554
 5262SOL    HW227249   3.924   1.391   5.811  0.8926 -0.0919 -0.0406
 5263SOL     OW27250   0.667   1.998   8.338 -0.3074  0.0886  0.5604
 5263SOL    HW127251   0.690   1.909   8.366 -0.4057 -0.3855 -0.8675
 5263SOL    HW227252   0.643   2.038   8.422  1.3224  1.2011  0.4908
 5264SOL     OW27253   3.777   3.650   6.486 -0.5296 -0.1419 -0.0884
 5264SOL    HW127254   3.724   3.594   6.430  0.1197 -1.8235  0.9959
 5264SOL    HW227255   3.708   3.712   6.512 -3.1225 -2.6662 -0.9840
 5265SOL     OW27256   2.625   0.398   0.544  0.3468  0.4610 -0.3357
 5265SOL    HW127257   2.689   0.364   0.608 -1.3428 -3.4728 -0.7159
 5265SOL    HW227258   2.644   0.341   0.469  0.6943  1.4505 -0.9966
 5266SOL     OW27259   1.555   0.505   8.943  0.1248  0.3131  0.2448
 5266SOL    HW127260   1.533   0.435   8.882  0.3567 -1.0419  1.7154
 5266SOL    HW227261   1.629   0.461   8.985  2.1675  2.8672 -0.6898
 5267SOL     OW27262   4.144   2.417  12.256 -0.3180  0.4650  0.5137
 5267SOL    HW127263   4.238   2.421  12.237 -0.5106  0.0550 -0.5367
 5267SOL    HW227264   4.152   2.449  12.346  1.4447  1.2128  0.0961
 5268SOL     OW27265   2.945   0.759   2.537  0.1800 -0.1398  0.1232
 5268SOL    HW127266   2.853   0.768   2.514  0.0993 -0.5089  0.2973
 5268SOL    HW227267   2.959   0.850   2.562  0.0136 -0.0558 -0.0961
 5269SOL     OW27268   4.106   0.336   9.694  0.2358  0.2487 -0.1258
 5269SOL    HW127269   4.102   0.363   9.602 -0.8934 -0.5242 -0.3015
 5269SOL    HW227270   4.027   0.369   9.735  0.2553  1.2288 -0.8761
 5270SOL     OW27271   3.896   1.152   2.489 -0.3659 -0.2679  0.2262
 5270SOL    HW127272   3.861   1.223   2.435  0.2030  0.7070  1.1322
 5270SOL    HW227273   3.957   1.110   2.428 -0.3591  0.8520 -0.5534
 5271SOL     OW27274   2.696   4.232   7.695 -0.3554 -0.9380 -0.1756
 5271SOL    HW127275   2.610   4.218   7.736 -0.0108  2.1181  1.5571
 5271SOL    HW227276   2.704   4.324   7.719 -0.0289 -0.3775 -2.4166
 5272SOL     OW27277   0.219   3.801   5.632 -0.0623 -0.2632  0.0685
 5272SOL    HW127278   0.163   3.731   5.599  0.6821 -1.1249  0.5936
 5272SOL    HW227279   0.303   3.770   5.598 -0.8081 -1.1692 -0.9477
 5273SOL     OW27280   3.998   3.657   6.024 -0.3835  0.5293 -0.1689
 5273SOL    HW127281   4.017   3.642   6.117  0.1411  0.4375 -0.2930
 5273SOL    HW227282   3.908   3.689   6.019  0.1979  2.1722 -0.2285
 5274SOL     OW27283   4.251   4.470  12.951 -0.5016 -0.1713 -0.9366
 5274SOL    HW127284   4.238   4.544  13.010 -0.9939 -1.2285  0.2728
 5274SOL    HW227285   4.268   4.520  12.871  1.1776 -0.6607 -0.8986
 5275SOL     OW27286   1.169   4.153   3.270 -0.3827 -0.2675 -0.5986
 5275SOL    HW127287   1.077   4.173   3.286  0.2094  1.6323  0.5719
 5275SOL    HW227288   1.203   4.243   3.261  0.9155 -0.6574  0.4227
 5276SOL     OW27289   2.223   1.107  17.123  0.4352 -0.4055 -0.0068
 5276SOL    HW127290   2.307   1.145  17.098 -0.8823  0.4722 -3.1306
 5276SOL    HW227291   2.240   1.013  17.129  0.7863 -0.3422 -0.0303
 5277SOL     OW27292   2.153   2.798  16.377  0.4131 -0.2517 -0.0943
 5277SOL    HW127293   2.060   2.804  16.397  0.9287 -0.8840  2.4128
 5277SOL    HW227294   2.166   2.706  16.354 -2.5553 -1.4100  2.9200
 5278SOL     OW27295   1.264   2.897   7.894  0.3532  0.2053 -0.2417
 5278SOL    HW127296   1.169   2.905   7.898  0.2425 -0.7853 -1.1277
 5278SOL    HW227297   1.267   2.846   7.813  0.8786 -0.2339  0.0551
 5279SOL     OW27298   1.227   1.639  11.147  0.0130 -0.1268 -0.1848
 5279SOL    HW127299   1.303   1.602  11.192 -1.0766 -1.4358  0.5909
 5279SOL    HW227300   1.196   1.704  11.210 -0.1970  0.3419 -0.7743
 5280SOL     OW27301   3.435   3.911   7.328 -0.3768  0.5683  0.0960
 5280SOL    HW127302   3.396   3.832   7.291 -0.6158  0.8486 -0.2539
 5280SOL    HW227303   3.462   3.959   7.250  2.9284 -1.8085 -0.2112
 5281SOL     OW27304   2.968   1.160  12.085  0.4573 -0.5892 -0.0161
 5281SOL    HW127305   2.911   1.084  12.097  3.1717 -2.8495 -1.2828
 5281SOL    HW227306   2.930   1.195  12.004  2.2850 -0.4837 -0.8315
 5282SOL     OW27307   4.086   0.090   4.287 -0.8865 -0.3085  0.1757
 5282SOL    HW127308   4.126   0.045   4.362  0.4085  0.7755  0.1342
 5282SOL    HW227309   4.102   0.184   4.299  1.0618 -0.6771  0.4607
 5283SOL     OW27310   2.056   2.187  13.129  0.3738 -0.3217 -0.2093
 5283SOL    HW127311   2.026   2.271  13.096 -1.0408  0.2046  2.3943
 5283SOL    HW227312   2.020   2.129  13.062  0.5145  1.0686 -1.4666
 5284SOL     OW27313   0.593   1.085   2.422  0.4927  0.0331 -0.2127
 5284SOL    HW127314   0.644   1.146   2.475 -0.7551 -0.1348  1.1694
 5284SOL    HW227315   0.527   1.146   2.388 -0.3465  0.1222  1.5647
 5285SOL     OW27316   4.402   3.753  10.584 -0.2518 -0.5998  0.0803
 5285SOL    HW127317   4.373   3.679  10.531 -1.7104 -1.6102  2.2471
 5285SOL    HW227318   4.335   3.766  10.652  0.1456  2.5983 -0.1218
 5286SOL     OW27319   1.096   4.574   2.152 -0.5840  0.3868 -0.0844
 5286SOL    HW127320   1.133   4.517   2.220  0.1822 -0.1248 -0.9253
 5286SOL    HW227321   1.002   4.575   2.169 -0.7150  0.9359 -0.8278
 5287SOL     OW27322   0.454   3.806   3.538 -0.0014 -0.4145  0.0567
 5287SOL    HW127323   0.540   3.778   3.507  0.9589  0.2545  2.0538
 5287SOL    HW227324   0.458   3.778   3.630 -1.0926 -0.9618 -0.0552
 5288SOL     OW27325   0.511   1.472   0.159 -0.4418 -0.2107  0.6699
 5288SOL    HW127326   0.416   1.483   0.159 -0.5369 -1.0346 -0.4133
 5288SOL    HW227327   0.512   1.384   0.122 -3.0923  0.8934 -2.0087
 5289SOL     OW27328   4.600   1.530  16.514  0.3256 -0.1576 -0.3844
 5289SOL    HW127329   4.611   1.448  16.466 -0.5802 -0.9657  0.7990
 5289SOL    HW227330   4.517   1.562  16.479  0.5870  1.6731  0.6393
 5290SOL     OW27331   4.007   2.285   1.203  0.1345 -0.7083  0.6407
 5290SOL    HW127332   4.098   2.268   1.176 -0.1413 -0.6634 -0.3196
 5290SOL    HW227333   4.025   2.358   1.262  0.9346  0.6426 -1.2695
 5291SOL     OW27334   2.974   1.412   9.854 -0.2487  0.1308  0.6308
 5291SOL    HW127335   2.960   1.319   9.836  0.7225 -0.0529  0.7930
 5291SOL    HW227336   3.041   1.404   9.922 -0.8310 -4.4708  0.6547
 5292SOL     OW27337   0.530   0.699   4.706  0.0944 -0.1377  0.0618
 5292SOL    HW127338   0.499   0.618   4.747 -1.0458  0.1724 -0.1928
 5292SOL    HW227339   0.464   0.757   4.743 -0.5120 -0.3547 -0.6714
 5293SOL     OW27340   1.844   2.530   6.253  0.6950 -0.5116 -0.5997
 5293SOL    HW127341   1.827   2.534   6.347  0.2180  0.9750 -0.7539
 5293SOL    HW227342   1.905   2.604   6.249  0.1470 -0.1753 -2.8025
 5294SOL     OW27343   0.961   2.219  17.264 -0.5942 -0.1067 -0.3063
 5294SOL    HW127344   0.995   2.285  17.203  1.9204 -0.1672  1.0306
 5294SOL    HW227345   1.015   2.232  17.341 -0.7712  0.4039 -0.2678
 5295SOL     OW27346   3.606   0.321   6.464  0.0542  0.2788 -0.7957
 5295SOL    HW127347   3.541   0.357   6.404  0.8088 -0.7593 -2.2595
 5295SOL    HW227348   3.689   0.346   6.423 -0.0092  1.9746  0.1301
 5296SOL     OW27349   2.961   3.482   5.260  0.6237 -0.0974  0.0768
 5296SOL    HW127350   3.005   3.548   5.313 -0.9958  1.3401 -0.3467
 5296SOL    HW227351   2.992   3.400   5.298  2.2191 -0.3605 -1.8075
 5297SOL     OW27352   1.975   2.971   0.029  0.0324 -0.3365  0.3610
 5297SOL    HW127353   1.910   3.027  17.671 -0.6468 -1.4069  0.0054
 5297SOL    HW227354   1.979   3.012   0.115 -0.7096  0.3335  0.0764
 5298SOL     OW27355   0.759   3.155   1.128 -0.4592  0.1615  0.8287
 5298SOL    HW127356   0.740   3.238   1.170 -1.3888  0.0551  0.6103
 5298SOL    HW227357   0.707   3.148   1.048 -1.7011  2.0892  1.4816
 5299SOL     OW27358   3.956   1.143  15.961  0.3515  0.1158 -0.0319
 5299SOL    HW127359   3.870   1.119  15.997 -0.0912  3.1863  0.8820
 5299SOL    HW227360   3.939   1.236  15.947  0.0924 -0.0803 -1.0276
 5300SOL     OW27361   2.952   3.455   1.749 -0.5751  0.3942 -0.0352
 5300SOL    HW127362   2.998   3.496   1.675 -0.2349 -1.2087 -0.7223
 5300SOL    HW227363   3.022   3.431   1.809 -1.6677  1.3152  1.6177
 5301SOL     OW27364   3.771   1.338  12.777 -0.0070  0.0548  0.6716
 5301SOL    HW127365   3.745   1.430  12.776 -1.1008 -0.2234  2.8099
 5301SOL    HW227366   3.856   1.335  12.822  2.2698 -2.3686 -3.8399
 5302SOL     OW27367   4.157   1.984   7.101  0.0140 -0.3034  0.4224
 5302SOL    HW127368   4.125   1.977   7.191 -1.0619 -1.6554 -0.0754
 5302SOL    HW227369   4.185   2.076   7.104  0.4283 -0.4449  0.9992
 5303SOL     OW27370   3.352   3.298  16.666 -0.2951  0.3652 -0.5297
 5303SOL    HW127371   3.442   3.299  16.634  0.0314  0.4486  0.3885
 5303SOL    HW227372   3.362   3.343  16.750 -1.0767 -1.3165  0.4704
 5304SOL     OW27373   3.042   2.794   9.779 -0.3151  0.4387 -0.3556
 5304SOL    HW127374   3.019   2.703   9.793  0.9683  0.4444  1.7792
 5304SOL    HW227375   2.957   2.838   9.769 -1.3527 -2.0436 -2.2998
 5305SOL     OW27376   3.266   1.044   6.270 -0.0042 -0.7952 -0.3986
 5305SOL    HW127377   3.308   1.010   6.191 -0.5876 -1.1774 -0.5486
 5305SOL    HW227378   3.302   1.001   6.347 -0.2294  0.0237  0.1593
 5306SOL     OW27379   4.357   3.842   3.607 -0.5811 -0.3487 -0.2609
 5306SOL    HW127380   4.412   3.919   3.593 -0.0181 -0.4016  1.6325
 5306SOL    HW227381   4.423   3.781   3.641 -1.1660 -0.2785  1.0085
 5307SOL     OW27382   0.744   3.832   8.088  0.0447 -0.3864 -0.3861
 5307SOL    HW127383   0.786   3.842   8.174  0.8216 -2.4660 -0.5199
 5307SOL    HW227384   0.656   3.857   8.115  0.7682  0.6654  1.0029
 5308SOL     OW27385   1.101   2.433   4.341  0.0082 -0.2408 -0.3038
 5308SOL    HW127386   1.083   2.469   4.427 -0.4134 -1.1937 -0.0022
 5308SOL    HW227387   1.013   2.418   4.306 -0.3792  1.6051 -0.1586
 5309SOL     OW27388   0.938   1.579  15.364 -0.1573 -0.0076 -0.4165
 5309SOL    HW127389   1.021   1.623  15.384 -0.0757  0.9434 -2.8848
 5309SOL    HW227390   0.915   1.555  15.454 -1.5162  1.5943 -0.3557
 5310SOL     OW27391   2.866   2.216  12.374  0.4160 -0.2629 -0.3253
 5310SOL    HW127392   2.956   2.189  12.394  0.9951  0.2910 -2.1370
 5310SOL    HW227393   2.873   2.205  12.279 -2.2038 -2.3060 -0.2862
 5311SOL     OW27394   4.482   3.043   5.375  0.4966 -0.3280 -0.3325
 5311SOL    HW127395   4.509   2.977   5.438  3.2141 -0.7719 -1.9561
 5311SOL    HW227396   4.411   3.000   5.328 -0.1586  0.6316 -0.2200
 5312SOL     OW27397   2.440   4.297   3.915 -0.1369 -0.2932 -0.8215
 5312SOL    HW127398   2.516   4.279   3.970 -0.1713  0.0920 -0.6488
 5312SOL    HW227399   2.422   4.383   3.953  2.0332 -0.8932  1.5828
 5313SOL     OW27400   4.709   0.957   5.459  0.0927 -0.3817  0.3502
 5313SOL    HW127401   4.642   0.940   5.392 -0.3141 -0.8850  0.8892
 5313SOL    HW227402   0.063   0.912   5.420  0.8639  0.6405  0.6510
 5314SOL     OW27403   1.392   2.107  12.470 -0.5467 -0.5670 -0.0053
 5314SOL    HW127404   1.451   2.132  12.541 -1.5457 -0.1582  0.6712
 5314SOL    HW227405   1.435   2.023  12.451 -1.4023 -1.3061  1.3783
 5315SOL     OW27406   0.304   1.944   9.063  0.3450  0.5204  0.4205
 5315SOL    HW127407   0.230   1.934   9.124  1.6752 -4.5551  1.2527
 5315SOL    HW227408   0.368   1.891   9.110  0.0868 -0.3307 -0.1899
 5316SOL     OW27409   3.257   3.629  11.555  0.6570  0.3371 -0.6713
 5316SOL    HW127410   3.185   3.668  11.604  0.1325 -0.9270 -0.4348
 5316SOL    HW227411   3.307   3.611  11.635 -0.1913 -1.9928 -0.6751
 5317SOL     OW27412   3.572   3.044   8.797 -0.6764  0.4102  0.2539
 5317SOL    HW127413   3.517   2.970   8.824  1.3245 -1.3700 -0.5795
 5317SOL    HW227414   3.562   3.087   8.882 -1.0927 -0.3297  0.5756
 5318SOL     OW27415   2.672   0.701  11.605  0.5537 -0.0244  0.1820
 5318SOL    HW127416   2.605   0.670  11.666 -0.6045  0.5301 -0.8109
 5318SOL    HW227417   2.670   0.796  11.616  2.6771 -0.1837  1.7782
 5319SOL     OW27418   3.570   3.646   4.213 -0.1739  0.2662 -0.6375
 5319SOL    HW127419   3.645   3.602   4.252 -0.7683  0.7755  1.0574
 5319SOL    HW227420   3.503   3.580   4.230  0.9872 -0.1847  2.2315
 5320SOL     OW27421   0.216   2.997   7.522  0.4418 -0.0589  0.0513
 5320SOL    HW127422   0.210   2.903   7.508 -0.0035 -0.1931  1.1681
 5320SOL    HW227423   0.135   3.024   7.479  0.5764  2.2673  1.2577
 5321SOL     OW27424   2.613   2.435  10.557 -0.0582  0.3741 -0.0017
 5321SOL    HW127425   2.668   2.504  10.594 -0.8772  1.8319 -1.5581
 5321SOL    HW227426   2.652   2.352  10.584 -0.0887 -0.1958 -1.7060
 5322SOL     OW27427   2.052   1.586   6.824  0.2264  0.5134  0.7711
 5322SOL    HW127428   2.098   1.603   6.906  3.7418  1.4658 -1.3799
 5322SOL    HW227429   2.096   1.655   6.775 -2.7565  1.9655  0.1485
 5323SOL     OW27430   3.831   0.038   0.646 -0.0002 -0.0717  0.3771
 5323SOL    HW127431   3.863   0.019   0.734  1.7249 -0.1512 -0.2708
 5323SOL    HW227432   3.776   4.682   0.629  0.8480 -0.4216 -0.7232
 5324SOL     OW27433   0.847   0.571   3.910  1.2154  0.1502  0.3135
 5324SOL    HW127434   0.823   0.530   3.993  1.4973  0.1706  0.4050
 5324SOL    HW227435   0.777   0.537   3.853  2.0816 -0.1882 -0.5448
 5325SOL     OW27436   2.611   1.124   5.425  0.5276  0.0255  0.4091
 5325SOL    HW127437   2.596   1.186   5.496  0.5445 -0.6914  1.0436
 5325SOL    HW227438   2.695   1.162   5.399  1.2814 -1.1614  1.1010
 5326SOL     OW27439   2.297   2.908   0.057 -0.2815 -0.2495  0.8226
 5326SOL    HW127440   2.226   2.973   0.061 -0.9061 -0.8107 -1.0020
 5326SOL    HW227441   2.311   2.887   0.149 -0.5586  0.3301  0.9971
 5327SOL     OW27442   3.860   3.012   4.516 -0.2915 -0.0937 -0.3676
 5327SOL    HW127443   3.795   2.943   4.532  0.4545 -0.7808 -0.2862
 5327SOL    HW227444   3.848   3.071   4.591 -0.7662 -0.3865 -0.2086
 5328SOL     OW27445   4.536   2.092   8.361  0.5068 -0.3686  0.3057
 5328SOL    HW127446   4.516   2.015   8.414  0.3355  0.2794  1.1849
 5328SOL    HW227447   4.618   2.071   8.317 -0.7771 -1.9211 -1.3309
 5329SOL     OW27448   2.933   2.411   8.793  0.2063 -0.1040 -0.4371
 5329SOL    HW127449   2.923   2.466   8.870 -1.3790 -0.1405 -0.6242
 5329SOL    HW227450   2.901   2.332   8.837  6.3639 -0.0642  4.1671
 5330SOL     OW27451   3.219   1.816   7.148 -0.3684 -0.3587 -0.4708
 5330SOL    HW127452   3.210   1.780   7.236 -3.1564  1.0141 -0.1904
 5330SOL    HW227453   3.188   1.743   7.095 -0.8958 -1.1609  0.9554
 5331SOL     OW27454   2.807   3.884   9.459  0.3209  0.0863 -0.0230
 5331SOL    HW127455   2.853   3.810   9.420  0.9845  0.2543  0.4609
 5331SOL    HW227456   2.718   3.853   9.444 -0.3016  1.9816 -0.3160
 5332SOL     OW27457   2.816   1.160  10.109  0.3896 -0.3215  0.1060
 5332SOL    HW127458   2.728   1.122  10.115  0.2517  0.1318  1.0195
 5332SOL    HW227459   2.832   1.179  10.202  1.0664 -0.2846 -0.0187
 5333SOL     OW27460   2.728   1.820   2.614 -0.5577 -0.4891 -0.8319
 5333SOL    HW127461   2.645   1.789   2.650 -0.6280  1.1138  0.3872
 5333SOL    HW227462   2.693   1.887   2.555 -2.2298 -1.3308 -0.8127
 5334SOL     OW27463   3.081   4.627  13.895 -0.0781 -0.2303  0.0128
 5334SOL    HW127464   3.024   4.703  13.885 -0.1026 -0.2215  0.2081
 5334SOL    HW227465   3.009   4.570  13.922  0.2070 -1.2244 -1.3304
 5335SOL     OW27466   1.309   1.571  11.810 -0.9655 -0.0735 -0.6706
 5335SOL    HW127467   1.398   1.602  11.795 -0.5063 -1.7126 -1.3398
 5335SOL    HW227468   1.261   1.653  11.822 -0.5557 -0.1684  1.6506
 5336SOL     OW27469   4.151   4.435   3.011  0.6017 -0.6259  0.5502
 5336SOL    HW127470   4.086   4.385   3.060 -3.0395  1.1725 -2.4683
 5336SOL    HW227471   4.096   4.504   2.973  0.0726 -1.3019  0.1053
 5337SOL     OW27472   4.448   4.113   4.804  0.7266  0.0801  0.2286
 5337SOL    HW127473   4.419   4.162   4.881 -1.7071 -0.8371 -0.0833
 5337SOL    HW227474   4.401   4.030   4.815  2.3001 -0.7409  0.7607
 5338SOL     OW27475   3.911   0.370  10.037  0.1511  0.1381 -0.0578
 5338SOL    HW127476   3.921   0.276  10.045  1.3896  0.2587 -0.2411
 5338SOL    HW227477   3.864   0.378   9.953 -0.4054 -0.3282  0.2082
 5339SOL     OW27478   0.830   1.885   7.707 -0.2144  0.1171  0.5277
 5339SOL    HW127479   0.874   1.828   7.771  1.8911  0.9137 -0.2300
 5339SOL    HW227480   0.869   1.855   7.625 -0.3230  1.7510 -0.1252
 5340SOL     OW27481   3.444   4.182   2.108 -0.1872 -0.0893 -0.6207
 5340SOL    HW127482   3.377   4.125   2.068  1.0616 -1.9235 -0.1042
 5340SOL    HW227483   3.525   4.153   2.066 -2.3233 -1.0270 -4.0980
 5341SOL     OW27484   1.163   0.068   7.639  0.3195  0.1438  0.0374
 5341SOL    HW127485   1.204   0.144   7.680  0.1940  0.3258 -0.1757
 5341SOL    HW227486   1.068   0.082   7.643  0.4777  0.5736  2.4210
 5342SOL     OW27487   1.964   0.480  12.468  0.7022 -0.0261  0.5274
 5342SOL    HW127488   1.936   0.515  12.383 -0.9837 -2.1504  0.2333
 5342SOL    HW227489   1.934   0.546  12.531 -2.0571 -0.3728 -0.4368
 5343SOL     OW27490   3.853   0.164   5.444  0.0442 -1.0105 -0.0116
 5343SOL    HW127491   3.870   0.072   5.465 -0.4015 -1.0688  0.1004
 5343SOL    HW227492   3.768   0.177   5.486  0.5232  0.4306  0.5097
 5344SOL     OW27493   1.279   4.042  13.374 -0.0232 -0.0502 -0.1256
 5344SOL    HW127494   1.234   4.070  13.294 -1.6368 -0.0806  0.7752
 5344SOL    HW227495   1.357   4.015  13.325 -0.3598 -1.4596  0.1219
 5345SOL     OW27496   3.603   4.618   6.796 -0.1470 -0.0063  0.1739
 5345SOL    HW127497   3.623   4.663   6.878 -2.5279 -1.3589  1.5061
 5345SOL    HW227498   3.520   4.658   6.769 -0.1979 -0.9742 -1.1064
 5346SOL     OW27499   3.836   3.745   2.620  0.0244  0.3894 -0.4035
 5346SOL    HW127500   3.812   3.818   2.563  1.6243  0.7777 -0.5774
 5346SOL    HW227501   3.877   3.784   2.696  1.7196  0.6258 -1.4471
 5347SOL     OW27502   0.958   1.885   6.015 -0.6722 -0.2012 -0.0742
 5347SOL    HW127503   1.044   1.923   6.032 -0.5586 -0.3881 -0.2341
 5347SOL    HW227504   0.923   1.934   5.940 -0.8217  0.2121  0.2668
 5348SOL     OW27505   3.939   2.391   9.794  0.7441 -0.2829 -0.4963
 5348SOL    HW127506   4.020   2.405   9.843 -0.5929 -2.5124  2.3201
 5348SOL    HW227507   3.948   2.305   9.753  0.6716  0.0107 -1.1386
 5349SOL     OW27508   1.839   1.984   4.407  0.6682  0.1239 -0.0239
 5349SOL    HW127509   1.867   2.063   4.362 -0.2230  1.6435  2.1009
 5349SOL    HW227510   1.817   2.023   4.491 -2.3428  0.2321 -0.8504
 5350SOL     OW27511   2.211   4.096   8.703  0.5263 -0.0812 -0.5997
 5350SOL    HW127512   2.163   4.077   8.784 -0.4302  1.3464 -0.8286
 5350SOL    HW227513   2.149   4.128   8.637  0.6523 -1.0158 -1.1683
 5351SOL     OW27514   3.564   3.921   7.555  0.0281  0.0900  0.8127
 5351SOL    HW127515   3.635   3.864   7.526 -0.3921  0.0492 -0.1403
 5351SOL    HW227516   3.522   3.929   7.469  0.7127 -0.4348  0.4241
 5352SOL     OW27517   2.035   1.123   6.715 -0.5032 -0.7808 -0.0006
 5352SOL    HW127518   2.034   1.076   6.798 -0.3107 -0.8155 -0.0174
 5352SOL    HW227519   2.090   1.198   6.738  0.5956 -1.5548 -0.0983
 5353SOL     OW27520   2.289   0.788   5.147 -0.1162  0.3894  0.3889
 5353SOL    HW127521   2.238   0.719   5.190  0.7287  1.0675  2.4659
 5353SOL    HW227522   2.363   0.808   5.204 -1.0263 -1.1969  2.1213
 5354SOL     OW27523   2.922   3.041   6.739 -0.3715  0.4087 -0.0401
 5354SOL    HW127524   2.847   2.982   6.742 -1.0796  1.3253  0.4753
 5354SOL    HW227525   2.997   2.982   6.729  0.6946  1.2860  2.6271
 5355SOL     OW27526   2.583   2.021   3.486 -0.3006  0.5839  0.2140
 5355SOL    HW127527   2.601   1.976   3.403  1.4196 -0.5577  1.1904
 5355SOL    HW227528   2.537   1.948   3.528 -0.6467  0.6360 -0.0723
 5356SOL     OW27529   0.259   1.703   4.893  0.0035 -0.2958 -0.4160
 5356SOL    HW127530   0.197   1.694   4.965  0.9668 -0.4719  0.4084
 5356SOL    HW227531   0.303   1.618   4.891 -2.0300 -1.2899 -2.0149
 5357SOL     OW27532   2.097   1.461   3.630 -0.8365  0.5512  0.1067
 5357SOL    HW127533   2.086   1.446   3.536  1.8186  1.2653 -0.3166
 5357SOL    HW227534   2.050   1.543   3.643  1.1236  1.6823 -0.1259
 5358SOL     OW27535   0.546   1.244   2.828  0.6612  0.2682 -0.0935
 5358SOL    HW127536   0.522   1.152   2.828  0.9212  0.1985  0.7268
 5358SOL    HW227537   0.471   1.273   2.775  0.2535 -0.4757  0.0761
 5359SOL     OW27538   1.660   2.460   1.849 -0.2667 -0.5270  0.4138
 5359SOL    HW127539   1.743   2.477   1.805 -1.2634 -2.4396 -2.1818
 5359SOL    HW227540   1.590   2.468   1.783 -0.2587 -1.2194  0.3294
 5360SOL     OW27541   2.158   1.267   3.382 -0.2867 -0.0692 -0.3563
 5360SOL    HW127542   2.160   1.361   3.365 -1.0218 -0.2021 -1.1888
 5360SOL    HW227543   2.156   1.237   3.291  0.9418  0.8874 -0.7070
 5361SOL     OW27544   4.284   4.382   6.515  0.4224  0.6685 -0.4024
 5361SOL    HW127545   4.202   4.428   6.530  0.6015  1.0938 -0.7066
 5361SOL    HW227546   4.318   4.363   6.602  0.6094 -1.2704 -0.8978
 5362SOL     OW27547   2.296   2.084  11.429 -0.3132  0.3318  0.4186
 5362SOL    HW127548   2.315   1.990  11.422 -2.0848  0.0277 -0.4019
 5362SOL    HW227549   2.285   2.094  11.334  0.9887 -1.1140  0.1073
 5363SOL     OW27550   2.709   3.720  14.727 -0.0792 -0.0491  0.0357
 5363SOL    HW127551   2.696   3.784  14.798  0.7667  0.1956 -0.0238
 5363SOL    HW227552   2.748   3.780  14.663 -0.4829 -0.6443 -0.7602
 5364SOL     OW27553   3.126   0.441   1.413  0.1678 -0.6085  0.2027
 5364SOL    HW127554   3.123   0.476   1.502 -0.2903  0.4444 -0.2235
 5364SOL    HW227555   3.220   0.438   1.397  0.2704 -0.9205  0.9010
 5365SOL     OW27556   4.397   3.665   8.479  1.0284  1.1290 -0.4279
 5365SOL    HW127557   4.380   3.628   8.392 -0.8030  0.4275  0.2367
 5365SOL    HW227558   4.427   3.589   8.528 -1.3217  0.9134  0.6938
 5366SOL     OW27559   0.760   3.302   3.744 -0.1816 -0.5537 -0.2386
 5366SOL    HW127560   0.729   3.385   3.708  1.8118  0.6379  0.7970
 5366SOL    HW227561   0.846   3.295   3.702  0.6108 -0.1908  1.3140
 5367SOL     OW27562   4.322   1.061   2.442 -0.0432  0.8908 -0.0221
 5367SOL    HW127563   4.375   1.086   2.366  1.8117  1.7662  1.5930
 5367SOL    HW227564   4.378   1.001   2.491  2.2104  0.6535 -2.9166
 5368SOL     OW27565   2.571   4.518   3.374  0.3376 -0.0947  0.3603
 5368SOL    HW127566   2.548   4.482   3.288  1.6277  0.5973 -0.2952
 5368SOL    HW227567   2.482   4.533   3.405 -0.0258 -2.4183  0.4451
 5369SOL     OW27568   4.084   1.589   8.717  0.3755 -0.1300  0.1922
 5369SOL    HW127569   4.149   1.518   8.711 -1.5475 -2.0678  2.2044
 5369SOL    HW227570   4.007   1.535   8.734 -1.5418  3.2655  2.0097
 5370SOL     OW27571   1.228   1.101   5.050 -0.0976 -0.3791 -0.2485
 5370SOL    HW127572   1.149   1.118   5.102  0.9150  1.0032  0.8213
 5370SOL    HW227573   1.222   1.165   4.979 -2.3245 -1.2656 -0.8423
 5371SOL     OW27574   3.136   3.651   3.439  0.2974 -0.0933  0.5545
 5371SOL    HW127575   3.061   3.666   3.383  0.0433 -1.1692  0.6064
 5371SOL    HW227576   3.177   3.575   3.396  0.0796 -1.3710  2.6065
 5372SOL     OW27577   1.015   3.111  10.787 -0.4778  0.1861 -0.9270
 5372SOL    HW127578   1.106   3.141  10.781 -0.1997 -0.5781 -0.5367
 5372SOL    HW227579   0.989   3.095  10.696 -1.3494 -1.7765 -0.3417
 5373SOL     OW27580   3.704   0.692   5.940 -0.5350 -0.0889 -0.1982
 5373SOL    HW127581   3.724   0.608   5.982 -1.2889 -0.9860 -1.6177
 5373SOL    HW227582   3.787   0.736   5.959 -0.1274 -0.3198 -1.4238
 5374SOL     OW27583   2.612   4.120   4.922 -0.0252 -0.3215 -0.5351
 5374SOL    HW127584   2.630   4.026   4.930  1.2637 -0.1160 -0.9203
 5374SOL    HW227585   2.609   4.157   5.011 -2.1293  0.7584 -1.0618
 5375SOL     OW27586   3.259   3.021   9.810 -0.4407  0.0361 -0.0637
 5375SOL    HW127587   3.341   2.980   9.837 -0.0220  0.2839 -0.9769
 5375SOL    HW227588   3.252   2.981   9.724  1.2023  1.5263 -0.8819
 5376SOL     OW27589   4.314   3.118   3.033 -0.2589  0.4579 -0.0297
 5376SOL    HW127590   4.310   3.075   2.948 -3.0559  0.6251  0.0186
 5376SOL    HW227591   4.256   3.063   3.086 -0.8670  1.4731  0.3624
 5377SOL     OW27592   2.253   0.311   8.113 -0.0760 -0.1408  0.5634
 5377SOL    HW127593   2.207   0.367   8.175 -0.8248  0.0781 -0.2054
 5377SOL    HW227594   2.270   0.374   8.043  1.5549 -2.7477 -1.3832
 5378SOL     OW27595   1.740   0.580   7.158 -0.5247  0.4005  0.4540
 5378SOL    HW127596   1.748   0.583   7.063 -0.6759  2.1254  0.4836
 5378SOL    HW227597   1.815   0.524   7.177 -1.7837 -1.0072  1.2596
 5379SOL     OW27598   4.160   1.342   1.192  0.6096  0.7773 -0.1910
 5379SOL    HW127599   4.200   1.427   1.170 -1.2052  1.7747  0.3520
 5379SOL    HW227600   4.227   1.274   1.191  0.3981  0.5777 -0.4435
 5380SOL     OW27601   3.587   2.678   4.925 -0.6524  0.2200  0.4037
 5380SOL    HW127602   3.638   2.617   4.979  1.2237 -0.2574 -1.9164
 5380SOL    HW227603   3.604   2.632   4.843 -1.3579 -0.5994  0.7089
 5381SOL     OW27604   1.761   0.763   7.782 -0.1227  0.0472 -0.2807
 5381SOL    HW127605   1.710   0.842   7.766  0.9887  0.5782 -1.1571
 5381SOL    HW227606   1.703   0.696   7.744  1.7235 -2.1104  0.7715
 5382SOL     OW27607   0.434   0.209  16.272 -0.0668  0.0715  0.1765
 5382SOL    HW127608   0.399   0.170  16.192 -0.7775  0.6990  0.1788
 5382SOL    HW227609   0.425   0.304  16.259 -0.9297 -0.2877 -1.7515
 5383SOL     OW27610   4.327   0.534  12.828  0.0649 -0.6671  0.3928
 5383SOL    HW127611   4.280   0.468  12.878 -0.5714 -0.4536  0.0761
 5383SOL    HW227612   4.316   0.609  12.886  1.6708  0.8638 -1.2896
 5384SOL     OW27613   0.196   2.333   8.166  0.2006  0.7742 -0.2838
 5384SOL    HW127614   0.197   2.348   8.261  1.1269  2.1144 -0.5042
 5384SOL    HW227615   0.236   2.414   8.135 -0.2332  1.0319 -0.1820
 5385SOL     OW27616   3.399   3.825  14.385  0.5700  0.1315 -0.1092
 5385SOL    HW127617   3.346   3.894  14.345  2.1112  1.1021 -0.4751
 5385SOL    HW227618   3.336   3.803  14.454  1.0701 -0.6374  0.0983
 5386SOL     OW27619   2.681   2.565   6.463 -0.7815  0.1416 -0.5655
 5386SOL    HW127620   2.687   2.493   6.526  3.0598  0.9026 -0.0200
 5386SOL    HW227621   2.614   2.623   6.498  0.7211  1.2383  0.5023
 5387SOL     OW27622   4.404   0.017  13.188 -0.1861  0.3346 -0.2230
 5387SOL    HW127623   4.365   0.069  13.258  1.0153  1.5514 -0.4440
 5387SOL    HW227624   4.325   4.689  13.164 -0.7013  1.1541 -0.2038
 5388SOL     OW27625   3.300   3.697   8.128 -0.1397  0.0243  0.2306
 5388SOL    HW127626   3.251   3.763   8.177  0.1312  1.7128 -1.7732
 5388SOL    HW227627   3.382   3.747   8.130  1.0526 -1.8734 -1.1109
 5389SOL     OW27628   3.651   4.347   1.812  0.1390 -0.4349 -0.8202
 5389SOL    HW127629   3.612   4.264   1.785 -2.1825 -0.0129  1.2402
 5389SOL    HW227630   3.679   4.320   1.900 -0.3561  0.4056 -0.4055
 5390SOL     OW27631   0.004   2.902   7.022  0.1429  0.1078 -0.6295
 5390SOL    HW127632   0.003   2.944   7.108 -0.7474 -1.3022  0.0500
 5390SOL    HW227633   0.089   2.858   7.020  0.8231  1.3649  0.2698
 5391SOL     OW27634   0.737   3.004   7.278  0.0003  0.7982  0.1058
 5391SOL    HW127635   0.724   2.917   7.315 -1.8688  0.2015 -1.9861
 5391SOL    HW227636   0.651   3.011   7.236  1.0753  0.6061 -2.0785
 5392SOL     OW27637   3.045   2.370   3.470 -0.4014  0.2876 -0.7106
 5392SOL    HW127638   2.975   2.390   3.408 -0.9017  0.9982  0.0843
 5392SOL    HW227639   3.023   2.279   3.486 -0.3323  0.6134  1.2820
 5393SOL     OW27640   3.059   1.385  16.395 -0.0713  0.0720  0.0936
 5393SOL    HW127641   2.973   1.346  16.382 -0.3753  0.5815  0.6220
 5393SOL    HW227642   3.117   1.315  16.364  1.8352  0.7436  2.1293
 5394SOL     OW27643   3.394   3.332   6.851  0.8928  0.6559  0.3966
 5394SOL    HW127644   3.442   3.353   6.772 -0.7309 -0.1837 -0.8108
 5394SOL    HW227645   3.375   3.239   6.842  2.4632  0.6235 -2.5843
 5395SOL     OW27646   2.456   2.455   1.497  0.0564  0.6448  0.2402
 5395SOL    HW127647   2.379   2.493   1.540 -1.7158 -1.2980 -1.2286
 5395SOL    HW227648   2.471   2.521   1.430  1.4149  0.7121  0.5956
 5396SOL     OW27649   1.416   4.467  16.437  0.0868 -1.1231 -0.0093
 5396SOL    HW127650   1.410   4.409  16.513  0.2776  0.9424  1.5951
 5396SOL    HW227651   1.413   4.403  16.367  2.1311  1.0536 -2.1019
 5397SOL     OW27652   4.312   1.323  13.457  0.6702 -0.1698 -0.1770
 5397SOL    HW127653   4.271   1.404  13.427 -2.4865 -1.7269 -0.0597
 5397SOL    HW227654   4.402   1.355  13.457  0.4909  0.3289  1.4547
 5398SOL     OW27655   3.335   2.786   4.474 -0.1781  0.0879  0.3632
 5398SOL    HW127656   3.260   2.842   4.455  1.6233  1.8775 -1.5334
 5398SOL    HW227657   3.406   2.837   4.435  0.0627 -0.1432  0.4971
 5399SOL     OW27658   0.351   1.485  14.839 -0.3627 -0.6255 -0.0179
 5399SOL    HW127659   0.398   1.403  14.825  1.4454  0.1702  1.3622
 5399SOL    HW227660   0.347   1.522  14.750 -0.6855  0.4500  0.4451
 5400SOL     OW27661   1.081   3.673   4.723  0.2797 -0.0419 -0.1641
 5400SOL    HW127662   1.176   3.676   4.734  0.0532 -0.6204  2.0426
 5400SOL    HW227663   1.070   3.713   4.637  1.2588  2.4543  0.8662
 5401SOL     OW27664   2.592   4.499  10.650 -0.5020 -0.3933 -0.0058
 5401SOL    HW127665   2.537   4.538  10.583 -1.4103  1.6285  1.9136
 5401SOL    HW227666   2.607   4.563  10.720  0.8323 -0.7837  0.0687
 5402SOL     OW27667   2.713   2.438  15.394 -0.0760  0.2353 -0.1846
 5402SOL    HW127668   2.767   2.363  15.368 -0.6216  0.3265 -1.5882
 5402SOL    HW227669   2.683   2.478  15.312  0.7991  1.9001  0.3075
 5403SOL     OW27670   4.662   2.279   7.678  0.1533  0.4205  0.1248
 5403SOL    HW127671   0.028   2.291   7.639 -0.4222 -2.9278 -2.2473
 5403SOL    HW227672   4.613   2.282   7.596  0.2656 -2.6182 -0.0704
 5404SOL     OW27673   4.404   3.052   9.629 -0.0516  0.1360  0.5649
 5404SOL    HW127674   4.378   3.067   9.720 -1.5084  0.6912  0.0568
 5404SOL    HW227675   4.475   3.114   9.613 -0.7216  0.5797 -0.7370
 5405SOL     OW27676   4.324   0.643  14.500  0.7675 -1.1331 -0.2826
 5405SOL    HW127677   4.410   0.601  14.504  2.0529  1.5440  0.2111
 5405SOL    HW227678   4.283   0.628  14.586 -0.5711  0.9950 -0.5391
 5406SOL     OW27679   2.224   3.941   3.090  0.3471  0.4516 -0.1050
 5406SOL    HW127680   2.272   3.928   3.008  1.4738 -0.5312  0.6987
 5406SOL    HW227681   2.180   3.856   3.084  2.4083 -0.5784 -0.8249
 5407SOL     OW27682   3.269   0.983   6.723  0.1981  0.1756  0.0993
 5407SOL    HW127683   3.193   0.927   6.732  0.4461 -0.3088 -0.8528
 5407SOL    HW227684   3.242   1.063   6.770  3.5550  0.3280  1.8292
 5408SOL     OW27685   4.433   4.677  11.012 -0.3802  0.4733 -0.3100
 5408SOL    HW127686   4.399   4.606  10.958 -2.0764  1.7881 -0.9493
 5408SOL    HW227687   4.526   4.662  10.995 -0.2875  1.2385 -0.4550
 5409SOL     OW27688   0.045   0.259   5.469 -0.4938  0.0708 -0.1602
 5409SOL    HW127689   0.115   0.207   5.509  0.7004  0.6126 -1.5420
 5409SOL    HW227690   0.045   0.235   5.376  1.1468  2.7163 -0.8462
 5410SOL     OW27691   1.257   2.695   6.367 -0.4102  0.4872 -0.4065
 5410SOL    HW127692   1.345   2.711   6.334  0.0064  2.2776  1.5775
 5410SOL    HW227693   1.272   2.613   6.414  0.6244  0.2502 -1.1490
 5411SOL     OW27694   1.869   0.838  15.936  0.7012  0.2741  0.0755
 5411SOL    HW127695   1.815   0.787  15.997 -1.9633  0.6587 -1.9457
 5411SOL    HW227696   1.949   0.835  15.988 -1.3301 -1.5699  3.1164
 5412SOL     OW27697   2.208   0.435  13.591  0.9124 -0.1523  0.2151
 5412SOL    HW127698   2.209   0.467  13.501  0.4908  0.8040  0.5519
 5412SOL    HW227699   2.303   0.432  13.603  1.1385 -2.0521 -1.8898
 5413SOL     OW27700   0.564   1.130   4.866 -0.2649  0.5631  0.1377
 5413SOL    HW127701   0.610   1.057   4.825 -0.4908 -0.3496  1.4936
 5413SOL    HW227702   0.500   1.157   4.801 -0.6829 -1.8476 -0.4535
 5414SOL     OW27703   2.584   1.335  14.840 -0.0247 -0.0079 -0.5021
 5414SOL    HW127704   2.511   1.393  14.819 -1.2130 -2.0785 -2.1180
 5414SOL    HW227705   2.659   1.391  14.859  0.1845  0.0167 -1.4191
 5415SOL     OW27706   1.151   4.620   1.901  0.1064  0.6304 -0.0656
 5415SOL    HW127707   1.066   4.656   1.875  0.5887  0.6784 -1.5421
 5415SOL    HW227708   1.127   4.604   1.993 -1.4662 -2.6364 -1.0136
 5416SOL     OW27709   4.437   3.329   8.390  0.0535 -0.9908 -0.2458
 5416SOL    HW127710   4.424   3.234   8.385 -1.4664 -0.7125 -1.5977
 5416SOL    HW227711   4.528   3.347   8.365 -0.0043  0.0507  0.3253
 5417SOL     OW27712   2.246   2.258   6.578 -0.1909 -0.5898 -0.1821
 5417SOL    HW127713   2.230   2.294   6.665 -0.3356  3.5737 -1.9286
 5417SOL    HW227714   2.156   2.267   6.545  0.5919  2.7292 -1.4065
 5418SOL     OW27715   3.810   0.292   5.743  0.4739 -0.2595  0.0947
 5418SOL    HW127716   3.745   0.226   5.718  1.2126 -0.4805 -1.2727
 5418SOL    HW227717   3.886   0.234   5.730  1.7165  1.2029  0.8402
 5419SOL     OW27718   4.604   3.853  10.405  0.0669  0.2299 -0.3667
 5419SOL    HW127719   4.556   3.819  10.481 -1.7629 -0.3863 -1.7900
 5419SOL    HW227720   4.547   3.833  10.331 -2.4442  0.1135  1.5868
 5420SOL     OW27721   2.039   2.383   3.901  0.2800 -0.2087 -0.0318
 5420SOL    HW127722   2.019   2.405   3.992  0.9604 -0.5557  0.2040
 5420SOL    HW227723   1.962   2.421   3.858  0.2771 -0.1454  0.0303
 5421SOL     OW27724   4.103   3.729   5.029  0.2666 -0.2253 -0.2919
 5421SOL    HW127725   4.131   3.638   5.015  5.1635  1.1104  0.8673
 5421SOL    HW227726   4.062   3.712   5.113 -0.2911 -1.8945 -0.8859
 5422SOL     OW27727   3.465   0.430   2.900  0.1764  0.5581 -0.3246
 5422SOL    HW127728   3.479   0.460   2.989  0.5612 -0.4187 -0.0619
 5422SOL    HW227729   3.387   0.473   2.864 -0.8664  1.2593  2.7795
 5423SOL     OW27730   4.545   3.305  12.797  0.4801 -0.5744 -0.8185
 5423SOL    HW127731   4.613   3.241  12.819  1.1843  1.2544  2.4715
 5423SOL    HW227732   4.552   3.294  12.703 -0.2909 -1.6651 -0.7431
 5424SOL     OW27733   0.647   3.274  14.599  0.3490  0.3228  0.7358
 5424SOL    HW127734   0.705   3.207  14.635  0.1978 -0.9606 -1.4449
 5424SOL    HW227735   0.576   3.281  14.663 -1.4379 -1.5580 -1.0451
 5425SOL     OW27736   2.505   1.932   5.712  0.0609  0.2529 -0.0860
 5425SOL    HW127737   2.574   1.971   5.765 -0.0037  1.6840 -1.0333
 5425SOL    HW227738   2.494   1.849   5.758  1.3341  0.2067  0.1130
 5426SOL     OW27739   4.423   3.813   3.904 -0.1233 -0.1191  0.3568
 5426SOL    HW127740   4.455   3.891   3.859 -1.6392  0.1551 -0.2577
 5426SOL    HW227741   4.332   3.839   3.920 -0.1313  0.2116 -0.2269
 5427SOL     OW27742   4.711   2.131   4.749  0.4731 -0.2571 -0.4196
 5427SOL    HW127743   4.697   2.115   4.655  1.8786 -0.1732 -0.6399
 5427SOL    HW227744   0.085   2.139   4.745  0.4989 -0.5108 -0.2874
 5428SOL     OW27745   2.737   3.791   3.545 -0.2191 -0.6810 -0.4522
 5428SOL    HW127746   2.715   3.880   3.574  0.6008 -2.2998  5.0680
 5428SOL    HW227747   2.794   3.801   3.469 -0.0532  0.1930 -0.2137
 5429SOL     OW27748   4.304   1.727   9.011  0.0494  0.1533 -0.0404
 5429SOL    HW127749   4.243   1.673   9.061  1.9538  0.0032  2.1321
 5429SOL    HW227750   4.296   1.816   9.047 -0.1403 -0.9133  2.5828
 5430SOL     OW27751   3.220   3.122   5.195 -0.5479  0.3489 -0.0425
 5430SOL    HW127752   3.259   3.166   5.119 -3.2402  0.2844 -1.4642
 5430SOL    HW227753   3.210   3.029   5.173  0.2974 -0.1863  1.8028
 5431SOL     OW27754   2.896   1.226   7.960  0.0463 -0.0239  0.0152
 5431SOL    HW127755   2.971   1.272   7.998 -0.5449 -0.0881  1.2577
 5431SOL    HW227756   2.858   1.207   8.045  0.3489 -3.6887 -0.6856
 5432SOL     OW27757   3.888   4.172   8.218 -0.1963 -0.1336 -0.2921
 5432SOL    HW127758   3.876   4.159   8.312  1.2299 -0.2957 -0.1358
 5432SOL    HW227759   3.950   4.104   8.194  0.7568  0.5058  0.3507
 5433SOL     OW27760   1.874   3.597   9.819  0.1544 -0.3656  0.0007
 5433SOL    HW127761   1.919   3.594   9.734 -1.7019  0.4821 -0.9916
 5433SOL    HW227762   1.859   3.502   9.826  3.5396 -0.9718 -0.7165
 5434SOL     OW27763   4.539   2.282   5.826  0.2179 -0.0644 -0.3486
 5434SOL    HW127764   4.585   2.204   5.794 -0.2876 -1.1017  1.4712
 5434SOL    HW227765   4.463   2.229   5.852 -2.3400  3.5044 -0.4861
 5435SOL     OW27766   0.696   2.235  16.165  0.1284  0.3033 -0.8603
 5435SOL    HW127767   0.632   2.304  16.182  0.9010  0.7925  0.1251
 5435SOL    HW227768   0.681   2.227  16.071  1.3622  0.3403 -1.0621
 5436SOL     OW27769   3.039   4.458  14.973 -0.0028  0.1787 -0.2312
 5436SOL    HW127770   2.957   4.508  14.974 -0.3212 -0.3321 -0.5113
 5436SOL    HW227771   3.016   4.380  15.024  1.5369 -1.6275 -2.2961
 5437SOL     OW27772   2.064   4.187   3.158 -0.2980  0.0190 -0.2308
 5437SOL    HW127773   2.019   4.229   3.085 -0.6213 -1.3059 -0.8015
 5437SOL    HW227774   2.122   4.122   3.116  1.6014  2.2091 -1.0080
 5438SOL     OW27775   3.750   4.456  13.430 -0.7754  0.2266  0.2233
 5438SOL    HW127776   3.681   4.506  13.474  0.4691  0.9595  1.3609
 5438SOL    HW227777   3.753   4.377  13.484  0.5168 -0.8406 -1.4103
 5439SOL     OW27778   3.313   1.827   1.477 -0.9721 -0.5838  0.0893
 5439SOL    HW127779   3.254   1.801   1.547  0.5664 -2.1719  0.8027
 5439SOL    HW227780   3.317   1.918   1.504 -0.9712  0.0520 -2.0775
 5440SOL     OW27781   4.700   0.455   8.311 -0.3197  0.5125  0.2995
 5440SOL    HW127782   0.021   0.513   8.247  0.3444  1.4242  1.5581
 5440SOL    HW227783   4.634   0.406   8.263 -0.0207 -2.4431  2.8749
 5441SOL     OW27784   4.292   1.281   2.583  0.2653 -0.1926  0.3017
 5441SOL    HW127785   4.383   1.292   2.555  0.4886  0.5648  1.3049
 5441SOL    HW227786   4.287   1.191   2.553  0.1392 -0.0596 -0.0732
 5442SOL     OW27787   4.188   2.007  10.030 -0.1947 -0.6149  0.1702
 5442SOL    HW127788   4.111   2.005  10.088 -1.8011 -0.3110 -1.9275
 5442SOL    HW227789   4.165   1.933   9.974 -2.6609 -0.6013  1.1374
 5443SOL     OW27790   1.803   2.980   4.779  0.0141  0.5625  0.2062
 5443SOL    HW127791   1.889   3.018   4.764  0.0691  0.1415 -0.5430
 5443SOL    HW227792   1.830   2.890   4.800  1.9013  1.1212  0.1586
 5444SOL     OW27793   2.210   0.127   9.348 -0.6706 -0.3017 -0.2005
 5444SOL    HW127794   2.166   0.054   9.306  0.7107 -1.2850  0.0652
 5444SOL    HW227795   2.158   0.204   9.325  0.5283  0.7542  0.6201
 5445SOL     OW27796   1.917   4.669  14.279 -0.2727  0.4004 -0.3330
 5445SOL    HW127797   1.836   4.666  14.229 -0.3139  0.7287 -0.2830
 5445SOL    HW227798   1.977   4.674  14.204  1.1021  2.3250  0.9057
 5446SOL     OW27799   4.455   2.184   5.435  0.7793 -0.1809 -0.1482
 5446SOL    HW127800   4.536   2.231   5.415  1.6806 -1.4359  0.5436
 5446SOL    HW227801   4.426   2.242   5.505 -1.2137  1.6391 -2.5354
 5447SOL     OW27802   1.844   0.261  15.663  0.4403  0.2810 -0.1166
 5447SOL    HW127803   1.810   0.258  15.573  0.0957  3.8222 -0.0803
 5447SOL    HW227804   1.836   0.352  15.691  0.5583  0.3153 -0.1939
 5448SOL     OW27805   4.627   1.530   0.636  0.2883  0.2267 -0.2026
 5448SOL    HW127806   4.642   1.436   0.620 -0.1205 -0.0486  1.0733
 5448SOL    HW227807   4.644   1.539   0.730  0.3382 -0.6201 -0.1263
 5449SOL     OW27808   1.738   4.549   3.906 -0.6717 -0.0694  0.5909
 5449SOL    HW127809   1.830   4.567   3.925 -0.0589 -1.5738 -0.8972
 5449SOL    HW227810   1.742   4.469   3.853  0.1664  0.0452  0.4708
 5450SOL     OW27811   1.516   3.544   6.045  0.0053 -0.4017 -0.4516
 5450SOL    HW127812   1.457   3.612   6.012  0.0857 -0.6987 -1.2196
 5450SOL    HW227813   1.459   3.509   6.113  1.4938 -0.1910  0.9037
 5451SOL     OW27814   4.158   1.537  13.351  0.1589  0.3597  0.1935
 5451SOL    HW127815   4.108   1.568  13.276 -0.2315 -0.7407 -0.0072
 5451SOL    HW227816   4.215   1.614  13.356  1.1872 -0.3387 -0.8700
 5452SOL     OW27817   3.525   4.090   3.417 -0.2508  0.1466  0.1039
 5452SOL    HW127818   3.470   4.040   3.357 -0.0765  3.2366 -2.6506
 5452SOL    HW227819   3.520   4.183   3.398  1.6786  0.1543 -0.4092
 5453SOL     OW27820   4.188   1.489  15.172 -0.6750 -0.0373  0.4320
 5453SOL    HW127821   4.144   1.518  15.252 -3.3255  2.0476 -1.7640
 5453SOL    HW227822   4.137   1.541  15.109 -1.0786 -0.7126  0.1970
 5454SOL     OW27823   2.199   3.616  13.133 -0.3754 -0.4094 -0.3401
 5454SOL    HW127824   2.192   3.631  13.228 -1.5424  2.5895 -0.8938
 5454SOL    HW227825   2.172   3.524  13.122 -2.4043  0.3206 -1.4721
 5455SOL     OW27826   2.155   3.769  13.743  0.2777  0.0522  0.1156
 5455SOL    HW127827   2.240   3.780  13.784  0.6417  2.2096 -1.2702
 5455SOL    HW227828   2.133   3.680  13.772  2.2147  0.1528  1.8664
 5456SOL     OW27829   3.490   2.904  12.786 -0.2998 -0.6406 -0.1977
 5456SOL    HW127830   3.438   2.965  12.734  1.2537 -0.9404 -2.0874
 5456SOL    HW227831   3.581   2.909  12.758 -0.8624 -1.0188 -2.1245
 5457SOL     OW27832   2.047   0.559   3.718  0.2390  0.3444  0.5933
 5457SOL    HW127833   2.075   0.606   3.797  0.6072 -1.1276  1.3346
 5457SOL    HW227834   2.113   0.597   3.660  1.1882 -1.0053  0.7851
 5458SOL     OW27835   0.049   1.789   4.284  0.1298  0.3876 -0.0078
 5458SOL    HW127836   4.709   1.795   4.210  0.6103 -0.9710 -0.5355
 5458SOL    HW227837   0.119   1.736   4.245 -1.8159 -0.8742 -1.7797
 5459SOL     OW27838   2.957   0.904  17.545 -0.4871 -0.6154  0.6824
 5459SOL    HW127839   2.867   0.927  17.568 -0.1736  0.2354  1.0264
 5459SOL    HW227840   3.003   0.970  17.596  0.3185 -0.7217  0.0969
 5460SOL     OW27841   3.114   0.357   7.798  0.3909  0.3259 -0.2767
 5460SOL    HW127842   3.159   0.292   7.744 -0.1285  0.1357 -0.4811
 5460SOL    HW227843   3.187   0.398   7.845  0.0901  0.9316 -0.3383
 5461SOL     OW27844   0.783   3.371  16.819  0.2500  0.6094  0.0635
 5461SOL    HW127845   0.763   3.414  16.901  1.6800  1.0649  0.1825
 5461SOL    HW227846   0.847   3.432  16.781 -0.1431 -1.0692 -3.2953
 5462SOL     OW27847   1.010   0.367  12.354  0.5160 -0.2951  0.0177
 5462SOL    HW127848   0.922   0.404  12.352  0.9325  0.6565 -0.9638
 5462SOL    HW227849   1.054   0.429  12.295 -0.9300  0.2617 -0.4689
 5463SOL     OW27850   1.871   1.067   7.922 -0.7456 -0.0591 -0.3452
 5463SOL    HW127851   1.875   1.074   7.826  2.6289  1.0032 -0.1428
 5463SOL    HW227852   1.919   1.145   7.950 -1.1452 -0.1826  0.6637
 5464SOL     OW27853   4.465   4.463  13.939  0.3184  0.0130 -0.3718
 5464SOL    HW127854   4.546   4.507  13.911  1.9003 -1.8526  1.2991
 5464SOL    HW227855   4.405   4.509  13.880  1.5744  0.8911 -0.9679
 5465SOL     OW27856   2.056   4.017   2.795  0.2098 -0.0840  0.0069
 5465SOL    HW127857   1.991   4.088   2.802 -0.6683 -0.4772 -4.4011
 5465SOL    HW227858   2.026   3.957   2.863 -0.1667  0.6171  0.4607
 5466SOL     OW27859   2.067   2.025   3.427 -0.3794 -0.2271 -0.4749
 5466SOL    HW127860   2.046   2.111   3.390 -2.9900 -0.4433  0.5115
 5466SOL    HW227861   1.984   2.008   3.472 -0.6395 -0.0174 -0.8764
 5467SOL     OW27862   0.062   3.539   5.647 -0.3019  0.5355  0.9157
 5467SOL    HW127863   4.719   3.486   5.598  1.6303  0.2027 -1.2274
 5467SOL    HW227864   0.125   3.476   5.682 -2.4175 -2.5329 -0.6898
 5468SOL     OW27865   2.812   1.074   2.667  0.0221  0.5184  0.0408
 5468SOL    HW127866   2.749   1.109   2.730 -3.3697 -4.5582 -0.5022
 5468SOL    HW227867   2.797   0.980   2.679  0.5743  0.6310  1.6811
 5469SOL     OW27868   3.749   0.917  11.036 -0.1882 -0.2820  0.1845
 5469SOL    HW127869   3.826   0.930  10.980 -0.7059 -3.1839 -1.2274
 5469SOL    HW227870   3.743   0.822  11.023 -0.3842  0.0620 -2.1770
 5470SOL     OW27871   1.306   1.332   1.621  0.5018 -0.4489  0.0330
 5470SOL    HW127872   1.356   1.255   1.595  0.4852 -0.6190  0.4894
 5470SOL    HW227873   1.219   1.302   1.595 -0.8733  1.6303  2.1289
 5471SOL     OW27874   4.112   1.696   4.571 -0.0025  0.4437  0.0776
 5471SOL    HW127875   4.040   1.744   4.611 -0.8675  0.1316 -1.0810
 5471SOL    HW227876   4.070   1.686   4.485 -0.5869  1.2103  0.2707
 5472SOL     OW27877   4.530   3.821   4.217 -0.0560  0.1558 -0.1354
 5472SOL    HW127878   4.453   3.764   4.220 -0.4965  0.7381 -0.5298
 5472SOL    HW227879   4.596   3.752   4.218  1.0047  1.1743 -0.0163
 5473SOL     OW27880   0.033   2.591   2.581 -0.3207 -0.2614  0.4279
 5473SOL    HW127881   0.104   2.569   2.520 -0.8966  0.4036 -0.4819
 5473SOL    HW227882   0.085   2.641   2.644  1.4516  0.5566 -1.6524
 5474SOL     OW27883   3.164   2.679   4.716  0.5853 -0.2830  0.3779
 5474SOL    HW127884   3.217   2.703   4.639 -0.8558  2.7900  0.3432
 5474SOL    HW227885   3.217   2.615   4.762 -0.8560 -0.6341  1.5450
 5475SOL     OW27886   2.993   3.319   6.085 -0.4780  0.0878  0.4462
 5475SOL    HW127887   2.990   3.334   5.991 -0.2401 -3.3551 -0.1058
 5475SOL    HW227888   2.912   3.271   6.102 -0.0505  0.1407  2.6491
 5476SOL     OW27889   2.433   2.483   6.023  0.6249  0.4559 -0.1386
 5476SOL    HW127890   2.466   2.456   6.108  0.5502  0.9434  0.0390
 5476SOL    HW227891   2.499   2.435   5.972  0.0424  0.1854 -0.6357
 5477SOL     OW27892   4.327   2.768   2.112  0.1958  0.0353  0.2769
 5477SOL    HW127893   4.377   2.730   2.040  0.1740 -0.1374  0.3528
 5477SOL    HW227894   4.379   2.845   2.135  1.3856 -0.6204 -0.2235
 5478SOL     OW27895   3.275   1.830   8.268  0.3347  0.2064 -0.9092
 5478SOL    HW127896   3.297   1.911   8.314  1.3129 -1.0547  0.8409
 5478SOL    HW227897   3.277   1.775   8.346  1.5474 -1.5601 -2.1836
 5479SOL     OW27898   1.646   3.408   6.951 -0.0106 -0.0586 -0.1443
 5479SOL    HW127899   1.564   3.368   6.922 -0.4652  0.4167  0.4922
 5479SOL    HW227900   1.714   3.374   6.893  0.0841 -1.0065  0.5225
 5480SOL     OW27901   3.612   1.505  13.005  0.0998 -0.5498 -0.2140
 5480SOL    HW127902   3.676   1.549  13.062  1.1403 -1.0636 -0.9912
 5480SOL    HW227903   3.634   1.552  12.925 -1.7529 -0.6118 -0.7514
 5481SOL     OW27904   4.261   0.118   9.719  0.0511 -0.1373  0.2332
 5481SOL    HW127905   4.284   0.099   9.628  1.8408  1.1256  0.4294
 5481SOL    HW227906   4.203   0.193   9.718  0.8311  0.4660  0.0722
 5482SOL     OW27907   0.432   0.622   6.474  0.2464  0.3483  0.3653
 5482SOL    HW127908   0.416   0.532   6.505 -2.2300  0.0369 -1.8295
 5482SOL    HW227909   0.470   0.596   6.390  0.7377  0.8696  0.4272
 5483SOL     OW27910   1.579   0.312   7.506  0.2830  0.3013 -0.0495
 5483SOL    HW127911   1.546   0.268   7.585  0.4065  0.3337  0.0208
 5483SOL    HW227912   1.666   0.339   7.536  0.5127 -0.9845  0.4742
 5484SOL     OW27913   3.439   4.629   1.414 -0.4728  0.0182  0.3963
 5484SOL    HW127914   3.360   4.671   1.379  0.2231  0.7075 -0.3150
 5484SOL    HW227915   3.441   4.682   1.494 -0.5271 -0.5290  0.7702
 5485SOL     OW27916   2.863   3.971   5.533 -0.4245 -0.4512 -0.4170
 5485SOL    HW127917   2.905   4.022   5.464  0.9540 -2.3762 -1.0214
 5485SOL    HW227918   2.788   4.030   5.540  0.5441  0.4840  2.1948
 5486SOL     OW27919   2.668   4.435   2.166  0.3681 -0.4162  0.2035
 5486SOL    HW127920   2.580   4.429   2.129  0.4834  0.8501 -0.2681
 5486SOL    HW227921   2.676   4.524   2.198 -0.1830 -0.9369  1.7949
 5487SOL     OW27922   0.080   4.285   8.021 -0.5190 -0.3701  0.1351
 5487SOL    HW127923   0.026   4.230   8.078 -1.0476  0.0794  0.0690
 5487SOL    HW227924   0.166   4.245   8.034 -0.1773  0.3856  0.1847
 5488SOL     OW27925   0.839   2.147   7.673 -0.1126 -0.4221  0.1011
 5488SOL    HW127926   0.837   2.055   7.698 -0.5898 -0.0369  1.5192
 5488SOL    HW227927   0.858   2.138   7.580  0.2388 -1.3761  0.2690
 5489SOL     OW27928   0.278   1.319  13.639 -0.1791 -0.3516 -0.4796
 5489SOL    HW127929   0.273   1.253  13.570 -0.0790 -1.2828  0.3989
 5489SOL    HW227930   0.238   1.391  13.591 -0.3628 -0.7506 -0.9215
 5490SOL     OW27931   0.003   2.526   8.856 -0.5637  0.1799 -0.3320
 5490SOL    HW127932   4.658   2.494   8.917  0.1193 -1.4277 -0.4351
 5490SOL    HW227933   4.672   2.571   8.790 -2.5457  2.1495  2.6028
 5491SOL     OW27934   2.219   2.114   3.632 -0.4599 -0.2153 -0.2774
 5491SOL    HW127935   2.158   2.090   3.562  1.8757 -1.0186 -2.0197
 5491SOL    HW227936   2.211   2.042   3.694  2.3788  0.2688  0.6374
 5492SOL     OW27937   0.245   3.523   7.610  0.0390 -0.1972  0.0668
 5492SOL    HW127938   0.163   3.557   7.575 -1.5977 -4.0700  0.0808
 5492SOL    HW227939   0.292   3.509   7.528  0.0857 -1.4999  0.3063
 5493SOL     OW27940   3.939   3.893   1.808  0.6544  0.3708  0.3932
 5493SOL    HW127941   3.899   3.941   1.735  1.6647 -0.2211 -0.5520
 5493SOL    HW227942   3.912   3.804   1.785 -1.6770  0.3160  3.3198
 5494SOL     OW27943   3.726   2.135   5.089  0.3884  0.0486  0.1392
 5494SOL    HW127944   3.785   2.084   5.145  1.2308 -0.1329 -0.9030
 5494SOL    HW227945   3.778   2.215   5.099 -1.6197  1.2914  0.5508
 5495SOL     OW27946   4.283   4.398   5.141 -0.1997 -0.0380 -0.1591
 5495SOL    HW127947   4.322   4.455   5.208  0.9770 -0.4692 -0.4823
 5495SOL    HW227948   4.367   4.361   5.114 -0.8092 -1.0060 -0.7018
 5496SOL     OW27949   2.988   3.841   7.872 -0.3535 -0.0067 -0.3433
 5496SOL    HW127950   3.047   3.772   7.902  0.9582  0.5587 -1.6374
 5496SOL    HW227951   2.934   3.802   7.803 -2.3315  1.1562  0.5492
 5497SOL     OW27952   1.240   0.321   5.195 -0.0338 -0.1426  0.4981
 5497SOL    HW127953   1.176   0.265   5.151  0.3782  0.9906 -1.5467
 5497SOL    HW227954   1.316   0.264   5.211  1.0340  1.4798  1.2713
 5498SOL     OW27955   0.118   2.140   3.204 -0.1563  0.2745 -0.0930
 5498SOL    HW127956   0.041   2.084   3.211 -1.3647  1.6539 -2.3238
 5498SOL    HW227957   0.099   2.192   3.125  1.9802 -2.9884 -2.7397
 5499SOL     OW27958   2.617   2.038   8.534 -0.7271 -0.0828  0.0958
 5499SOL    HW127959   2.523   2.052   8.538 -1.0790 -2.2714 -0.5070
 5499SOL    HW227960   2.628   1.945   8.552  2.0948  0.2656  0.1616
 5500SOL     OW27961   3.232   3.227   6.189  0.4734  0.4763  0.1693
 5500SOL    HW127962   3.210   3.135   6.173 -0.9885  0.7542  0.5506
 5500SOL    HW227963   3.159   3.266   6.141  1.9065  1.4344 -1.2528
 5501SOL     OW27964   2.012   0.653   8.139 -0.0035  0.2162  0.2689
 5501SOL    HW127965   1.967   0.575   8.107 -0.6272  1.4179 -1.7415
 5501SOL    HW227966   2.003   0.719   8.070  0.0640 -0.0959 -0.0350
 5502SOL     OW27967   0.091   1.521   5.079 -0.7220  0.5250  0.2922
 5502SOL    HW127968   0.110   1.459   5.008 -0.8901  0.8320 -0.0180
 5502SOL    HW227969   0.112   1.464   5.153 -1.5047 -1.1058 -0.7442
 5503SOL     OW27970   1.581   1.275  17.663  0.0390 -0.1693 -0.3215
 5503SOL    HW127971   1.512   1.233   0.029  3.1156 -0.8245  3.2498
 5503SOL    HW227972   1.529   1.331  17.604 -0.9936 -0.0754  0.6813
 5504SOL     OW27973   4.151   4.306   0.887  0.0818 -0.0312 -0.0053
 5504SOL    HW127974   4.119   4.325   0.798  1.4973 -1.2232 -0.7822
 5504SOL    HW227975   4.228   4.362   0.887  0.0913 -0.0464  0.2086
 5505SOL     OW27976   1.191   2.403   5.021 -0.2161  0.3925 -0.0569
 5505SOL    HW127977   1.134   2.477   5.001  1.5735  0.6759 -3.9911
 5505SOL    HW227978   1.125   2.364   5.079  0.5932 -1.5680 -0.4576
 5506SOL     OW27979   1.566   0.582   9.265  0.6499 -0.1839 -0.2712
 5506SOL    HW127980   1.513   0.658   9.245  0.2324  0.0886  1.8801
 5506SOL    HW227981   1.567   0.588   9.360 -0.4767  1.4221 -0.3634
 5507SOL     OW27982   1.305   0.320   9.215  0.5474 -0.5659  0.1673
 5507SOL    HW127983   1.244   0.299   9.286  2.9562  1.7656  2.9089
 5507SOL    HW227984   1.312   0.415   9.212  0.2376 -0.4601  3.4963
 5508SOL     OW27985   2.579   3.238   8.774  0.1679  0.3503  0.2172
 5508SOL    HW127986   2.555   3.147   8.757 -0.6503  0.3986  1.0950
 5508SOL    HW227987   2.674   3.236   8.764 -0.0353 -1.2060 -1.4301
 5509SOL     OW27988   3.082   2.620   8.454  0.2540 -1.0878 -0.2100
 5509SOL    HW127989   3.124   2.560   8.392 -0.6225  0.3293 -2.1834
 5509SOL    HW227990   3.103   2.561   8.527  4.4657 -0.9790 -1.3423
 5510SOL     OW27991   4.328   0.094   8.126  0.4268  0.3820  0.3004
 5510SOL    HW127992   4.323   0.027   8.195  0.3317  0.1192  0.0387
 5510SOL    HW227993   4.401   0.057   8.077  0.4349 -0.4480  0.9447
 5511SOL     OW27994   1.674   1.060   2.489 -0.1974 -0.6262  0.2218
 5511SOL    HW127995   1.750   1.118   2.492 -0.6200 -0.0598 -0.1738
 5511SOL    HW227996   1.674   1.053   2.394 -1.2529 -0.2349  0.1958
 5512SOL     OW27997   2.338   3.790   4.907 -0.4757  0.2800  0.3753
 5512SOL    HW127998   2.423   3.799   4.949 -1.4833  1.9201  2.0476
 5512SOL    HW227999   2.325   3.696   4.909  0.2220  0.1967  0.7596
 5513SOL     OW28000   0.440   3.475  14.713  0.0828  0.0766  0.4886
 5513SOL    HW128001   0.357   3.443  14.677  0.4576  0.6774 -0.9052
 5513SOL    HW228002   0.409   3.507  14.798 -0.6580 -1.2920  0.7348
 5514SOL     OW28003   3.885   1.322   1.034 -0.0602 -0.3584 -0.4047
 5514SOL    HW128004   3.953   1.262   1.002 -0.0284 -1.1749  1.1810
 5514SOL    HW228005   3.936   1.378   1.092 -1.4372  0.2395  0.2253
 5515SOL     OW28006   2.991   0.889   3.350 -0.6634  0.1255 -0.2581
 5515SOL    HW128007   2.933   0.846   3.412 -0.6522  0.3423 -0.0950
 5515SOL    HW228008   3.017   0.813   3.299  0.8620 -0.2142  1.0164
 5516SOL     OW28009   3.666   2.790   7.833  0.1038  0.1400  0.0741
 5516SOL    HW128010   3.615   2.709   7.844  0.0787  0.2481  0.7560
 5516SOL    HW228011   3.638   2.825   7.748  0.8545  0.8417  0.1101
 5517SOL     OW28012   4.588   0.983   7.717 -0.0702 -0.4948  0.5112
 5517SOL    HW128013   4.660   1.028   7.761  0.8770  0.5556 -2.1310
 5517SOL    HW228014   4.515   1.043   7.733  0.6479  0.6728 -0.5323
 5518SOL     OW28015   2.704   0.390   5.263  0.2132  0.5091 -0.7309
 5518SOL    HW128016   2.625   0.359   5.220 -1.1917  1.9199  0.8536
 5518SOL    HW228017   2.734   0.317   5.318  1.0006  2.4774  1.4847
 5519SOL     OW28018   1.958   1.747   4.470 -0.3236  0.4294 -0.4566
 5519SOL    HW128019   1.911   1.825   4.439 -1.2471  0.2752  0.5810
 5519SOL    HW228020   1.889   1.698   4.515  0.3220 -0.4800 -0.4789
 5520SOL     OW28021   1.026   2.029   3.678 -0.0118 -0.6018 -0.1031
 5520SOL    HW128022   0.952   2.073   3.637  0.7684  0.1067 -0.7604
 5520SOL    HW228023   1.089   2.014   3.608 -0.5150 -0.6215 -0.5511
 5521SOL     OW28024   1.912   4.415   2.304 -0.3089 -0.2773  0.5558
 5521SOL    HW128025   1.855   4.349   2.264  0.5317 -0.0220 -1.0564
 5521SOL    HW228026   1.871   4.436   2.388  0.1579 -0.5821  0.8622
 5522SOL     OW28027   3.334   3.262   4.497  0.4532  0.2078 -0.1967
 5522SOL    HW128028   3.404   3.298   4.442 -0.1890  0.6859 -0.6945
 5522SOL    HW228029   3.270   3.238   4.430  0.2934 -0.1585  0.0877
 5523SOL     OW28030   3.790   1.728   8.861 -0.3017  0.0784 -0.0971
 5523SOL    HW128031   3.829   1.658   8.808 -0.7685 -1.0931  1.0995
 5523SOL    HW228032   3.779   1.670   8.936  0.1234 -4.0350 -3.1707
 5524SOL     OW28033   2.970   1.863   5.220 -0.2815  0.5541 -0.1797
 5524SOL    HW128034   2.914   1.884   5.295  0.9359 -0.6367  1.0649
 5524SOL    HW228035   2.957   1.769   5.208 -2.3894  1.0969 -2.1928
 5525SOL     OW28036   2.613   2.869  16.411  0.0331  0.1442  0.0493
 5525SOL    HW128037   2.586   2.778  16.396  0.8949  0.4203 -3.2059
 5525SOL    HW228038   2.531   2.907  16.443  1.1392  1.7149  0.9680
 5526SOL     OW28039   2.804   3.042   7.529  0.1374 -0.4153  0.1511
 5526SOL    HW128040   2.831   3.090   7.608  2.4678 -0.8743 -0.3602
 5526SOL    HW228041   2.855   3.078   7.457  0.2307 -0.8628 -0.0085
 5527SOL     OW28042   0.696   3.026  17.355 -0.1401 -0.5142 -0.0819
 5527SOL    HW128043   0.657   3.094  17.411 -0.6528 -0.3228 -0.6692
 5527SOL    HW228044   0.639   2.950  17.369  1.2899 -1.8787 -1.6772
 5528SOL     OW28045   2.720   1.132   3.758  0.2691  0.0476  0.3575
 5528SOL    HW128046   2.693   1.135   3.850  3.6029  0.2385  1.3009
 5528SOL    HW228047   2.708   1.221   3.726  1.4196  0.3865  0.8797
 5529SOL     OW28048   3.465   2.238   3.659 -0.0989  0.2523  0.0302
 5529SOL    HW128049   3.477   2.150   3.622  2.1261  1.9823 -3.3895
 5529SOL    HW228050   3.558   2.244   3.683  0.3061 -1.1066 -1.1794
 5530SOL     OW28051   4.172   2.160   8.666 -0.0008  0.2846 -0.3122
 5530SOL    HW128052   4.157   2.066   8.661 -0.2963  0.4431 -2.1099
 5530SOL    HW228053   4.205   2.178   8.579  0.4431 -2.1411 -0.6482
 5531SOL     OW28054   3.911   1.447   8.391 -0.2891 -0.5089  0.4412
 5531SOL    HW128055   3.959   1.372   8.357 -1.1627 -0.4008 -1.0100
 5531SOL    HW228056   3.834   1.398   8.420  0.1150 -2.1043 -1.2226
 5532SOL     OW28057   3.626   0.831   3.897  0.4355  0.4441  0.0608
 5532SOL    HW128058   3.710   0.844   3.853  0.3660 -0.1468 -0.2447
 5532SOL    HW228059   3.646   0.762   3.961  1.4394 -1.2400 -2.0423
 5533SOL     OW28060   2.800   4.447   8.358  0.0418 -0.1949 -0.0348
 5533SOL    HW128061   2.763   4.535   8.355 -1.9829 -1.0416 -0.0332
 5533SOL    HW228062   2.719   4.395   8.359 -1.3829  2.0785  2.9519
 5534SOL     OW28063   3.778   1.433   4.511 -0.1555 -0.2516 -0.3199
 5534SOL    HW128064   3.761   1.374   4.438 -0.4712 -2.7643  1.8108
 5534SOL    HW228065   3.873   1.431   4.522 -0.0379  1.2337 -0.9321
 5535SOL     OW28066   3.268   3.767   5.678  0.4530 -0.7825  0.4320
 5535SOL    HW128067   3.318   3.761   5.596 -3.2822 -2.8668 -1.7108
 5535SOL    HW228068   3.203   3.697   5.678 -2.4150  1.8609  0.9579
 5536SOL     OW28069   2.429   1.480   2.031  0.1596  0.2942  0.0793
 5536SOL    HW128070   2.524   1.485   2.042  0.1398  0.8831 -0.0076
 5536SOL    HW228071   2.414   1.537   1.955  1.1599  1.5023  0.7852
 5537SOL     OW28072   2.910   0.192   3.224 -0.0827 -0.2577  0.6083
 5537SOL    HW128073   2.943   0.107   3.252 -2.2003 -1.0977  0.4796
 5537SOL    HW228074   2.877   0.187   3.135 -2.9602  0.2509  1.6424
 5538SOL     OW28075   2.651   3.255   3.378  0.8719 -0.1493  0.2307
 5538SOL    HW128076   2.732   3.300   3.403 -0.6183  0.8708  3.1085
 5538SOL    HW228077   2.643   3.280   3.286 -4.4880  0.5808  0.9162
 5539SOL     OW28078   1.466   0.349   6.853  0.1899 -0.3979 -0.5635
 5539SOL    HW128079   1.379   0.336   6.890  0.5533  1.3005  0.9171
 5539SOL    HW228080   1.495   0.432   6.892  1.2072 -0.6956 -0.6888
 5540SOL     OW28081   1.701   1.803   4.136 -0.6452  0.1209  0.4345
 5540SOL    HW128082   1.623   1.758   4.102 -0.6934 -0.1042  0.8489
 5540SOL    HW228083   1.674   1.808   4.228  0.0157  0.3910  0.6137
 5541SOL     OW28084   2.658   0.448   3.752 -0.3589 -0.2352  0.3780
 5541SOL    HW128085   2.712   0.526   3.760 -0.8605  0.0671  0.7822
 5541SOL    HW228086   2.712   0.399   3.690  0.3827  2.9268 -1.4545
 5542SOL     OW28087   3.853   2.602   3.365  0.2352  0.5802  0.1759
 5542SOL    HW128088   3.926   2.551   3.399  0.4666 -0.4624 -1.8534
 5542SOL    HW228089   3.851   2.574   3.273  0.5545 -0.5832  0.5277
 5543SOL     OW28090   1.815   3.410  14.553  0.0209 -0.2432 -0.3704
 5543SOL    HW128091   1.875   3.363  14.612  0.6292 -0.8234 -1.4383
 5543SOL    HW228092   1.854   3.377  14.471 -1.0196  2.8176 -2.0791
 5544SOL     OW28093   0.667   1.537   4.430  0.0379 -0.1877  0.1850
 5544SOL    HW128094   0.611   1.605   4.467  0.5876 -0.3262  1.2700
 5544SOL    HW228095   0.617   1.522   4.350  1.1449  0.8097 -0.6914
 5545SOL     OW28096   3.005   4.658   6.238 -0.2988  0.4631 -0.0134
 5545SOL    HW128097   3.096   4.688   6.236  0.2336 -1.0554  1.2719
 5545SOL    HW228098   2.983   4.687   6.150  0.9176  0.2448 -0.3976
 5546SOL     OW28099   2.421   4.519  13.037  0.3756  0.0929  0.2311
 5546SOL    HW128100   2.441   4.466  12.959  0.5582 -0.5308  0.7016
 5546SOL    HW228101   2.354   4.572  12.993 -2.3785 -2.2017  1.5910
 5547SOL     OW28102   4.235   0.539   2.043  0.9630 -0.0513 -0.0549
 5547SOL    HW128103   4.289   0.578   2.111 -0.1972  1.6091 -0.1075
 5547SOL    HW228104   4.151   0.576   2.067  0.8270  0.0543 -0.6954
 5548SOL     OW28105   3.811   1.376   6.369 -0.5041  0.4901  0.0952
 5548SOL    HW128106   3.773   1.288   6.367  0.4396  0.1779 -3.6494
 5548SOL    HW228107   3.880   1.357   6.432 -1.6958 -2.7777  0.4017
 5549SOL     OW28108   1.925   2.080  13.596  0.4395  0.4811  0.7338
 5549SOL    HW128109   1.965   2.048  13.515  3.0421 -1.1984  2.6564
 5549SOL    HW228110   1.869   2.142  13.549 -0.0333 -0.0713  0.5689
 5550SOL     OW28111   1.027   1.584   0.155 -0.2502  0.2117 -0.5602
 5550SOL    HW128112   1.013   1.509   0.098  0.0306 -0.2185 -0.0643
 5550SOL    HW228113   0.938   1.588   0.191  0.0955 -2.2782  0.5492
 5551SOL     OW28114   3.442   3.195   3.164 -0.1724 -0.2888 -0.4151
 5551SOL    HW128115   3.502   3.166   3.233  0.6709  0.3937 -0.8596
 5551SOL    HW228116   3.508   3.204   3.095  0.7497 -1.0999  0.3459
 5552SOL     OW28117   0.158   0.608  17.102 -0.3047  0.4044  0.9809
 5552SOL    HW128118   0.119   0.582  17.018  1.9691 -1.6917  0.5771
 5552SOL    HW228119   0.242   0.635  17.066 -0.3060  0.5535  1.0909
 5553SOL     OW28120   2.078   0.107   5.406  1.1107 -0.4582 -0.1882
 5553SOL    HW128121   2.044   0.031   5.360 -1.3076  0.4188  0.1552
 5553SOL    HW228122   2.003   0.166   5.401  1.4171 -0.2489 -2.2648
 5554SOL     OW28123   1.207   0.354   6.996  0.2562 -0.3033  0.0969
 5554SOL    HW128124   1.114   0.331   7.001  0.0873 -0.1769 -2.5472
 5554SOL    HW228125   1.223   0.342   7.090 -1.1034 -0.9771  0.2366
 5555SOL     OW28126   2.413   0.757   6.305  0.8215  0.1091 -0.2175
 5555SOL    HW128127   2.406   0.834   6.250  0.4809  0.8471  0.8507
 5555SOL    HW228128   2.324   0.757   6.342  0.7093  1.1081 -0.4973
 5556SOL     OW28129   0.989   0.221   8.262 -0.2763  0.5857  0.1416
 5556SOL    HW128130   0.970   0.179   8.178 -0.4677  1.1858 -0.1107
 5556SOL    HW228131   1.051   0.289   8.239  0.4361 -0.1621 -0.1340
 5557SOL     OW28132   1.015   0.544   7.309 -0.1335  0.0526  0.5554
 5557SOL    HW128133   0.993   0.623   7.261 -0.0315 -0.9262 -1.1173
 5557SOL    HW228134   0.933   0.519   7.351 -0.9758  0.7101 -0.6937
 5558SOL     OW28135   0.824   2.836   6.874  0.0779 -0.0846 -0.9994
 5558SOL    HW128136   0.885   2.905   6.899  0.2239 -0.5848  0.0194
 5558SOL    HW228137   0.750   2.887   6.840 -0.5989  0.2070  0.9261
 5559SOL     OW28138   1.273   0.429  14.357  0.1475  0.0968 -0.0439
 5559SOL    HW128139   1.229   0.344  14.350 -0.1761 -0.0821  3.9217
 5559SOL    HW228140   1.364   0.405  14.337 -0.2845 -1.5837 -0.0662
 5560SOL     OW28141   1.377   3.633   6.529  0.1264 -0.9079  0.5129
 5560SOL    HW128142   1.430   3.647   6.450  1.8152  2.0831  2.1723
 5560SOL    HW228143   1.288   3.625   6.496 -0.4064  3.0567  0.9878
 5561SOL     OW28144   1.354   1.307   0.232 -0.2176 -0.1372 -0.2317
 5561SOL    HW128145   1.309   1.268   0.307 -1.4949  0.8556 -0.4803
 5561SOL    HW228146   1.441   1.323   0.269 -0.4363  0.7959 -0.1218
 5562SOL     OW28147   2.176   2.310   6.841 -0.5620  0.2351  0.1241
 5562SOL    HW128148   2.263   2.350   6.839  0.3423 -1.6357  1.9114
 5562SOL    HW228149   2.158   2.294   6.934 -0.3910 -0.7706 -0.0159
 5563SOL     OW28150   0.679   2.267   2.909 -0.3952  0.0718  0.0094
 5563SOL    HW128151   0.762   2.304   2.877 -1.8592  2.2592 -1.2807
 5563SOL    HW228152   0.632   2.350   2.920 -0.6055 -0.2467  1.5055
 5564SOL     OW28153   1.482   1.546  11.279  0.1893 -0.0301 -0.3499
 5564SOL    HW128154   1.504   1.467  11.329 -2.2241 -2.0017 -2.4347
 5564SOL    HW228155   1.564   1.551  11.229  1.0311  0.6411  1.0800
 5565SOL     OW28156   1.336   2.272   3.601 -0.0613 -0.0450  0.4379
 5565SOL    HW128157   1.260   2.297   3.548  0.0437  0.7099  0.6505
 5565SOL    HW228158   1.372   2.213   3.534  0.5447  3.5780 -2.4547
 5566SOL     OW28159   4.193   4.615   4.984  0.1726  0.1276  0.2507
 5566SOL    HW128160   4.195   4.526   5.019  1.1538  0.6537  1.5240
 5566SOL    HW228161   4.284   4.637   5.006  0.5319  0.3798 -1.5222
 5567SOL     OW28162   4.150   0.853  15.265 -0.0035  0.2611  0.0192
 5567SOL    HW128163   4.134   0.923  15.328 -1.5190  0.8531 -1.0273
 5567SOL    HW228164   4.065   0.812  15.247 -1.0134  1.7443  1.3739
 5568SOL     OW28165   0.826   0.083   5.885  0.6477  0.4382 -0.9427
 5568SOL    HW128166   0.895   0.075   5.951 -0.0001 -0.2185 -0.3655
 5568SOL    HW228167   0.845   4.719   5.845 -1.3394 -0.1688 -0.5636
 5569SOL     OW28168   2.006   1.507   0.461  0.2744  0.4842 -0.2333
 5569SOL    HW128169   2.056   1.458   0.526  1.3677  0.1970 -1.2891
 5569SOL    HW228170   2.073   1.552   0.410  1.9921 -0.0830  1.4914
 5570SOL     OW28171   2.807   1.221   8.231  0.2389  0.2263  0.2251
 5570SOL    HW128172   2.738   1.279   8.200  0.6128  1.2649  1.3302
 5570SOL    HW228173   2.844   1.276   8.300 -1.0666  3.9729 -2.0464
 5571SOL     OW28174   3.856   4.680   4.264 -0.6519  0.0864 -0.4245
 5571SOL    HW128175   3.816   4.605   4.308 -1.9750  1.0618  0.0169
 5571SOL    HW228176   3.941   4.695   4.306 -2.0211  0.5559  2.1447
 5572SOL     OW28177   0.253   0.066   6.041  0.0656 -0.1197 -1.0868
 5572SOL    HW128178   0.207   0.023   5.968  0.7130  0.0536 -1.6004
 5572SOL    HW228179   0.337   0.088   6.002 -1.3091  5.2625 -0.9604
 5573SOL     OW28180   2.470   2.384   8.747  0.0685  0.2566 -0.6600
 5573SOL    HW128181   2.522   2.384   8.828 -0.4178 -1.9084 -0.3291
 5573SOL    HW228182   2.508   2.313   8.695  0.0014 -0.5630  0.4115
 5574SOL     OW28183   0.529   3.676  17.395  0.2744  0.0259  0.1556
 5574SOL    HW128184   0.445   3.644  17.429  0.1931 -1.6378 -1.6194
 5574SOL    HW228185   0.570   3.598  17.356 -0.6335 -2.6415  4.4709
 5575SOL     OW28186   3.820   1.657  15.786 -0.4875  0.2146  0.2927
 5575SOL    HW128187   3.744   1.680  15.733  0.3991  0.0234 -1.0557
 5575SOL    HW228188   3.884   1.720  15.753  0.4374 -1.1482 -0.5426
 5576SOL     OW28189   2.347   4.446   4.882  0.5058  0.3272  0.1976
 5576SOL    HW128190   2.428   4.431   4.833  0.9589 -1.1815  1.4166
 5576SOL    HW228191   2.370   4.395   4.960  1.7224 -0.7211 -0.8585
 5577SOL     OW28192   2.636   4.216  10.140  0.0250 -1.1776  0.6577
 5577SOL    HW128193   2.714   4.166  10.164  0.4761 -0.7948 -0.0355
 5577SOL    HW228194   2.628   4.272  10.217  2.9310  0.5665 -0.2830
 5578SOL     OW28195   3.328   0.700   7.600 -0.2302  0.0439 -0.0470
 5578SOL    HW128196   3.310   0.761   7.528  1.2889  0.5152 -0.0111
 5578SOL    HW228197   3.307   0.763   7.668  0.2368 -0.8076  0.8840
 5579SOL     OW28198   2.592   0.739   5.588  0.3423 -0.5114 -0.6304
 5579SOL    HW128199   2.646   0.680   5.536 -1.7138 -1.2014 -1.9621
 5579SOL    HW228200   2.518   0.686   5.616  0.7985 -1.0631 -0.4791
 5580SOL     OW28201   0.244   0.666   3.763  0.1496 -0.0707 -0.4838
 5580SOL    HW128202   0.300   0.598   3.727 -1.2342 -0.3547 -2.1423
 5580SOL    HW228203   0.307   0.737   3.777  3.5632 -2.9128 -1.6513
 5581SOL     OW28204   0.443   1.672   3.126 -0.0016  0.8201  0.1688
 5581SOL    HW128205   0.433   1.667   3.221 -1.2299  0.4249  0.0043
 5581SOL    HW228206   0.538   1.684   3.117 -0.4033  1.7919 -2.7483
 5582SOL     OW28207   0.481   0.019   6.591  0.7969  0.1155  0.5688
 5582SOL    HW128208   0.461   0.087   6.655 -1.0344  0.5155 -0.4321
 5582SOL    HW228209   0.569   0.039   6.558 -0.2690  0.4630 -2.0400
 5583SOL     OW28210   3.238   2.508   4.227  0.3154 -0.4872 -0.4270
 5583SOL    HW128211   3.330   2.511   4.200 -0.0084  0.6462 -1.4272
 5583SOL    HW228212   3.197   2.538   4.146 -0.7407  0.9535  0.6485
 5584SOL     OW28213   4.271   2.542  14.650 -0.0640  0.0261  0.2337
 5584SOL    HW128214   4.277   2.590  14.733  1.2152  1.0132 -0.4339
 5584SOL    HW228215   4.176   2.542  14.635 -0.2640  1.4430  1.4466
 5585SOL     OW28216   3.641   1.301   8.294  0.1352 -0.3758  0.5397
 5585SOL    HW128217   3.585   1.226   8.315 -0.5004 -0.9500 -3.2053
 5585SOL    HW228218   3.659   1.304   8.200  0.7624 -0.8109  0.6414
 5586SOL     OW28219   0.592   3.526   3.629 -0.4172 -0.2306  0.0654
 5586SOL    HW128220   0.570   3.533   3.722  2.0626 -1.4682  0.7354
 5586SOL    HW228221   0.515   3.482   3.593  0.9472 -0.0631 -3.0858
 5587SOL     OW28222   3.694   2.196   5.968 -0.2108  0.0481  0.1751
 5587SOL    HW128223   3.751   2.127   6.000 -0.3275 -0.4117 -0.6278
 5587SOL    HW228224   3.687   2.184   5.874 -3.0070  0.0677  0.3854
 5588SOL     OW28225   0.170   1.347  17.625 -0.1586 -0.0999 -0.4696
 5588SOL    HW128226   0.189   1.349   0.033  2.8672  0.5277 -1.1066
 5588SOL    HW228227   0.159   1.440  17.606 -1.0478 -0.2521 -0.6790
 5589SOL     OW28228   3.911   1.009   4.204 -0.4655  0.1922  0.0581
 5589SOL    HW128229   3.918   1.066   4.128  0.1265  0.5447  0.3805
 5589SOL    HW228230   3.921   1.070   4.277 -0.1293 -1.1681  1.1620
 5590SOL     OW28231   0.514   2.674   1.778  0.0610  0.4024 -0.0552
 5590SOL    HW128232   0.514   2.768   1.796 -0.6633  0.4389 -0.2619
 5590SOL    HW228233   0.604   2.644   1.795  0.1598  1.4494  1.2575
 5591SOL     OW28234   2.078   1.707   2.995 -0.3228  0.2742 -0.6382
 5591SOL    HW128235   2.120   1.748   2.920  0.8697  0.0604 -0.0803
 5591SOL    HW228236   2.124   1.748   3.068  2.3930 -0.8013 -1.7686
 5592SOL     OW28237   2.053   0.012   5.969 -0.2493 -0.5297 -0.5017
 5592SOL    HW128238   2.031   4.721   5.877 -0.6510 -1.1915 -0.3183
 5592SOL    HW228239   2.115   4.661   5.981  2.1888  1.6960  0.0626
 5593SOL     OW28240   3.280   0.188   6.796  0.0253  0.2338 -0.2607
 5593SOL    HW128241   3.351   0.249   6.814 -0.0063  0.2450 -0.1755
 5593SOL    HW228242   3.319   0.140   6.723 -0.7255 -0.1272 -0.4218
 5594SOL     OW28243   2.334   3.188   5.354  0.7898 -0.1124  0.1416
 5594SOL    HW128244   2.250   3.141   5.353 -0.5339  2.2854 -0.9397
 5594SOL    HW228245   2.337   3.204   5.260  0.6949  1.2140  0.3670
 5595SOL     OW28246   0.147   2.956  11.402  0.8157  0.5937 -0.3078
 5595SOL    HW128247   0.206   2.916  11.466 -2.2582 -0.1391  2.0773
 5595SOL    HW228248   0.088   3.000  11.464 -1.1340  0.6045 -2.1597
 5596SOL     OW28249   2.080   2.274   2.434  0.5443  0.2417  0.3837
 5596SOL    HW128250   2.024   2.347   2.463 -0.5614 -0.4760  0.0403
 5596SOL    HW228251   2.143   2.315   2.374  1.3345 -0.2825  0.8554
 5597SOL     OW28252   0.444   0.920   9.513 -0.4049  0.7487 -0.2136
 5597SOL    HW128253   0.397   0.999   9.538 -0.5216 -0.5611  3.6907
 5597SOL    HW228254   0.377   0.862   9.477  1.5515 -1.8786  0.3876
 5598SOL     OW28255   4.002   4.004   3.286 -0.8608 -0.1904  0.1005
 5598SOL    HW128256   3.937   4.054   3.336  0.3463 -0.6354  2.1140
 5598SOL    HW228257   3.998   3.918   3.328  1.8547  0.7848  2.3651
 5599SOL     OW28258   1.067   0.746   8.852  0.4109  0.0506  0.3419
 5599SOL    HW128259   1.144   0.690   8.839  0.4580 -0.3554  2.3847
 5599SOL    HW228260   1.112   0.826   8.878  1.0969 -0.6438  1.2720
 5600SOL     OW28261   0.941   2.307   2.304  0.2003  0.3042 -0.2341
 5600SOL    HW128262   0.866   2.247   2.300  0.3300  0.1577 -0.4553
 5600SOL    HW228263   0.921   2.378   2.243 -0.1741  1.0888  0.8217
 5601SOL     OW28264   0.196   1.627  15.603  0.1736  0.2958 -0.1938
 5601SOL    HW128265   0.205   1.706  15.550 -0.4248  0.2088 -0.4199
 5601SOL    HW228266   0.255   1.566  15.559  0.1161 -0.7106  1.1004
 5602SOL     OW28267   0.693   4.268   9.830  0.0254 -0.0455  0.1033
 5602SOL    HW128268   0.706   4.347   9.778 -1.3433  0.1362  0.0265
 5602SOL    HW228269   0.717   4.301   9.916 -3.0543 -1.7663  1.6523
 5603SOL     OW28270   0.971   1.625   5.916  0.4472  0.0324  0.0801
 5603SOL    HW128271   0.953   1.714   5.947  1.7607  0.2153  0.3218
 5603SOL    HW228272   1.021   1.590   5.989 -0.5588  1.1533  1.3065
 5604SOL     OW28273   1.054   1.725  12.722 -0.5730 -0.4119  0.0688
 5604SOL    HW128274   0.994   1.780  12.773 -0.5916 -1.1608  0.8677
 5604SOL    HW228275   1.131   1.781  12.713 -0.0353 -0.6890  3.0743
 5605SOL     OW28276   0.985   2.282  11.978  0.1544  0.0494  0.3681
 5605SOL    HW128277   0.931   2.361  11.975  1.5522  1.0573  1.5717
 5605SOL    HW228278   1.055   2.299  12.040  1.7790 -0.6529 -1.2883
 5606SOL     OW28279   0.940   1.090   2.615 -0.7057 -0.0974 -0.6064
 5606SOL    HW128280   0.926   1.068   2.523 -0.7124 -1.5261 -0.2594
 5606SOL    HW228281   0.870   1.156   2.615  0.7534  1.4478 -1.8715
 5607SOL     OW28282   1.009   1.601   4.930 -0.1640 -0.3285  0.0873
 5607SOL    HW128283   1.076   1.556   4.983  0.2118  0.5871  0.3797
 5607SOL    HW228284   1.032   1.693   4.938 -2.5657  0.0274  3.0205
 5608SOL     OW28285   3.558   3.524   5.038  0.1421  0.2034  0.6986
 5608SOL    HW128286   3.574   3.509   5.131  0.4969 -2.8228  0.1600
 5608SOL    HW228287   3.645   3.520   4.998 -0.1826 -0.2996  0.0295
 5609SOL     OW28288   2.887   2.871   1.634 -0.1135  0.5036  0.2168
 5609SOL    HW128289   2.887   2.780   1.604 -0.1342  0.8588 -0.8877
 5609SOL    HW228290   2.799   2.899   1.611  0.2093 -0.9605 -2.7832
 5610SOL     OW28291   4.088   1.144   7.810  0.2866  0.0692  0.1867
 5610SOL    HW128292   4.145   1.178   7.879  1.6474 -2.4591  0.3239
 5610SOL    HW228293   4.162   1.114   7.758 -0.1788 -0.8045  0.0234
 5611SOL     OW28294   1.623   1.492   0.589  0.3805 -0.7535 -0.4103
 5611SOL    HW128295   1.541   1.507   0.636  1.0135 -1.4172  0.9088
 5611SOL    HW228296   1.613   1.402   0.559 -1.7369 -0.1074 -1.6294
 5612SOL     OW28297   0.985   1.161   3.517  0.2730  0.2484 -0.1175
 5612SOL    HW128298   0.898   1.149   3.479 -0.8770  0.5373  2.3943
 5612SOL    HW228299   1.027   1.230   3.465  0.9641  0.7921  1.1695
 5613SOL     OW28300   2.439   0.790   7.545 -0.4446  0.0564  0.0058
 5613SOL    HW128301   2.368   0.850   7.520 -0.4675  0.1591  0.3139
 5613SOL    HW228302   2.506   0.818   7.483  0.1330 -0.7755  0.2531
 5614SOL     OW28303   3.418   3.125   0.883  0.3728 -0.1935  0.3057
 5614SOL    HW128304   3.359   3.197   0.905 -1.0898 -0.7102 -1.8989
 5614SOL    HW228305   3.357   3.067   0.837 -0.3286  0.7385  0.0751
 5615SOL     OW28306   2.932   0.772  13.718 -0.3614  0.1425  0.3354
 5615SOL    HW128307   2.977   0.857  13.721 -2.8569  1.5065 -0.1013
 5615SOL    HW228308   2.934   0.771  13.622  0.3828 -0.6780  0.3671
 5616SOL     OW28309   1.937   0.764   8.394 -0.1598 -0.1304  0.6404
 5616SOL    HW128310   1.987   0.724   8.322  0.1557  1.2624  0.0822
 5616SOL    HW228311   1.990   0.740   8.470  0.5263 -0.0158  0.2024
 5617SOL     OW28312   3.571   2.693   6.320  0.0483 -0.7185  0.1122
 5617SOL    HW128313   3.566   2.700   6.225 -0.2062  3.4170  0.4310
 5617SOL    HW228314   3.621   2.615   6.342  1.5148  0.0284 -0.5476
 5618SOL     OW28315   4.703   1.264   8.667  0.1551 -0.1293  0.2761
 5618SOL    HW128316   0.011   1.246   8.577  0.6285 -0.8759  0.5757
 5618SOL    HW228317   0.064   1.283   8.713 -0.8005  0.6412  1.6407
 5619SOL     OW28318   0.941   0.819   8.360  0.5054  0.2855 -0.0579
 5619SOL    HW128319   1.010   0.873   8.320  0.4255  0.2820 -0.1994
 5619SOL    HW228320   0.901   0.890   8.410 -0.3556 -0.4930  0.3416
 5620SOL     OW28321   1.790   0.104  16.353 -0.3406  0.8273  0.2282
 5620SOL    HW128322   1.782   0.155  16.272  1.3564  0.7123 -0.0150
 5620SOL    HW228323   1.808   0.176  16.414  1.4359  0.8662 -0.3438
 5621SOL     OW28324   3.449   4.366   1.421 -0.2852  0.4095  0.0012
 5621SOL    HW128325   3.447   4.462   1.420 -1.3678  0.3823 -0.9445
 5621SOL    HW228326   3.366   4.347   1.378 -0.0016  0.6053 -0.6357
 5622SOL     OW28327   0.168   3.915   7.938 -0.2812 -0.4289  0.0414
 5622SOL    HW128328   0.074   3.927   7.952 -0.2572 -0.2771  0.0817
 5622SOL    HW228329   0.171   3.949   7.849 -2.7002  0.8557  0.4590
 5623SOL     OW28330   1.605   4.675   0.736  0.3657 -0.7622 -0.0190
 5623SOL    HW128331   1.535   0.002   0.691 -0.0492 -1.4889 -0.1516
 5623SOL    HW228332   1.628   0.016   0.806 -0.5697 -0.3726 -0.0545
 5624SOL     OW28333   2.086   1.595  11.633  1.0108  0.3457  0.1949
 5624SOL    HW128334   2.149   1.562  11.698 -0.2832 -2.5215  0.0207
 5624SOL    HW228335   2.136   1.669  11.598  0.3438  0.7964  0.1977
 5625SOL     OW28336   2.912   3.202   2.321  0.1651 -0.1840 -0.0363
 5625SOL    HW128337   2.828   3.246   2.334 -0.0775 -0.4741 -0.6140
 5625SOL    HW228338   2.960   3.281   2.295  2.5560 -0.8819  2.2618
 5626SOL     OW28339   1.656   1.029   0.877 -0.4925 -0.3873  0.2673
 5626SOL    HW128340   1.711   1.023   0.799 -0.7379 -0.1286  0.0748
 5626SOL    HW228341   1.708   0.980   0.941 -0.5782 -0.5775  0.1893
 5627SOL     OW28342   1.295   2.024   3.007 -0.1439 -0.2956 -1.3604
 5627SOL    HW128343   1.210   2.063   2.985 -0.6178 -0.6432 -0.0866
 5627SOL    HW228344   1.334   2.040   2.920  2.3201  0.8481 -0.0486
 5628SOL     OW28345   1.506   3.217  13.910  0.8025 -0.4918  0.4196
 5628SOL    HW128346   1.537   3.131  13.936  2.1099 -0.2490 -0.3351
 5628SOL    HW228347   1.418   3.216  13.947  0.2285 -0.8840 -0.9510
 5629SOL     OW28348   2.305   0.005  16.378  0.0391  0.9254 -0.0326
 5629SOL    HW128349   2.292   4.645  16.428  0.4734  0.4162 -0.7391
 5629SOL    HW228350   2.326   0.067  16.447 -0.4546  0.8176  0.2137
 5630SOL     OW28351   3.880   2.157   9.611 -0.4192 -0.1348 -0.7398
 5630SOL    HW128352   3.925   2.175   9.529  1.4404  0.2387  0.3651
 5630SOL    HW228353   3.934   2.081   9.631 -1.9026 -1.1068 -0.3723
 5631SOL     OW28354   0.611   0.038   3.378 -0.3785 -0.6108 -0.3674
 5631SOL    HW128355   0.550   0.101   3.341  1.4424  0.0336 -2.2784
 5631SOL    HW228356   0.559   4.713   3.444 -1.0256  0.1136 -0.3750
 5632SOL     OW28357   3.940   1.994   5.238 -0.3856  0.2073 -0.6955
 5632SOL    HW128358   3.993   1.925   5.198 -2.1564 -1.5399 -0.0360
 5632SOL    HW228359   3.915   1.938   5.311  1.0042  0.1586 -0.2534
 5633SOL     OW28360   4.193   1.148   8.443  0.7392  0.1506 -0.1214
 5633SOL    HW128361   4.159   1.181   8.360 -0.9058 -2.4338 -0.4753
 5633SOL    HW228362   4.281   1.185   8.449  0.4119  0.7200  1.0945
 5634SOL     OW28363   4.560   2.669   5.289  0.0666  0.2697  0.1305
 5634SOL    HW128364   4.468   2.693   5.303 -0.1755 -1.4466  1.5235
 5634SOL    HW228365   4.583   2.724   5.214  1.3102  1.1733  1.2005
 5635SOL     OW28366   1.691   2.067   2.762 -0.2580  0.5948  0.1249
 5635SOL    HW128367   1.604   2.100   2.785 -0.3071  0.6862 -0.1897
 5635SOL    HW228368   1.671   1.985   2.716  3.0699 -0.0578 -0.1208
 5636SOL     OW28369   4.353   0.633   7.974 -0.0246  0.3066  0.3966
 5636SOL    HW128370   4.350   0.596   7.886 -2.1342  2.5736 -0.4913
 5636SOL    HW228371   4.443   0.663   7.983 -0.1617  0.3522  1.7434
 5637SOL     OW28372   1.220   4.521   8.566 -0.7667  0.0934 -0.8458
 5637SOL    HW128373   1.218   4.566   8.481 -0.8791 -1.4501 -1.6517
 5637SOL    HW228374   1.193   4.581   8.635 -0.2073 -0.0573 -0.4967
 5638SOL     OW28375   1.581   4.088   6.002 -0.6032  0.3054  0.0249
 5638SOL    HW128376   1.597   4.182   6.004 -1.9064  0.4871  2.3276
 5638SOL    HW228377   1.497   4.087   5.955  0.2686  2.5648 -1.5586
 5639SOL     OW28378   3.465   4.092   8.665 -0.0325  0.0177 -0.5452
 5639SOL    HW128379   3.409   4.150   8.716  0.5549  0.5727 -0.5369
 5639SOL    HW228380   3.398   4.037   8.624 -1.1998  0.3040  0.9688
 5640SOL     OW28381   0.581   3.168  16.504 -0.6729  0.1606 -0.3754
 5640SOL    HW128382   0.552   3.183  16.414  0.9411 -2.2229 -1.3114
 5640SOL    HW228383   0.603   3.075  16.500  1.2519  0.5308  1.0091
 5641SOL     OW28384   2.122   4.419   6.810 -0.5469  0.1976  0.2379
 5641SOL    HW128385   2.115   4.446   6.901 -3.3831  1.7998 -0.4328
 5641SOL    HW228386   2.054   4.352   6.800 -0.9011  0.5952 -0.0224
 5642SOL     OW28387   2.504   2.310  11.925 -0.1937 -0.0999  0.2261
 5642SOL    HW128388   2.453   2.278  11.850 -0.1593  2.5496 -0.9213
 5642SOL    HW228389   2.564   2.367  11.878  1.0877 -1.5869  0.0554
 5643SOL     OW28390   0.598   3.849   3.222  0.0171  0.4864  0.0078
 5643SOL    HW128391   0.562   3.786   3.160 -0.1289 -0.8477  1.4484
 5643SOL    HW228392   0.617   3.799   3.302 -0.4028  1.1957  0.5537
 5644SOL     OW28393   2.486   0.934   7.843  0.0557 -0.1037  0.4078
 5644SOL    HW128394   2.465   0.991   7.769 -0.1202 -1.1787 -0.3706
 5644SOL    HW228395   2.405   0.884   7.846  0.2647 -0.4220  0.7920
 5645SOL     OW28396   1.509   2.933   4.373  0.1021 -0.4253 -0.2576
 5645SOL    HW128397   1.579   2.934   4.307 -0.7096 -1.1345 -1.1244
 5645SOL    HW228398   1.492   3.027   4.373  0.5929 -0.3336 -0.6588
 5646SOL     OW28399   0.746   4.323  10.088 -0.1618  0.0476 -0.0290
 5646SOL    HW128400   0.840   4.341  10.093 -0.7289  3.3644 -1.4184
 5646SOL    HW228401   0.721   4.345  10.178  0.2860 -0.8665  0.3144
 5647SOL     OW28402   1.772   1.062   3.675  0.0261 -0.2259 -0.0057
 5647SOL    HW128403   1.847   1.055   3.616 -1.0430 -0.7450 -1.3170
 5647SOL    HW228404   1.771   1.156   3.691  1.6287 -0.0804 -0.8167
 5648SOL     OW28405   3.246   0.748   2.469  0.8791  0.3134 -0.3570
 5648SOL    HW128406   3.291   0.747   2.553  1.9559  1.0575 -0.9292
 5648SOL    HW228407   3.158   0.757   2.506  0.2673  1.0853 -1.9868
 5649SOL     OW28408   0.465   0.227   3.233 -0.4095  0.0611  0.3337
 5649SOL    HW128409   0.394   0.210   3.171 -0.8466  2.4957  0.1719
 5649SOL    HW228410   0.499   0.311   3.203 -4.7136  2.0662  1.0606
 5650SOL     OW28411   2.335   1.772   1.571 -0.1970 -0.0773 -0.0169
 5650SOL    HW128412   2.264   1.779   1.507  0.8025  1.7403 -0.9244
 5650SOL    HW228413   2.347   1.864   1.595 -0.1589 -0.3783  1.1182
 5651SOL     OW28414   1.820   4.193  13.713  0.7177  0.4969 -1.1277
 5651SOL    HW128415   1.862   4.133  13.774  0.9012 -0.3005 -2.0486
 5651SOL    HW228416   1.861   4.275  13.743  0.4673  0.8597 -1.7748
 5652SOL     OW28417   3.399   0.847   2.111 -0.6100 -0.0495 -0.1830
 5652SOL    HW128418   3.388   0.824   2.018 -0.9709  2.3641 -0.7429
 5652SOL    HW228419   3.337   0.790   2.157 -0.1173  1.6182  2.5217
 5653SOL     OW28420   3.668   2.597  13.183 -0.4547 -0.5685  0.4834
 5653SOL    HW128421   3.675   2.513  13.229 -0.7856 -0.1353  1.3223
 5653SOL    HW228422   3.626   2.566  13.103  0.7846  4.5621 -2.1635
 5654SOL     OW28423   2.600   3.786   5.675 -0.1757  0.2811  0.1702
 5654SOL    HW128424   2.681   3.739   5.695  0.4973  0.8150 -1.3056
 5654SOL    HW228425   2.549   3.752   5.749 -3.0216  1.9311 -1.0116
 5655SOL     OW28426   2.379   1.658   8.402  0.1874  0.4093 -0.0342
 5655SOL    HW128427   2.339   1.626   8.482  0.4112 -0.1792 -0.1577
 5655SOL    HW228428   2.452   1.597   8.390 -0.0087  0.3873 -1.1744
 5656SOL     OW28429   1.180   4.308  12.597 -0.4632 -0.0586  0.0125
 5656SOL    HW128430   1.229   4.298  12.678 -3.7084 -2.9880  1.5990
 5656SOL    HW228431   1.099   4.347  12.630 -0.6849  0.9302 -1.6817
 5657SOL     OW28432   1.713   4.269   7.447 -0.1335 -0.1872  0.2661
 5657SOL    HW128433   1.751   4.215   7.378  0.5184  1.6030 -0.7574
 5657SOL    HW228434   1.644   4.318   7.402 -0.6990 -1.4490 -0.2605
 5658SOL     OW28435   3.364   4.242   5.732 -0.0955  0.0863 -0.1089
 5658SOL    HW128436   3.371   4.147   5.731  1.5102  0.2040 -0.7161
 5658SOL    HW228437   3.422   4.263   5.806 -0.8717  1.7879  0.0239
 5659SOL     OW28438   1.104   2.724  15.980  0.6674 -0.2979  0.2280
 5659SOL    HW128439   1.143   2.676  15.906  0.5253 -0.2283  0.1075
 5659SOL    HW228440   1.135   2.813  15.966 -0.3278  0.0850  0.5113
 5660SOL     OW28441   2.541   4.121   8.161 -0.0762 -0.4722  0.2070
 5660SOL    HW128442   2.534   4.081   8.247 -1.8013  2.4521  1.4337
 5660SOL    HW228443   2.630   4.097   8.136 -0.9836 -0.4088 -3.0774
 5661SOL     OW28444   1.836   0.459   4.557 -0.0700  0.3582 -0.9489
 5661SOL    HW128445   1.770   0.504   4.504 -1.3684 -0.9235 -0.4267
 5661SOL    HW228446   1.908   0.437   4.498  0.6655  0.5920 -0.1435
 5662SOL     OW28447   3.364   2.844   6.591 -0.0967  0.2932  0.0913
 5662SOL    HW128448   3.409   2.806   6.666 -0.6655  0.6784  0.6365
 5662SOL    HW228449   3.279   2.862   6.631  0.0411  3.2755 -0.9873
 5663SOL     OW28450   0.910   0.323   4.195 -0.1379  0.0764 -0.3046
 5663SOL    HW128451   0.965   0.251   4.227  0.0204 -0.0804 -0.9196
 5663SOL    HW228452   0.827   0.275   4.187  0.4568 -0.3335 -4.1229
 5664SOL     OW28453   0.454   2.522  13.752  0.2380 -0.0504  0.0199
 5664SOL    HW128454   0.437   2.608  13.791 -1.5952 -0.5336  0.2889
 5664SOL    HW228455   0.393   2.507  13.680  2.6890 -4.1774 -1.1990
 5665SOL     OW28456   4.442   0.317  13.283  0.0381  0.2093  0.3005
 5665SOL    HW128457   4.375   0.273  13.336  0.2587 -0.7071 -0.1844
 5665SOL    HW228458   4.422   0.290  13.194  1.2224  0.6109 -0.0820
 5666SOL     OW28459   0.643   0.213  14.702  0.1938 -0.0360 -0.1680
 5666SOL    HW128460   0.586   0.225  14.778  0.5965  0.7472  0.0148
 5666SOL    HW228461   0.654   0.307  14.687 -0.2785 -0.3129 -2.1313
 5667SOL     OW28462   4.185   0.507  11.176 -0.3343 -0.0469 -0.0201
 5667SOL    HW128463   4.163   0.414  11.185  0.7526 -0.3696 -0.6968
 5667SOL    HW228464   4.224   0.521  11.090  0.6572 -0.1456  0.4067
 5668SOL     OW28465   0.956   3.857   1.282  0.7019  0.5136  0.3012
 5668SOL    HW128466   0.866   3.866   1.313  0.8474  2.1686  0.2466
 5668SOL    HW228467   0.953   3.762   1.279  1.5031  0.5487 -1.6799
 5669SOL     OW28468   3.841   0.867  16.798 -0.0004  0.2408  0.4071
 5669SOL    HW128469   3.870   0.958  16.806  3.2903 -0.8528  0.9257
 5669SOL    HW228470   3.810   0.850  16.887  1.0489  2.0948  1.1138
 5670SOL     OW28471   3.209   1.258   0.310  0.0411  0.0775 -0.3322
 5670SOL    HW128472   3.169   1.345   0.307  0.2772  0.1590 -1.0746
 5670SOL    HW228473   3.280   1.270   0.373 -1.2776  0.4035  1.0808
 5671SOL     OW28474   0.191   1.092   4.488 -0.3988  0.5734  0.5447
 5671SOL    HW128475   0.124   1.097   4.420  1.3170  0.3188 -1.1556
 5671SOL    HW228476   0.230   1.179   4.496 -1.7147  0.9923  2.5321
 5672SOL     OW28477   3.573   4.231   3.725  0.0440 -0.1847 -0.0162
 5672SOL    HW128478   3.552   4.283   3.647 -1.3966  0.5353  0.8622
 5672SOL    HW228479   3.509   4.160   3.725 -0.7344  0.5398  1.2321
 5673SOL     OW28480   4.472   0.680   5.495 -1.0670  0.2709 -0.3089
 5673SOL    HW128481   4.423   0.598   5.491 -1.0489  0.2313  0.2304
 5673SOL    HW228482   4.406   0.747   5.480  0.1863  1.4439 -0.6255
 5674SOL     OW28483   2.420   1.592   0.109  0.5995  0.1448  0.3212
 5674SOL    HW128484   2.409   1.499   0.131 -1.1911 -0.0949 -1.6589
 5674SOL    HW228485   2.467   1.624   0.186 -2.5965 -0.4701  2.5051
 5675SOL     OW28486   1.337   3.576   6.930 -0.3407  0.6475 -0.3392
 5675SOL    HW128487   1.364   3.488   6.956  0.0377  0.6360 -0.7674
 5675SOL    HW228488   1.399   3.596   6.859 -0.2218 -3.2333 -1.3499
 5676SOL     OW28489   2.206   3.007   7.796  0.2091 -0.6074  0.0762
 5676SOL    HW128490   2.248   3.059   7.864  1.9912 -1.4074 -0.4123
 5676SOL    HW228491   2.265   3.014   7.721 -0.8496 -2.0338 -0.8974
 5677SOL     OW28492   3.011   3.344   4.597 -0.2752  0.2982  0.0917
 5677SOL    HW128493   2.933   3.288   4.595  1.1438 -1.6700  0.8627
 5677SOL    HW228494   3.044   3.325   4.684  1.5961  0.7839 -0.5139
 5678SOL     OW28495   3.622   1.220   6.735 -0.1704  0.1657 -0.3172
 5678SOL    HW128496   3.581   1.215   6.822  0.4920  0.6303  0.0176
 5678SOL    HW228497   3.680   1.145   6.750  0.5075  0.5420 -1.1231
 5679SOL     OW28498   1.965   1.356   3.896 -0.1548 -0.5092  0.4500
 5679SOL    HW128499   1.912   1.409   3.954 -2.6598 -1.5834 -0.8783
 5679SOL    HW228500   2.015   1.432   3.865  0.4923 -1.6352 -1.2916
 5680SOL     OW28501   3.197   2.141  11.848 -0.6217  0.0074 -0.0629
 5680SOL    HW128502   3.144   2.193  11.909 -2.0100 -0.1372 -1.1360
 5680SOL    HW228503   3.273   2.199  11.840 -1.9908  1.9082  0.5786
 5681SOL     OW28504   3.509   2.383  14.667  0.1940  0.0351 -0.6332
 5681SOL    HW128505   3.434   2.434  14.636  0.3935 -0.0800 -1.2890
 5681SOL    HW228506   3.506   2.307  14.610  1.1713 -2.5326  2.7061
 5682SOL     OW28507   0.679   2.253   7.862 -0.0554 -0.1087 -0.1532
 5682SOL    HW128508   0.695   2.181   7.923 -2.7616 -0.2212  0.4383
 5682SOL    HW228509   0.735   2.231   7.788 -1.8864  0.7344 -1.8178
 5683SOL     OW28510   3.288   4.718   9.410  0.2110 -0.3885 -0.2147
 5683SOL    HW128511   3.282   4.645   9.348  0.9951  0.8718 -1.7929
 5683SOL    HW228512   3.360   0.045   9.370  1.3760 -2.1306 -0.2006
 5684SOL     OW28513   0.740   1.759  17.459  0.0930  0.1120  0.2020
 5684SOL    HW128514   0.679   1.711  17.515 -0.8031  0.0182 -0.8642
 5684SOL    HW228515   0.787   1.792  17.536  0.2196 -1.6094  0.8564
 5685SOL     OW28516   1.328   3.014   2.211 -0.4427  0.2280 -0.4775
 5685SOL    HW128517   1.238   3.003   2.241  0.1856 -2.1469  0.5379
 5685SOL    HW228518   1.316   3.048   2.122  2.8028  1.2134 -0.5424
 5686SOL     OW28519   0.098   1.537  10.702  0.1427  0.1640 -0.5596
 5686SOL    HW128520   0.022   1.592  10.686 -0.8305 -1.0403 -0.0685
 5686SOL    HW228521   0.125   1.524  10.611 -0.6800  4.2487 -1.3639
 5687SOL     OW28522   3.942   3.391   5.301  0.2929 -0.0506 -0.1685
 5687SOL    HW128523   3.993   3.333   5.244 -0.7719  0.2278 -1.4137
 5687SOL    HW228524   3.854   3.355   5.309 -0.6407  2.2139 -0.3673
 5688SOL     OW28525   3.046   0.403   3.023  0.4361  0.0170  0.6865
 5688SOL    HW128526   3.017   0.470   2.961  1.0919 -0.5380 -0.2226
 5688SOL    HW228527   2.960   0.361   3.028  0.7233 -0.7979 -1.3927
 5689SOL     OW28528   3.821   1.860   5.456  0.0158 -0.1558  0.1320
 5689SOL    HW128529   3.831   1.779   5.507 -0.5614 -0.9083 -0.9519
 5689SOL    HW228530   3.777   1.903   5.529 -0.4396 -2.3574  1.1530
 5690SOL     OW28531   1.543   1.230   2.663 -0.4973  0.1593 -0.2368
 5690SOL    HW128532   1.549   1.169   2.590 -0.4432  0.0299 -0.1255
 5690SOL    HW228533   1.477   1.187   2.718 -0.9023 -0.7246 -1.4216
 5691SOL     OW28534   3.493   0.260   0.559  0.1199 -0.3439  0.0213
 5691SOL    HW128535   3.506   0.231   0.649  1.6731  1.1226  0.2582
 5691SOL    HW228536   3.415   0.211   0.532 -0.3653  1.9429 -2.7150
 5692SOL     OW28537   3.886   1.892   9.412  0.4524  0.1782 -0.0315
 5692SOL    HW128538   3.930   1.968   9.373  0.7470 -0.5959 -1.1798
 5692SOL    HW228539   3.961   1.846   9.450 -0.6639 -1.0307  0.7068
 5693SOL     OW28540   0.823   0.695   9.495 -0.1694  0.7405 -0.8027
 5693SOL    HW128541   0.772   0.773   9.473 -2.1055 -0.0434  0.9028
 5693SOL    HW228542   0.898   0.740   9.535 -0.2948  0.7312 -0.5543
 5694SOL     OW28543   1.467   2.956   3.034  0.2005  0.1766  0.1370
 5694SOL    HW128544   1.388   2.940   2.982 -0.5275  0.1297  1.2518
 5694SOL    HW228545   1.482   3.048   3.010 -0.2758 -0.0804 -1.1295
 5695SOL     OW28546   0.064   4.703   7.550  0.0643  0.1335  0.2865
 5695SOL    HW128547   0.126   4.717   7.479 -0.0224 -0.2429  0.1398
 5695SOL    HW228548   0.070   0.066   7.598  0.3834  0.3636 -0.1578
 5696SOL     OW28549   3.038   0.274  17.523 -0.5830  0.2710 -0.4633
 5696SOL    HW128550   3.090   0.264  17.443  2.4387 -1.5401  1.7122
 5696SOL    HW228551   3.020   0.183  17.550  2.8166 -0.5139 -0.8092
 5697SOL     OW28552   0.277   1.112   5.936 -0.1690 -0.6749 -0.3937
 5697SOL    HW128553   0.304   1.186   5.882 -0.9490 -1.5638 -1.9925
 5697SOL    HW228554   0.232   1.165   6.002  1.4612 -0.1421  0.3142
 5698SOL     OW28555   3.854   4.030   1.494  0.0523 -0.0966  0.1059
 5698SOL    HW128556   3.920   4.098   1.479 -1.8244  1.1233 -2.5647
 5698SOL    HW228557   3.771   4.070   1.469  0.3608 -0.2091 -1.1487
 5699SOL     OW28558   0.012   0.375   5.769  0.7171 -0.3395  0.0649
 5699SOL    HW128559   4.719   0.413   5.856  1.1988  0.4949 -0.2153
 5699SOL    HW228560   4.697   0.444   5.713  2.9538  1.5182  0.8697
 5700SOL     OW28561   0.125   4.630  17.547 -0.0414 -0.6762  0.5487
 5700SOL    HW128562   0.147   4.602  17.458 -1.2354  1.1077 -0.3077
 5700SOL    HW228563   0.196   4.593  17.600  1.2449 -1.0887 -1.4449
 5701SOL     OW28564   2.814   3.493   4.235  0.2646  0.0982  0.2959
 5701SOL    HW128565   2.799   3.587   4.249  2.7827  0.4235  0.8426
 5701SOL    HW228566   2.762   3.481   4.156 -2.0767 -2.6807  2.2798
 5702SOL     OW28567   0.031   3.705   8.847 -0.2485  0.5687  0.5909
 5702SOL    HW128568   0.010   3.798   8.846 -1.5827  0.2600 -0.5465
 5702SOL    HW228569   0.018   3.695   8.753  1.9516  0.4919  0.2949
 5703SOL     OW28570   3.713   2.882   2.237 -0.1841 -0.3369 -0.0700
 5703SOL    HW128571   3.657   2.863   2.161 -0.9527 -1.1181  0.6870
 5703SOL    HW228572   3.783   2.925   2.189 -1.1576  1.4970  0.1546
 5704SOL     OW28573   1.691   2.320   4.202 -0.2386  0.2693 -0.2350
 5704SOL    HW128574   1.695   2.230   4.170  0.0769 -0.0403  0.6886
 5704SOL    HW228575   1.613   2.347   4.154 -0.9167 -1.2651  0.0237
 5705SOL     OW28576   4.685   2.071   5.727 -0.0520 -0.5373 -0.0298
 5705SOL    HW128577   4.699   2.047   5.636  0.7678  0.5294 -0.1881
 5705SOL    HW228578   4.701   1.986   5.768 -3.5607 -2.4291 -2.5895
 5706SOL     OW28579   1.640   2.695  12.878 -0.9838  0.0906  0.2770
 5706SOL    HW128580   1.683   2.698  12.964  0.3814 -0.9073 -0.3839
 5706SOL    HW228581   1.712   2.678  12.817 -0.8147 -0.7801  0.7151
 5707SOL     OW28582   3.818   0.305   1.240  0.4171 -0.3389 -0.1976
 5707SOL    HW128583   3.911   0.303   1.215  0.9193 -0.9100  1.6934
 5707SOL    HW228584   3.832   0.364   1.314 -0.8374  0.8485 -0.9065
 5708SOL     OW28585   0.008   3.050   3.457 -0.2889 -0.2670  0.5083
 5708SOL    HW128586   4.636   3.031   3.439 -0.7149  3.4338 -1.2356
 5708SOL    HW228587   0.037   2.960   3.447  1.4513  0.3943 -0.4491
 5709SOL     OW28588   1.162   0.552  12.188  0.0603  0.2885 -0.9218
 5709SOL    HW128589   1.140   0.607  12.263  1.2711 -0.9960  0.3805
 5709SOL    HW228590   1.125   0.609  12.121 -0.5503  0.0696 -0.7756
 5710SOL     OW28591   2.953   3.912   5.764 -0.9651 -0.3357 -0.1854
 5710SOL    HW128592   2.979   3.820   5.760  0.4064  0.1243 -1.6910
 5710SOL    HW228593   2.938   3.926   5.671 -0.2159 -2.1163 -0.5591
 5711SOL     OW28594   4.316   1.001   0.878 -0.0471 -0.2151 -0.1353
 5711SOL    HW128595   4.369   0.943   0.933 -1.3156 -1.8061 -0.5917
 5711SOL    HW228596   4.311   0.949   0.798  1.4973 -0.7264  0.0955
 5712SOL     OW28597   3.756   1.621  17.656 -0.4569 -0.5373  0.0924
 5712SOL    HW128598   3.742   1.716  17.660  0.6675 -0.3197 -1.3534
 5712SOL    HW228599   3.695   1.597  17.586 -0.2102 -0.0210 -0.3044
 5713SOL     OW28600   4.310   0.175   3.431  0.2605  0.0949  0.1557
 5713SOL    HW128601   4.308   0.109   3.500  0.4082 -0.8949 -0.7900
 5713SOL    HW228602   4.332   0.132   3.348  0.0681  0.4511 -0.0807
 5714SOL     OW28603   4.292   3.269   0.414  0.0876  0.0939  0.1806
 5714SOL    HW128604   4.274   3.211   0.489  0.9283  0.6412  0.8081
 5714SOL    HW228605   4.311   3.345   0.468  1.2710  0.1515 -0.3358
 5715SOL     OW28606   1.565   0.600   7.645  0.5448 -0.0998  0.1702
 5715SOL    HW128607   1.471   0.614   7.662 -0.0861 -2.0130 -1.6680
 5715SOL    HW228608   1.570   0.515   7.688 -1.2876 -1.4277 -2.2223
 5716SOL     OW28609   2.452   1.934   6.548 -0.5760  0.8492  0.0883
 5716SOL    HW128610   2.489   1.847   6.562 -0.3350  1.3284  2.3104
 5716SOL    HW228611   2.474   1.977   6.630  2.2441 -2.0805  0.8294
 5717SOL     OW28612   4.593   4.699  12.996  0.0168 -0.2565  0.1353
 5717SOL    HW128613   4.575   0.041  12.927  0.3517  2.4365  2.5113
 5717SOL    HW228614   4.520   4.714  13.055  0.6163  0.1642  0.7605
 5718SOL     OW28615   1.021   2.449   6.092  0.6511  0.3888 -0.5175
 5718SOL    HW128616   0.942   2.502   6.086  0.3613  0.3023  2.1459
 5718SOL    HW228617   1.080   2.511   6.052 -0.4039  2.5167  1.2132
 5719SOL     OW28618   2.580   4.607   9.621 -0.1218  0.4059  0.0678
 5719SOL    HW128619   2.562   4.682   9.564  0.7170  0.3087 -0.3229
 5719SOL    HW228620   2.520   4.541   9.587  1.1610  1.2529 -3.9327
 5720SOL     OW28621   3.236   3.116   4.708  0.9627 -0.6385  0.3925
 5720SOL    HW128622   3.218   3.195   4.760  0.5928 -0.9422  0.7248
 5720SOL    HW228623   3.263   3.158   4.627 -1.9068  0.1339 -0.1537
 5721SOL     OW28624   0.747   2.247   8.568  0.1818 -0.1720  0.5017
 5721SOL    HW128625   0.689   2.294   8.627 -2.4642  0.2488 -2.4184
 5721SOL    HW228626   0.794   2.312   8.517 -0.1245 -0.9313 -0.7589
 5722SOL     OW28627   2.625   3.251   5.836  0.0489 -0.7271  0.6479
 5722SOL    HW128628   2.626   3.311   5.911 -2.2707  0.1344 -0.0055
 5722SOL    HW228629   2.715   3.221   5.831  0.7659  1.4648  0.3367
 5723SOL     OW28630   2.430   3.023   0.564  0.6788 -0.0269 -0.7660
 5723SOL    HW128631   2.387   3.022   0.650  1.3317 -0.4370 -0.4444
 5723SOL    HW228632   2.478   3.106   0.569  0.4414 -0.0502  1.9055
 5724SOL     OW28633   2.387   0.318   2.323  0.1327 -0.2002 -0.5104
 5724SOL    HW128634   2.347   0.403   2.337  1.6295  0.3492  0.4554
 5724SOL    HW228635   2.422   0.321   2.234  1.1695  1.6255 -0.0430
 5725SOL     OW28636   1.800   1.046  10.451  0.1808 -0.1784  0.0421
 5725SOL    HW128637   1.824   0.966  10.497  1.7011  1.5815  2.3154
 5725SOL    HW228638   1.863   1.048  10.379 -0.0397  1.5017 -0.1072
 5726SOL     OW28639   3.954   2.362   8.062  0.4196 -0.1018 -0.3188
 5726SOL    HW128640   3.921   2.436   8.011 -0.2810 -0.0001  0.2831
 5726SOL    HW228641   3.873   2.312   8.066 -0.1980  0.7466 -2.8019
 5727SOL     OW28642   4.649   0.951  12.342 -0.2234 -0.3484  0.0750
 5727SOL    HW128643   4.573   0.994  12.382 -0.3663 -0.6651  0.1447
 5727SOL    HW228644   4.713   1.019  12.322  0.0498 -1.1760 -1.7961
 5728SOL     OW28645   3.176   4.716   1.418  0.2591  0.0740 -0.0134
 5728SOL    HW128646   3.110   4.682   1.478  0.9485  0.1700  0.8014
 5728SOL    HW228647   3.129   4.696   1.337 -1.3197  2.2928  0.3535
 5729SOL     OW28648   0.442   2.290   8.827 -0.4825 -0.2862  0.6328
 5729SOL    HW128649   0.350   2.306   8.848 -0.7309 -0.5173 -0.2820
 5729SOL    HW228650   0.440   2.194   8.825  0.3746 -0.2721 -1.1561
 5730SOL     OW28651   2.038   1.862  16.223  0.8681  0.2059 -0.3385
 5730SOL    HW128652   2.060   1.875  16.131  1.6690 -0.4617 -0.2390
 5730SOL    HW228653   1.970   1.798  16.203  0.2591  0.8315 -0.2538
 5731SOL     OW28654   4.131   3.506   9.359  0.3699  0.2546  0.3143
 5731SOL    HW128655   4.083   3.426   9.335  0.4495  0.2024  0.3291
 5731SOL    HW228656   4.149   3.491   9.452 -1.1981 -0.4415  0.5096
 5732SOL     OW28657   3.077   2.181  10.042  0.5127 -0.1147 -0.4696
 5732SOL    HW128658   3.072   2.117   9.971  3.2352  1.8917 -2.4926
 5732SOL    HW228659   3.004   2.240  10.022  0.6902  0.1976 -0.1863
 5733SOL     OW28660   2.869   3.606   5.822 -0.4112 -0.7986  0.2789
 5733SOL    HW128661   2.927   3.530   5.831  2.0588  1.1843  1.0849
 5733SOL    HW228662   2.844   3.638   5.909  0.3563  2.3671 -0.6826
 5734SOL     OW28663   4.521   2.052  11.420 -0.0264  0.1258 -0.0920
 5734SOL    HW128664   4.438   2.065  11.464 -1.2018 -0.1363 -2.2205
 5734SOL    HW228665   4.548   1.968  11.456  2.3453 -0.7771 -3.9564
 5735SOL     OW28666   1.995   3.060  10.894 -0.4175  0.2560 -0.5568
 5735SOL    HW128667   1.973   2.993  10.830  2.9970 -1.6774  0.2432
 5735SOL    HW228668   2.086   3.041  10.921  0.0808  1.3090 -1.5098
 5736SOL     OW28669   3.606   2.476   4.736 -0.2241 -0.3200  0.0548
 5736SOL    HW128670   3.544   2.473   4.662  0.7223 -0.2594 -0.7454
 5736SOL    HW228671   3.687   2.437   4.704  0.7270  1.0772  0.7884
 5737SOL     OW28672   1.306   0.576   2.636  0.1648  0.5018 -0.2340
 5737SOL    HW128673   1.249   0.651   2.653 -0.8411  0.2399 -2.5691
 5737SOL    HW228674   1.388   0.586   2.685  0.2308 -0.2224 -0.1958
 5738SOL     OW28675   0.894   1.089   7.855  0.3191  0.2208 -0.2960
 5738SOL    HW128676   0.967   1.148   7.873 -1.1283  2.1530 -0.6548
 5738SOL    HW228677   0.906   1.018   7.918 -0.2945  0.4227  0.0490
 5739SOL     OW28678   1.875   0.785  14.902 -0.3046  0.1467 -0.4314
 5739SOL    HW128679   1.871   0.690  14.908  1.0701 -0.2419 -5.0903
 5739SOL    HW228680   1.821   0.813  14.976 -1.0585 -1.9357 -0.1812
 5740SOL     OW28681   3.717   1.874   6.975 -0.3663  0.4285  0.5154
 5740SOL    HW128682   3.655   1.901   7.043  0.5048 -0.7256  1.7514
 5740SOL    HW228683   3.676   1.790   6.957  0.5459  0.1474 -0.2151
 5741SOL     OW28684   0.032   2.676   4.228 -0.2141 -0.2683  0.5186
 5741SOL    HW128685   0.019   2.627   4.309 -0.1724 -0.5281  0.3666
 5741SOL    HW228686   0.120   2.647   4.205 -0.4757 -0.2849 -0.4335
 5742SOL     OW28687   0.833   4.697   7.583  0.1388 -0.2892  0.3032
 5742SOL    HW128688   0.873   4.687   7.497 -0.9248 -0.4110 -0.1749
 5742SOL    HW228689   0.824   4.606   7.609 -0.1826 -0.2523  0.3176
 5743SOL     OW28690   3.798   4.230   8.771  0.3964  0.5980  0.2720
 5743SOL    HW128691   3.798   4.323   8.789 -0.4708  0.7877 -0.6944
 5743SOL    HW228692   3.882   4.206   8.812 -0.3111 -0.3614  1.1521
 5744SOL     OW28693   4.507   4.385   3.508  0.1516  0.5339  0.1810
 5744SOL    HW128694   4.531   4.388   3.415  1.8879  3.2722  0.7039
 5744SOL    HW228695   4.465   4.471   3.513 -0.9378  0.0571 -0.9778
 5745SOL     OW28696   3.424   1.690  16.200 -0.1886  0.0432  0.1035
 5745SOL    HW128697   3.501   1.721  16.152 -0.1841 -0.8952 -0.4843
 5745SOL    HW228698   3.362   1.693  16.127  0.1519  0.0242 -0.1852
 5746SOL     OW28699   2.490   1.244   5.119  0.5956  0.3292  0.2930
 5746SOL    HW128700   2.403   1.206   5.127 -1.1403  4.1369 -0.1361
 5746SOL    HW228701   2.489   1.274   5.027  1.7945 -2.0026 -0.4689
 5747SOL     OW28702   4.523   1.251  13.140  0.3858  0.3923  0.0271
 5747SOL    HW128703   4.444   1.258  13.086  1.0101  3.1861 -0.4864
 5747SOL    HW228704   4.537   1.344  13.159  1.7002  0.4808 -1.3047
 5748SOL     OW28705   0.712   1.242   2.583  0.5959 -0.4476 -0.1517
 5748SOL    HW128706   0.659   1.237   2.663 -0.6445 -0.8109 -0.9911
 5748SOL    HW228707   0.753   1.326   2.605  0.9156 -0.4969 -0.5576
 5749SOL     OW28708   3.609   1.739   3.555  0.5759  0.3310 -0.2838
 5749SOL    HW128709   3.572   1.652   3.535 -0.0061  0.2158  1.3052
 5749SOL    HW228710   3.638   1.778   3.473 -0.8999  1.5649 -0.2139
 5750SOL     OW28711   3.647   0.390   0.870  0.5474 -0.1780 -1.0200
 5750SOL    HW128712   3.736   0.355   0.867  0.7978  0.4109 -0.4341
 5750SOL    HW228713   3.610   0.370   0.956  1.1379 -1.0009 -0.9613
 5751SOL     OW28714   0.174   0.489   0.348 -0.3819  0.3089 -0.4384
 5751SOL    HW128715   0.194   0.562   0.406  0.8444  0.0506 -0.5418
 5751SOL    HW228716   0.203   0.527   0.265 -0.5259 -0.8642 -1.0215
 5752SOL     OW28717   4.446   3.184   6.242 -0.0762 -0.1082  0.9508
 5752SOL    HW128718   4.494   3.264   6.221  0.4442 -0.2887  1.4561
 5752SOL    HW228719   4.369   3.196   6.187  1.8322  2.5420 -1.1364
 5753SOL     OW28720   3.219   4.363   2.441 -0.1946  0.4423  0.2014
 5753SOL    HW128721   3.309   4.347   2.413  0.4646 -2.2057  3.9016
 5753SOL    HW228722   3.215   4.458   2.428  0.3870  0.4255 -0.1163
 5754SOL     OW28723   3.124   1.398   0.899 -0.0915  0.1502 -0.3674
 5754SOL    HW128724   3.170   1.457   0.839  0.4610 -1.2337 -1.3099
 5754SOL    HW228725   3.167   1.314   0.882  1.3704  0.7299  0.4816
 5755SOL     OW28726   1.164   2.524   7.004 -0.3682 -0.1206 -0.1158
 5755SOL    HW128727   1.242   2.483   7.041 -0.5625  0.3790  0.8462
 5755SOL    HW228728   1.197   2.570   6.927 -2.7331 -0.7788 -1.5033
 5756SOL     OW28729   2.478   2.395  12.376  0.2405  0.1839  0.0342
 5756SOL    HW128730   2.496   2.489  12.378  1.3026 -0.0223  0.2553
 5756SOL    HW228731   2.543   2.375  12.308  1.2568  2.5849  0.2818
 5757SOL     OW28732   1.525   4.654  17.616  0.2811 -0.3132 -0.7021
 5757SOL    HW128733   1.518   4.644   0.025 -0.7899 -2.5070 -1.0035
 5757SOL    HW228734   1.593   4.587  17.605  1.7949  0.8123  1.9703
 5758SOL     OW28735   0.659   1.673  16.541 -0.1559 -0.1576 -0.1466
 5758SOL    HW128736   0.722   1.704  16.476 -0.0747 -1.1312 -0.5502
 5758SOL    HW228737   0.585   1.730  16.518 -0.0589 -1.1953 -3.1709
 5759SOL     OW28738   1.254   0.583   8.564 -0.1885 -0.5539 -0.3167
 5759SOL    HW128739   1.334   0.535   8.543 -0.0001 -0.8537  1.1297
 5759SOL    HW228740   1.278   0.646   8.631  1.4545  0.1798 -1.5976
 5760SOL     OW28741   3.631   2.184   8.493  0.0132  0.5551 -0.0086
 5760SOL    HW128742   3.585   2.171   8.576  0.5457 -0.3524  0.1410
 5760SOL    HW228743   3.585   2.253   8.445  0.9657  0.6657 -0.7688
 5761SOL     OW28744   0.635   1.954  16.692 -0.2479 -0.0638 -0.0345
 5761SOL    HW128745   0.644   2.049  16.678 -0.6124  0.0145  0.2555
 5761SOL    HW228746   0.694   1.921  16.625 -0.7604  0.3025 -0.6653
 5762SOL     OW28747   2.933   2.196  10.804  0.2647  0.2933  0.4074
 5762SOL    HW128748   2.880   2.257  10.856  1.3158 -0.9550  2.9360
 5762SOL    HW228749   2.984   2.255  10.749  1.2489 -1.4177 -0.5261
 5763SOL     OW28750   3.919   4.192   8.498 -0.3815  0.2580  0.2753
 5763SOL    HW128751   3.987   4.135   8.535  1.8297  2.7788  0.0764
 5763SOL    HW228752   3.956   4.279   8.513 -0.7421  0.3677  0.5624
 5764SOL     OW28753   1.218   2.368  14.765 -0.3342 -0.5624 -0.0756
 5764SOL    HW128754   1.158   2.293  14.772 -0.2733 -0.5117  0.9545
 5764SOL    HW228755   1.243   2.374  14.857 -1.1043  0.6323  0.0510
 5765SOL     OW28756   1.203   4.642   7.312 -0.1378  0.0494  0.7176
 5765SOL    HW128757   1.261   4.710   7.280  0.8469 -0.8221  0.6683
 5765SOL    HW228758   1.115   4.681   7.313 -0.6139 -0.9176 -3.3306
 5766SOL     OW28759   2.560   1.632   7.162  0.5540  0.1391 -0.3539
 5766SOL    HW128760   2.578   1.616   7.070 -0.0341  0.8997 -0.6026
 5766SOL    HW228761   2.597   1.719   7.172 -2.1272  1.1639  0.8128
 5767SOL     OW28762   4.223   0.045   5.549 -0.7554  0.4636 -0.6931
 5767SOL    HW128763   4.213   0.038   5.454  1.2492  0.0601 -0.8789
 5767SOL    HW228764   4.311   0.083   5.550 -0.6971  0.3033  0.2596
 5768SOL     OW28765   2.155   3.630   5.988  0.3403  0.4195  0.1928
 5768SOL    HW128766   2.129   3.619   5.897  2.4044 -1.4170 -0.1730
 5768SOL    HW228767   2.075   3.600   6.033  0.6597  0.4941  0.8169
 5769SOL     OW28768   3.470   0.842   6.062  0.3215  0.0254 -0.1696
 5769SOL    HW128769   3.512   0.814   5.981 -0.9770  0.4612 -1.0005
 5769SOL    HW228770   3.528   0.819   6.135  0.1543 -1.0423 -0.3790
 5770SOL     OW28771   0.849   0.161   6.735 -0.1779  0.0727  0.4100
 5770SOL    HW128772   0.814   0.133   6.819 -0.7333 -1.6565 -0.3866
 5770SOL    HW228773   0.942   0.136   6.744 -0.0649  0.7262  1.0263
 5771SOL     OW28774   0.824   4.669   2.199 -0.0405 -0.7751  0.7073
 5771SOL    HW128775   0.807   0.037   2.168 -0.3275 -1.0631  0.0519
 5771SOL    HW228776   0.784   4.617   2.129  2.7296  0.1924 -1.6128
 5772SOL     OW28777   4.599   1.354   2.501 -0.6563 -0.0561 -0.3589
 5772SOL    HW128778   4.685   1.394   2.487  0.0016 -1.1896  0.4581
 5772SOL    HW228779   4.549   1.399   2.433 -2.8671  0.1899  1.4263
 5773SOL     OW28780   1.445   4.709  13.995 -0.7498  0.0699 -0.4553
 5773SOL    HW128781   1.366   4.718  14.049 -1.2427  3.6923 -1.8239
 5773SOL    HW228782   1.507   4.708  14.068  0.5111 -1.0876 -1.5393
 5774SOL     OW28783   3.940   2.628  11.299  0.2292  0.2838  0.1810
 5774SOL    HW128784   3.866   2.637  11.360  0.2795  0.4307  0.2214
 5774SOL    HW228785   4.009   2.592  11.354 -0.3220  1.4939  1.6766
 5775SOL     OW28786   2.801   0.364   8.316  0.6587 -0.0169  0.2817
 5775SOL    HW128787   2.729   0.427   8.325  0.7928  0.0034  1.2085
 5775SOL    HW228788   2.787   0.338   8.225  2.7296 -0.7223  0.1526
 5776SOL     OW28789   1.964   4.686   5.172  0.8289 -0.0177 -0.0613
 5776SOL    HW128790   1.966   4.651   5.083 -0.7833 -0.6726  0.1590
 5776SOL    HW228791   1.904   0.040   5.162 -0.0620 -0.8172 -0.6741
 5777SOL     OW28792   3.709   2.211  14.066 -0.1367  0.4702 -0.8025
 5777SOL    HW128793   3.692   2.124  14.028  0.5460 -0.5343  1.2020
 5777SOL    HW228794   3.794   2.222  14.024  0.3114 -0.0527 -0.0369
 5778SOL     OW28795   1.925   1.200   7.215 -0.4904  0.2306 -0.2989
 5778SOL    HW128796   1.853   1.236   7.163 -0.0252  0.7068 -0.6100
 5778SOL    HW228797   1.942   1.263   7.285  1.2241  0.0482 -0.5590
 5779SOL     OW28798   4.450   4.628  12.292 -0.4985 -0.7212 -0.1594
 5779SOL    HW128799   4.539   4.648  12.319 -0.5186 -0.1366 -0.5473
 5779SOL    HW228800   4.447   4.535  12.318 -1.1302 -0.4191  0.8707
 5780SOL     OW28801   0.201   2.988   0.534 -0.0805 -0.6192  0.4144
 5780SOL    HW128802   0.232   2.916   0.589  4.4781 -0.0987 -1.4767
 5780SOL    HW228803   0.109   2.968   0.516  0.0795 -0.2241 -0.8545
 5781SOL     OW28804   2.018   3.176   7.643  0.1814  0.1383  0.3730
 5781SOL    HW128805   2.085   3.125   7.687 -1.0117 -0.5570  1.3754
 5781SOL    HW228806   2.053   3.203   7.558  2.2477 -1.6650  0.6477
 5782SOL     OW28807   0.473   2.340  17.072 -0.1424 -0.2349  0.2315
 5782SOL    HW128808   0.519   2.339  16.988  1.3079  0.3990  1.0125
 5782SOL    HW228809   0.539   2.321  17.139  0.3490 -2.3126 -0.8406
 5783SOL     OW28810   3.564   2.650   9.903  0.2055  0.3962  0.2609
 5783SOL    HW128811   3.636   2.590   9.925 -1.7611 -2.0990 -0.1140
 5783SOL    HW228812   3.511   2.579   9.867  1.1158  0.8138 -1.9037
 5784SOL     OW28813   2.408   3.154   2.508 -0.0556 -0.0940 -0.7019
 5784SOL    HW128814   2.376   3.235   2.468  0.7799  0.4250 -0.2963
 5784SOL    HW228815   2.412   3.183   2.599  2.2793 -1.6298 -0.3440
 5785SOL     OW28816   3.023   2.357   5.917 -0.0749 -0.2751 -0.0090
 5785SOL    HW128817   2.952   2.391   5.971 -1.1407 -1.9102 -0.3940
 5785SOL    HW228818   3.096   2.390   5.968  0.1475  0.8002 -1.0186
 5786SOL     OW28819   2.576   3.647   3.207 -0.3153 -0.0809 -0.1887
 5786SOL    HW128820   2.600   3.633   3.298 -2.1673  0.5922  0.4014
 5786SOL    HW228821   2.582   3.559   3.171  1.8266  0.3802 -0.9676
 5787SOL     OW28822   3.326   1.790   7.633  0.2041  0.0248 -0.1085
 5787SOL    HW128823   3.401   1.731   7.629 -0.0304 -0.2785 -0.0527
 5787SOL    HW228824   3.360   1.865   7.583  0.9569  0.1794  0.6427
 5788SOL     OW28825   4.195   3.589  16.839  0.1099 -0.2021  0.5713
 5788SOL    HW128826   4.111   3.543  16.842 -0.3007  0.6371  1.6732
 5788SOL    HW228827   4.169   3.677  16.815 -1.9337 -0.4439  1.9147
 5789SOL     OW28828   2.548   2.636  13.448 -0.3814  0.0924  0.4143
 5789SOL    HW128829   2.533   2.656  13.356  1.7886  1.0026  0.2616
 5789SOL    HW228830   2.602   2.714  13.466 -1.2151  0.7979 -0.1664
 5790SOL     OW28831   4.492   1.158   4.509 -0.3170  0.0003  0.0541
 5790SOL    HW128832   4.466   1.113   4.589 -3.2200  1.2651 -0.1951
 5790SOL    HW228833   4.547   1.231   4.538 -2.8876  1.4487  1.2717
 5791SOL     OW28834   0.207   3.218   3.684  0.3714 -0.1547 -0.1001
 5791SOL    HW128835   0.258   3.276   3.627 -0.4756  1.5190  0.8535
 5791SOL    HW228836   0.244   3.248   3.766 -0.5907 -0.5034  0.4580
 5792SOL     OW28837   3.978   0.245   4.506 -0.3491  0.4125  0.6194
 5792SOL    HW128838   4.054   0.246   4.563  1.0569  1.2685 -1.2886
 5792SOL    HW228839   3.969   0.333   4.471  0.6001 -0.0001 -0.6853
 5793SOL     OW28840   0.791   2.124   1.511  0.6035  0.1243  0.3121
 5793SOL    HW128841   0.770   2.180   1.437 -1.8270 -0.4620  0.5592
 5793SOL    HW228842   0.735   2.047   1.499 -1.4035  1.7911 -0.9773
 5794SOL     OW28843   1.602   0.453   1.977 -0.0359 -0.2149  0.7425
 5794SOL    HW128844   1.651   0.398   2.038  0.2712 -0.1546  0.5501
 5794SOL    HW228845   1.590   0.397   1.901 -2.1111  1.1673  0.0469
 5795SOL     OW28846   3.143   3.643   2.534 -0.0645  0.3891  0.4360
 5795SOL    HW128847   3.092   3.720   2.560 -0.4803  0.7098 -1.3172
 5795SOL    HW228848   3.231   3.681   2.524 -0.4808  0.5630 -2.7145
 5796SOL     OW28849   3.140   0.828   4.280  0.3245  0.0188 -0.9149
 5796SOL    HW128850   3.211   0.824   4.215  1.5902 -0.2587  0.4666
 5796SOL    HW228851   3.194   0.782   4.344  2.0470  1.3586 -1.3777
 5797SOL     OW28852   4.001   3.413   8.692 -0.1519 -0.3975 -0.5992
 5797SOL    HW128853   3.964   3.362   8.621  3.1199 -1.8880 -1.2211
 5797SOL    HW228854   4.095   3.392   8.688  0.1592  0.3028  2.8190
 5798SOL     OW28855   0.034   0.526   3.158  1.2139  0.0613 -0.7318
 5798SOL    HW128856   0.074   0.610   3.136 -0.7145  0.7659 -1.5481
 5798SOL    HW228857   0.032   0.491   3.069  0.7296 -2.1113  0.1193
 5799SOL     OW28858   3.217   1.388   6.405  0.4128  0.6976 -0.0985
 5799SOL    HW128859   3.266   1.338   6.470  0.6377 -0.8339 -1.4385
 5799SOL    HW228860   3.268   1.363   6.328 -0.2095 -3.0607  0.7119
 5800SOL     OW28861   1.070   2.574   1.897 -0.7189  0.0375  0.0177
 5800SOL    HW128862   1.061   2.491   1.943 -1.8608  0.0256 -0.2303
 5800SOL    HW228863   1.156   2.560   1.856 -1.5181 -2.6699 -0.7207
 5801SOL     OW28864   2.311   0.692  14.814 -0.2366 -0.2561 -0.1944
 5801SOL    HW128865   2.404   0.712  14.801  0.1663 -0.9459  1.6094
 5801SOL    HW228866   2.303   0.658  14.903  1.3314  1.5484  0.6332
 5802SOL     OW28867   0.881   1.471   5.720 -0.1490 -0.0368  0.0083
 5802SOL    HW128868   0.882   1.400   5.784 -2.5664  0.1221  0.2031
 5802SOL    HW228869   0.891   1.553   5.770  1.2103  0.1242 -0.5312
 5803SOL     OW28870   1.406   1.072   3.498  0.1256 -0.3747 -0.4097
 5803SOL    HW128871   1.334   1.044   3.442 -1.5595  2.3961  0.3544
 5803SOL    HW228872   1.446   1.152   3.464 -0.9340  0.3133 -0.0670
 5804SOL     OW28873   4.306   2.879   8.568 -0.0973 -0.9888  0.1148
 5804SOL    HW128874   4.269   2.796   8.598 -3.0061  0.3165  0.1451
 5804SOL    HW228875   4.286   2.937   8.641  0.7551  1.3033 -1.4360
 5805SOL     OW28876   1.903   0.555   8.703 -0.0900  0.1792  0.1705
 5805SOL    HW128877   1.843   0.498   8.750 -1.5632  3.6226  2.4839
 5805SOL    HW228878   1.987   0.524   8.734  0.8746  2.1507 -0.4603
 5806SOL     OW28879   1.866   1.133   3.138 -1.2401  0.1872  0.5106
 5806SOL    HW128880   1.818   1.086   3.205 -1.4605 -0.4534 -0.0965
 5806SOL    HW228881   1.834   1.221   3.159 -1.6591  0.2198 -0.2871
 5807SOL     OW28882   3.592   1.812  11.986 -0.6513 -0.4983  0.5137
 5807SOL    HW128883   3.532   1.874  11.943  0.4592  1.7897  2.2620
 5807SOL    HW228884   3.654   1.793  11.916 -0.9654  0.7389 -0.1036
 5808SOL     OW28885   1.897   0.821  16.285  0.0572 -0.3026  0.5736
 5808SOL    HW128886   1.834   0.881  16.244  1.4707  1.8565  1.5730
 5808SOL    HW228887   1.976   0.831  16.233  0.6666  0.1613  1.5757
 5809SOL     OW28888   2.658   1.440   5.334 -0.0610 -0.5706 -0.8001
 5809SOL    HW128889   2.599   1.380   5.289 -0.5149  0.8645 -2.1296
 5809SOL    HW228890   2.607   1.455   5.414  2.1585 -0.0784  0.5280
 5810SOL     OW28891   1.823   3.329  14.913  0.0403 -0.5795  0.1202
 5810SOL    HW128892   1.827   3.245  14.959 -2.8317 -0.1569  1.1434
 5810SOL    HW228893   1.865   3.300  14.833  0.3803 -2.1034  0.8453
 5811SOL     OW28894   2.531   4.187   8.741 -0.1280  0.1411  0.4525
 5811SOL    HW128895   2.521   4.273   8.700 -0.9111  0.3348  1.0372
 5811SOL    HW228896   2.445   4.147   8.730 -0.3532  1.7198 -3.3364
 5812SOL     OW28897   0.233   3.647   4.127 -0.1583 -0.2734  0.6138
 5812SOL    HW128898   0.258   3.557   4.144  0.4619 -0.9222 -3.5773
 5812SOL    HW228899   0.140   3.640   4.146 -0.5602  0.3382 -1.0396
 5813SOL     OW28900   2.073   4.647   5.724 -0.2358  0.4782  0.2807
 5813SOL    HW128901   2.158   4.645   5.679 -0.3974  1.8816 -0.0844
 5813SOL    HW228902   2.064   4.552   5.730 -1.5233  0.6346  0.7168
 5814SOL     OW28903   1.821   0.992   7.405  0.1962 -0.0658 -0.2808
 5814SOL    HW128904   1.757   1.061   7.425 -1.2090 -0.9529 -1.6947
 5814SOL    HW228905   1.807   0.977   7.312  0.7636  0.3698 -0.4357
 5815SOL     OW28906   2.507   2.129  12.149 -0.2777 -0.1714 -0.1612
 5815SOL    HW128907   2.413   2.119  12.133 -0.5678  3.5146 -0.7107
 5815SOL    HW228908   2.523   2.165  12.062 -3.5637  0.7412 -0.4006
 5816SOL     OW28909   2.359   0.494  11.212  0.2440 -0.2799 -0.8779
 5816SOL    HW128910   2.353   0.444  11.131 -1.5382  0.5771 -1.2965
 5816SOL    HW228911   2.416   0.566  11.185  0.4428 -0.9310 -2.1716
 5817SOL     OW28912   0.903   4.308  16.913 -0.4213  0.1566 -0.2617
 5817SOL    HW128913   0.878   4.391  16.874 -0.3500  0.7429  0.9535
 5817SOL    HW228914   0.835   4.292  16.979 -0.6174  0.2631 -0.4357
 5818SOL     OW28915   0.798   0.441   6.243 -0.0624 -0.4814  0.2367
 5818SOL    HW128916   0.795   0.449   6.338 -1.3144 -1.6099  0.2962
 5818SOL    HW228917   0.714   0.479   6.218 -0.8098 -1.0429  1.9404
 5819SOL     OW28918   4.198   1.131   4.421 -0.1883  0.6524 -0.0930
 5819SOL    HW128919   4.288   1.156   4.443 -1.0290  2.8772  0.9129
 5819SOL    HW228920   4.206   1.049   4.374  3.4673  1.0396 -0.0816
 5820SOL     OW28921   0.960   0.348  11.155 -0.1451 -0.1545  0.2024
 5820SOL    HW128922   0.983   0.273  11.100  2.3566  0.3479  0.5685
 5820SOL    HW228923   1.006   0.418  11.109  0.9147 -0.1557  1.2401
 5821SOL     OW28924   2.884   1.866   8.367  0.7794 -0.4836 -0.8894
 5821SOL    HW128925   2.799   1.824   8.351  0.3568 -0.8246  2.2786
 5821SOL    HW228926   2.921   1.800   8.426 -1.8755 -1.3952 -0.2280
 5822SOL     OW28927   1.047   1.431  12.616  0.9441  0.3392  0.1094
 5822SOL    HW128928   1.084   1.518  12.631  0.1461  0.9288 -1.3156
 5822SOL    HW228929   1.002   1.406  12.697  0.1199 -0.9400 -0.7416
 5823SOL     OW28930   0.038   1.809   8.476  0.9041 -0.5509 -0.7446
 5823SOL    HW128931   0.102   1.870   8.442 -0.5704  1.2078 -0.3368
 5823SOL    HW228932   0.087   1.759   8.541  1.4157 -1.1323 -1.5737
 5824SOL     OW28933   0.687   0.042  16.671  0.8186  0.4746 -0.6254
 5824SOL    HW128934   0.610   0.100  16.675  0.1833 -0.3595 -0.9137
 5824SOL    HW228935   0.692   0.028  16.577 -0.9084 -4.7253  0.0517
 5825SOL     OW28936   4.046   2.350   2.782 -0.2862  0.1506  0.0740
 5825SOL    HW128937   4.062   2.276   2.841 -0.9557 -0.8514 -0.9928
 5825SOL    HW228938   4.016   2.295   2.710  0.0142  0.0242  0.0437
 5826SOL     OW28939   3.180   3.140   3.213  0.0981  0.0804  0.7582
 5826SOL    HW128940   3.157   3.049   3.194 -1.4480  0.9483 -1.5961
 5826SOL    HW228941   3.275   3.141   3.200  0.0873  1.1462  0.7325
 5827SOL     OW28942   3.660   3.885   3.585 -0.1342 -0.0840  0.1044
 5827SOL    HW128943   3.595   3.895   3.655  1.9481  0.0785  2.0144
 5827SOL    HW228944   3.614   3.912   3.506  1.9196  2.1171 -0.3389
 5828SOL     OW28945   0.446   3.171   5.177 -0.6073  0.1504  0.0211
 5828SOL    HW128946   0.439   3.084   5.215 -0.9625 -0.0722 -0.5595
 5828SOL    HW228947   0.520   3.171   5.117 -1.8822 -1.0950 -1.5679
 5829SOL     OW28948   1.960   4.182   8.523  0.1550 -0.0083 -0.0451
 5829SOL    HW128949   1.969   4.277   8.513 -0.7813 -0.1815 -2.4320
 5829SOL    HW228950   1.977   4.168   8.430  0.0883  1.7157 -0.3162
 5830SOL     OW28951   1.758   1.467  12.458 -0.2752  0.3739 -0.6305
 5830SOL    HW128952   1.760   1.377  12.490 -1.6594  0.3473 -0.6212
 5830SOL    HW228953   1.766   1.450  12.364 -1.7736  2.2061 -1.1094
 5831SOL     OW28954   1.584   1.157   5.718 -0.0378  0.4097  0.0966
 5831SOL    HW128955   1.671   1.171   5.680  0.8701 -0.2193  1.9212
 5831SOL    HW228956   1.529   1.120   5.649  0.2025 -0.4143  0.3384
 5832SOL     OW28957   3.252   4.687   4.561 -0.3154  0.5607  0.3918
 5832SOL    HW128958   3.326   4.676   4.620 -1.2584  0.5896  1.5720
 5832SOL    HW228959   3.237   4.592   4.560 -2.5531  0.9245  1.6599
 5833SOL     OW28960   0.555   4.669   2.471  0.2782  0.0157  0.2699
 5833SOL    HW128961   0.518   4.673   2.383  0.6128  1.0958  0.1823
 5833SOL    HW228962   0.649   4.681   2.462  0.5513 -0.5281  2.4865
 5834SOL     OW28963   4.691   2.312   2.390 -0.2596 -0.5309  0.1747
 5834SOL    HW128964   4.639   2.235   2.409  1.1470 -0.9827  2.2406
 5834SOL    HW228965   0.055   2.269   2.377 -0.0694  0.1245 -0.7674
 5835SOL     OW28966   3.549   3.553   3.271  0.0605  0.6725  0.5548
 5835SOL    HW128967   3.561   3.523   3.181 -0.6383  1.3879  0.2224
 5835SOL    HW228968   3.625   3.508   3.309  1.7265  0.1263 -3.3829
 5836SOL     OW28969   2.945   3.109   1.774 -0.1520 -0.4737 -0.0500
 5836SOL    HW128970   2.931   3.036   1.714 -1.5247  0.1463 -0.4966
 5836SOL    HW228971   2.861   3.152   1.760 -1.7171 -3.7103 -0.5868
 5837SOL     OW28972   0.796   0.348   4.534  0.4671 -0.4163  0.3706
 5837SOL    HW128973   0.889   0.351   4.511  0.6432  1.7979  1.3538
 5837SOL    HW228974   0.778   0.441   4.549  2.6938  0.1835 -0.6064
 5838SOL     OW28975   4.436   3.950  14.489  0.2228  0.7442  0.0917
 5838SOL    HW128976   4.418   4.037  14.452  1.4865  0.7005 -0.6058
 5838SOL    HW228977   4.502   3.923  14.426  0.5946  3.1129 -0.5443
 5839SOL     OW28978   4.555   0.512  16.820 -0.1325  0.0915 -0.8053
 5839SOL    HW128979   4.474   0.561  16.804 -1.5403 -1.1169  2.5082
 5839SOL    HW228980   4.526   0.437  16.873 -0.9539  0.4220 -0.7826
 5840SOL     OW28981   2.445   1.642   2.296  0.0267 -0.0207 -0.4504
 5840SOL    HW128982   2.531   1.658   2.257  0.1745 -0.9274 -0.4910
 5840SOL    HW228983   2.401   1.724   2.272 -0.5895  0.2380  1.6120
 5841SOL     OW28984   4.089   0.773   9.126 -0.3839 -0.5875  0.1349
 5841SOL    HW128985   4.157   0.828   9.086 -2.0112  0.5315 -1.0562
 5841SOL    HW228986   4.141   0.729   9.193 -1.5176 -0.3018  1.1937
 5842SOL     OW28987   0.750   0.761   8.755  0.0321 -0.1226  0.4006
 5842SOL    HW128988   0.760   0.730   8.845 -2.9332  1.0043  1.1009
 5842SOL    HW228989   0.828   0.815   8.737  0.3649 -0.3292  1.2247
 5843SOL     OW28990   1.267   0.437   7.260 -0.0776  0.4830  0.3498
 5843SOL    HW128991   1.324   0.509   7.233  0.4077 -0.5216 -1.3512
 5843SOL    HW228992   1.185   0.486   7.271  0.1526  0.4330  2.3017
 5844SOL     OW28993   0.629   4.208  11.807  0.3068  0.1879 -0.1113
 5844SOL    HW128994   0.577   4.199  11.727 -1.0174 -2.0107  0.9965
 5844SOL    HW228995   0.627   4.302  11.819 -0.2701  0.0722  0.6877
 5845SOL     OW28996   0.836   0.914   7.667  0.9806 -0.6914  0.1828
 5845SOL    HW128997   0.792   0.850   7.723 -0.8377  1.6180  1.3876
 5845SOL    HW228998   0.850   0.989   7.724  1.1851  0.3867 -1.2895
 5846SOL     OW28999   1.322   2.906  11.430 -0.2800 -0.3085  0.2045
 5846SOL    HW129000   1.243   2.878  11.384  0.9447 -2.9702 -0.3070
 5846SOL    HW229001   1.323   2.999  11.406 -0.6749 -0.3540  0.0273
 5847SOL     OW29002   2.134   2.726   6.805 -0.1793 -0.4942  0.5227
 5847SOL    HW129003   2.130   2.664   6.732 -0.9499  0.2997 -0.1032
 5847SOL    HW229004   2.219   2.702   6.841 -0.9023 -1.3444  1.6567
 5848SOL     OW29005   1.347   2.377  16.891 -0.3556 -0.4253  0.1531
 5848SOL    HW129006   1.263   2.382  16.846  0.8661  3.1558 -1.7849
 5848SOL    HW229007   1.392   2.453  16.852 -1.6583  0.2485 -0.0172
 5849SOL     OW29008   0.048   0.683   5.936 -0.3767  0.0099  0.7190
 5849SOL    HW129009   0.012   0.643   5.856  3.5913  1.2601 -1.6712
 5849SOL    HW229010   0.114   0.743   5.903 -1.5814  0.9284 -0.0068
 5850SOL     OW29011   0.334   3.348   3.903 -0.1541 -0.4785 -0.4817
 5850SOL    HW129012   0.423   3.365   3.934 -0.3815  0.4374 -0.3109
 5850SOL    HW229013   0.297   3.301   3.978  0.3681 -0.3268 -0.1271
 5851SOL     OW29014   2.803   1.733  16.292  1.0040 -0.5030  0.7259
 5851SOL    HW129015   2.895   1.751  16.273  0.5590 -0.8678 -1.6871
 5851SOL    HW229016   2.801   1.744  16.387  0.3375 -0.2136  0.6863
 5852SOL     OW29017   0.219   1.837  17.172 -0.0979  0.5953 -0.0767
 5852SOL    HW129018   0.147   1.797  17.221  1.4436  1.6960  3.1082
 5852SOL    HW229019   0.207   1.784  17.093 -0.5195  0.5189  0.0377
 5853SOL     OW29020   4.089   1.831   3.404  0.0039  0.0967 -0.4671
 5853SOL    HW129021   4.010   1.805   3.450 -0.3763  2.4375  0.1902
 5853SOL    HW229022   4.059   1.906   3.351  0.5634  0.2632 -0.5549
 5854SOL     OW29023   2.017   3.315   3.823  0.2557 -0.3256  0.6881
 5854SOL    HW129024   2.108   3.292   3.845  0.5248  0.5236  0.4608
 5854SOL    HW229025   1.981   3.337   3.909 -1.8538  1.4458 -0.6473
 5855SOL     OW29026   3.076   2.731  13.269 -0.2203 -0.4150 -0.1570
 5855SOL    HW129027   3.144   2.672  13.238  0.4292  1.2725 -1.9635
 5855SOL    HW229028   3.113   2.815  13.241  0.1695  0.1245  1.9752
 5856SOL     OW29029   4.175   4.021  15.851  0.2837 -0.2673 -0.2468
 5856SOL    HW129030   4.131   3.998  15.769  2.7076  0.3202 -1.7355
 5856SOL    HW229031   4.177   4.117  15.850  0.0321 -0.2651 -0.4648
 5857SOL     OW29032   1.548   1.171   9.678  0.0384  0.3102 -0.2513
 5857SOL    HW129033   1.637   1.181   9.643 -0.5732  1.4857 -1.4663
 5857SOL    HW229034   1.499   1.242   9.637 -0.7201  0.6910  1.3214
 5858SOL     OW29035   2.499   1.784   3.595  0.2461 -0.0483 -0.2176
 5858SOL    HW129036   2.427   1.769   3.656  0.4380  1.5964  0.4208
 5858SOL    HW229037   2.496   1.703   3.544  0.2968 -0.4027  0.3433
 5859SOL     OW29038   2.306   0.038   6.607  0.3208 -0.1419  0.3518
 5859SOL    HW129039   2.336   4.674   6.574  0.3555 -0.2448  0.6425
 5859SOL    HW229040   2.305   0.097   6.533 -1.5923  2.0312  2.1251
 5860SOL     OW29041   0.810   0.031   5.090 -0.1695 -0.5628 -0.3501
 5860SOL    HW129042   0.765   4.696   5.026  2.8958 -2.8842 -0.4611
 5860SOL    HW229043   0.738   0.093   5.101  0.4068 -0.5602  3.3725
 5861SOL     OW29044   0.877   2.779   0.827  0.2097 -0.0952  0.5360
 5861SOL    HW129045   0.847   2.862   0.792 -0.9008 -0.5307  0.4496
 5861SOL    HW229046   0.892   2.731   0.745  2.6876  0.8906  0.4286
 5862SOL     OW29047   2.961   3.979  17.244  0.0232 -0.7633 -0.5182
 5862SOL    HW129048   2.913   3.973  17.162 -1.6881  0.7952  0.3561
 5862SOL    HW229049   3.048   3.949  17.220 -1.1040 -2.2708 -2.7519
 5863SOL     OW29050   4.345   2.546   8.522 -0.0337 -0.1364  0.0261
 5863SOL    HW129051   4.291   2.474   8.488  0.8830 -0.5991 -0.4479
 5863SOL    HW229052   4.395   2.566   8.442  0.8109  0.0468  0.6002
 5864SOL     OW29053   0.462   2.192  11.021 -0.0902  0.2633 -0.1004
 5864SOL    HW129054   0.478   2.247  11.097 -1.2587  0.0879  0.2724
 5864SOL    HW229055   0.406   2.124  11.060 -2.8271  2.2529 -0.5042
 5865SOL     OW29056   2.949   3.557   0.665 -0.2796  0.8373  0.0940
 5865SOL    HW129057   2.957   3.474   0.619 -1.2173  0.6810  0.2067
 5865SOL    HW229058   3.040   3.585   0.672 -0.8608  2.6965  0.2533
 5866SOL     OW29059   0.407   1.281   7.417  0.0514 -0.3918 -0.2224
 5866SOL    HW129060   0.322   1.327   7.420 -0.2882 -1.3042  3.4433
 5866SOL    HW229061   0.407   1.237   7.502 -2.1801  0.2048  0.1152
 5867SOL     OW29062   3.235   0.266  13.124  0.4312 -0.5335 -0.5199
 5867SOL    HW129063   3.246   0.353  13.162  0.1361 -0.8561  0.2900
 5867SOL    HW229064   3.169   0.279  13.055 -1.5997  0.1566  1.5613
 5868SOL     OW29065   1.511   0.653   4.844  0.0150 -0.2907 -0.6841
 5868SOL    HW129066   1.445   0.588   4.817  0.9130 -0.9021 -1.3996
 5868SOL    HW229067   1.584   0.592   4.846  2.0998  2.1200 -2.8648
 5869SOL     OW29068   1.906   0.874  13.493 -0.2115  0.1989 -0.1054
 5869SOL    HW129069   1.932   0.800  13.547 -3.7032 -2.1336 -1.5700
 5869SOL    HW229070   1.894   0.824  13.412 -1.7379 -2.1871  1.6210
 5870SOL     OW29071   1.670   3.976   5.088 -0.1538 -0.2914 -0.2716
 5870SOL    HW129072   1.743   3.955   5.029 -0.3312 -0.9178 -0.2650
 5870SOL    HW229073   1.680   3.918   5.163 -0.7196 -0.6379 -0.4670
 5871SOL     OW29074   3.848   0.408   6.405 -0.2370  0.3775  0.0957
 5871SOL    HW129075   3.923   0.406   6.465  1.8589  0.0563 -2.5144
 5871SOL    HW229076   3.841   0.502   6.387  0.7663  0.6024  0.8244
 5872SOL     OW29077   2.625   3.518   6.638 -0.0035 -0.5061  0.4573
 5872SOL    HW129078   2.680   3.472   6.702  1.3770  0.9361  0.3043
 5872SOL    HW229079   2.535   3.495   6.660 -0.1919 -0.8699 -0.6940
 5873SOL     OW29080   4.719   2.321   3.008  0.4655 -0.4625 -0.1209
 5873SOL    HW129081   0.036   2.388   2.951 -0.7612 -0.5407 -1.0105
 5873SOL    HW229082   4.635   2.307   2.965  1.4802 -2.7474 -1.3854
 5874SOL     OW29083   3.981   2.917  10.843 -0.1817 -0.5631 -0.4299
 5874SOL    HW129084   3.980   3.009  10.815 -2.1193 -1.5154 -3.4546
 5874SOL    HW229085   4.047   2.881  10.785  1.6098 -0.4282  1.5234
 5875SOL     OW29086   3.994   2.233  10.391 -0.1868 -0.0305 -0.7424
 5875SOL    HW129087   3.930   2.300  10.368  1.2520  2.2563  2.0686
 5875SOL    HW229088   4.058   2.288  10.435 -0.0890 -0.5051 -0.2875
 5876SOL     OW29089   3.827   2.387   7.286  0.2128 -0.0776 -0.2873
 5876SOL    HW129090   3.882   2.367   7.210  2.7577  1.5542  1.1204
 5876SOL    HW229091   3.790   2.302   7.308 -0.6883  0.3695 -0.0576
 5877SOL     OW29092   1.917   2.821  17.416 -0.1177 -0.3091 -0.4346
 5877SOL    HW129093   1.898   2.730  17.436 -1.3670  0.3288  1.2845
 5877SOL    HW229094   1.991   2.836  17.476  0.1636  0.0977 -0.8817
 5878SOL     OW29095   1.955   0.154  15.126  0.5007  0.0687 -0.3316
 5878SOL    HW129096   1.966   0.061  15.144  2.2014  0.4552  0.5904
 5878SOL    HW229097   1.874   0.146  15.075  0.4987  1.9048 -0.6496
 5879SOL     OW29098   2.850   2.616   2.626 -0.6424  0.4288 -0.3139
 5879SOL    HW129099   2.851   2.599   2.720 -0.5445  0.3444 -0.3303
 5879SOL    HW229100   2.904   2.695   2.627  0.6156 -0.4460  1.1548
 5880SOL     OW29101   1.665   4.361   6.094  0.2252  0.0538 -0.3826
 5880SOL    HW129102   1.667   4.450   6.130  1.4261 -0.7026  1.4024
 5880SOL    HW229103   1.611   4.320   6.161 -0.0958  0.9437 -0.0915
 5881SOL     OW29104   1.757   0.840  15.143 -0.3265 -0.0675 -0.3521
 5881SOL    HW129105   1.765   0.911  15.207 -2.8650  0.7109 -0.8955
 5881SOL    HW229106   1.673   0.861  15.104 -0.7674 -0.3057  0.4767
 5882SOL     OW29107   4.608   3.732   5.458 -0.2083  0.0309 -0.2485
 5882SOL    HW129108   4.534   3.742   5.518 -0.6878  0.2073 -0.8742
 5882SOL    HW229109   4.636   3.647   5.491 -3.2339 -1.2426 -0.9141
 5883SOL     OW29110   0.842   2.802   0.478  0.0222  0.7614 -0.1613
 5883SOL    HW129111   0.751   2.814   0.504  0.0199 -0.6159  0.5024
 5883SOL    HW229112   0.830   2.810   0.384  0.0311 -1.5251 -0.3709
 5884SOL     OW29113   3.709   4.454  14.009  0.0117  0.3160  0.0518
 5884SOL    HW129114   3.773   4.383  14.000  0.2923  0.3467  1.7953
 5884SOL    HW229115   3.634   4.427  13.957  0.8855 -2.6600  0.3472
 5885SOL     OW29116   3.130   0.801   3.645 -0.7359 -0.3446 -0.0418
 5885SOL    HW129117   3.206   0.782   3.699 -0.8458 -1.0722 -0.1405
 5885SOL    HW229118   3.081   0.861   3.702  0.8816  2.2610 -1.4590
 5886SOL     OW29119   4.288   2.352   5.053 -0.4533 -0.5001 -0.4771
 5886SOL    HW129120   4.259   2.288   5.118  3.0492 -0.8927  0.6558
 5886SOL    HW229121   4.230   2.331   4.980 -1.9434 -0.0044  0.5591
 5887SOL     OW29122   3.489   3.435  11.229 -0.3258 -0.1367  0.1643
 5887SOL    HW129123   3.577   3.470  11.213 -0.1454  0.0007  1.4675
 5887SOL    HW229124   3.475   3.461  11.320  1.2393  1.2044  0.0170
 5888SOL     OW29125   3.701   2.143  10.278  0.0406  0.2440 -0.1931
 5888SOL    HW129126   3.612   2.131  10.246  0.8422  1.7166 -2.9278
 5888SOL    HW229127   3.722   2.228  10.240 -1.9544  1.5334  1.5374
 5889SOL     OW29128   1.457   2.554   6.993  0.6552 -0.4338  0.0223
 5889SOL    HW129129   1.505   2.615   7.050 -0.8612 -0.8230  1.7364
 5889SOL    HW229130   1.484   2.576   6.904  0.7583 -2.2802 -0.4028
 5890SOL     OW29131   3.644   0.364   2.181 -0.2106  0.2181  0.4416
 5890SOL    HW129132   3.643   0.383   2.275 -0.4589  2.4297 -0.0225
 5890SOL    HW229133   3.701   0.420   2.129 -0.2926 -0.2755 -0.1768
 5891SOL     OW29134   4.268   2.518   5.645 -0.3134  0.2375 -0.0244
 5891SOL    HW129135   4.361   2.494   5.639 -0.5955 -0.6696 -0.6966
 5891SOL    HW229136   4.276   2.605   5.684 -0.9671  0.9228 -1.4033
 5892SOL     OW29137   0.925   1.468   4.421  0.3871 -0.0449 -0.2096
 5892SOL    HW129138   0.834   1.497   4.431 -0.3442 -1.7574 -1.9174
 5892SOL    HW229139   0.909   1.393   4.364  1.5053 -0.2792 -0.2201
 5893SOL     OW29140   4.590   3.643  12.630  0.7385 -0.4881  0.0078
 5893SOL    HW129141   4.648   3.566  12.629 -0.0449 -1.1067  1.5589
 5893SOL    HW229142   4.639   3.696  12.567  1.8318 -0.4915  0.8467
 5894SOL     OW29143   2.029   0.342   6.329  0.2319 -0.2103  0.6665
 5894SOL    HW129144   2.084   0.399   6.382  0.3746  0.1571  0.1196
 5894SOL    HW229145   2.006   0.270   6.389  2.5404 -0.3665  1.3515
 5895SOL     OW29146   4.409   2.164  16.293  0.3076  0.1290  0.3212
 5895SOL    HW129147   4.316   2.141  16.288  0.5430 -0.8664  0.6450
 5895SOL    HW229148   4.413   2.232  16.225 -1.1852 -1.2050 -1.1334
 5896SOL     OW29149   1.335   2.519   1.826 -0.7604  0.5482  0.1271
 5896SOL    HW129150   1.348   2.614   1.822  0.7631  0.3343 -0.1034
 5896SOL    HW229151   1.389   2.498   1.750  1.0308 -2.3155  2.2107
 5897SOL     OW29152   0.609   3.596   5.284 -0.1624  0.1154  0.4901
 5897SOL    HW129153   0.612   3.590   5.188 -1.0171 -1.7992  0.5678
 5897SOL    HW229154   0.588   3.503   5.298 -2.3192  0.9147  2.4427
 5898SOL     OW29155   0.840   1.905   5.136 -0.2638  0.9817  0.5042
 5898SOL    HW129156   0.856   1.811   5.138  0.6084  1.0922 -1.0241
 5898SOL    HW229157   0.854   1.933   5.226  0.8249 -0.6990  0.8563
 5899SOL     OW29158   4.716   3.347  15.186  0.3648 -0.1706  0.4106
 5899SOL    HW129159   4.684   3.273  15.135  1.5429 -2.0567  2.3959
 5899SOL    HW229160   0.078   3.366  15.143  0.8530 -1.4555  0.7740
 5900SOL     OW29161   0.190   1.823   7.591  0.7606 -0.0817  0.2457
 5900SOL    HW129162   0.271   1.775   7.578  0.5328 -0.3021 -0.3466
 5900SOL    HW229163   0.219   1.852   7.678  2.5750  0.3347 -0.4983
 5901SOL     OW29164   1.315   1.046   3.033  0.1760  0.5404  0.2981
 5901SOL    HW129165   1.385   0.981   3.036 -1.8995 -1.6591  0.9093
 5901SOL    HW229166   1.345   1.107   2.966 -2.2345  2.1148  0.6494
 5902SOL     OW29167   0.325   1.647   1.598 -1.2318  0.1723  0.4000
 5902SOL    HW129168   0.304   1.737   1.575  2.9100  0.7976 -0.8354
 5902SOL    HW229169   0.420   1.649   1.612 -1.1127  0.3016 -0.4427
 5903SOL     OW29170   3.278   1.336   1.936  0.7463 -0.2891  0.4640
 5903SOL    HW129171   3.218   1.360   2.007  1.0174  1.4175  0.1142
 5903SOL    HW229172   3.255   1.409   1.878  3.3391  0.5057  0.4555
 5904SOL     OW29173   3.181   4.548   4.874  0.1951  0.2189  0.2292
 5904SOL    HW129174   3.220   4.635   4.876  2.0029 -0.5789  0.5895
 5904SOL    HW229175   3.261   4.496   4.884 -0.0092 -0.0480  0.4805
 5905SOL     OW29176   4.480   3.433  10.237 -0.3614  0.7342  0.1822
 5905SOL    HW129177   4.443   3.413  10.151  1.6289  1.2148 -0.7765
 5905SOL    HW229178   4.414   3.489  10.278 -0.0195  0.8221  0.6065
 5906SOL     OW29179   4.377   3.572  15.012 -0.3993  0.2120 -0.5606
 5906SOL    HW129180   4.358   3.639  14.947 -0.4176 -0.5639 -1.3537
 5906SOL    HW229181   4.467   3.544  14.994  0.2482  2.3445 -0.6340
 5907SOL     OW29182   2.503   0.256   5.161 -0.5663 -0.7203  0.0182
 5907SOL    HW129183   2.410   0.247   5.143  0.0116  0.8621 -3.7984
 5907SOL    HW229184   2.528   0.164   5.162  0.5097 -0.4084  1.4946
 5908SOL     OW29185   0.003   1.788   6.169 -0.4221 -0.2375 -0.4114
 5908SOL    HW129186   4.701   1.705   6.126  1.5771 -0.0431 -1.8256
 5908SOL    HW229187   0.097   1.793   6.151 -0.3717  0.5505  0.0698
 5909SOL     OW29188   4.501   0.634   0.376  0.1669  0.0205  0.4218
 5909SOL    HW129189   4.504   0.640   0.471 -1.5875  1.3078  0.3867
 5909SOL    HW229190   4.593   0.608   0.366 -0.2848 -1.7480  0.9183
 5910SOL     OW29191   0.266   4.529   3.782  0.0243  0.0265 -0.0431
 5910SOL    HW129192   0.337   4.473   3.815 -1.3594 -2.0076 -0.5152
 5910SOL    HW229193   0.217   4.463   3.733  0.0196  0.4436 -0.6005
 5911SOL     OW29194   3.876   0.635   3.163 -0.0755 -0.9369 -0.3117
 5911SOL    HW129195   3.932   0.589   3.100  2.0188  1.8084 -0.4458
 5911SOL    HW229196   3.815   0.687   3.111  2.0814  2.2150  0.3181
 5912SOL     OW29197   1.335   2.025   4.136  1.2862 -0.0829 -0.4566
 5912SOL    HW129198   1.294   2.091   4.080  2.7851  1.3260  0.0960
 5912SOL    HW229199   1.286   1.946   4.117 -0.0970  0.8568 -0.7876
 5913SOL     OW29200   1.450   1.241   5.125  0.3178 -0.0866 -0.1966
 5913SOL    HW129201   1.427   1.264   5.215  0.1047 -0.8916 -0.0406
 5913SOL    HW229202   1.368   1.198   5.100  1.2596 -0.6618 -2.2419
 5914SOL     OW29203   3.793   3.702   2.319 -0.5588  0.3014  0.5098
 5914SOL    HW129204   3.822   3.779   2.369  1.3905 -0.2235  0.2149
 5914SOL    HW229205   3.852   3.691   2.244 -1.3246  0.9784 -0.1921
 5915SOL     OW29206   2.556   0.388   7.132  0.1222 -0.3909  0.1511
 5915SOL    HW129207   2.558   0.472   7.178  0.9087  0.2008 -0.9534
 5915SOL    HW229208   2.493   0.396   7.061  0.2398 -0.4212  0.0433
 5916SOL     OW29209   0.070   3.867   5.282 -0.1770 -0.0657  0.6871
 5916SOL    HW129210   4.720   3.830   5.334 -0.5064 -2.3446 -1.3581
 5916SOL    HW229211   0.122   3.790   5.258  0.8406  0.7958  0.1330
 5917SOL     OW29212   0.199   3.724   1.363  0.2770  0.4439  0.2745
 5917SOL    HW129213   0.110   3.694   1.341  0.2984  0.3753  0.2825
 5917SOL    HW229214   0.175   3.808   1.402 -0.0131  0.6115 -0.2663
 5918SOL     OW29215   2.195   1.831   2.793  0.5436 -0.1995 -0.0818
 5918SOL    HW129216   2.207   1.835   2.698  3.4343  1.5407  0.3780
 5918SOL    HW229217   2.110   1.874   2.803  1.2327  1.1704 -0.0892
 5919SOL     OW29218   3.502   0.511   3.161 -0.2871 -0.1157 -0.6742
 5919SOL    HW129219   3.548   0.510   3.246  0.2425  0.9336 -0.9469
 5919SOL    HW229220   3.504   0.606   3.145 -0.7986 -0.1632 -1.0024
 5920SOL     OW29221   1.687   1.044   2.229 -0.2152 -0.1852 -0.6538
 5920SOL    HW129222   1.624   1.115   2.216 -0.2460 -0.1812 -0.4841
 5920SOL    HW229223   1.726   1.050   2.142  0.5371 -0.3717 -0.3319
 5921SOL     OW29224   4.621   0.960   7.466 -0.2821 -0.7340  0.0963
 5921SOL    HW129225   4.603   0.868   7.484 -1.8608 -0.2447  1.0334
 5921SOL    HW229226   4.606   0.985   7.557  0.7274  0.4623 -0.0528
 5922SOL     OW29227   3.177   1.616   5.486 -0.0295  0.6556  0.4577
 5922SOL    HW129228   3.198   1.690   5.430  1.0491  0.5148  0.6796
 5922SOL    HW229229   3.121   1.659   5.550 -1.4445 -2.1128  1.1019
 5923SOL     OW29230   0.414   2.487   5.431 -0.3374  0.2287 -0.5136
 5923SOL    HW129231   0.452   2.571   5.454  0.7188  0.5683 -3.4288
 5923SOL    HW229232   0.441   2.472   5.340  2.3453  1.3907  0.1068
 5924SOL     OW29233   1.214   1.030   2.086  0.1787 -0.2088 -0.3493
 5924SOL    HW129234   1.280   1.028   2.017  0.5985  1.2220  0.0135
 5924SOL    HW229235   1.175   0.943   2.092  1.6391 -0.7958  0.5229
 5925SOL     OW29236   4.195   2.827   2.385  0.2670 -0.5325 -0.2382
 5925SOL    HW129237   4.162   2.796   2.301  0.7936  0.5717 -0.8684
 5925SOL    HW229238   4.283   2.792   2.373  1.0951  1.3839  0.1141
 5926SOL     OW29239   2.257   3.864   2.426  0.1737  0.0697 -0.0203
 5926SOL    HW129240   2.338   3.822   2.454  0.9956  1.6232 -0.0323
 5926SOL    HW229241   2.272   3.883   2.333  1.6547  2.1908  0.6574
 5927SOL     OW29242   1.912   2.571  17.520  0.9473  0.0659  0.1792
 5927SOL    HW129243   1.905   2.478  17.498  1.5267  0.3123 -1.0581
 5927SOL    HW229244   1.925   2.570  17.615  0.5066 -0.1568  0.2349
 5928SOL     OW29245   4.099   0.058   9.006 -0.4222  0.4587  0.2807
 5928SOL    HW129246   4.087   0.142   9.049 -0.4885  0.7679 -0.3306
 5928SOL    HW229247   4.179   0.066   8.954 -1.3046  0.2881 -1.1067
 5929SOL     OW29248   2.860   3.345   8.845 -0.0030 -0.3030 -0.0476
 5929SOL    HW129249   2.905   3.262   8.832  0.6841  0.2335 -1.0649
 5929SOL    HW229250   2.932   3.396   8.880 -0.8524  0.3223  0.7936
 5930SOL     OW29251   2.882   0.884  10.294  0.1228 -0.1501  0.0437
 5930SOL    HW129252   2.955   0.838  10.336  1.0238 -0.3382 -1.7114
 5930SOL    HW229253   2.926   0.964  10.264 -2.1132  0.8307 -0.6644
 5931SOL     OW29254   4.141   1.290   9.011  0.3433  0.1593 -0.8409
 5931SOL    HW129255   4.143   1.355   9.082  0.3182  1.2954 -1.8745
 5931SOL    HW229256   4.055   1.249   9.007  0.1209  0.4732  0.7068
 5932SOL     OW29257   0.269   1.911  12.276  0.2036  0.1995 -0.0910
 5932SOL    HW129258   0.197   1.968  12.249 -0.4291  0.1060  1.4253
 5932SOL    HW229259   0.322   1.923  12.197  2.4769 -1.4342  1.1936
 5933SOL     OW29260   2.176   4.391   2.383  0.5209  0.4469 -0.0565
 5933SOL    HW129261   2.091   4.384   2.339  1.3227 -1.8730 -1.2469
 5933SOL    HW229262   2.174   4.306   2.427  2.3381  0.2055 -0.4270
 5934SOL     OW29263   1.186   0.488   2.025  0.6104 -0.7454  0.3419
 5934SOL    HW129264   1.255   0.460   2.085 -0.5874 -4.0499  0.2182
 5934SOL    HW229265   1.106   0.481   2.076 -0.2096 -0.1902 -0.8683
 5935SOL     OW29266   0.076   3.847  17.254  0.3238  0.3016  0.2533
 5935SOL    HW129267   0.084   3.755  17.230 -0.1754  0.4643 -0.5430
 5935SOL    HW229268   0.064   3.845  17.349  1.4330 -0.2791  0.3693
 5936SOL     OW29269   3.850   4.235  13.962  0.1139  0.3156  0.0026
 5936SOL    HW129270   3.807   4.170  13.906 -0.3371  1.1146 -0.5748
 5936SOL    HW229271   3.944   4.214  13.956 -0.2351 -0.7405 -1.6677
 5937SOL     OW29272   3.848   0.546   5.525  0.6650  0.0955 -0.2969
 5937SOL    HW129273   3.817   0.467   5.569 -1.9947  1.4630  0.2938
 5937SOL    HW229274   3.803   0.554   5.441 -0.2258 -0.1333  0.1567
 5938SOL     OW29275   1.512   4.506   7.333  0.4707  0.5568 -0.1560
 5938SOL    HW129276   1.528   4.521   7.240 -0.0704 -0.8707 -0.4855
 5938SOL    HW229277   1.509   4.593   7.373  1.3650  0.2960  0.4914
 5939SOL     OW29278   3.232   1.927  10.487 -0.1592  0.9137 -0.1668
 5939SOL    HW129279   3.202   1.886  10.406  1.3427  0.2028 -0.3620
 5939SOL    HW229280   3.185   1.887  10.560 -1.5678  2.4612 -0.2123
 5940SOL     OW29281   2.427   0.462   2.737  0.0645  0.9881 -0.4723
 5940SOL    HW129282   2.457   0.377   2.707  0.3499  1.9826 -3.0019
 5940SOL    HW229283   2.379   0.436   2.815  0.5729 -0.9189 -0.7967
 5941SOL     OW29284   4.524   2.747   6.557 -0.1949  0.1775  0.0284
 5941SOL    HW129285   4.546   2.737   6.465 -0.9269  2.6311 -0.4054
 5941SOL    HW229286   4.498   2.659   6.587  1.3837 -0.4061 -0.3520
 5942SOL     OW29287   4.371   0.477   4.786 -0.0038  0.6656  0.2494
 5942SOL    HW129288   4.441   0.427   4.827 -1.3865 -0.5856  1.0899
 5942SOL    HW229289   4.373   0.441   4.698 -0.0391 -0.4467  0.7125
 5943SOL     OW29290   0.833   4.651   4.307 -0.5073  0.6591  0.0142
 5943SOL    HW129291   0.773   4.660   4.381  1.7132 -1.5370  2.0990
 5943SOL    HW229292   0.795   4.701   4.235  0.7823  0.7424 -0.6162
 5944SOL     OW29293   1.794   1.939   7.278 -0.0289  0.0746 -0.3858
 5944SOL    HW129294   1.797   1.973   7.367 -0.4644 -1.1693  0.1068
 5944SOL    HW229295   1.886   1.912   7.272 -0.8483 -2.6370 -0.7710
 5945SOL     OW29296   0.933   3.697  13.372  0.1437  0.2050  0.6058
 5945SOL    HW129297   0.928   3.653  13.287 -0.0797  2.3380 -0.4819
 5945SOL    HW229298   1.027   3.692  13.388  0.6982 -0.9137 -3.1139
 5946SOL     OW29299   2.902   2.656   4.041 -0.0666  0.1655 -0.3148
 5946SOL    HW129300   2.943   2.582   4.085  1.8305  2.4780  1.7521
 5946SOL    HW229301   2.952   2.729   4.078  2.4167 -2.2635  1.1041
 5947SOL     OW29302   2.350   0.905   6.724  0.0588 -0.4290  0.2462
 5947SOL    HW129303   2.388   0.857   6.651 -0.5783 -2.0208  0.9657
 5947SOL    HW229304   2.263   0.867   6.735  0.6137 -1.6008  0.6143
 5948SOL     OW29305   2.436   0.345   3.010  0.2495  0.1923 -0.1031
 5948SOL    HW129306   2.447   0.423   3.065  0.0779 -0.4628  0.8626
 5948SOL    HW229307   2.390   0.286   3.070 -0.8875 -1.7417 -2.8817
 5949SOL     OW29308   0.757   2.111   2.186 -0.0886 -0.1569 -0.0621
 5949SOL    HW129309   0.704   2.033   2.167  1.0904 -1.0542  0.3816
 5949SOL    HW229310   0.773   2.140   2.096 -2.8409  0.1941 -0.4466
 5950SOL     OW29311   1.769   1.326   3.698 -0.3967 -0.2470  0.1137
 5950SOL    HW129312   1.824   1.371   3.763 -0.9031  2.4852 -1.3434
 5950SOL    HW229313   1.685   1.372   3.697 -1.4666 -2.2514 -0.7332
 5951SOL     OW29314   0.440   1.817  12.515 -0.0598 -0.0464  0.5182
 5951SOL    HW129315   0.433   1.824  12.420 -0.2596 -1.2733  0.4406
 5951SOL    HW229316   0.361   1.864  12.542 -0.6106 -0.8651  0.3442
 5952SOL     OW29317   3.616   0.614   6.215  0.0811 -0.0600  0.1736
 5952SOL    HW129318   3.674   0.556   6.164  0.5854  0.2862  0.3550
 5952SOL    HW229319   3.534   0.585   6.176 -0.4676 -0.0502  1.3323
 5953SOL     OW29320   3.622   1.608   7.383  0.0562  0.4207 -0.3598
 5953SOL    HW129321   3.709   1.569   7.376  0.8344  1.7815  1.5611
 5953SOL    HW229322   3.569   1.549   7.329 -0.6922  1.1289 -0.4104
 5954SOL     OW29323   4.583   3.324  16.748  0.5404  0.7931  0.3987
 5954SOL    HW129324   4.628   3.284  16.822 -1.5886  0.7422  1.6376
 5954SOL    HW229325   4.654   3.341  16.686 -0.5430  1.4880 -0.6538
 5955SOL     OW29326   3.468   2.627   3.780  0.4053  0.0691  0.5916
 5955SOL    HW129327   3.499   2.541   3.752 -0.5076 -0.8529  2.4131
 5955SOL    HW229328   3.546   2.682   3.768 -0.2126  0.5983 -0.9822
 5956SOL     OW29329   1.432   4.624   3.946  0.7633  0.1669 -0.0916
 5956SOL    HW129330   1.391   4.665   3.870  1.0746  0.7047  0.0310
 5956SOL    HW229331   1.387   4.540   3.949  0.8479  0.1166 -0.1876
 5957SOL     OW29332   3.471   3.315   9.114  0.0035 -0.0826 -0.4001
 5957SOL    HW129333   3.493   3.409   9.115 -3.7865  0.7759  1.4795
 5957SOL    HW229334   3.380   3.317   9.085  0.0244  3.5119 -0.3027
 5958SOL     OW29335   1.878   1.745  12.528  0.9236 -0.5839 -0.0643
 5958SOL    HW129336   1.933   1.767  12.453  2.3280  0.4906  1.2652
 5958SOL    HW229337   1.844   1.659  12.504  0.6489 -0.5955  0.3589
 5959SOL     OW29338   1.630   3.032  17.437  0.4993  0.5134 -0.1704
 5959SOL    HW129339   1.549   2.981  17.432  0.3453  0.9698 -2.3369
 5959SOL    HW229340   1.596   3.120  17.456 -2.3786 -0.3629 -1.2402
 5960SOL     OW29341   4.000   3.438   9.648  0.0442 -0.0498  0.8389
 5960SOL    HW129342   3.941   3.480   9.711  0.0378 -0.2407  0.9577
 5960SOL    HW229343   3.944   3.452   9.572  2.3178  0.7237 -0.7243
 5961SOL     OW29344   3.936   4.052  15.345  0.1741 -0.4979 -0.0501
 5961SOL    HW129345   3.999   4.026  15.278  0.1532 -0.8985  0.0815
 5961SOL    HW229346   3.901   4.135  15.311  1.9428  0.3058  0.1306
 5962SOL     OW29347   2.713   1.749  14.048  0.0787  0.2995 -0.1804
 5962SOL    HW129348   2.698   1.810  14.120 -1.0628  0.1677 -0.3113
 5962SOL    HW229349   2.687   1.665  14.085 -2.2087  1.4125  0.7012
 5963SOL     OW29350   4.134   3.775  16.422  0.3124 -0.0706  0.0383
 5963SOL    HW129351   4.040   3.761  16.439  0.2309  1.2278  0.7028
 5963SOL    HW229352   4.142   3.868  16.440  1.7275 -0.3574  0.8985
 5964SOL     OW29353   2.026   3.789   2.946 -0.2621 -0.0395  0.2645
 5964SOL    HW129354   1.948   3.801   3.000  0.4226  0.9625  1.0329
 5964SOL    HW229355   2.034   3.695   2.962  0.4021  0.5668  3.6631
 5965SOL     OW29356   4.582   4.037   5.216 -0.0775  0.0666 -0.1193
 5965SOL    HW129357   4.670   4.034   5.252  0.5505  1.4504 -1.5553
 5965SOL    HW229358   4.577   3.958   5.161  0.2907  1.5917 -2.3417
 5966SOL     OW29359   0.605   1.986   3.771  0.1955  0.1044 -0.6315
 5966SOL    HW129360   0.666   2.020   3.705  0.0211  2.5575  0.4803
 5966SOL    HW229361   0.581   1.907   3.723  0.0937 -1.0472  1.3231
 5967SOL     OW29362   2.856   1.614  12.560 -0.2091 -0.0088 -0.1248
 5967SOL    HW129363   2.866   1.700  12.519  2.5308 -1.5648 -2.6927
 5967SOL    HW229364   2.909   1.627  12.639 -0.2264 -0.1324 -0.0930
 5968SOL     OW29365   1.194   0.700   3.455  0.1155 -0.2750 -0.1419
 5968SOL    HW129366   1.153   0.711   3.541 -0.9262 -2.5384 -0.3664
 5968SOL    HW229367   1.205   0.793   3.436 -0.0586 -0.3635 -0.6616
 5969SOL     OW29368   3.723   1.503   3.013 -0.5247 -0.0756 -0.1136
 5969SOL    HW129369   3.735   1.596   2.995  0.2123 -0.4284 -1.4377
 5969SOL    HW229370   3.777   1.453   2.952 -0.9541 -1.5049  0.6788
 5970SOL     OW29371   1.839   0.259   5.881  0.0615 -0.3709 -0.2281
 5970SOL    HW129372   1.857   0.193   5.814  3.8063 -0.3209  0.7107
 5970SOL    HW229373   1.807   0.333   5.829 -0.5013 -1.3849 -1.3327
 5971SOL     OW29374   0.932   3.658   1.911  0.7613 -0.2311  0.2525
 5971SOL    HW129375   0.861   3.663   1.976 -0.4846 -0.9492 -1.0626
 5971SOL    HW229376   1.001   3.612   1.958 -0.8182 -2.0774  0.7765
 5972SOL     OW29377   0.729   4.414   7.180  0.5403  0.6669 -0.5288
 5972SOL    HW129378   0.768   4.434   7.265 -0.8672 -2.0804  0.7667
 5972SOL    HW229379   0.672   4.341   7.205  2.3948 -0.0969  1.5105
 5973SOL     OW29380   2.679   0.784   3.176 -0.1211  0.4942  0.1140
 5973SOL    HW129381   2.620   0.753   3.107  1.4767 -2.4406  0.0411
 5973SOL    HW229382   2.697   0.701   3.220 -0.0204 -0.1470 -1.1275
 5974SOL     OW29383   1.800   2.157  11.340  0.1178  0.6046 -0.0141
 5974SOL    HW129384   1.775   2.168  11.249 -0.7855 -0.2107  0.1416
 5974SOL    HW229385   1.886   2.200  11.335  1.3713 -2.0898 -1.4366
 5975SOL     OW29386   1.694   0.916  10.170 -0.4384  0.1853  0.3932
 5975SOL    HW129387   1.787   0.915  10.148 -0.2155 -0.1244  1.3550
 5975SOL    HW229388   1.684   0.835  10.218 -1.4000  0.0051 -0.0979
 5976SOL     OW29389   1.788   0.742   9.766  0.1863  0.1600  0.0937
 5976SOL    HW129390   1.724   0.802   9.804  0.3094  0.3998 -0.0801
 5976SOL    HW229391   1.739   0.701   9.696  0.4914 -0.0145 -0.0170
 5977SOL     OW29392   1.589   1.421   4.189  0.1297 -0.0706 -0.1809
 5977SOL    HW129393   1.581   1.326   4.182 -1.3198  0.0289  0.1664
 5977SOL    HW229394   1.610   1.421   4.283 -0.7388  1.8467  0.0033
 5978SOL     OW29395   2.921   0.648  15.881 -0.0250 -0.0094  0.6327
 5978SOL    HW129396   2.841   0.673  15.836  0.8909  0.1992 -0.8671
 5978SOL    HW229397   2.900   0.560  15.914  2.6202 -2.5511 -4.3987
 5979SOL     OW29398   3.161   0.391   5.060 -0.3072 -0.2397  0.1510
 5979SOL    HW129399   3.144   0.417   5.150 -0.1596 -1.5618  0.5571
 5979SOL    HW229400   3.162   0.475   5.012 -0.0820  0.2307  0.9859
 5980SOL     OW29401   1.522   3.476   2.922  0.3874  0.1340 -0.6495
 5980SOL    HW129402   1.454   3.409   2.931  0.7712  0.3817  4.2372
 5980SOL    HW229403   1.561   3.467   2.836  0.5031 -1.9891 -0.3716
 5981SOL     OW29404   3.539   2.423   3.476 -0.1282  0.1910  0.7506
 5981SOL    HW129405   3.455   2.417   3.431 -0.2351  2.5365  0.6300
 5981SOL    HW229406   3.510   2.377   3.554 -0.5249  2.1292  1.7193
 5982SOL     OW29407   4.258   4.419  17.449 -0.2673 -0.1281 -0.0082
 5982SOL    HW129408   4.178   4.380  17.485  0.0337 -0.9276 -0.2009
 5982SOL    HW229409   4.326   4.352  17.450 -1.4797 -1.3805 -1.5678
 5983SOL     OW29410   3.182   4.616   5.932  0.3997  0.2269  0.4457
 5983SOL    HW129411   3.186   4.598   5.838 -2.0942 -1.0141  0.5681
 5983SOL    HW229412   3.171   4.529   5.971 -2.0739  0.3826  0.0773
 5984SOL     OW29413   0.740   4.346   6.806 -0.5374  0.2163  0.1576
 5984SOL    HW129414   0.834   4.343   6.790 -0.6816 -2.4869 -0.2806
 5984SOL    HW229415   0.736   4.282   6.877  2.3658 -0.3792 -0.2217
 5985SOL     OW29416   3.571   1.405   8.882  0.3766  0.1631 -0.7389
 5985SOL    HW129417   3.511   1.408   8.956  0.2871 -0.3346 -0.7899
 5985SOL    HW229418   3.512   1.401   8.807 -1.5002 -0.8468  0.8251
 5986SOL     OW29419   4.063   0.145   7.605 -0.1645  0.2094  0.5320
 5986SOL    HW129420   4.063   0.098   7.522  0.6874  2.6138 -0.8214
 5986SOL    HW229421   4.152   0.180   7.612  0.3158 -0.3641 -2.6112
 5987SOL     OW29422   3.419   4.484   0.399  0.3819 -0.1578 -0.2464
 5987SOL    HW129423   3.419   4.529   0.484  1.4685  0.4995 -0.5837
 5987SOL    HW229424   3.465   4.546   0.341  0.3636  0.5711  0.5106
 5988SOL     OW29425   4.059   1.673   2.732  0.0368  0.4720 -0.3424
 5988SOL    HW129426   4.062   1.594   2.678  0.5008 -0.4422  1.0178
 5988SOL    HW229427   4.010   1.736   2.680 -3.0889 -1.4236  0.3291
 5989SOL     OW29428   0.478   2.018   0.380  0.2471  0.0855 -0.1976
 5989SOL    HW129429   0.453   1.934   0.417 -0.6183  0.1254 -0.6867
 5989SOL    HW229430   0.407   2.071   0.417  1.7923  0.6951  1.9311
 5990SOL     OW29431   4.247   1.725  14.484  0.0065 -0.8601  0.1956
 5990SOL    HW129432   4.179   1.750  14.421  1.6508 -0.2642 -1.3266
 5990SOL    HW229433   4.188   1.690  14.551 -0.3250 -1.4631 -0.4026
 5991SOL     OW29434   0.697   2.767  13.372  0.1972 -0.1324 -0.1916
 5991SOL    HW129435   0.675   2.674  13.381  0.3477 -0.2226 -0.7583
 5991SOL    HW229436   0.640   2.810  13.436 -0.2733 -0.9426 -0.0625
 5992SOL     OW29437   4.465   1.081   9.913  0.0445  0.1492 -0.3625
 5992SOL    HW129438   4.520   1.025   9.968 -1.1851  0.3017  1.0003
 5992SOL    HW229439   4.397   1.110   9.973 -0.4957  1.2882 -1.5184
 5993SOL     OW29440   2.424   0.591   3.709  0.1833 -0.3987  0.0382
 5993SOL    HW129441   2.384   0.585   3.796 -1.1752  0.0281 -0.5495
 5993SOL    HW229442   2.516   0.578   3.730  0.3516  1.1255  0.2519
 5994SOL     OW29443   1.906   0.963   6.925  0.0942 -0.0716  0.0816
 5994SOL    HW129444   1.861   0.917   6.996  3.6927 -3.9121 -0.1134
 5994SOL    HW229445   1.842   1.023   6.888 -0.0216 -1.3117 -1.6647
 5995SOL     OW29446   1.191   0.853   4.879 -0.0321  0.1356 -0.1203
 5995SOL    HW129447   1.131   0.797   4.830  0.8982 -1.1115  0.1715
 5995SOL    HW229448   1.159   0.939   4.850  0.4273  0.2580 -0.2697
 5996SOL     OW29449   0.199   0.218   0.467  0.1737  0.4686 -0.2774
 5996SOL    HW129450   0.235   0.293   0.418  0.7130  0.8123  0.6475
 5996SOL    HW229451   0.250   0.142   0.437 -0.4964 -0.1519  0.1856
 5997SOL     OW29452   3.013   2.247   2.716 -0.1091 -0.5924 -0.5802
 5997SOL    HW129453   3.067   2.201   2.781 -2.3893 -1.3300  0.7858
 5997SOL    HW229454   2.981   2.169   2.670 -1.1947 -0.9009  0.6835
 5998SOL     OW29455   2.142   3.632  12.423 -0.1125 -0.6511 -0.3679
 5998SOL    HW129456   2.079   3.683  12.473 -0.4409  0.0926 -1.5321
 5998SOL    HW229457   2.181   3.707  12.377  0.7420 -1.9636 -1.8035
 5999SOL     OW29458   3.855   0.159   3.294 -0.3155 -0.7710 -0.1638
 5999SOL    HW129459   3.918   0.229   3.309 -2.2458  0.6433  1.3432
 5999SOL    HW229460   3.769   0.195   3.317  0.4009  0.2771  0.8589
 6000SOL     OW29461   0.594   0.892   2.640 -0.1194  0.0283  0.1735
 6000SOL    HW129462   0.554   0.810   2.609  0.2279 -0.0730 -0.0094
 6000SOL    HW229463   0.629   0.926   2.558 -0.5953 -0.2209 -0.1391
 6001SOL     OW29464   3.194   2.194  10.352 -0.0231  0.3411 -0.4477
 6001SOL    HW129465   3.111   2.155  10.322  0.6075 -0.7355 -0.7745
 6001SOL    HW229466   3.229   2.120  10.401  0.4309  0.1659 -1.0400
 6002SOL     OW29467   4.241   1.549   4.936  0.3036  0.5442 -0.2022
 6002SOL    HW129468   4.264   1.639   4.961  0.8841  1.2894 -3.4702
 6002SOL    HW229469   4.241   1.551   4.841  0.8930 -2.6678 -0.2754
 6003SOL     OW29470   1.818   0.207   0.544 -0.8510  0.5545 -0.5649
 6003SOL    HW129471   1.882   0.254   0.491  1.6143 -2.7587 -0.5083
 6003SOL    HW229472   1.785   0.273   0.605 -0.1695 -0.1865  0.6192
 6004SOL     OW29473   3.607   3.457   3.751 -0.4492 -0.2492 -0.3556
 6004SOL    HW129474   3.537   3.486   3.809 -0.5953  0.1478 -0.7265
 6004SOL    HW229475   3.679   3.517   3.772 -0.4066 -0.5978  0.4742
 6005SOL     OW29476   1.742   1.251   7.009 -0.5227  0.0040 -0.3853
 6005SOL    HW129477   1.722   1.196   6.933  2.6238 -0.1403 -1.0965
 6005SOL    HW229478   1.710   1.333   6.971 -0.1956  0.7783  1.0239
 6006SOL     OW29479   0.564   1.046  12.191 -0.3710  0.0690 -0.3304
 6006SOL    HW129480   0.498   1.066  12.124 -0.5336 -2.0783 -0.7981
 6006SOL    HW229481   0.498   1.053  12.260 -1.9284 -0.7520 -1.7105
 6007SOL     OW29482   1.943   2.410   5.508 -0.0245 -0.2907 -0.1133
 6007SOL    HW129483   1.930   2.492   5.555  0.4977  0.7186 -1.7259
 6007SOL    HW229484   1.913   2.344   5.571 -0.5303 -0.2740 -0.3352
 6008SOL     OW29485   0.166   0.083   4.896 -0.3702  0.3832 -0.9535
 6008SOL    HW129486   0.135   0.029   4.969 -2.0884 -0.5228 -2.3756
 6008SOL    HW229487   0.195   0.160   4.946  0.8489 -0.7096  0.0272
 6009SOL     OW29488   1.189   0.801   4.520  0.0080  0.4798  0.2119
 6009SOL    HW129489   1.204   0.796   4.426 -2.0792  1.8098 -0.1765
 6009SOL    HW229490   1.198   0.710   4.548  2.0559  0.3775 -0.7358
 6010SOL     OW29491   3.419   2.742  10.256  0.4102 -0.2066 -0.0186
 6010SOL    HW129492   3.500   2.702  10.224 -0.1174 -0.2577 -1.2689
 6010SOL    HW229493   3.407   2.818  10.199  1.7252  0.9819  1.2658
 6011SOL     OW29494   3.712   1.173   8.922 -0.7020 -0.2565  0.7413
 6011SOL    HW129495   3.785   1.200   8.978 -1.9132  0.7050  1.8609
 6011SOL    HW229496   3.672   1.259   8.912  0.7267  0.2403 -0.7420
 6012SOL     OW29497   2.084   1.400   7.358 -0.6259  0.1714 -0.1832
 6012SOL    HW129498   2.154   1.345   7.323 -2.3762 -0.9213 -2.0519
 6012SOL    HW229499   2.125   1.486   7.365 -0.0603 -0.0704 -0.5637
 6013SOL     OW29500   4.048   1.732  11.029  0.7725 -0.1962  0.0493
 6013SOL    HW129501   4.113   1.662  11.039  2.2135  0.8967 -1.7876
 6013SOL    HW229502   3.985   1.723  11.101  0.1121 -0.0115 -0.5142
 6014SOL     OW29503   0.304   1.556   6.221 -1.4013  0.8104  0.0005
 6014SOL    HW129504   0.395   1.551   6.249 -1.6947 -0.6925  0.7032
 6014SOL    HW229505   0.294   1.646   6.190 -1.5048  0.4204 -1.1101
 6015SOL     OW29506   1.139   4.010  17.485 -0.0836 -0.0504 -0.4141
 6015SOL    HW129507   1.046   4.030  17.499  0.0397 -1.0811  2.0046
 6015SOL    HW229508   1.164   3.986  17.575  1.1045 -0.0071 -0.7345
 6016SOL     OW29509   1.543   0.636   7.356  0.3945 -0.0894  0.2372
 6016SOL    HW129510   1.540   0.611   7.448 -1.7873 -0.6295  0.0181
 6016SOL    HW229511   1.624   0.597   7.324  0.4839 -0.0818  0.4569
 6017SOL     OW29512   1.541   3.997  13.268  0.5216  0.0306  0.4667
 6017SOL    HW129513   1.560   4.018  13.176  2.0799  1.5099  1.1155
 6017SOL    HW229514   1.627   3.995  13.309  0.8047  0.6000 -0.1012
 6018SOL     OW29515   1.243   3.385  12.378  0.0900  0.0577 -0.7085
 6018SOL    HW129516   1.179   3.362  12.311  1.7274 -2.7713 -1.3072
 6018SOL    HW229517   1.186   3.410  12.450  0.9032 -0.2587  0.0441
 6019SOL     OW29518   3.082   1.075   7.823  0.5184  0.2527  0.0761
 6019SOL    HW129519   3.091   1.023   7.903  0.4200  0.1381  0.0136
 6019SOL    HW229520   3.009   1.134   7.844 -1.7123 -3.4426  2.8795
 6020SOL     OW29521   4.082   2.166   8.239  0.2177  0.1331  0.3355
 6020SOL    HW129522   4.003   2.198   8.283  1.2156  1.3661  1.2262
 6020SOL    HW229523   4.074   2.200   8.150 -2.9269 -0.3673  0.4405
 6021SOL     OW29524   2.896   0.350   5.793 -0.0384 -0.0152  0.0041
 6021SOL    HW129525   2.865   0.358   5.883  0.7603  1.2116  0.1811
 6021SOL    HW229526   2.879   0.438   5.759  0.0193  0.5915  1.5489
 6022SOL     OW29527   3.112   3.541   8.880  0.0537 -0.1116 -0.5654
 6022SOL    HW129528   3.072   3.593   8.949 -0.0443 -0.9104 -0.0116
 6022SOL    HW229529   3.162   3.476   8.930 -0.0509  1.4954  1.6353
 6023SOL     OW29530   0.282   0.456   5.770 -0.1269 -0.0873  0.3806
 6023SOL    HW129531   0.206   0.400   5.753 -0.4550  0.5293 -0.1780
 6023SOL    HW229532   0.256   0.537   5.725 -2.0841 -0.8760  0.0693
 6024SOL     OW29533   0.669   1.392   8.592 -0.0832 -0.7910  0.0067
 6024SOL    HW129534   0.737   1.392   8.525 -0.8389  0.2910 -0.7396
 6024SOL    HW229535   0.730   1.363   8.660 -0.9746 -0.3820  0.9901
 6025SOL     OW29536   1.097   4.129   5.655  0.8124 -0.7209  0.2421
 6025SOL    HW129537   1.053   4.060   5.704  2.0650 -1.5678  0.1605
 6025SOL    HW229538   1.063   4.104   5.569 -1.3676  0.4673  0.7304
 6026SOL     OW29539   4.411   1.073  16.833 -0.4955 -0.4479 -0.5346
 6026SOL    HW129540   4.403   1.013  16.907 -0.8951 -3.4860 -3.0201
 6026SOL    HW229541   4.319   1.095  16.816 -0.4232 -1.0194 -1.6658
 6027SOL     OW29542   1.123   3.567   2.089 -0.0003 -0.5033 -0.2324
 6027SOL    HW129543   1.130   3.649   2.137  1.1547 -0.5412 -0.3471
 6027SOL    HW229544   1.183   3.509   2.136  1.6535  0.7041 -0.8781
 6028SOL     OW29545   1.811   0.194  13.622  0.3901  0.1191 -0.1932
 6028SOL    HW129546   1.857   0.154  13.695  1.6565  2.9844  0.5536
 6028SOL    HW229547   1.785   0.276  13.665 -1.5447 -1.1988  1.1682
 6029SOL     OW29548   2.457   4.058   3.766 -0.2526 -0.5329 -0.2739
 6029SOL    HW129549   2.457   4.137   3.820  1.8247 -1.0239  0.4492
 6029SOL    HW229550   2.404   3.999   3.819 -1.4226  0.3744 -0.4384
 6030SOL     OW29551   3.567   1.647   7.643  0.2578 -0.3843  0.4929
 6030SOL    HW129552   3.587   1.564   7.685 -0.7837  0.4874  2.6996
 6030SOL    HW229553   3.582   1.624   7.551  0.5294 -0.4373  0.5500
 6031SOL     OW29554   0.444   1.321   2.381 -0.3003  0.5044  0.4629
 6031SOL    HW129555   0.366   1.330   2.327 -0.5786 -0.4371  0.7058
 6031SOL    HW229556   0.452   1.411   2.413 -0.7721  0.2480  1.3144
 6032SOL     OW29557   1.273   2.946   8.360 -0.1222  0.1524 -0.0795
 6032SOL    HW129558   1.259   2.854   8.336  1.1139 -0.5820  2.0103
 6032SOL    HW229559   1.183   2.980   8.351 -0.1441 -0.0310 -0.5565
 6033SOL     OW29560   2.743   1.681   6.457 -0.7772 -0.1199  0.2963
 6033SOL    HW129561   2.815   1.627   6.488 -1.3675 -1.6728 -0.9793
 6033SOL    HW229562   2.732   1.656   6.365  0.1879  0.7096 -0.0368
 6034SOL     OW29563   1.605   0.100   7.343  0.6276  0.2722 -0.4333
 6034SOL    HW129564   1.600   0.169   7.409  1.6420 -1.3659  1.3284
 6034SOL    HW229565   1.700   0.089   7.338  0.6010 -0.0233 -0.2912
 6035SOL     OW29566   3.239   4.138   5.998  0.8095  0.1225 -0.1824
 6035SOL    HW129567   3.295   4.116   6.072  0.3293  0.1719  0.2020
 6035SOL    HW229568   3.270   4.081   5.928 -0.9286  0.8847 -1.5936
 6036SOL     OW29569   0.156   2.553   6.477 -0.1652 -0.0121  0.4702
 6036SOL    HW129570   0.074   2.556   6.429  0.1387 -1.9048 -0.1762
 6036SOL    HW229571   0.175   2.461   6.459 -3.4808 -0.7406  0.7517
 6037SOL     OW29572   2.616   1.901  14.261  0.6065  0.6466  0.3402
 6037SOL    HW129573   2.636   1.956  14.337 -0.5497  0.9096  0.4508
 6037SOL    HW229574   2.530   1.935  14.234 -0.1684 -0.5173  1.3623
 6038SOL     OW29575   2.855   1.655  10.686  0.0528  0.5149 -0.3422
 6038SOL    HW129576   2.927   1.600  10.653  1.0259  0.5399  1.6869
 6038SOL    HW229577   2.899   1.740  10.692  1.4097 -0.4356  3.3842
 6039SOL     OW29578   3.428   1.196  12.238 -0.0898 -0.4340  0.2314
 6039SOL    HW129579   3.413   1.216  12.330  3.4008 -0.9206  0.9059
 6039SOL    HW229580   3.497   1.257  12.213 -0.1667 -0.4054  0.0888
 6040SOL     OW29581   2.580   2.304   1.716 -0.4402 -0.2319 -1.2390
 6040SOL    HW129582   2.613   2.383   1.759 -0.5814 -1.9216  2.0102
 6040SOL    HW229583   2.516   2.334   1.653 -0.9897 -0.7606 -0.9364
 6041SOL     OW29584   0.570   2.281   5.586  1.0745 -0.0450  0.1288
 6041SOL    HW129585   0.574   2.370   5.621 -1.9335  0.3966 -0.7174
 6041SOL    HW229586   0.646   2.272   5.528  1.2194 -0.5668  0.4035
 6042SOL     OW29587   2.283   4.431  13.236 -0.3723 -0.0481 -0.0693
 6042SOL    HW129588   2.318   4.491  13.301  0.0074 -1.2176  0.8220
 6042SOL    HW229589   2.344   4.424  13.163  0.8168  1.6849  0.7812
 6043SOL     OW29590   1.226   1.451  17.343  0.0728 -0.2248  0.2088
 6043SOL    HW129591   1.155   1.398  17.307 -1.5690  0.5928  2.1639
 6043SOL    HW229592   1.264   1.483  17.261 -0.5351  0.8426  0.3360
 6044SOL     OW29593   0.749   0.792   2.852  0.1388 -0.2539 -0.0801
 6044SOL    HW129594   0.694   0.837   2.788  0.2232  1.9236  1.3962
 6044SOL    HW229595   0.838   0.821   2.833 -0.1539  0.4253 -0.4171
 6045SOL     OW29596   1.935   1.381   4.294  0.3298 -1.1415  0.3505
 6045SOL    HW129597   1.847   1.382   4.331 -0.1301 -1.0059 -0.7422
 6045SOL    HW229598   1.932   1.451   4.228 -0.3094 -0.2242  1.3443
 6046SOL     OW29599   4.709   0.429   6.040  0.8703 -0.3059 -0.0923
 6046SOL    HW129600   0.044   0.370   6.090 -0.4749 -1.0167  0.5556
 6046SOL    HW229601   0.049   0.503   6.039 -0.5002  0.8693  3.6457
 6047SOL     OW29602   2.590   0.773  17.334 -0.3701  0.1411 -0.3908
 6047SOL    HW129603   2.593   0.746  17.426  1.0252  0.0840 -0.4392
 6047SOL    HW229604   2.643   0.853  17.327 -0.7531  0.5601  1.4164
 6048SOL     OW29605   0.253   1.692  13.634 -0.2834 -0.4903 -0.0308
 6048SOL    HW129606   0.335   1.691  13.584 -1.3785  0.9238 -1.8347
 6048SOL    HW229607   0.278   1.771  13.683 -1.1481  0.5999 -1.3452
 6049SOL     OW29608   1.331   3.923   2.895 -0.0626 -0.0162 -0.0212
 6049SOL    HW129609   1.386   3.982   2.844  0.7427  1.6326  2.7289
 6049SOL    HW229610   1.286   3.993   2.943 -1.7156 -0.1825 -1.3284
 6050SOL     OW29611   2.523   4.661  15.755  0.4069  0.5600  0.1615
 6050SOL    HW129612   2.486   0.023  15.785 -2.4650 -1.8844  3.4353
 6050SOL    HW229613   2.449   4.600  15.761  1.0671 -0.3718 -1.1654
 6051SOL     OW29614   2.011   3.497   7.641 -0.4857  0.0164 -0.3973
 6051SOL    HW129615   2.052   3.426   7.592  0.2616  1.3422 -1.6653
 6051SOL    HW229616   1.918   3.474   7.643 -0.0945 -1.7874 -2.5848
 6052SOL     OW29617   3.162   3.361   2.232  0.1511 -0.2440 -0.3908
 6052SOL    HW129618   3.236   3.394   2.181 -0.7219  0.9584 -0.8720
 6052SOL    HW229619   3.202   3.312   2.304  1.4589 -2.6784 -2.7818
 6053SOL     OW29620   4.368   2.340  16.820  0.0536 -0.1032  0.3154
 6053SOL    HW129621   4.392   2.336  16.728  2.3874 -1.3727  0.9615
 6053SOL    HW229622   4.442   2.299  16.865  0.6552  0.7344  0.0865
 6054SOL     OW29623   2.076   1.533  17.268 -0.1006 -0.2251 -0.7764
 6054SOL    HW129624   2.012   1.464  17.288  0.7261 -1.3937 -2.1148
 6054SOL    HW229625   2.041   1.615  17.302 -2.1632 -0.7307 -1.6593
 6055SOL     OW29626   1.619   3.569   7.187 -0.1313 -0.7274  0.0854
 6055SOL    HW129627   1.614   3.507   7.113  0.6625  1.4471 -1.7920
 6055SOL    HW229628   1.585   3.652   7.154 -2.2683 -0.6684  2.4610
 6056SOL     OW29629   1.952   1.701   3.497 -0.6094  0.3372  0.1755
 6056SOL    HW129630   1.888   1.761   3.535 -0.8467  0.1933  0.0001
 6056SOL    HW229631   1.886   1.650   3.450 -0.7840  0.6463  0.0825
 6057SOL     OW29632   1.559   3.150   8.584  0.3204  0.1038  0.2114
 6057SOL    HW129633   1.486   3.191   8.630  1.3632  1.9030  0.2638
 6057SOL    HW229634   1.539   3.165   8.491  1.1345  0.6988  0.1328
 6058SOL     OW29635   3.710   2.203   8.084 -0.3791  0.1821 -0.2452
 6058SOL    HW129636   3.615   2.191   8.074 -0.2816 -1.0157  0.2117
 6058SOL    HW229637   3.731   2.154   8.164 -0.5604 -0.8483 -0.8303
 6059SOL     OW29638   2.782   1.608   8.378 -0.4338  0.0119 -0.1098
 6059SOL    HW129639   2.834   1.578   8.453  0.1725  0.2865 -0.4168
 6059SOL    HW229640   2.705   1.553   8.391 -1.2437  0.7181 -1.9981
 6060SOL     OW29641   4.590   4.277   5.382 -0.1192 -0.3174 -0.1806
 6060SOL    HW129642   4.578   4.249   5.473 -0.2580  1.3300  0.3020
 6060SOL    HW229643   4.559   4.203   5.330  0.2512 -0.1960 -0.5699
 6061SOL     OW29644   2.530   3.860   6.502  0.7318  0.4083 -0.7467
 6061SOL    HW129645   2.594   3.803   6.459  0.2415  0.6160 -1.7511
 6061SOL    HW229646   2.554   3.836   6.591  0.7618 -0.1652 -0.9105
 6062SOL     OW29647   2.131   1.172   2.833  0.2198  0.4590  0.3220
 6062SOL    HW129648   2.048   1.209   2.804 -0.2659 -1.2286 -0.4983
 6062SOL    HW229649   2.184   1.192   2.755  0.5106 -0.9520  0.1591
 6063SOL     OW29650   4.296   3.738   6.608  0.0275  0.3953 -0.2503
 6063SOL    HW129651   4.349   3.677   6.558 -2.4615 -1.2546 -0.8546
 6063SOL    HW229652   4.251   3.669   6.656 -2.8786  0.4854 -2.8682
 6064SOL     OW29653   3.096   0.936   0.304  0.0820  0.1226 -0.1052
 6064SOL    HW129654   3.148   1.013   0.330 -1.0934  0.7124  0.4830
 6064SOL    HW229655   3.131   0.864   0.356  0.6161  0.7526  0.4164
 6065SOL     OW29656   3.967   2.797   5.261  0.4191 -0.4038 -0.0293
 6065SOL    HW129657   3.969   2.784   5.166  0.2724  1.3424 -0.2739
 6065SOL    HW229658   3.894   2.858   5.273  0.5963 -0.4521  1.3057
 6066SOL     OW29659   3.140   2.076   7.494 -0.3508 -0.3014 -0.4467
 6066SOL    HW129660   3.077   2.054   7.563  1.1858 -0.6228  0.8525
 6066SOL    HW229661   3.219   2.091   7.545 -1.1788  2.1037  0.1476
 6067SOL     OW29662   3.047   2.311   4.907 -0.2643  0.4100  0.0102
 6067SOL    HW129663   3.128   2.287   4.863 -1.0184 -2.1199  0.0166
 6067SOL    HW229664   3.026   2.238   4.965  2.2158 -0.5669 -0.3421
 6068SOL     OW29665   4.263   1.916   5.320  0.1189 -0.2166  0.0423
 6068SOL    HW129666   4.235   1.827   5.341  4.2061 -1.0318  2.0645
 6068SOL    HW229667   4.342   1.923   5.374 -0.1627  0.2971  0.3883
 6069SOL     OW29668   3.088   3.445   4.265 -0.2359 -0.1591  0.0575
 6069SOL    HW129669   2.996   3.433   4.239  0.3620 -0.1576 -2.0679
 6069SOL    HW229670   3.074   3.499   4.342 -1.7991 -0.5852  0.0829
 6070SOL     OW29671   4.441   1.591   5.851 -0.5437 -0.5845  0.6579
 6070SOL    HW129672   4.403   1.504   5.851 -2.2070  0.1356  0.2722
 6070SOL    HW229673   4.370   1.635   5.804  0.6481  0.6732  0.0084
 6071SOL     OW29674   2.674   1.429   8.126  0.5819  0.3040 -0.1404
 6071SOL    HW129675   2.717   1.470   8.050  1.8068 -1.8264 -0.6207
 6071SOL    HW229676   2.722   1.482   8.189  0.1338  0.7806 -0.1986
 6072SOL     OW29677   1.554   4.065  13.955 -0.3764 -0.0822  0.0122
 6072SOL    HW129678   1.462   4.074  13.979 -0.1381  1.8917  0.1601
 6072SOL    HW229679   1.562   4.144  13.902  1.9781  1.5010  2.7236
 6073SOL     OW29680   3.716   4.617   1.542  0.7863  0.6925  0.3128
 6073SOL    HW129681   3.707   4.696   1.489 -0.1097 -0.7927 -1.7443
 6073SOL    HW229682   3.721   4.543   1.481  0.7274  0.8038  0.1734
 6074SOL     OW29683   1.685   2.168   0.498 -0.2885  0.3870 -0.1020
 6074SOL    HW129684   1.698   2.144   0.590  0.3011 -1.2130 -0.6099
 6074SOL    HW229685   1.589   2.169   0.504 -0.2739 -1.1053  0.3959
 6075SOL     OW29686   3.580   3.942  12.107  0.9494 -0.4430  0.1070
 6075SOL    HW129687   3.664   3.898  12.122  1.6069  1.1028  0.9081
 6075SOL    HW229688   3.521   3.884  12.156  1.0787  0.1516  0.9529
 6076SOL     OW29689   3.241   4.233   0.064 -0.0338 -0.1567  0.4824
 6076SOL    HW129690   3.162   4.183   0.045  0.0450 -0.9403  2.1507
 6076SOL    HW229691   3.315   4.173   0.054  0.8783  0.9916  0.3412
 6077SOL     OW29692   0.611   0.421  10.654 -0.6936 -0.2414 -0.2535
 6077SOL    HW129693   0.600   0.345  10.710 -0.3202  0.8869  1.3759
 6077SOL    HW229694   0.626   0.491  10.719 -0.7891  0.0979 -0.5956
 6078SOL     OW29695   2.828   1.730  11.027  0.2968  0.4893  0.1404
 6078SOL    HW129696   2.830   1.810  10.974  0.9702 -0.4154 -1.1788
 6078SOL    HW229697   2.747   1.745  11.075  0.4537 -1.5611  1.0576
 6079SOL     OW29698   2.721   2.264  16.960 -0.0783 -0.2099  0.0520
 6079SOL    HW129699   2.750   2.174  16.945  2.7386  0.2725  2.3780
 6079SOL    HW229700   2.717   2.301  16.872 -0.0032  0.0149  0.1434
 6080SOL     OW29701   3.534   3.818   2.271 -1.0332  0.5416 -0.0481
 6080SOL    HW129702   3.540   3.898   2.324 -0.7243  0.7115 -0.3374
 6080SOL    HW229703   3.622   3.781   2.263 -1.5310 -0.5448 -0.4817
 6081SOL     OW29704   3.350   3.266  11.004 -0.2529  0.2768 -0.4579
 6081SOL    HW129705   3.261   3.300  11.006 -1.0723 -1.9293 -0.4056
 6081SOL    HW229706   3.394   3.314  11.075 -2.2496  0.8186  0.4169
 6082SOL     OW29707   4.568   0.205  12.823 -0.2685  0.6029 -0.2103
 6082SOL    HW129708   4.621   0.172  12.750 -0.3916  0.5923 -0.2962
 6082SOL    HW229709   4.617   0.286  12.834  0.0318  0.7070 -2.2969
 6083SOL     OW29710   4.314   4.613  12.738  0.0134  0.1997 -0.0439
 6083SOL    HW129711   4.331   4.536  12.683 -3.0403  1.1127 -2.2436
 6083SOL    HW229712   4.291   4.688  12.682  3.7045  1.5151  0.2033
 6084SOL     OW29713   1.466   3.309   7.490 -0.4237 -0.0385  0.5114
 6084SOL    HW129714   1.539   3.253   7.515 -0.4943 -0.8368 -1.0669
 6084SOL    HW229715   1.507   3.393   7.472  0.5276 -0.4987  0.5075
 6085SOL     OW29716   0.184   1.066  17.380 -0.0369 -0.0303  0.3878
 6085SOL    HW129717   0.227   0.983  17.403  0.2000 -0.0629 -0.1928
 6085SOL    HW229718   0.129   1.071  17.458  0.7293  1.1914  0.8422
 6086SOL     OW29719   1.794   0.494   5.737  0.2436 -0.5660  0.6061
 6086SOL    HW129720   1.861   0.529   5.678 -1.9433  0.2025 -1.4347
 6086SOL    HW229721   1.778   0.566   5.797 -0.9108 -1.3163  1.1936
 6087SOL     OW29722   2.570   2.183  13.033  0.1330  0.1755 -0.1223
 6087SOL    HW129723   2.610   2.225  12.957 -0.0631 -0.5831 -0.6385
 6087SOL    HW229724   2.633   2.113  13.042  1.4701  1.5930  1.6418
 6088SOL     OW29725   3.664   1.266   3.128 -0.1665 -0.6120 -0.3347
 6088SOL    HW129726   3.593   1.223   3.079 -0.8692 -1.4066  1.3674
 6088SOL    HW229727   3.658   1.356   3.098  1.3528  0.1665  1.6833
 6089SOL     OW29728   1.908   0.690   4.242  0.1176 -0.1529 -0.1044
 6089SOL    HW129729   1.953   0.628   4.300 -2.7450 -0.5843  1.6209
 6089SOL    HW229730   1.959   0.768   4.266 -2.5743  1.4714  0.2827
 6090SOL     OW29731   4.260   3.916   4.855 -0.5665 -0.4050 -0.0995
 6090SOL    HW129732   4.267   3.855   4.781 -0.2082  0.2733 -0.6222
 6090SOL    HW229733   4.231   3.857   4.925  0.3672  0.7134  1.2018
 6091SOL     OW29734   2.679   1.470  12.964 -0.1410  0.0875 -0.4087
 6091SOL    HW129735   2.745   1.422  12.914 -0.8828 -0.3083 -0.9968
 6091SOL    HW229736   2.732   1.514  13.032 -1.7103  1.6979 -0.2084
 6092SOL     OW29737   0.329   2.512   4.365  0.5312 -1.0175 -0.6228
 6092SOL    HW129738   0.272   2.437   4.348  0.8623 -1.6720  1.0785
 6092SOL    HW229739   0.411   2.463   4.363  1.1337 -0.0300 -0.1327
 6093SOL     OW29740   0.176   2.471   3.817  0.5202 -0.4047 -1.1356
 6093SOL    HW129741   0.204   2.543   3.872  0.4288  0.7505 -2.5863
 6093SOL    HW229742   0.092   2.444   3.854  1.2438 -0.0957  0.7045
 6094SOL     OW29743   0.635   0.998  15.382  0.2564  0.5847  0.1637
 6094SOL    HW129744   0.581   0.959  15.451  1.0119 -1.8027 -0.5927
 6094SOL    HW229745   0.585   1.079  15.370  0.7673  0.7789 -0.6307
 6095SOL     OW29746   3.304   1.691   8.897  0.0951  0.0543  0.0335
 6095SOL    HW129747   3.368   1.723   8.834  1.0015 -0.1224  0.8659
 6095SOL    HW229748   3.237   1.652   8.840  1.1221  0.9572 -1.7743
 6096SOL     OW29749   1.818   4.321   7.694 -0.5990  0.0273  0.6768
 6096SOL    HW129750   1.775   4.296   7.611  1.0404  0.9926 -0.4644
 6096SOL    HW229751   1.749   4.380   7.725 -0.5049  0.8995 -0.7599
 6097SOL     OW29752   0.753   0.935   6.726  0.2914  0.6621  0.1036
 6097SOL    HW129753   0.688   0.880   6.682 -1.7965  3.0358  0.2473
 6097SOL    HW229754   0.812   0.951   6.653 -1.7753  0.0248 -1.7034
 6098SOL     OW29755   4.335   3.110   3.487 -0.4058 -0.1362 -0.2494
 6098SOL    HW129756   4.330   3.073   3.575  1.5945  0.6201  0.1738
 6098SOL    HW229757   4.363   3.030   3.442  2.3125  0.9101 -0.3633
 6099SOL     OW29758   1.523   0.786   0.934 -0.0704  0.2302 -0.0066
 6099SOL    HW129759   1.596   0.754   0.987  0.3137  0.3607 -0.4596
 6099SOL    HW229760   1.549   0.877   0.920  0.4382  0.4917  2.6878
 6100SOL     OW29761   4.226   1.723   9.782  0.4404 -0.2032 -0.2855
 6100SOL    HW129762   4.165   1.737   9.710 -0.9721  1.1058  1.1549
 6100SOL    HW229763   4.175   1.724   9.864 -0.5051  0.9786 -0.8852
 6101SOL     OW29764   0.915   3.263   1.467 -0.7278  0.0335 -0.2814
 6101SOL    HW129765   0.921   3.290   1.375  0.1089 -0.3011 -0.3202
 6101SOL    HW229766   0.898   3.352   1.499  1.9341  0.3998  0.0725
 6102SOL     OW29767   0.822   3.243   9.008  0.2137 -0.1505  0.1705
 6102SOL    HW129768   0.909   3.235   9.047 -0.4129  0.1433  1.6506
 6102SOL    HW229769   0.785   3.320   9.053 -0.2590 -0.6495  0.6352
 6103SOL     OW29770   4.254   1.503   8.160  0.5149  0.9356  0.0137
 6103SOL    HW129771   4.299   1.581   8.129 -0.2017  0.6628 -1.7332
 6103SOL    HW229772   4.171   1.508   8.111  0.6958 -3.1959 -0.6851
 6104SOL     OW29773   3.337   2.282   8.884 -0.3120 -0.4921 -0.2335
 6104SOL    HW129774   3.391   2.251   8.956  1.7090 -0.0446 -1.5563
 6104SOL    HW229775   3.278   2.348   8.922  0.9331  0.4182  0.1302
 6105SOL     OW29776   1.725   4.035   1.898  0.1905 -0.0941  0.0754
 6105SOL    HW129777   1.787   3.963   1.892 -1.0086 -0.9970 -1.5949
 6105SOL    HW229778   1.715   4.048   1.803 -3.3143  2.3865  0.7653
 6106SOL     OW29779   2.122   2.770   7.961  0.2071  0.3528  0.3054
 6106SOL    HW129780   2.074   2.841   8.003 -0.6036 -0.5033  0.8438
 6106SOL    HW229781   2.182   2.814   7.901  0.9276 -0.6858  0.2613
 6107SOL     OW29782   1.575   0.672   9.544  0.0102 -0.2955  0.4941
 6107SOL    HW129783   1.580   0.761   9.510 -1.2156 -0.8861 -1.2240
 6107SOL    HW229784   1.482   0.650   9.557 -0.3887  0.9554 -0.2574
 6108SOL     OW29785   0.431   3.537   4.798  0.1911 -0.4014  0.6928
 6108SOL    HW129786   0.412   3.472   4.866 -4.8235  0.6656  0.3047
 6108SOL    HW229787   0.366   3.505   4.736 -1.6321  0.0205  2.3819
 6109SOL     OW29788   1.795   4.667   5.675 -0.0724  0.5401  0.4630
 6109SOL    HW129789   1.884   4.653   5.642 -0.8591  2.3007 -2.4197
 6109SOL    HW229790   1.751   4.628   5.600  0.8154  0.3388  0.0490
 6110SOL     OW29791   4.243   3.993   0.855 -0.1429 -0.7741 -0.3191
 6110SOL    HW129792   4.312   4.026   0.912 -0.6103 -2.1313  1.0582
 6110SOL    HW229793   4.236   4.066   0.794 -0.4510 -1.8531 -1.5905
 6111SOL     OW29794   4.333   0.082   0.320  0.0713 -0.1673 -0.4091
 6111SOL    HW129795   4.414   0.033   0.305  1.1724  1.2051  1.0675
 6111SOL    HW229796   4.282   0.018   0.369 -1.8492  1.0719 -0.8009
 6112SOL     OW29797   3.351   0.476   7.056 -0.4856  0.9099 -0.3432
 6112SOL    HW129798   3.360   0.458   6.963 -1.5039 -0.7831 -0.1123
 6112SOL    HW229799   3.272   0.531   7.051 -0.7793  0.3570 -1.8288
 6113SOL     OW29800   3.604   1.610  14.360 -0.0322 -0.0616 -0.6194
 6113SOL    HW129801   3.597   1.573  14.448  2.7187  1.9015  0.4232
 6113SOL    HW229802   3.520   1.579  14.325 -0.3751  0.3187 -0.1332
 6114SOL     OW29803   0.619   3.428  17.287 -0.0738 -0.2106  0.0647
 6114SOL    HW129804   0.597   3.386  17.204 -0.9837 -4.5195  2.4524
 6114SOL    HW229805   0.693   3.484  17.264 -0.0403 -0.9077 -1.5380
 6115SOL     OW29806   1.500   2.108  10.548  0.1596 -0.1780 -0.4894
 6115SOL    HW129807   1.448   2.067  10.617  2.1728  0.3803  1.3459
 6115SOL    HW229808   1.480   2.052  10.473  1.1781  1.0785 -1.7080
 6116SOL     OW29809   2.987   1.349   8.421 -0.4288  0.5050  0.2899
 6116SOL    HW129810   3.031   1.271   8.453  0.9141  1.8428  1.7249
 6116SOL    HW229811   3.066   1.396   8.393  0.5799 -1.3529  0.0610
 6117SOL     OW29812   3.002   3.627  15.306 -0.2847  0.1084 -0.3651
 6117SOL    HW129813   2.944   3.567  15.353 -1.3461  0.6051 -1.0340
 6117SOL    HW229814   3.065   3.558  15.284  0.5886  1.5596 -2.3882
 6118SOL     OW29815   2.682   1.491   9.398  0.0159 -0.3010  0.2761
 6118SOL    HW129816   2.765   1.444   9.402  0.0220 -0.0760  2.5533
 6118SOL    HW229817   2.681   1.516   9.490 -1.1860 -0.7900  0.3939
 6119SOL     OW29818   3.363   3.078   2.296  0.6628  1.1408 -0.0354
 6119SOL    HW129819   3.323   2.996   2.267  1.6395  1.2336 -1.6533
 6119SOL    HW229820   3.328   3.091   2.384 -1.6495 -1.3596 -0.5771
 6120SOL     OW29821   4.047   3.266   9.270 -1.0019  0.1722 -0.0369
 6120SOL    HW129822   4.109   3.225   9.331 -0.6817  2.4981  1.2103
 6120SOL    HW229823   4.017   3.195   9.214  0.1459  1.8729 -2.8344
 6121SOL     OW29824   2.419   0.610   3.079 -0.5777 -0.1314  0.4471
 6121SOL    HW129825   2.330   0.641   3.059 -0.1738  0.5362 -0.3192
 6121SOL    HW229826   2.454   0.656   3.003  0.5966 -1.6522  0.0813
 6122SOL     OW29827   2.275   3.899   3.916  0.7258  0.1375  0.2359
 6122SOL    HW129828   2.307   3.808   3.922  0.3202  0.1316  2.1849
 6122SOL    HW229829   2.252   3.918   4.007 -1.2112 -0.6070 -0.1004
 6123SOL     OW29830   2.248   4.718   1.761 -0.2235 -0.5333 -0.0032
 6123SOL    HW129831   2.259   4.655   1.832  0.4909  0.4890  0.7843
 6123SOL    HW229832   2.331   4.717   1.713 -0.4428 -0.9461 -0.3721
 6124SOL     OW29833   3.744   3.775   7.191  0.7789  0.0981  0.4675
 6124SOL    HW129834   3.743   3.685   7.158 -0.8349  0.1546  0.3682
 6124SOL    HW229835   3.697   3.816   7.119  0.1939 -0.4740  0.5259
 6125SOL     OW29836   1.868   0.778   2.877  0.2400  0.0401  0.0466
 6125SOL    HW129837   1.875   0.704   2.817 -1.6587 -0.8002  0.8709
 6125SOL    HW229838   1.871   0.854   2.819  1.4386 -0.6211 -0.7678
 6126SOL     OW29839   0.224   2.723   7.797  0.0781 -0.5113 -0.1782
 6126SOL    HW129840   0.140   2.678   7.790 -0.6921  0.8753  0.2251
 6126SOL    HW229841   0.252   2.723   7.889 -2.5600 -1.6085  0.6434
 6127SOL     OW29842   3.316   0.035   7.888 -0.0975 -0.4753 -0.1108
 6127SOL    HW129843   3.336   4.678   7.837 -2.4023 -0.4885 -0.9735
 6127SOL    HW229844   3.316   0.100   7.818 -0.8080 -2.1092 -1.6354
 6128SOL     OW29845   2.248   3.008   3.376  0.0277 -0.0675  0.9284
 6128SOL    HW129846   2.274   2.916   3.380  0.2604 -0.1359 -1.8589
 6128SOL    HW229847   2.225   3.008   3.469 -1.1610  0.9188  0.6370
 6129SOL     OW29848   4.527   0.249   0.966 -0.4749 -0.8310 -0.2764
 6129SOL    HW129849   4.569   0.163   0.962  0.4320 -0.4902  2.0632
 6129SOL    HW229850   4.493   0.254   0.876  1.6199 -1.9307 -1.1249
 6130SOL     OW29851   0.640   3.553   6.758 -0.3922 -0.6054 -0.6595
 6130SOL    HW129852   0.548   3.534   6.736 -0.9428  0.3465  0.8807
 6130SOL    HW229853   0.640   3.483   6.823  0.6687  1.5482  1.6176
 6131SOL     OW29854   0.113   3.914   1.756 -0.2311 -0.1368 -0.2243
 6131SOL    HW129855   0.154   3.955   1.680 -1.2480  1.1626 -0.0656
 6131SOL    HW229856   0.059   3.846   1.716 -1.9513  2.5538 -2.4854
 6132SOL     OW29857   3.505   4.690   7.210 -0.1158 -0.0117 -0.6646
 6132SOL    HW129858   3.418   4.668   7.242 -0.0602  0.2794 -0.3089
 6132SOL    HW229859   3.514   4.636   7.132  0.9617 -1.6176  0.5503
 6133SOL     OW29860   2.062   2.208   7.761  0.3906  0.0383  0.0854
 6133SOL    HW129861   2.004   2.148   7.807  0.5670 -0.2590 -0.0740
 6133SOL    HW229862   2.071   2.151   7.684 -0.9305  2.2368 -1.7085
 6134SOL     OW29863   0.843   1.850   9.020 -0.5525 -0.5085  0.8490
 6134SOL    HW129864   0.931   1.868   9.050  0.1517 -1.4900 -0.6258
 6134SOL    HW229865   0.841   1.864   8.925  3.0660  0.4206  0.9518
 6135SOL     OW29866   3.697   2.411   7.636  0.1912 -0.7493  0.6599
 6135SOL    HW129867   3.755   2.487   7.639  0.4840 -0.9095 -1.3680
 6135SOL    HW229868   3.771   2.351   7.626  0.7607  0.1083 -0.2066
 6136SOL     OW29869   1.567   2.305   7.600 -0.3626 -0.7238  0.4368
 6136SOL    HW129870   1.476   2.301   7.631 -1.1486 -1.4834 -1.9714
 6136SOL    HW229871   1.552   2.373   7.535  2.8192 -1.2526 -0.8189
 6137SOL     OW29872   3.992   4.139   9.470 -0.1374  0.0825  0.2068
 6137SOL    HW129873   3.979   4.108   9.560  1.9122  1.1411  0.8495
 6137SOL    HW229874   4.020   4.062   9.420 -0.0128 -1.0339  1.9932
 6138SOL     OW29875   2.537   2.363   3.269 -0.3163  0.1151 -0.0090
 6138SOL    HW129876   2.462   2.332   3.320  0.5050 -0.9946  0.5479
 6138SOL    HW229877   2.588   2.407   3.337 -0.2141 -1.2975  0.8381
 6139SOL     OW29878   3.387   0.773   1.806  0.4765 -0.5736 -0.1185
 6139SOL    HW129879   3.430   0.798   1.724  0.8018 -0.1587  0.1817
 6139SOL    HW229880   3.293   0.787   1.791  0.7645  0.4961 -0.8690
 6140SOL     OW29881   1.108   0.393   6.250  0.0290  0.0537 -0.2310
 6140SOL    HW129882   1.128   0.315   6.197  0.7403  1.0301 -1.3837
 6140SOL    HW229883   1.042   0.360   6.311  0.1030  0.5655  0.1272
 6141SOL     OW29884   3.065   3.147   8.745 -0.2461  0.2311  0.1857
 6141SOL    HW129885   3.028   3.059   8.740 -1.2993  0.5887  1.6102
 6141SOL    HW229886   3.134   3.142   8.679 -1.1662  3.1983 -1.0382
 6142SOL     OW29887   3.959   4.123   4.836 -0.2739 -0.4027 -0.4298
 6142SOL    HW129888   4.009   4.151   4.760 -1.3678  1.6259 -0.4108
 6142SOL    HW229889   4.014   4.053   4.870  0.8389  0.8091  0.2495
 6143SOL     OW29890   4.067   1.905   3.972 -0.1046 -0.1997 -0.1184
 6143SOL    HW129891   4.033   1.926   4.058 -0.1458 -1.8440  0.2779
 6143SOL    HW229892   4.004   1.938   3.908  0.9261  1.0023 -0.5071
 6144SOL     OW29893   1.997   3.664   5.072 -0.2929  0.0654 -0.2127
 6144SOL    HW129894   1.984   3.621   5.156 -0.0760 -0.0753 -0.2524
 6144SOL    HW229895   1.946   3.604   5.017  0.8036 -1.7637  0.7888
 6145SOL     OW29896   0.405   2.494   4.673  0.1311  0.1687 -0.2597
 6145SOL    HW129897   0.468   2.557   4.639  0.9130  0.5610  1.8884
 6145SOL    HW229898   0.451   2.410   4.667  2.7973  1.6726 -0.5520
 6146SOL     OW29899   4.506   4.029   3.773 -0.1066 -0.4436  0.7293
 6146SOL    HW129900   4.517   4.075   3.689  1.0708  1.2912  1.8264
 6146SOL    HW229901   4.427   4.074   3.801  0.6388  1.1296  0.3561
 6147SOL     OW29902   3.429   4.076   0.681  0.1674  0.3179 -0.3545
 6147SOL    HW129903   3.457   4.142   0.618 -0.9648  0.2739 -0.8846
 6147SOL    HW229904   3.365   4.124   0.733 -0.6419 -1.2719  0.1382
 6148SOL     OW29905   0.096   0.633   8.130 -0.0880  0.3287 -0.3878
 6148SOL    HW129906   0.072   0.635   8.038 -1.3213 -0.3965 -0.0853
 6148SOL    HW229907   0.191   0.643   8.131 -0.1983  1.3835 -1.1158
 6149SOL     OW29908   1.222   2.258   0.726 -0.9626 -0.5560 -0.0620
 6149SOL    HW129909   1.224   2.319   0.800 -1.9831  1.1113 -1.3967
 6149SOL    HW229910   1.129   2.240   0.709 -0.5171 -2.0630 -0.8962
 6150SOL     OW29911   3.675   4.171  14.923 -0.6621 -0.1506 -0.5394
 6150SOL    HW129912   3.677   4.099  14.860  0.0845 -1.3586  0.8673
 6150SOL    HW229913   3.582   4.194  14.930 -0.9096 -0.6688 -2.0940
 6151SOL     OW29914   0.686   2.493   0.600 -0.2297 -0.5653 -0.2933
 6151SOL    HW129915   0.658   2.576   0.561  3.1396  1.2134  1.1466
 6151SOL    HW229916   0.613   2.432   0.593 -0.1379 -0.6976 -0.0793
 6152SOL     OW29917   4.370   2.049   8.083 -0.1503 -0.4834 -0.6114
 6152SOL    HW129918   4.362   2.120   8.019 -1.8886  1.9046  2.2691
 6152SOL    HW229919   4.457   2.064   8.119 -0.7404 -0.0559  0.6491
 6153SOL     OW29920   3.236   2.695  14.767  0.1071  0.6582  0.3209
 6153SOL    HW129921   3.253   2.626  14.703  0.8130 -0.6488  1.9348
 6153SOL    HW229922   3.316   2.690  14.820 -0.4354 -0.3356  1.0440
 6154SOL     OW29923   1.955   3.765   8.294  0.3851 -0.2781 -0.3361
 6154SOL    HW129924   2.042   3.756   8.255  0.4167 -0.7086 -0.1599
 6154SOL    HW229925   1.902   3.778   8.215  0.3946 -1.3402 -0.5198
 6155SOL     OW29926   0.206   4.592  12.731  0.1273 -0.6337 -0.3798
 6155SOL    HW129927   0.191   4.515  12.677  0.6844 -0.5434 -0.6647
 6155SOL    HW229928   0.301   4.593  12.743 -0.0505 -0.5544  1.0373
 6156SOL     OW29929   2.801   4.712   4.729  0.0121 -0.2955  0.0855
 6156SOL    HW129930   2.799   0.078   4.770  4.4954 -0.8016  1.4107
 6156SOL    HW229931   2.719   4.719   4.680  0.2334 -2.1684 -0.5506
 6157SOL     OW29932   4.470   1.330   8.074  0.4312 -0.4298 -0.2811
 6157SOL    HW129933   4.560   1.299   8.080 -0.0884 -2.1599 -1.3181
 6157SOL    HW229934   4.464   1.389   8.149  5.0337 -1.2203  0.6750
 6158SOL     OW29935   3.540   4.283  13.593  0.1310  0.2724  0.0316
 6158SOL    HW129936   3.555   4.378  13.589  0.9255  0.1311 -0.6113
 6158SOL    HW229937   3.488   4.261  13.516  0.8302 -0.9821 -0.0792
 6159SOL     OW29938   0.926   0.224   1.752  0.2606 -0.4548 -0.3448
 6159SOL    HW129939   0.921   0.128   1.754 -0.6526 -0.3677  1.8885
 6159SOL    HW229940   0.839   0.238   1.789  0.0762 -0.2335 -0.8760
 6160SOL     OW29941   3.037   4.430   2.963  0.2900  0.4912 -0.4057
 6160SOL    HW129942   2.974   4.358   2.963 -1.4122  1.9779  0.8940
 6160SOL    HW229943   3.011   4.476   2.884 -3.1620 -0.7463  0.0065
 6161SOL     OW29944   3.569   1.930   9.106 -0.6334  0.0993 -0.3962
 6161SOL    HW129945   3.564   1.904   9.198 -1.5553 -0.5028 -0.6177
 6161SOL    HW229946   3.521   1.862   9.058  1.1908 -1.4459 -0.0091
 6162SOL     OW29947   0.705   4.152   3.607  0.0581  0.3051 -0.4391
 6162SOL    HW129948   0.613   4.159   3.581 -0.4181 -1.1367  0.9099
 6162SOL    HW229949   0.729   4.066   3.573 -1.9318 -0.5061  0.2272
 6163SOL     OW29950   2.560   4.016  10.642  0.2414 -0.0852 -0.3022
 6163SOL    HW129951   2.512   3.986  10.564 -0.5291 -3.0939  1.3507
 6163SOL    HW229952   2.600   4.096  10.606  1.5360 -0.9211 -0.7013
 6164SOL     OW29953   3.011   2.413   7.003 -0.5914 -0.3172 -0.5371
 6164SOL    HW129954   3.052   2.441   7.084 -1.7927 -1.5826  0.5141
 6164SOL    HW229955   3.026   2.319   7.012 -0.5765 -0.1894  0.7394
 6165SOL     OW29956   3.993   2.543   5.616  0.0166  0.3453  0.8761
 6165SOL    HW129957   3.995   2.491   5.535 -1.1117  0.9292  0.4720
 6165SOL    HW229958   4.084   2.556   5.641  1.1922 -1.8992 -2.3195
 6166SOL     OW29959   4.034   1.763   9.970 -0.4399 -0.0143 -0.4695
 6166SOL    HW129960   3.954   1.716   9.946 -0.7859 -0.7291  2.0896
 6166SOL    HW229961   4.061   1.717  10.050  1.8559  1.5046 -0.3902
 6167SOL     OW29962   0.747   4.466  14.691 -0.1638  0.2041 -0.1402
 6167SOL    HW129963   0.701   4.402  14.746  2.7742  0.2621  2.3859
 6167SOL    HW229964   0.719   4.426  14.609 -1.9936  0.4858  0.3290
 6168SOL     OW29965   2.498   4.085   5.302 -0.4222 -0.4808 -0.4811
 6168SOL    HW129966   2.551   4.086   5.382 -0.4562 -2.0664 -0.4355
 6168SOL    HW229967   2.543   4.020   5.248 -0.3282 -0.0337 -0.9479
 6169SOL     OW29968   3.737   2.306  12.313 -0.2869  0.7926 -0.3402
 6169SOL    HW129969   3.813   2.257  12.281 -0.9868 -1.0311  0.7595
 6169SOL    HW229970   3.757   2.301  12.406  0.3184  1.3556 -0.4373
 6170SOL     OW29971   4.257   4.145   5.309  0.3784 -0.6763  0.2094
 6170SOL    HW129972   4.306   4.179   5.234  0.4594 -0.8853  0.1671
 6170SOL    HW229973   4.300   4.061   5.330  2.4210 -0.0870 -1.6237
 6171SOL     OW29974   3.912   0.643   3.700 -0.3151 -0.3673 -0.2245
 6171SOL    HW129975   3.870   0.585   3.763 -0.7893 -0.1794 -0.3625
 6171SOL    HW229976   3.864   0.614   3.622 -0.5944  0.1971 -0.2668
 6172SOL     OW29977   4.068   2.118   8.918  0.2411 -0.4720 -0.5747
 6172SOL    HW129978   4.131   2.161   8.975 -0.4160 -0.5414  0.1962
 6172SOL    HW229979   4.114   2.113   8.834  3.5282  0.3628  1.1768
 6173SOL     OW29980   0.992   4.466   6.471  0.0853 -0.1009 -0.3814
 6173SOL    HW129981   1.061   4.472   6.405 -0.7517  1.1315 -1.1471
 6173SOL    HW229982   1.036   4.517   6.539  0.3181 -0.5265 -0.2173
 6174SOL     OW29983   0.297   3.133   0.898  0.4343 -0.0760 -0.1404
 6174SOL    HW129984   0.227   3.196   0.881  0.0241 -0.5115 -0.0779
 6174SOL    HW229985   0.242   3.058   0.921  1.2818 -0.7169 -0.1776
 6175SOL     OW29986   1.172   3.390   9.370  0.0294 -0.1371 -0.2950
 6175SOL    HW129987   1.136   3.461   9.424 -3.3990  0.4766 -3.3690
 6175SOL    HW229988   1.125   3.315   9.407 -0.3583 -0.5756 -1.6916
 6176SOL     OW29989   2.392   2.171   8.378 -0.1597  0.1110 -0.2930
 6176SOL    HW129990   2.374   2.264   8.391 -2.4051 -0.2633 -0.8676
 6176SOL    HW229991   2.419   2.170   8.286 -0.2834 -2.4139 -0.2963
 6177SOL     OW29992   0.220   2.740   1.921 -0.1565  0.4743  0.2486
 6177SOL    HW129993   0.204   2.683   1.846  1.0621 -0.7450  0.9106
 6177SOL    HW229994   0.218   2.673   1.990 -1.7152  0.7385  0.4608
 6178SOL     OW29995   1.023   3.910  13.573 -0.2488  0.4645  0.3915
 6178SOL    HW129996   0.958   3.962  13.620 -1.2014 -1.3857  1.1399
 6178SOL    HW229997   0.971   3.846  13.524  0.2339 -1.6132  2.5724
 6179SOL     OW29998   1.915   3.574   6.124  0.1881  0.7277 -0.3071
 6179SOL    HW129999   1.954   3.588   6.211 -1.5016  2.7644  0.1316
 6179SOL    HW230000   1.861   3.652   6.135 -1.4519 -0.0991 -2.5809
 6180SOL     OW30001   0.318   2.759   4.506  0.7194  0.3304 -0.4594
 6180SOL    HW130002   0.225   2.757   4.528  1.5877  1.2695  3.3044
 6180SOL    HW230003   0.329   2.668   4.478  0.0771 -0.5696  2.2297
 6181SOL     OW30004   3.319   1.411  16.954  0.5027  0.2340 -0.4729
 6181SOL    HW130005   3.348   1.336  17.006 -0.6867 -1.2638 -1.9641
 6181SOL    HW230006   3.403   1.454  16.935 -0.7440  2.4390 -0.9757
 6182SOL     OW30007   2.435   4.384   2.598  0.3028  0.1546 -0.3107
 6182SOL    HW130008   2.392   4.458   2.556 -1.0780 -0.2054  0.4792
 6182SOL    HW230009   2.487   4.346   2.527  0.8595  2.0186 -0.8906
 6183SOL     OW30010   3.230   1.409   2.279  0.0941 -0.1279  0.3743
 6183SOL    HW130011   3.180   1.394   2.199 -0.1331  1.1082  0.2878
 6183SOL    HW230012   3.168   1.370   2.341  1.1089  0.7372  1.9330
 6184SOL     OW30013   2.537   4.678   7.062  0.0297 -0.3339 -0.1578
 6184SOL    HW130014   2.563   4.596   7.104  0.6477 -0.2915 -0.4506
 6184SOL    HW230015   2.622   4.701   7.025  0.2738 -0.7262  0.1562
 6185SOL     OW30016   0.334   2.271   7.883  0.1422  0.4306 -0.1764
 6185SOL    HW130017   0.347   2.349   7.936 -1.7766 -1.0813  2.5232
 6185SOL    HW230018   0.360   2.203   7.945 -1.1878 -1.3019 -1.5072
 6186SOL     OW30019   3.156   2.864  10.407  0.1057 -0.4369  0.1958
 6186SOL    HW130020   3.136   2.934  10.345  0.1293 -0.3673  0.2670
 6186SOL    HW230021   3.079   2.850  10.462  1.4224 -0.8575  1.9513
 6187SOL     OW30022   1.697   4.455  17.594 -0.2609  0.0620  0.0703
 6187SOL    HW130023   1.665   4.406  17.518  1.7856 -1.8965  0.4768
 6187SOL    HW230024   1.751   4.393  17.643  1.1645  0.9241 -0.4037
 6188SOL     OW30025   3.763   0.291   4.795  0.2481  0.2666 -0.6205
 6188SOL    HW130026   3.809   0.214   4.830  0.0108  0.3855 -0.0379
 6188SOL    HW230027   3.825   0.361   4.776  1.5874 -0.0407  2.5443
 6189SOL     OW30028   2.709   3.416  13.979  0.9280  0.1462 -0.5547
 6189SOL    HW130029   2.785   3.420  14.036  0.2718 -1.7222  0.4726
 6189SOL    HW230030   2.705   3.505  13.946  0.6729 -0.9294 -3.4020
 6190SOL     OW30031   1.106   1.689  13.030 -0.1699  0.3411 -0.1138
 6190SOL    HW130032   1.051   1.619  13.065 -1.3974  0.2509 -2.2309
 6190SOL    HW230033   1.048   1.761  13.008  0.4294  0.9913  0.4473
 6191SOL     OW30034   4.521   3.915   6.545 -0.0241  0.0060  0.5505
 6191SOL    HW130035   4.474   3.838   6.576 -2.6697  1.7750  0.8936
 6191SOL    HW230036   4.614   3.904   6.566  0.3456  0.9673 -0.5811
 6192SOL     OW30037   4.184   3.657   9.038  0.4532 -0.1802  0.0619
 6192SOL    HW130038   4.098   3.617   9.027 -0.0511  1.2390 -1.1528
 6192SOL    HW230039   4.244   3.590   9.072 -0.4327 -0.1649  1.6254
 6193SOL     OW30040   3.423   2.909   7.736 -0.6491 -0.0725  0.4786
 6193SOL    HW130041   3.428   2.994   7.780  2.3529  0.4447 -0.8655
 6193SOL    HW230042   3.355   2.861   7.784 -1.4673  0.5067 -0.1222
 6194SOL     OW30043   4.620   1.126   6.711 -0.4879 -0.1189  0.4821
 6194SOL    HW130044   4.600   1.215   6.681  1.6688  0.7400  1.6522
 6194SOL    HW230045   4.631   1.151   6.803 -2.2727 -2.2994  1.2911
 6195SOL     OW30046   3.677   0.846   3.290  0.2336 -0.1215  0.1643
 6195SOL    HW130047   3.613   0.807   3.349  1.5562  0.8793  2.2523
 6195SOL    HW230048   3.758   0.804   3.319  1.4067  2.1327  0.2019
 6196SOL     OW30049   0.737   0.495   5.718  0.1615  0.2489 -0.1903
 6196SOL    HW130050   0.755   0.418   5.665  0.3536 -0.7664  1.3710
 6196SOL    HW230051   0.773   0.471   5.803  2.4599  1.8380 -0.7100
 6197SOL     OW30052   3.595   3.479   2.977  0.0467 -0.2079 -0.0991
 6197SOL    HW130053   3.599   3.532   2.897 -1.9149 -0.4241 -0.3546
 6197SOL    HW230054   3.653   3.409   2.945  0.4059  0.2348 -0.4266
 6198SOL     OW30055   3.553   1.114   4.018  0.6971  0.0576  0.0823
 6198SOL    HW130056   3.599   1.049   3.964 -1.3910  0.7502 -2.5408
 6198SOL    HW230057   3.475   1.122   3.963 -1.0024 -1.3734  2.2892
 6199SOL     OW30058   4.015   3.921   9.259  0.2615 -0.3669  0.4074
 6199SOL    HW130059   3.999   3.847   9.318 -0.4601 -1.9646 -1.8137
 6199SOL    HW230060   3.935   3.922   9.207  1.7989 -0.3582 -1.9664
 6200SOL     OW30061   3.232   2.219   3.226 -0.3005 -0.5259  0.1845
 6200SOL    HW130062   3.291   2.167   3.281 -0.2524  1.0873  1.6519
 6200SOL    HW230063   3.162   2.155   3.235  0.8822 -1.9680 -0.7740
 6201SOL     OW30064   4.101   0.086   2.603 -0.1784 -0.1169  0.0525
 6201SOL    HW130065   4.195   0.073   2.597  0.0506  0.9257  1.1256
 6201SOL    HW230066   4.088   0.179   2.626 -1.3774 -0.3069  0.1555
 6202SOL     OW30067   4.146   3.601   3.656  0.3669  0.8866  0.1662
 6202SOL    HW130068   4.065   3.648   3.678 -0.0761 -0.3695  1.2387
 6202SOL    HW230069   4.195   3.666   3.606  0.1262  1.5832  0.8306
 6203SOL     OW30070   4.008   1.965   4.266 -0.6315  0.2955  0.3635
 6203SOL    HW130071   3.986   1.884   4.312 -0.1482 -0.7964 -1.3265
 6203SOL    HW230072   3.941   2.029   4.291 -1.9339 -0.6644 -0.6636
 6204SOL     OW30073   4.603   2.048   6.237 -0.5521  0.1770 -0.5806
 6204SOL    HW130074   4.593   2.002   6.153  3.2876 -2.2215  0.3028
 6204SOL    HW230075   4.685   2.017   6.274 -1.6748 -0.0181  1.7915
 6205SOL     OW30076   1.333   0.291   3.167  0.9951  0.6286  0.2451
 6205SOL    HW130077   1.286   0.373   3.188  0.9242  1.2950 -2.4853
 6205SOL    HW230078   1.277   0.238   3.224  2.2021  1.3083  2.0728
 6206SOL     OW30079   1.594   1.622   9.828  0.2388 -0.5719  0.3705
 6206SOL    HW130080   1.667   1.612   9.768 -1.0468  1.0246 -1.4311
 6206SOL    HW230081   1.614   1.558   9.897  1.7844 -1.4082 -0.8653
 6207SOL     OW30082   3.879   0.640   5.008 -0.7856  0.2056 -0.4209
 6207SOL    HW130083   3.933   0.562   5.019 -2.3463 -0.9614 -1.0740
 6207SOL    HW230084   3.910   0.680   4.927  0.6125  1.1369  0.5698
 6208SOL     OW30085   2.562   2.318   7.170 -0.6376  0.2110 -0.4572
 6208SOL    HW130086   2.612   2.363   7.102  2.8966 -0.0723  1.9646
 6208SOL    HW230087   2.591   2.230   7.146  2.8862  1.7192 -1.6668
 6209SOL     OW30088   0.546   0.538  11.029  0.0969  0.3417  0.0144
 6209SOL    HW130089   0.472   0.478  11.027 -0.3462  0.8572  0.6519
 6209SOL    HW230090   0.511   0.606  11.087  0.1897 -1.5266  2.2321
 6210SOL     OW30091   4.004   1.384   9.356  0.4042  0.0121 -0.7499
 6210SOL    HW130092   3.960   1.435   9.424 -0.5615 -1.4101 -0.3110
 6210SOL    HW230093   4.084   1.359   9.402 -0.7291 -1.8543  0.1998
 6211SOL     OW30094   2.731   2.193   2.406 -0.1163 -0.0439 -0.2385
 6211SOL    HW130095   2.770   2.107   2.386  0.6155  0.6169 -1.6818
 6211SOL    HW230096   2.798   2.251   2.369 -0.2155 -0.1156 -0.5322
 6212SOL     OW30097   2.992   3.182   3.536  0.5633  0.4370  0.0462
 6212SOL    HW130098   2.963   3.264   3.497 -0.1514 -0.0100 -0.3680
 6212SOL    HW230099   3.086   3.200   3.527  0.3895  1.1645 -0.2697
 6213SOL     OW30100   2.613   2.601   1.678 -0.0139 -0.0396  0.2017
 6213SOL    HW130101   2.548   2.580   1.611 -0.0828  0.8975 -0.0183
 6213SOL    HW230102   2.697   2.612   1.634 -0.3479  2.3344  0.1744
 6214SOL     OW30103   3.836   1.309   2.842 -0.6988 -0.6323 -0.2043
 6214SOL    HW130104   3.824   1.214   2.836  1.3403 -0.7673 -2.4053
 6214SOL    HW230105   3.915   1.324   2.790 -2.0165  0.5629 -1.8540
 6215SOL     OW30106   0.215   0.506   7.125  0.1177 -0.3777  0.0941
 6215SOL    HW130107   0.171   0.580   7.167 -0.3715 -0.5638 -0.0983
 6215SOL    HW230108   0.145   0.457   7.082  0.0083 -0.0057 -0.1577
 6216SOL     OW30109   1.856   1.556   7.332  0.3715 -0.0609  0.6638
 6216SOL    HW130110   1.783   1.506   7.369  0.9906 -1.9522 -0.6754
 6216SOL    HW230111   1.934   1.504   7.354  0.3547 -1.3540 -2.2219
 6217SOL     OW30112   0.196   1.577   4.478 -0.1532  0.0645  0.3584
 6217SOL    HW130113   0.224   1.621   4.558  2.2546 -1.9397  0.6264
 6217SOL    HW230114   0.240   1.619   4.404 -1.9568 -1.6277 -1.6534
 6218SOL     OW30115   0.612   2.784  17.469 -0.0149  0.1441 -0.6587
 6218SOL    HW130116   0.646   2.712  17.521 -0.0777 -0.5976 -1.6454
 6218SOL    HW230117   0.521   2.762  17.488 -0.5741  2.1063 -1.0769
 6219SOL     OW30118   1.839   0.816  10.568 -0.1882 -0.2373  0.2283
 6219SOL    HW130119   1.925   0.775  10.558 -0.5258 -0.9170  0.1262
 6219SOL    HW230120   1.810   0.787  10.655  1.9872  0.1605  1.0723
 6220SOL     OW30121   0.219   2.736   2.736 -0.2081  0.5623  0.1171
 6220SOL    HW130122   0.194   2.813   2.787  0.2890  0.6352  0.2564
 6220SOL    HW230123   0.304   2.768   2.705  0.5272 -1.5707 -0.0389
 6221SOL     OW30124   3.818   1.067   8.660 -0.1128 -0.3702 -0.2280
 6221SOL    HW130125   3.778   1.090   8.744  0.1154 -0.2344 -0.1565
 6221SOL    HW230126   3.774   1.113   8.589  0.4516  0.1167 -0.2562
 6222SOL     OW30127   2.310   4.534   8.958  0.1779  0.4303  0.0339
 6222SOL    HW130128   2.337   4.477   8.885 -0.1023  1.3814 -0.8126
 6222SOL    HW230129   2.230   4.485   8.977 -0.5891  1.2504 -1.1051
 6223SOL     OW30130   4.103   3.541   4.617  0.1429  0.7298 -0.5028
 6223SOL    HW130131   4.036   3.573   4.677  0.5158  1.5561 -0.5297
 6223SOL    HW230132   4.054   3.552   4.536 -0.0396  0.0667 -0.4886
 6224SOL     OW30133   2.270   4.058  13.829  0.5784  0.4785 -0.1356
 6224SOL    HW130134   2.332   4.069  13.901  2.0698 -0.3213 -1.2985
 6224SOL    HW230135   2.319   4.018  13.757  0.0004  0.5903 -0.5955
 6225SOL     OW30136   2.466   2.165   0.890 -0.4272 -0.2216  0.0648
 6225SOL    HW130137   2.552   2.176   0.931  0.5709 -2.0138 -1.5282
 6225SOL    HW230138   2.427   2.252   0.895  0.1201  0.0213  0.1163
 6226SOL     OW30139   2.316   4.193   7.168 -0.2691 -0.0172  0.4417
 6226SOL    HW130140   2.290   4.285   7.172 -0.2430  0.0232 -0.2574
 6226SOL    HW230141   2.244   4.156   7.117 -0.3296 -3.0467  2.7703
 6227SOL     OW30142   2.248   0.207   5.184 -0.3293 -0.2183  0.2855
 6227SOL    HW130143   2.194   0.283   5.167 -0.0778  0.0878  0.8559
 6227SOL    HW230144   2.216   0.176   5.269  3.6935 -1.2528  1.4687
 6228SOL     OW30145   1.526   4.587   2.576  0.5367 -0.0739 -0.1739
 6228SOL    HW130146   1.476   4.668   2.584 -0.1668 -0.5030 -0.2231
 6228SOL    HW230147   1.472   4.541   2.512  0.7621 -0.1630 -0.3037
 6229SOL     OW30148   4.520   0.450   8.624 -0.3974 -0.8338 -0.2771
 6229SOL    HW130149   4.442   0.481   8.577 -0.6653  0.1083  0.7837
 6229SOL    HW230150   4.494   0.442   8.716 -0.8745  1.5635 -0.1986
 6230SOL     OW30151   3.064   1.779   5.686 -0.1553 -0.2548  0.3215
 6230SOL    HW130152   3.066   1.705   5.746  1.1040 -1.1251 -0.7949
 6230SOL    HW230153   2.998   1.832   5.732  1.1075 -0.6696  2.5584
 6231SOL     OW30154   3.528   1.380   4.580 -0.1994  0.2629  0.2984
 6231SOL    HW130155   3.515   1.414   4.669 -1.3850 -1.3859  0.7752
 6231SOL    HW230156   3.614   1.415   4.559  0.4531 -1.7015 -0.3327
 6232SOL     OW30157   0.245   1.430   5.794  0.2292  0.4777 -0.2268
 6232SOL    HW130158   0.168   1.430   5.738 -0.2974  0.9060  0.5050
 6232SOL    HW230159   0.218   1.404   5.882  2.6853 -0.5196  0.2189
 6233SOL     OW30160   4.339   3.491  14.689 -0.0586  0.0661  0.1785
 6233SOL    HW130161   4.301   3.578  14.676  0.0965  0.1814  0.4952
 6233SOL    HW230162   4.423   3.518  14.652 -0.4114  1.8690  0.6846
 6234SOL     OW30163   4.272   1.060  13.020 -0.4395  0.2686  0.1791
 6234SOL    HW130164   4.314   1.122  12.960 -1.2339  0.5871 -0.0458
 6234SOL    HW230165   4.214   1.118  13.069 -1.2583 -0.5440  0.1637
 6235SOL     OW30166   0.982   0.484   2.204  0.1802 -0.8913 -0.0001
 6235SOL    HW130167   0.954   0.460   2.292 -0.7714 -1.3074 -0.4143
 6235SOL    HW230168   0.925   0.434   2.146  1.5683  1.4388 -3.3457
 6236SOL     OW30169   0.362   0.827   1.850 -0.4341 -0.2720 -0.2990
 6236SOL    HW130170   0.342   0.916   1.880  0.5181  0.3132 -1.3947
 6236SOL    HW230171   0.434   0.802   1.909 -0.8957 -1.5033 -0.2624
 6237SOL     OW30172   3.931   1.593   7.307  0.0946 -0.7587 -0.4855
 6237SOL    HW130173   3.992   1.588   7.232  0.2661  4.9215 -0.7235
 6237SOL    HW230174   3.943   1.680   7.345  0.4599 -1.1964  0.4142
 6238SOL     OW30175   3.356   3.139  10.551  0.2229 -0.7065  0.4891
 6238SOL    HW130176   3.330   3.069  10.491  1.4469  0.8529 -1.8357
 6238SOL    HW230177   3.285   3.140  10.616 -0.8966  0.4768 -0.7594
 6239SOL     OW30178   3.707   0.866   6.241  0.0992  0.2302 -0.3470
 6239SOL    HW130179   3.800   0.860   6.262  0.0732  0.8100 -0.0502
 6239SOL    HW230180   3.690   0.772   6.246 -2.1173  0.5448 -1.9571
 6240SOL     OW30181   0.477   3.453   3.213 -0.1005 -0.6537  0.7415
 6240SOL    HW130182   0.474   3.533   3.264 -0.9793 -0.1125 -0.1608
 6240SOL    HW230183   0.560   3.414   3.239  1.7767  0.9412 -2.9165
 6241SOL     OW30184   3.848   3.346  13.966 -0.9601  0.4258  0.5714
 6241SOL    HW130185   3.753   3.349  13.960 -0.8581  1.2449 -0.6614
 6241SOL    HW230186   3.869   3.415  14.029 -0.1715 -1.4765  2.4205
 6242SOL     OW30187   2.605   3.064  14.483  0.3305  1.1163  0.2355
 6242SOL    HW130188   2.656   3.109  14.415  3.1858 -0.6572  1.1877
 6242SOL    HW230189   2.514   3.083  14.464  0.1516 -0.1223 -0.1284
 6243SOL     OW30190   0.169   4.231  15.529  0.0287  0.2458  0.3701
 6243SOL    HW130191   0.115   4.270  15.461 -0.3454  1.4787  1.3577
 6243SOL    HW230192   0.246   4.206  15.478  0.4029  0.6947  0.6983
 6244SOL     OW30193   3.089   3.287   9.851  0.3201 -0.4084 -0.3080
 6244SOL    HW130194   3.044   3.203   9.861 -0.5041  0.0799  0.1012
 6244SOL    HW230195   3.042   3.354   9.900  1.8728  2.0950 -2.2444
 6245SOL     OW30196   3.607   3.453   2.398  0.3748 -0.0491  0.7195
 6245SOL    HW130197   3.671   3.524   2.408 -0.0330 -0.0331  3.1481
 6245SOL    HW230198   3.664   3.380   2.421 -0.3419 -0.6868  0.4810
 6246SOL     OW30199   1.066   0.105  12.603 -0.6083 -0.1182  0.2597
 6246SOL    HW130200   1.010   0.168  12.558 -2.1538 -1.2536  0.6066
 6246SOL    HW230201   1.039   0.023  12.562 -1.4584  1.0085 -1.4200
 6247SOL     OW30202   1.716   3.053   5.035 -0.0111  0.5266 -0.4286
 6247SOL    HW130203   1.626   3.083   5.021 -0.2862 -0.5127 -0.8971
 6247SOL    HW230204   1.731   3.013   4.949  0.9313  0.8449 -0.4167
 6248SOL     OW30205   0.437   2.657  17.236 -0.3459 -0.4477  0.7219
 6248SOL    HW130206   0.449   2.750  17.255  0.0532 -0.7010  1.7068
 6248SOL    HW230207   0.405   2.666  17.146  1.4896 -0.3618  0.0858
 6249SOL     OW30208   2.486   3.742  12.113  0.4227 -0.2452 -0.0821
 6249SOL    HW130209   2.475   3.799  12.190 -2.0260 -1.8979  0.7586
 6249SOL    HW230210   2.579   3.759  12.094  1.0542 -1.0122  2.3602
 6250SOL     OW30211   4.370   2.146   4.007 -0.4997 -0.1112  0.2622
 6250SOL    HW130212   4.286   2.141   3.961  0.6988 -0.3150 -1.9412
 6250SOL    HW230213   4.331   2.123   4.091 -1.7445  1.3135  0.0705
 6251SOL     OW30214   1.522   1.818   1.971 -0.4990  0.0923 -0.7443
 6251SOL    HW130215   1.601   1.780   2.009 -0.1778  0.7015 -0.7922
 6251SOL    HW230216   1.502   1.877   2.044  3.8181  1.8086 -0.8768
 6252SOL     OW30217   4.486   0.837   8.248  0.0482 -0.4110  0.5585
 6252SOL    HW130218   4.551   0.823   8.316 -1.9963  0.0066  2.5863
 6252SOL    HW230219   4.440   0.754   8.246 -0.6867  0.0120 -0.2402
 6253SOL     OW30220   3.203   0.139   7.065 -0.1942  0.6596  0.6403
 6253SOL    HW130221   3.215   0.120   6.972  0.7376 -0.1682  0.9189
 6253SOL    HW230222   3.278   0.196   7.083  2.1437 -1.8478 -0.9143
 6254SOL     OW30223   2.763   2.648  12.221 -0.0476 -0.1064 -0.3327
 6254SOL    HW130224   2.752   2.567  12.171 -2.2051 -0.1768  0.2521
 6254SOL    HW230225   2.673   2.659  12.252 -0.1206 -0.9220 -0.2570
 6255SOL     OW30226   2.519   2.367   6.249 -0.0798  0.0815  0.8177
 6255SOL    HW130227   2.589   2.302   6.241  0.0751  0.4980 -1.0710
 6255SOL    HW230228   2.531   2.383   6.343 -0.1922  0.1350  0.8224
 6256SOL     OW30229   1.846   2.895   1.079 -0.0527  0.4884  0.2266
 6256SOL    HW130230   1.936   2.924   1.066 -0.2574  0.8525 -0.4006
 6256SOL    HW230231   1.801   2.897   0.995  0.1071  2.9150  0.2048
 6257SOL     OW30232   0.508   1.409   6.434  0.2469  0.3242  0.8439
 6257SOL    HW130233   0.588   1.452   6.404  0.3222 -0.6829 -0.3907
 6257SOL    HW230234   0.486   1.450   6.518  1.6506 -1.2521  1.9724
 6258SOL     OW30235   3.415   0.112  13.272  0.2806  0.3583  0.2228
 6258SOL    HW130236   3.350   0.065  13.324 -0.2771  0.0480 -0.7511
 6258SOL    HW230237   3.348   0.167  13.230  2.1290  1.0428 -1.8236
 6259SOL     OW30238   4.337   3.975   5.712  0.2429  0.9301  0.1596
 6259SOL    HW130239   4.309   3.957   5.802 -0.8583 -1.3635 -0.6409
 6259SOL    HW230240   4.345   4.071   5.710 -1.8762  1.0922  0.1290
 6260SOL     OW30241   1.977   1.788  17.220  0.0165  0.6957  0.3548
 6260SOL    HW130242   1.924   1.763  17.296  1.1410 -1.5328  0.4004
 6260SOL    HW230243   1.912   1.782  17.150  0.2863  5.6699 -0.3367
 6261SOL     OW30244   2.871   3.782   4.210  0.7923  0.8538 -0.3115
 6261SOL    HW130245   2.869   3.797   4.115 -0.3290  0.4000 -0.3473
 6261SOL    HW230246   2.963   3.781   4.239  0.8319  1.8895 -0.3971
 6262SOL     OW30247   4.469   2.958  14.920  0.0572 -0.0703 -0.3802
 6262SOL    HW130248   4.534   2.889  14.932 -2.1349 -2.4718 -2.3049
 6262SOL    HW230249   4.481   2.970  14.825 -0.8149  0.3080 -0.4445
 6263SOL     OW30250   0.416   3.917  17.327 -0.1857 -0.1226  0.3713
 6263SOL    HW130251   0.350   3.919  17.257  2.8989 -0.6590 -2.5779
 6263SOL    HW230252   0.425   3.822  17.332 -1.8215 -0.4992 -3.4968
 6264SOL     OW30253   0.026   2.759   0.765 -0.2100  0.0703  0.4788
 6264SOL    HW130254   0.019   2.782   0.673  0.4303 -3.3201 -0.4286
 6264SOL    HW230255   4.658   2.786   0.788 -0.9923 -1.9553 -0.1458
 6265SOL     OW30256   2.786   1.468  12.333 -0.1108 -0.5528  0.2903
 6265SOL    HW130257   2.692   1.483  12.327 -0.4670 -1.5992  3.6730
 6265SOL    HW230258   2.801   1.515  12.415 -0.1544 -0.5297  0.2847
 6266SOL     OW30259   4.052   2.189  17.340 -0.0165  0.3987  0.2608
 6266SOL    HW130260   4.073   2.100  17.367  1.3074  0.0314 -2.0738
 6266SOL    HW230261   4.126   2.210  17.283 -0.1108  1.1789  0.4217
 6267SOL     OW30262   4.075   0.804   1.636 -0.0553  0.3922 -0.0640
 6267SOL    HW130263   4.113   0.881   1.679  1.5924 -0.4762  0.0231
 6267SOL    HW230264   3.986   0.838   1.645 -0.1976  0.2007 -0.7636
 6268SOL     OW30265   1.270   3.393   3.114  0.1004 -0.0420 -0.1993
 6268SOL    HW130266   1.292   3.473   3.162 -2.1436  0.0318  0.6918
 6268SOL    HW230267   1.214   3.439   3.051 -0.0366 -1.0366 -0.8060
 6269SOL     OW30268   2.254   4.406  14.075 -0.5320 -0.0949  0.3691
 6269SOL    HW130269   2.313   4.446  14.138  1.2264  1.7033 -2.3862
 6269SOL    HW230270   2.245   4.319  14.114  0.4829 -0.2216  0.3348
 6270SOL     OW30271   2.720   0.053  11.118  0.3806  0.5055  0.0078
 6270SOL    HW130272   2.685   0.059  11.207  0.6267 -0.0588  0.1443
 6270SOL    HW230273   2.715   0.146  11.094 -1.5308  0.0579 -1.2949
 6271SOL     OW30274   1.375   2.288   8.875 -0.2733  0.1396 -0.7133
 6271SOL    HW130275   1.437   2.347   8.918  0.0583 -0.8885  0.2552
 6271SOL    HW230276   1.336   2.263   8.959 -0.7056 -0.6607 -1.1519
 6272SOL     OW30277   4.720   3.533   5.210 -0.3043  0.9637  0.5446
 6272SOL    HW130278   4.691   3.541   5.119  4.7640 -0.9503 -1.1955
 6272SOL    HW230279   4.669   3.457   5.241  2.2673  0.3749  3.2653
 6273SOL     OW30280   0.966   2.073  10.931 -0.0743 -0.3336 -0.2254
 6273SOL    HW130281   1.010   2.029  11.004  0.3780  1.9295  0.8782
 6273SOL    HW230282   0.880   2.088  10.971  0.1895 -1.6366  0.8475
 6274SOL     OW30283   3.023   1.906   2.580  0.3294 -0.5759  0.0000
 6274SOL    HW130284   2.995   1.954   2.502 -1.6627  1.2072  1.8156
 6274SOL    HW230285   2.939   1.884   2.620  0.2373 -2.2211 -1.0986
 6275SOL     OW30286   4.218   3.378   5.415 -0.7427  0.2869  0.4561
 6275SOL    HW130287   4.241   3.393   5.324 -2.4777 -1.0570 -0.2044
 6275SOL    HW230288   4.124   3.387   5.424 -1.1443 -2.8349 -0.6253
 6276SOL     OW30289   4.321   0.841   6.267 -0.5316 -0.9218 -0.3691
 6276SOL    HW130290   4.350   0.838   6.176  3.0281  1.4906  0.7092
 6276SOL    HW230291   4.385   0.908   6.292  0.0915 -2.3737  1.9398
 6277SOL     OW30292   1.691   2.900   2.875  0.2748 -0.3472  0.1499
 6277SOL    HW130293   1.721   2.968   2.935  1.0510  0.0405 -0.6816
 6277SOL    HW230294   1.602   2.885   2.908 -0.4504 -0.1691 -1.6746
 6278SOL     OW30295   1.327   3.242   3.814  0.0856  0.1748  0.6590
 6278SOL    HW130296   1.342   3.267   3.723  0.2269  1.0289  0.9131
 6278SOL    HW230297   1.324   3.147   3.815  1.5519  0.1388  0.6643
 6279SOL     OW30298   3.301   4.194   0.889 -0.1153  1.0294  0.3153
 6279SOL    HW130299   3.332   4.244   0.965  1.6864  1.1600 -0.4867
 6279SOL    HW230300   3.275   4.114   0.934 -0.9848 -0.0179 -2.0909
 6280SOL     OW30301   4.510   0.921   5.276  0.3136 -0.0580  0.0852
 6280SOL    HW130302   4.425   0.890   5.307  0.5417  0.8042  1.5820
 6280SOL    HW230303   4.482   0.978   5.204 -1.3498 -1.3465 -0.2855
 6281SOL     OW30304   3.685   0.772   5.655  0.1157  0.0310  0.0261
 6281SOL    HW130305   3.666   0.733   5.740 -1.6354  0.7130 -0.0564
 6281SOL    HW230306   3.724   0.704   5.600  1.1168  1.1806 -0.6949
 6282SOL     OW30307   2.665   2.171   4.850 -0.4960 -0.6454 -0.2359
 6282SOL    HW130308   2.619   2.114   4.789 -0.0148  0.0572 -1.2404
 6282SOL    HW230309   2.753   2.136   4.843  0.5215  2.1048 -1.1418
 6283SOL     OW30310   1.078   2.311   9.587  0.4753  0.3247  0.2876
 6283SOL    HW130311   1.121   2.275   9.664  1.2621 -0.5720 -0.5822
 6283SOL    HW230312   1.150   2.318   9.525  0.4362 -0.5309  0.1456
 6284SOL     OW30313   1.949   3.965  13.820 -0.0337 -0.3278 -0.3404
 6284SOL    HW130314   1.984   3.884  13.781  0.1616  0.7880 -2.4585
 6284SOL    HW230315   1.993   3.958  13.905  1.8219 -1.2672 -1.3443
 6285SOL     OW30316   3.025   0.020   6.813 -0.0529 -0.0292  0.3639
 6285SOL    HW130317   3.066   0.101   6.784 -1.7344  1.0663  1.0942
 6285SOL    HW230318   3.011   4.696   6.729 -0.4048  2.4014 -0.8486
 6286SOL     OW30319   0.660   3.341   7.518  0.1950 -0.0254 -0.1316
 6286SOL    HW130320   0.661   3.435   7.499 -0.6930 -0.2930 -1.4253
 6286SOL    HW230321   0.601   3.348   7.593  1.2845  0.9153  0.6485
 6287SOL     OW30322   3.719   0.979  15.167 -0.3158  0.5039 -0.5927
 6287SOL    HW130323   3.810   0.967  15.194 -0.3214  2.3490  0.2449
 6287SOL    HW230324   3.731   1.054  15.108 -1.0935  2.0711  1.2241
 6288SOL     OW30325   0.570   0.096   2.680  0.3298 -0.6442 -0.0554
 6288SOL    HW130326   0.533   0.031   2.620  0.6022  0.4130 -1.3689
 6288SOL    HW230327   0.637   0.127   2.619 -0.1036 -0.6639 -0.5385
 6289SOL     OW30328   1.512   3.855   6.999  0.3665  0.0017 -0.1200
 6289SOL    HW130329   1.546   3.779   6.953 -0.1876 -1.9298  2.6998
 6289SOL    HW230330   1.422   3.829   7.017  1.5722 -1.7437  3.5021
 6290SOL     OW30331   1.377   0.921  15.299  0.2350  0.2297 -0.1681
 6290SOL    HW130332   1.386   0.989  15.366  0.2981  0.8516 -0.8166
 6290SOL    HW230333   1.419   0.845  15.341  1.0389  2.2311  2.6434
 6291SOL     OW30334   3.942   2.563   7.695 -0.1773  0.1239 -0.1474
 6291SOL    HW130335   3.999   2.546   7.621  0.8441 -0.0186  0.6702
 6291SOL    HW230336   4.000   2.531   7.764 -0.7520 -2.6407 -0.9455
 6292SOL     OW30337   3.042   3.428   6.612 -0.1233  0.0643 -0.0347
 6292SOL    HW130338   3.101   3.469   6.549  0.7599  0.4485  1.0472
 6292SOL    HW230339   3.070   3.339   6.593 -0.6817 -0.3457  1.0664
 6293SOL     OW30340   2.269   4.472   0.203 -0.1270 -0.3513 -0.3745
 6293SOL    HW130341   2.184   4.437   0.176 -1.2868  1.4864  0.8153
 6293SOL    HW230342   2.290   4.526   0.127  0.1605 -0.4229 -0.3445
 6294SOL     OW30343   1.091   1.444  11.690  0.6723  0.0542  0.4109
 6294SOL    HW130344   1.172   1.477  11.728  0.1133  0.4035  1.2876
 6294SOL    HW230345   1.078   1.375  11.756  3.1984 -2.0313 -1.2364
 6295SOL     OW30346   0.887   1.252   1.619  0.0300  0.2073  0.0663
 6295SOL    HW130347   0.826   1.194   1.665  0.8660 -0.4278  0.3790
 6295SOL    HW230348   0.889   1.315   1.691 -1.9625  0.7128 -0.3144
 6296SOL     OW30349   3.440   3.906  11.681  0.4754 -0.0475 -0.2728
 6296SOL    HW130350   3.504   3.856  11.631 -0.0494 -1.2610  0.2576
 6296SOL    HW230351   3.396   3.951  11.609 -0.5435 -0.5273  0.0466
 6297SOL     OW30352   0.613   3.093   6.006  1.0760 -0.3229  0.4319
 6297SOL    HW130353   0.518   3.090   5.991  1.4631 -0.7979 -2.0124
 6297SOL    HW230354   0.623   3.187   6.021 -0.8377  0.1252 -0.9857
 6298SOL     OW30355   0.095   3.834   2.031 -0.0324 -0.1108  0.0997
 6298SOL    HW130356   0.092   3.861   1.939 -2.5466 -1.0165 -0.0905
 6298SOL    HW230357   0.004   3.848   2.059  0.1946  0.2537  0.6511
 6299SOL     OW30358   2.980   0.870   5.710 -0.4555 -0.0560 -0.4923
 6299SOL    HW130359   3.064   0.868   5.664 -0.2614  2.1269 -0.2544
 6299SOL    HW230360   3.011   0.924   5.782  0.5989  0.6311 -1.4515
 6300SOL     OW30361   2.742   1.840   7.164 -0.3288 -0.0296  0.2595
 6300SOL    HW130362   2.694   1.903   7.218 -1.8429 -2.2932  1.5540
 6300SOL    HW230363   2.792   1.790   7.228  0.1245  1.6326  1.2189
 6301SOL     OW30364   1.259   4.066   9.562  0.6439  0.0264 -0.0407
 6301SOL    HW130365   1.347   4.067   9.599  0.9174  2.0674 -0.7253
 6301SOL    HW230366   1.272   4.087   9.469  1.3313  0.7347  0.2120
 6302SOL     OW30367   3.205   3.608   0.705  0.1894  0.0243 -0.4991
 6302SOL    HW130368   3.221   3.611   0.800 -0.0539 -0.3787 -0.4450
 6302SOL    HW230369   3.247   3.690   0.679 -1.0998  0.9141  0.2512
 6303SOL     OW30370   2.778   2.169  15.266 -0.3644  0.0198 -0.4539
 6303SOL    HW130371   2.818   2.115  15.334  0.9103 -0.1077 -1.2963
 6303SOL    HW230372   2.718   2.101  15.236 -1.9896  0.4630  1.7899
 6304SOL     OW30373   3.319   1.215   9.860  0.6174 -0.7454 -0.1142
 6304SOL    HW130374   3.414   1.222   9.869  0.6213 -1.0946  0.1057
 6304SOL    HW230375   3.298   1.290   9.915  2.3089 -0.7915  0.5971
 6305SOL     OW30376   0.391   1.477   4.905  0.4933  0.0017 -0.5434
 6305SOL    HW130377   0.453   1.430   4.961  1.1550  1.1054 -0.3380
 6305SOL    HW230378   0.310   1.428   4.918  0.9651 -0.4672  0.5983
 6306SOL     OW30379   2.983   3.852  13.066 -0.5440 -0.1510 -0.1058
 6306SOL    HW130380   3.064   3.889  13.100  0.5098 -2.4998 -0.0922
 6306SOL    HW230381   3.008   3.817  12.981 -3.1845 -1.2494 -0.4198
 6307SOL     OW30382   3.327   3.234   7.758  0.1392  0.6454 -0.0206
 6307SOL    HW130383   3.376   3.267   7.833  0.6549 -1.7169  0.7017
 6307SOL    HW230384   3.237   3.234   7.793  0.7725  0.0437  1.6308
 6308SOL     OW30385   2.096   3.699   7.319 -0.0428 -0.0197 -0.5774
 6308SOL    HW130386   2.082   3.659   7.233  1.1029 -0.4258 -0.5743
 6308SOL    HW230387   2.013   3.741   7.340  0.3879  0.3008  0.4635
 6309SOL     OW30388   0.073   1.240   2.287  0.1735 -0.4563 -0.3889
 6309SOL    HW130389   0.067   1.145   2.273  0.3288 -0.4397 -0.5692
 6309SOL    HW230390   0.016   1.281   2.222 -0.5157  0.7402  0.9775
 6310SOL     OW30391   1.342   2.132  12.012 -0.0090  0.4130  0.0356
 6310SOL    HW130392   1.282   2.186  12.064  1.2985 -0.5415  2.5664
 6310SOL    HW230393   1.378   2.201  11.956  0.7149  0.8470  1.0440
 6311SOL     OW30394   0.514   4.276   9.111  0.5733  0.3075  0.0186
 6311SOL    HW130395   0.517   4.256   9.204 -1.0195  1.4937  0.3354
 6311SOL    HW230396   0.607   4.277   9.089  0.4493 -0.4108 -0.5052
 6312SOL     OW30397   2.456   2.848   6.888 -0.9716 -1.3315 -0.5894
 6312SOL    HW130398   2.542   2.879   6.860 -0.2376 -1.1765  1.8347
 6312SOL    HW230399   2.477   2.797   6.966 -1.6192 -0.0487  0.4263
 6313SOL     OW30400   3.598   4.043   6.108 -0.0102 -0.2999 -0.5495
 6313SOL    HW130401   3.677   4.092   6.087  0.5526 -0.1768  1.8149
 6313SOL    HW230402   3.537   4.115   6.126  0.4010  0.0292 -0.4750
 6314SOL     OW30403   0.855   2.260   8.905  0.3018  0.2433  0.1495
 6314SOL    HW130404   0.778   2.256   8.961  0.8381  0.7078  0.9166
 6314SOL    HW230405   0.847   2.344   8.859  1.0474  0.9092  1.2389
 6315SOL     OW30406   0.682   3.629  12.466  0.8129 -0.4158  0.6412
 6315SOL    HW130407   0.634   3.590  12.539 -1.1980  0.6464 -0.1375
 6315SOL    HW230408   0.630   3.703  12.437  1.1860 -0.9898 -1.5348
 6316SOL     OW30409   2.634   2.787   3.109  0.4395  0.5489  0.1484
 6316SOL    HW130410   2.684   2.869   3.105  1.4566 -0.0283  0.8666
 6316SOL    HW230411   2.704   2.724   3.092  0.7651  0.6742  1.0361
 6317SOL     OW30412   0.877   3.023   0.714 -0.1039 -0.2552 -0.0636
 6317SOL    HW130413   0.970   3.047   0.714 -0.2475  0.2861 -1.0524
 6317SOL    HW230414   0.851   3.026   0.622  1.5063 -0.8131 -0.5330
 6318SOL     OW30415   4.240   3.638   2.676  0.0101 -0.5212  0.1986
 6318SOL    HW130416   4.259   3.620   2.584  0.9777  0.6207  0.1611
 6318SOL    HW230417   4.228   3.551   2.714 -3.2145  0.2871  0.9932
 6319SOL     OW30418   3.312   0.698  17.527 -0.2056  0.0488 -0.0760
 6319SOL    HW130419   3.358   0.614  17.528  2.1030  1.2846 -1.5559
 6319SOL    HW230420   3.349   0.735  17.608 -1.1070 -0.2076  0.4535
 6320SOL     OW30421   1.830   0.495   9.229 -0.0264  0.3733  0.1793
 6320SOL    HW130422   1.740   0.519   9.248  0.2405  0.5898  1.1468
 6320SOL    HW230423   1.881   0.525   9.304  0.6304  1.4623 -0.7011
 6321SOL     OW30424   0.310   3.233  14.121 -0.4017 -0.4010  0.2595
 6321SOL    HW130425   0.336   3.186  14.200 -0.7922 -0.4922  0.3324
 6321SOL    HW230426   0.389   3.233  14.066 -0.3185 -1.7058  0.3829
 6322SOL     OW30427   2.110   2.078   1.945  0.2691  0.4875  0.5270
 6322SOL    HW130428   2.140   2.046   2.030 -3.0074  0.4861  1.6745
 6322SOL    HW230429   2.100   2.000   1.891  2.4319 -0.4638  1.5022
 6323SOL     OW30430   0.429   3.154   7.432 -0.0711  0.3562 -0.5181
 6323SOL    HW130431   0.371   3.080   7.450  1.1424 -1.1864 -2.9432
 6323SOL    HW230432   0.479   3.118   7.359 -1.7549  0.0164 -1.4973
 6324SOL     OW30433   4.244   2.718   3.280  0.6391 -0.1444  0.9114
 6324SOL    HW130434   4.315   2.654   3.269  1.0716  0.6367 -0.8262
 6324SOL    HW230435   4.269   2.790   3.222  1.0776 -0.9159  0.1550
 6325SOL     OW30436   3.852   0.979   1.557  0.3298  0.1257  0.1534
 6325SOL    HW130437   3.799   1.046   1.600 -0.6887 -0.7314  0.2259
 6325SOL    HW230438   3.907   1.035   1.502 -0.2405 -0.8215 -1.3742
 6326SOL     OW30439   3.352   2.948   3.551  0.3071  0.0881  0.1316
 6326SOL    HW130440   3.439   2.981   3.528  1.1235 -0.7349  2.0562
 6326SOL    HW230441   3.341   2.875   3.491 -0.4840  0.5069 -0.2402
 6327SOL     OW30442   2.674   4.226  15.284  0.5066  0.0896 -0.5296
 6327SOL    HW130443   2.618   4.240  15.360  1.8787  2.7827 -0.0252
 6327SOL    HW230444   2.749   4.185  15.329 -0.2667 -1.6443 -0.8033
 6328SOL     OW30445   1.699   0.027  14.129 -0.6196 -0.3933 -0.3013
 6328SOL    HW130446   1.715   4.721  14.039  0.8611 -2.0859  0.4865
 6328SOL    HW230447   1.681   0.120  14.115 -0.9116 -0.7323 -2.0780
 6329SOL     OW30448   2.130   3.731   2.657 -0.3919  0.0565 -0.8608
 6329SOL    HW130449   2.117   3.731   2.562  0.2128  3.3884 -0.9421
 6329SOL    HW230450   2.081   3.807   2.688  1.0232  1.1472 -1.3435
 6330SOL     OW30451   4.121   1.200  13.638  0.4035  0.9928  0.4612
 6330SOL    HW130452   4.174   1.231  13.564  0.1754 -0.1310 -0.1743
 6330SOL    HW230453   4.183   1.145  13.685 -1.0361 -0.9291  0.1128
 6331SOL     OW30454   0.459   1.025   3.129 -0.1497 -0.1563  0.1821
 6331SOL    HW130455   0.452   1.053   3.037  2.5563 -0.8072 -0.2267
 6331SOL    HW230456   0.539   0.975   3.143 -0.6398 -0.6136  1.3620
 6332SOL     OW30457   2.495   4.063  15.146  0.1452 -0.3328  0.4954
 6332SOL    HW130458   2.555   4.113  15.201  1.7426 -0.8811 -0.7390
 6332SOL    HW230459   2.515   4.099  15.059 -1.5224 -1.3942 -0.3355
 6333SOL     OW30460   2.296   3.782   5.290 -0.3373 -0.4581 -0.1707
 6333SOL    HW130461   2.246   3.856   5.256 -0.1148  0.2079  0.9510
 6333SOL    HW230462   2.385   3.804   5.265 -0.4676 -1.1182 -1.2129
 6334SOL     OW30463   2.861   1.834   3.377  0.3769 -0.3948  0.6407
 6334SOL    HW130464   2.826   1.778   3.446 -0.7882  0.9539  1.1457
 6334SOL    HW230465   2.947   1.797   3.356 -0.2194 -2.0054  1.0154
 6335SOL     OW30466   1.545   2.861  14.840  0.1118 -0.4591  0.0786
 6335SOL    HW130467   1.577   2.775  14.867  1.4923 -0.3932 -1.3747
 6335SOL    HW230468   1.459   2.847  14.880  0.0795 -1.4894 -0.3503
 6336SOL     OW30469   0.304   3.593  12.727  0.5541  0.1661  0.0102
 6336SOL    HW130470   0.238   3.657  12.754  2.0472  1.3339  0.8180
 6336SOL    HW230471   0.247   3.530  12.681 -0.0067  0.8412 -0.2158
 6337SOL     OW30472   2.297   3.700   3.663  0.4719  0.3218  0.0677
 6337SOL    HW130473   2.305   3.786   3.704  2.1987  0.0553  0.2984
 6337SOL    HW230474   2.390   3.677   3.666  0.1751 -0.5605  2.6222
 6338SOL     OW30475   3.073   2.144   4.625 -0.0771 -0.1769 -0.4259
 6338SOL    HW130476   3.127   2.217   4.594  1.5428 -1.2397 -0.1019
 6338SOL    HW230477   3.001   2.153   4.562 -0.5168  0.2585  0.1320
 6339SOL     OW30478   1.360   3.743   4.258 -0.4011 -0.2104 -0.0909
 6339SOL    HW130479   1.431   3.730   4.194 -1.8846  1.7451 -2.1389
 6339SOL    HW230480   1.380   3.827   4.299  0.6542 -1.0769  1.1814
 6340SOL     OW30481   2.814   1.871   6.647 -0.0744  0.2638  0.4018
 6340SOL    HW130482   2.779   1.835   6.566 -0.3997  1.3220  0.0686
 6340SOL    HW230483   2.883   1.929   6.614 -1.0078  1.3762  0.4185
 6341SOL     OW30484   3.836   4.381   7.316 -0.0799 -0.5875 -0.3599
 6341SOL    HW130485   3.858   4.354   7.227  3.2132 -2.2009  0.9351
 6341SOL    HW230486   3.782   4.310   7.352 -1.7377  0.2545 -1.1995
 6342SOL     OW30487   0.198   2.301   2.030 -0.1466 -0.4878 -0.5592
 6342SOL    HW130488   0.175   2.386   2.068  2.0993  0.0207 -0.3589
 6342SOL    HW230489   0.178   2.321   1.938 -2.0681 -1.1346 -0.2795
 6343SOL     OW30490   0.680   3.064   8.138  0.2275  0.6447  0.1516
 6343SOL    HW130491   0.604   3.122   8.138 -2.0622 -2.3423 -2.3022
 6343SOL    HW230492   0.674   3.040   8.045  2.0165 -0.2463  0.2570
 6344SOL     OW30493   3.110   2.138  11.549 -0.3024  0.0786  0.0233
 6344SOL    HW130494   3.121   2.170  11.638  0.5907 -3.4615  1.1964
 6344SOL    HW230495   3.103   2.218  11.498  2.9292  1.0820  1.1245
 6345SOL     OW30496   3.962   1.733   3.677  0.4033  0.4849 -0.4097
 6345SOL    HW130497   3.881   1.700   3.715 -0.6322  1.9338 -1.3758
 6345SOL    HW230498   3.944   1.823   3.702  0.0340  0.6528 -1.2703
 6346SOL     OW30499   0.047   4.619   5.357 -0.1730  0.2807 -0.1666
 6346SOL    HW130500   0.067   4.526   5.371 -0.3215  0.3130  0.2879
 6346SOL    HW230501   0.125   4.656   5.398  1.1684 -1.9984 -0.6244
 6347SOL     OW30502   0.077   3.479  17.425 -0.7442  0.4359  0.5436
 6347SOL    HW130503   0.005   3.462  17.486  0.7786 -1.6546  1.7432
 6347SOL    HW230504   0.045   3.439  17.344  0.0227  1.9911 -0.5181
 6348SOL     OW30505   2.831   0.696  16.926  0.1798 -0.2282  0.1117
 6348SOL    HW130506   2.898   0.728  16.865 -0.6505 -0.9935 -1.1809
 6348SOL    HW230507   2.764   0.760  16.902  0.4705  0.5798  1.4434
 6349SOL     OW30508   0.935   4.507   4.696 -0.6074  0.4068  0.5619
 6349SOL    HW130509   1.030   4.512   4.705 -0.5010 -2.0314  0.7548
 6349SOL    HW230510   0.913   4.428   4.647 -3.4831  0.0099  2.4579
 6350SOL     OW30511   0.840   2.266   6.671  0.2404  0.1227 -0.5644
 6350SOL    HW130512   0.761   2.318   6.660 -0.5367 -0.7314  0.9234
 6350SOL    HW230513   0.878   2.299   6.753 -1.1219 -0.8393  0.4609
 6351SOL     OW30514   4.262   3.398   2.793 -0.2099 -0.6485 -0.1920
 6351SOL    HW130515   4.241   3.392   2.887  0.1674  3.6445  0.1663
 6351SOL    HW230516   4.343   3.348   2.792  1.1053  1.4820  0.0400
 6352SOL     OW30517   3.923   2.584   4.544  0.3967 -0.4272 -0.4320
 6352SOL    HW130518   3.845   2.634   4.567  1.0775  1.0889 -1.4470
 6352SOL    HW230519   3.971   2.594   4.626 -0.4854 -0.6036  0.1124
 6353SOL     OW30520   0.263   3.023   4.363 -0.1481  0.5432  0.3863
 6353SOL    HW130521   0.251   3.088   4.432 -1.3641  0.3143  0.3820
 6353SOL    HW230522   0.302   2.953   4.417  0.6154  1.2272  0.7284
 6354SOL     OW30523   1.308   4.384   3.847 -0.1245 -0.4726 -0.1886
 6354SOL    HW130524   1.222   4.366   3.809  0.4257  0.9613 -2.1486
 6354SOL    HW230525   1.353   4.398   3.764 -1.5374 -3.6388 -1.4826
 6355SOL     OW30526   2.288   0.952   3.297  0.6036  0.3339 -0.4488
 6355SOL    HW130527   2.268   0.903   3.217  1.8897 -0.7165 -0.1281
 6355SOL    HW230528   2.202   0.968   3.337  0.9165  0.0469  0.3398
 6356SOL     OW30529   1.869   2.174   5.653 -0.0738 -0.6642  0.2133
 6356SOL    HW130530   1.860   2.097   5.708 -1.8380 -0.6389 -0.0544
 6356SOL    HW230531   1.789   2.159   5.603  0.5365  0.3207 -1.0574
 6357SOL     OW30532   3.114   1.526   5.140  0.9593  0.1988 -0.2558
 6357SOL    HW130533   3.033   1.538   5.190  0.7099 -0.0901 -0.5864
 6357SOL    HW230534   3.169   1.482   5.205  0.1484 -0.3103  0.0839
 6358SOL     OW30535   4.487   0.810  15.836 -0.0328 -0.6318  0.1243
 6358SOL    HW130536   4.422   0.879  15.850  0.6492  0.4536 -2.0871
 6358SOL    HW230537   4.550   0.873  15.802 -0.4169 -1.1652 -1.5838
 6359SOL     OW30538   4.361   3.590   5.861 -0.1007 -0.1867  0.6462
 6359SOL    HW130539   4.454   3.586   5.880  0.0121 -0.2723  0.0804
 6359SOL    HW230540   4.340   3.497   5.856 -0.2676 -0.1603  0.8612
 6360SOL     OW30541   0.142   4.067  17.118 -0.3834  0.0482  0.2097
 6360SOL    HW130542   0.181   4.014  17.048  0.5556 -0.4542  1.1100
 6360SOL    HW230543   0.104   3.997  17.171 -3.1470  0.3282 -1.3885
 6361SOL     OW30544   2.642   0.197   6.863 -0.3913 -0.0736  0.0444
 6361SOL    HW130545   2.698   0.267   6.899  0.3906 -0.2989 -0.7333
 6361SOL    HW230546   2.692   0.126   6.903 -0.5855 -1.0219 -1.4299
 6362SOL     OW30547   4.558   4.108   2.568  0.2147 -0.3736  0.1798
 6362SOL    HW130548   4.649   4.134   2.586  0.6897 -1.3097 -0.9084
 6362SOL    HW230549   4.571   4.017   2.592 -0.4350 -0.4014  0.4306
 6363SOL     OW30550   4.196   4.512  14.108 -0.9154 -0.2283  0.9945
 6363SOL    HW130551   4.191   4.416  14.108 -0.0068 -0.2630 -1.6252
 6363SOL    HW230552   4.112   4.538  14.072  0.5049  0.4346 -1.7931
 6364SOL     OW30553   0.591   3.568  12.718 -0.2085  0.5695  0.1723
 6364SOL    HW130554   0.496   3.575  12.707 -0.1611  0.4060 -0.3824
 6364SOL    HW230555   0.592   3.499  12.784  2.0573  0.8870  0.4710
 6365SOL     OW30556   2.490   4.633   7.964 -0.2055  0.1342  0.5818
 6365SOL    HW130557   2.517   4.553   8.010  0.4310  0.5050  0.8546
 6365SOL    HW230558   2.462   4.689   8.036  0.7590 -0.2999  1.3016
 6366SOL     OW30559   0.518   0.884   5.808  0.1769 -0.2180  0.1497
 6366SOL    HW130560   0.548   0.821   5.743 -1.5394 -0.5356 -0.3484
 6366SOL    HW230561   0.511   0.960   5.750  1.7400 -1.5804 -1.8176
 6367SOL     OW30562   3.995   2.492   4.888  0.0589 -0.0195 -0.1373
 6367SOL    HW130563   4.058   2.445   4.833  2.0852  0.6140  1.6385
 6367SOL    HW230564   3.984   2.431   4.960 -1.3192 -0.0992 -0.4257
 6368SOL     OW30565   1.300   2.352   5.565  0.3156 -0.9486  0.6624
 6368SOL    HW130566   1.380   2.338   5.615  1.0447 -2.0956 -0.8318
 6368SOL    HW230567   1.336   2.343   5.477 -1.3574  1.0584 -0.2282
 6369SOL     OW30568   2.153   3.228   5.870  0.4835 -0.2121  0.1889
 6369SOL    HW130569   2.244   3.228   5.843 -0.2551  2.4063 -2.2841
 6369SOL    HW230570   2.108   3.243   5.786  0.1649 -2.9345 -0.1598
 6370SOL     OW30571   0.868   1.535   7.768 -0.1953 -0.0736  0.1025
 6370SOL    HW130572   0.932   1.467   7.748 -0.7585 -0.1487 -1.3965
 6370SOL    HW230573   0.927   1.608   7.787  0.8708 -0.9156  0.0333
 6371SOL     OW30574   1.731   4.175  13.446  0.6870 -0.4624 -0.2018
 6371SOL    HW130575   1.737   4.160  13.541 -4.2016 -1.1526 -0.0316
 6371SOL    HW230576   1.642   4.202  13.426  0.5698 -0.2224  0.6245
 6372SOL     OW30577   0.728   1.999   4.892 -0.1348 -0.3906 -0.2050
 6372SOL    HW130578   0.760   1.999   4.982 -2.3485 -2.6540  0.6250
 6372SOL    HW230579   0.693   1.910   4.884  0.7663 -0.7932  0.4142
 6373SOL     OW30580   3.939   0.170   7.204 -1.2962  0.1276  0.5074
 6373SOL    HW130581   3.867   0.231   7.223 -3.4138 -2.4540  0.7623
 6373SOL    HW230582   3.912   0.099   7.262  1.8256 -0.9424  0.6236
 6374SOL     OW30583   4.278   2.430   8.833 -0.0013  0.4891 -0.0951
 6374SOL    HW130584   4.248   2.393   8.916 -1.3480  3.7477  0.8861
 6374SOL    HW230585   4.234   2.377   8.767  0.4348  0.2931 -0.2294
 6375SOL     OW30586   4.562   1.908   4.773 -0.1798  0.4834  0.5354
 6375SOL    HW130587   4.595   1.998   4.769 -0.7527  0.7656  1.9791
 6375SOL    HW230588   4.478   1.923   4.730  1.1139  2.9725 -1.0970
 6376SOL     OW30589   1.905   0.462   6.098 -0.3785 -0.3701  0.6008
 6376SOL    HW130590   1.893   0.394   6.032  0.2982 -0.7700  0.8845
 6376SOL    HW230591   1.932   0.416   6.178  0.4068  2.3735  1.9182
 6377SOL     OW30592   0.229   3.314   5.630 -0.2688  0.5538 -0.4213
 6377SOL    HW130593   0.196   3.296   5.542 -0.4457  0.7204 -0.3897
 6377SOL    HW230594   0.207   3.241   5.688  0.8322  1.0975  0.6756
 6378SOL     OW30595   0.714   3.796   5.979  0.6982 -0.2921 -0.0080
 6378SOL    HW130596   0.636   3.742   5.997 -1.8529  2.8175 -1.7144
 6378SOL    HW230597   0.746   3.738   5.909  0.1577  0.3508 -0.7907
 6379SOL     OW30598   0.044   2.198   7.257 -0.2402 -0.0966  0.1471
 6379SOL    HW130599   0.063   2.195   7.163  0.7981 -0.0778  0.3618
 6379SOL    HW230600   0.075   2.111   7.282  0.7727 -0.1708 -1.3908
 6380SOL     OW30601   0.396   0.118   4.203 -0.5442 -0.6132  0.9200
 6380SOL    HW130602   0.361   0.078   4.124 -0.7361 -0.8311  1.1139
 6380SOL    HW230603   0.489   0.102   4.189 -0.8594 -1.7991  0.1956
 6381SOL     OW30604   2.325   1.691   2.562 -0.0093 -0.1718 -0.0969
 6381SOL    HW130605   2.379   1.654   2.492  0.5423  0.1437  0.1707
 6381SOL    HW230606   2.382   1.757   2.600  0.2004 -1.2028  1.3842
 6382SOL     OW30607   0.677   2.246   8.226 -0.2688 -0.5496 -0.1333
 6382SOL    HW130608   0.646   2.168   8.273  2.4078 -2.2479 -1.2299
 6382SOL    HW230609   0.618   2.311   8.264 -1.5976 -0.8134 -1.7668
 6383SOL     OW30610   1.347   2.549   9.075  0.2017  0.5552 -0.1649
 6383SOL    HW130611   1.273   2.551   9.014 -0.1963  2.6871  0.3963
 6383SOL    HW230612   1.324   2.476   9.132  2.1177 -0.5961 -0.8486
 6384SOL     OW30613   1.701   3.286   3.260  0.2493 -0.3496 -0.1282
 6384SOL    HW130614   1.792   3.298   3.286  0.3422 -1.4978  0.1016
 6384SOL    HW230615   1.673   3.220   3.324 -0.2044  0.9220  0.9773
 6385SOL     OW30616   4.114   3.320  16.255 -0.1858  0.4448  0.1161
 6385SOL    HW130617   4.187   3.261  16.268 -2.1167 -1.3700  2.8017
 6385SOL    HW230618   4.126   3.339  16.162  2.0315 -0.5619  0.1957
 6386SOL     OW30619   0.681   0.860   3.112 -0.0005 -0.3179 -0.1063
 6386SOL    HW130620   0.709   0.836   3.023  1.2962 -0.8576  0.4441
 6386SOL    HW230621   0.756   0.911   3.141  0.2499 -1.2942  0.9602
 6387SOL     OW30622   0.920   2.055   0.339  0.2304 -0.2545 -0.7936
 6387SOL    HW130623   0.849   2.112   0.369  1.5244  2.0277 -2.1024
 6387SOL    HW230624   0.878   2.012   0.264 -1.6646  1.3255 -0.6484
 6388SOL     OW30625   4.117   0.743   9.778  0.1389 -0.8217 -0.2960
 6388SOL    HW130626   4.202   0.700   9.775  0.6503  0.0073  1.9445
 6388SOL    HW230627   4.064   0.684   9.724 -1.0840 -0.9218  1.0160
 6389SOL     OW30628   1.726   3.940   2.395  0.6492  0.0822 -0.3527
 6389SOL    HW130629   1.672   3.969   2.468  0.3681 -2.4860  0.4525
 6389SOL    HW230630   1.668   3.966   2.323 -2.8960 -3.2687  1.3415
 6390SOL     OW30631   0.821   1.482   2.630  0.3067  0.4537  0.4591
 6390SOL    HW130632   0.854   1.553   2.685 -0.2610  1.8774 -1.0132
 6390SOL    HW230633   0.878   1.498   2.554 -2.9776 -0.0740 -2.1191
 6391SOL     OW30634   1.124   0.775   2.938 -0.4324 -0.3859  0.1927
 6391SOL    HW130635   1.185   0.808   3.003  1.5230  2.1932 -2.9175
 6391SOL    HW230636   1.083   0.855   2.903  0.1521  0.1952  0.8556
 6392SOL     OW30637   3.885   0.521   4.696  0.3639 -0.3032 -0.2286
 6392SOL    HW130638   3.973   0.555   4.684 -0.3931  0.9724 -2.1197
 6392SOL    HW230639   3.836   0.542   4.616  0.1138 -1.5203 -0.3966
 6393SOL     OW30640   0.477   3.535  14.446  0.2641  0.2269 -0.5661
 6393SOL    HW130641   0.465   3.442  14.466  0.6982  0.6539  1.6295
 6393SOL    HW230642   0.481   3.568  14.536  3.1363  1.0089 -0.9718
 6394SOL     OW30643   4.151   1.567   4.198 -0.2642 -0.0608  0.1636
 6394SOL    HW130644   4.139   1.482   4.156 -0.4750  0.2956 -0.5031
 6394SOL    HW230645   4.106   1.540   4.278  1.8464 -1.9719  0.7160
 6395SOL     OW30646   2.734   4.713   3.779 -0.2327 -0.0264 -0.4068
 6395SOL    HW130647   2.646   4.677   3.786 -0.8214  1.5435  0.1524
 6395SOL    HW230648   2.723   0.082   3.809 -0.0328 -0.0873 -0.1562
 6396SOL     OW30649   3.961   4.298   5.120 -0.4463 -0.1737  0.2925
 6396SOL    HW130650   4.010   4.216   5.118  0.2573  0.2545 -0.4923
 6396SOL    HW230651   3.875   4.286   5.160  0.6502 -3.1285  1.7616
 6397SOL     OW30652   3.966   1.534   7.631 -0.4329 -0.4817  0.2039
 6397SOL    HW130653   4.035   1.490   7.581  2.6013  1.9455  2.2735
 6397SOL    HW230654   3.922   1.598   7.574 -0.8839 -0.8799  0.1031
 6398SOL     OW30655   0.521   2.054   8.557  0.4419 -0.0283 -1.2098
 6398SOL    HW130656   0.426   2.067   8.553  0.3818 -0.0624  0.1089
 6398SOL    HW230657   0.555   2.116   8.621  2.0064 -0.6733 -1.4167
 6399SOL     OW30658   0.653   4.721   7.235  0.6161 -0.1364 -0.5987
 6399SOL    HW130659   0.600   4.692   7.310  0.5037  0.4558 -0.4528
 6399SOL    HW230660   0.660   4.635   7.193  1.8419  0.2198 -1.0946
 6400SOL     OW30661   3.119   4.051   8.790  0.3792 -0.6945 -0.4871
 6400SOL    HW130662   3.047   4.098   8.748  0.8094 -0.9502 -1.5094
 6400SOL    HW230663   3.184   4.119   8.811 -1.2185  0.8486 -0.5745
 6401SOL     OW30664   2.712   4.258   2.639 -0.1051 -0.3030 -0.2727
 6401SOL    HW130665   2.684   4.298   2.557  0.3582 -1.0028 -0.7690
 6401SOL    HW230666   2.769   4.190   2.604 -0.2627 -0.1961 -0.7294
 6402SOL     OW30667   2.940   2.629  16.490 -0.4990  0.4158  0.2538
 6402SOL    HW130668   2.939   2.725  16.490 -1.7159  0.4020 -0.7848
 6402SOL    HW230669   2.902   2.607  16.405  0.9031 -0.0133 -0.2695
 6403SOL     OW30670   1.687   1.335   4.421 -0.4605  0.1534  0.1546
 6403SOL    HW130671   1.699   1.243   4.444  3.4446  0.6753  0.2581
 6403SOL    HW230672   1.663   1.369   4.507 -0.2548  0.6535  0.0153
 6404SOL     OW30673   3.766   0.337   5.127  0.4604 -0.0722  0.2386
 6404SOL    HW130674   3.862   0.344   5.120  0.2706  1.8710 -0.4902
 6404SOL    HW230675   3.743   0.364   5.038 -0.6166 -0.4035  0.4135
 6405SOL     OW30676   4.579   3.673   0.918 -0.3513  0.9462  0.0766
 6405SOL    HW130677   4.662   3.719   0.904  0.4403 -0.7604 -0.8513
 6405SOL    HW230678   4.558   3.701   1.007 -0.3342  1.0422  0.0502
 6406SOL     OW30679   2.359   1.189   6.476  0.1032  0.1986  0.2123
 6406SOL    HW130680   2.367   1.207   6.382  0.4791 -3.5568 -0.4737
 6406SOL    HW230681   2.273   1.147   6.470 -0.5297  1.1275  2.9293
 6407SOL     OW30682   2.098   0.742   7.087 -0.1668  0.0652  0.0273
 6407SOL    HW130683   2.119   0.685   7.161  0.3251  0.9371  0.5586
 6407SOL    HW230684   2.068   0.816   7.138  0.1995 -0.3803  0.8816
 6408SOL     OW30685   1.391   0.162   0.689 -0.1294 -0.3929 -0.3730
 6408SOL    HW130686   1.359   0.230   0.748  1.1424  1.0009 -1.2534
 6408SOL    HW230687   1.365   0.202   0.606 -2.9934 -1.0630  0.2234
 6409SOL     OW30688   3.478   2.875   5.751  0.2845  0.1635 -0.6414
 6409SOL    HW130689   3.506   2.960   5.718  0.6348 -0.0885 -1.0013
 6409SOL    HW230690   3.388   2.873   5.718  0.7744 -1.2278 -1.9025
 6410SOL     OW30691   2.768   1.531   4.463 -0.2662  0.4842 -0.2975
 6410SOL    HW130692   2.824   1.466   4.421  1.4038  1.5947  0.2325
 6410SOL    HW230693   2.753   1.492   4.549 -0.1793  1.1557  0.0146
 6411SOL     OW30694   3.760   3.042  15.869 -0.1885 -0.3204 -0.0006
 6411SOL    HW130695   3.794   3.074  15.953 -1.6460  0.4214  0.2993
 6411SOL    HW230696   3.811   3.090  15.804 -0.9289  0.6359  0.1360
 6412SOL     OW30697   2.357   1.376   2.321  0.3075  0.3053 -0.6145
 6412SOL    HW130698   2.352   1.465   2.285 -2.0387  0.0915 -0.7793
 6412SOL    HW230699   2.450   1.359   2.305  0.4588 -0.3815  0.9849
 6413SOL     OW30700   4.310   2.122   6.210 -0.2231  0.6941  0.4973
 6413SOL    HW130701   4.323   2.094   6.300  1.2913 -1.1597 -0.2915
 6413SOL    HW230702   4.380   2.074   6.164  0.2290  1.2046  0.6525
 6414SOL     OW30703   4.413   2.487   6.654  0.0175  0.7594 -0.9861
 6414SOL    HW130704   4.505   2.472   6.679 -0.3526  1.7795  1.0272
 6414SOL    HW230705   4.359   2.419   6.695  2.8480 -1.0214 -0.1776
 6415SOL     OW30706   0.224   4.566  13.250  0.3006 -0.2482 -0.0386
 6415SOL    HW130707   0.224   4.504  13.178 -0.4219 -0.0784 -0.1790
 6415SOL    HW230708   0.274   4.524  13.320 -1.0894 -1.6320  0.1196
 6416SOL     OW30709   1.793   3.019   2.029  1.1941  0.5005 -0.3854
 6416SOL    HW130710   1.841   3.087   1.981  0.1770  0.0597 -2.0419
 6416SOL    HW230711   1.759   2.949   1.973 -0.9747  2.1009 -1.0600
 6417SOL     OW30712   2.577   1.419   8.390 -0.0981  0.0113  0.2913
 6417SOL    HW130713   2.512   1.372   8.338  0.7674  0.4415 -1.1768
 6417SOL    HW230714   2.591   1.362   8.466  1.7576  1.8999  1.3434
 6418SOL     OW30715   1.190   4.506   5.096  0.8120  0.0460 -0.4595
 6418SOL    HW130716   1.197   4.419   5.057  4.0621  0.1480 -0.1274
 6418SOL    HW230717   1.270   4.545   5.061  1.0969 -0.4965 -0.4098
 6419SOL     OW30718   4.482   1.018   4.727  0.3747 -0.1490  0.3203
 6419SOL    HW130719   4.471   1.083   4.797 -1.3143 -1.0826  0.9160
 6419SOL    HW230720   4.458   0.942   4.780  0.3976 -0.7881 -0.5904
 6420SOL     OW30721   0.090   2.530  16.282 -0.3107  0.1239  0.9021
 6420SOL    HW130722   0.049   2.551  16.366 -1.0455 -0.8922  0.7933
 6420SOL    HW230723   0.150   2.458  16.301  0.6073  0.0204 -2.3055
 6421SOL     OW30724   1.036   2.361  15.292 -0.0654 -0.2847 -0.2270
 6421SOL    HW130725   1.022   2.411  15.212  1.4818 -1.1484 -1.0314
 6421SOL    HW230726   0.995   2.275  15.280  0.4880 -0.7950  1.5089
 6422SOL     OW30727   3.498   0.441   4.510  0.1614  0.8142  0.0149
 6422SOL    HW130728   3.410   0.404   4.509 -0.6418  2.7385 -1.0028
 6422SOL    HW230729   3.541   0.356   4.516 -0.6415  0.4428  0.3413
 6423SOL     OW30730   4.211   1.755   7.710 -0.1026 -0.0099  0.2074
 6423SOL    HW130731   4.117   1.771   7.722  0.0032 -1.2501  2.5775
 6423SOL    HW230732   4.254   1.819   7.766  0.2175  1.5058 -1.7785
 6424SOL     OW30733   0.088   1.548   2.417 -0.4350 -0.5181  0.1214
 6424SOL    HW130734   0.130   1.505   2.343 -1.3107  3.1887 -2.4662
 6424SOL    HW230735   0.133   1.632   2.414  1.8176 -1.7235  0.5690
 6425SOL     OW30736   4.229   1.504   5.520  0.2463  0.4249 -1.0698
 6425SOL    HW130737   4.204   1.534   5.608  0.9676 -0.9227 -0.4047
 6425SOL    HW230738   4.177   1.424   5.510  0.9144  0.1091 -2.0026
 6426SOL     OW30739   3.805   2.844   8.747 -0.0475 -0.4145 -0.0418
 6426SOL    HW130740   3.762   2.929   8.752 -0.9763 -0.8861 -0.0824
 6426SOL    HW230741   3.741   2.783   8.784  1.6944 -0.7415  2.4238
 6427SOL     OW30742   0.074   0.564   5.383  0.4673  0.4322  0.6468
 6427SOL    HW130743   0.076   0.581   5.289  0.5144 -0.3407  0.5134
 6427SOL    HW230744   0.093   0.472   5.402  0.2008  0.2823  0.1837
 6428SOL     OW30745   2.785   4.024  11.616 -0.1572  0.3748 -0.5342
 6428SOL    HW130746   2.716   4.089  11.616  1.5455  2.1691 -0.8839
 6428SOL    HW230747   2.859   4.083  11.603  0.3710  0.1431  1.3911
 6429SOL     OW30748   0.625   0.690  14.958 -0.2317 -0.1206  0.3315
 6429SOL    HW130749   0.644   0.759  15.022 -0.6123 -1.7895  2.2527
 6429SOL    HW230750   0.542   0.720  14.923  1.5281  3.4731 -0.7861
 6430SOL     OW30751   4.122   3.842  16.713 -0.3920  0.4134 -0.5911
 6430SOL    HW130752   4.142   3.933  16.734  0.2945  0.4217 -1.3209
 6430SOL    HW230753   4.080   3.862  16.629  0.3492  1.8683 -0.6226
 6431SOL     OW30754   2.290   1.068  10.416 -0.0604 -0.5190 -0.1445
 6431SOL    HW130755   2.257   1.126  10.347 -0.0820 -0.1634  0.1669
 6431SOL    HW230756   2.225   1.088  10.483 -0.6001 -0.8048 -0.5785
 6432SOL     OW30757   0.997   1.745  14.740  0.6348  0.2140  0.1598
 6432SOL    HW130758   0.961   1.830  14.715 -0.7639 -0.2724  0.5429
 6432SOL    HW230759   0.970   1.691  14.667 -0.3623  1.5315 -0.4527
 6433SOL     OW30760   3.567   3.403   8.596  0.4662  0.1742  0.1955
 6433SOL    HW130761   3.485   3.400   8.546 -0.3880  0.1360  1.5610
 6433SOL    HW230762   3.607   3.325   8.558 -3.5612 -2.3800  1.1776
 6434SOL     OW30763   2.396   3.215   2.766 -0.2780  0.1095  0.7304
 6434SOL    HW130764   2.399   3.308   2.787  0.5880 -0.1320  1.6554
 6434SOL    HW230765   2.305   3.200   2.793 -0.5610  1.7525  0.7103
 6435SOL     OW30766   2.624   3.055   0.079 -0.5863  0.0549  0.7874
 6435SOL    HW130767   2.672   3.118   0.025  0.4038 -2.1550 -0.8670
 6435SOL    HW230768   2.604   2.984   0.019 -1.4047  0.4012  0.6489
 6436SOL     OW30769   0.552   4.142   3.254  0.0881 -0.4367  0.0498
 6436SOL    HW130770   0.571   4.050   3.233 -0.2499  0.1540 -2.8343
 6436SOL    HW230771   0.459   4.136   3.278  0.1575 -0.1883  0.3725
 6437SOL     OW30772   3.286   3.338   0.677  0.6870 -0.3229 -0.0160
 6437SOL    HW130773   3.266   3.431   0.672  1.3524 -0.1646  0.2052
 6437SOL    HW230774   3.213   3.316   0.736  1.5176  1.6349  1.7372
 6438SOL     OW30775   0.466   1.914   0.136  0.0180  0.3158 -0.3723
 6438SOL    HW130776   0.445   1.969   0.060  1.7826 -0.1684 -1.2193
 6438SOL    HW230777   0.465   1.980   0.206  1.3342  1.0765 -1.0622
 6439SOL     OW30778   4.559   3.025   0.291 -0.3547 -0.0778  0.4751
 6439SOL    HW130779   4.500   2.950   0.289 -2.2388  1.4644 -1.8421
 6439SOL    HW230780   4.614   2.995   0.218 -0.7097  1.6648 -0.5087
 6440SOL     OW30781   1.627   4.534   4.511 -0.0039  0.2211  0.5330
 6440SOL    HW130782   1.593   4.454   4.550  0.1042  0.3230  0.8349
 6440SOL    HW230783   1.710   4.511   4.468 -0.5138  0.7925 -0.7532
 6441SOL     OW30784   3.670   3.119   7.738 -0.6456  0.1509 -0.4256
 6441SOL    HW130785   3.703   3.208   7.751 -1.5799 -0.1188  3.6699
 6441SOL    HW230786   3.621   3.104   7.818 -2.6301  1.7064 -1.3602
 6442SOL     OW30787   4.266   3.184   7.946 -0.1554  0.2754  0.6856
 6442SOL    HW130788   4.185   3.217   7.984 -0.7924 -0.9675  0.3844
 6442SOL    HW230789   4.229   3.133   7.875 -0.4413  0.4213  0.7302
 6443SOL     OW30790   0.098   4.392   7.456 -0.3107 -0.0500  0.3911
 6443SOL    HW130791   0.102   4.340   7.376 -1.8138 -1.0641  0.9556
 6443SOL    HW230792   0.008   4.425   7.461 -0.8160 -1.1615 -1.4167
 6444SOL     OW30793   2.066   3.819   4.797  0.4513 -0.0699 -0.2810
 6444SOL    HW130794   2.155   3.802   4.827  0.4188 -0.4079 -0.3794
 6444SOL    HW230795   2.064   3.750   4.732  0.3448 -0.0584 -0.2903
 6445SOL     OW30796   3.373   3.314  16.931 -0.3998  0.0694 -0.1553
 6445SOL    HW130797   3.414   3.303  17.016 -0.7758  0.2240  0.0436
 6445SOL    HW230798   3.283   3.336  16.954 -0.6298 -1.5209  0.4804
 6446SOL     OW30799   3.766   0.276  17.440  0.3123 -0.1874 -0.0378
 6446SOL    HW130800   3.746   0.369  17.437 -1.4298 -0.6033 -1.4029
 6446SOL    HW230801   3.808   0.266  17.355  0.2584 -0.6272 -0.0165
 6447SOL     OW30802   2.079   0.245   8.974 -0.0354 -0.3012  0.0778
 6447SOL    HW130803   2.003   0.289   8.938  0.2236 -0.0114 -0.1128
 6447SOL    HW230804   2.082   0.279   9.064 -4.0131 -1.5071  0.6743
 6448SOL     OW30805   0.875   2.719   7.152 -0.3838 -0.5925  0.4378
 6448SOL    HW130806   0.849   2.748   7.065 -1.1319 -4.3686 -0.5881
 6448SOL    HW230807   0.790   2.687   7.181 -1.3566 -1.3444 -3.2700
 6449SOL     OW30808   0.000   3.463  15.468 -0.9114 -0.0825 -0.0541
 6449SOL    HW130809   4.657   3.392  15.471 -1.7977  0.7584  1.0321
 6449SOL    HW230810   0.011   3.481  15.375 -0.1589 -1.1785 -0.1745
 6450SOL     OW30811   1.154   2.650   4.572  0.3702  0.3464  0.2953
 6450SOL    HW130812   1.248   2.661   4.559  0.5872 -3.7219 -1.6771
 6450SOL    HW230813   1.141   2.562   4.609  0.3338 -0.0748 -0.7118
 6451SOL     OW30814   0.843   1.446   6.384  0.6152 -0.5208  0.4409
 6451SOL    HW130815   0.897   1.402   6.450 -1.6207 -3.3563  0.4068
 6451SOL    HW230816   0.891   1.528   6.378  2.0526 -1.4024 -0.0300
 6452SOL     OW30817   1.110   3.965  14.491 -0.5601 -0.2558 -0.6150
 6452SOL    HW130818   1.180   3.954  14.428 -0.0063  2.3791 -0.4726
 6452SOL    HW230819   1.140   4.046  14.532  0.7472 -1.4460  0.7962
 6453SOL     OW30820   2.030   3.353  13.697  0.4088  0.6159 -0.2937
 6453SOL    HW130821   2.103   3.377  13.640  0.4862  1.4081  0.1297
 6453SOL    HW230822   1.958   3.389  13.645  1.0709  1.3809 -0.6741
 6454SOL     OW30823   0.321   2.768  14.800 -0.2055  0.7117  0.1490
 6454SOL    HW130824   0.378   2.693  14.781 -0.4614 -0.3278  3.4348
 6454SOL    HW230825   0.350   2.803  14.885 -1.4033 -1.1740  1.3364
 6455SOL     OW30826   3.516   4.371   6.748 -0.1992 -0.2149  0.8639
 6455SOL    HW130827   3.430   4.396   6.714 -0.0024  0.3724  0.8005
 6455SOL    HW230828   3.551   4.445   6.797  2.7167 -0.1543 -1.2354
 6456SOL     OW30829   0.553   0.373   6.969  0.7814 -0.0987  0.4457
 6456SOL    HW130830   0.615   0.392   7.039 -0.4078 -0.1712  1.5234
 6456SOL    HW230831   0.527   0.462   6.945 -1.9501 -0.6970  1.1355
 6457SOL     OW30832   4.369   1.728  13.298  0.2798  0.5169  0.1634
 6457SOL    HW130833   4.317   1.782  13.357  1.8918  0.0629  1.9786
 6457SOL    HW230834   4.456   1.763  13.315  0.9835 -0.5429 -1.2419
 6458SOL     OW30835   2.252   1.879   7.873  0.3645  0.0212  0.8117
 6458SOL    HW130836   2.171   1.830   7.888 -0.4985  0.4335 -2.6483
 6458SOL    HW230837   2.243   1.908   7.783 -0.3425  1.2764  1.2944
 6459SOL     OW30838   3.173   2.112   2.895  0.1573 -0.3121 -0.2205
 6459SOL    HW130839   3.091   2.129   2.942 -0.8383 -0.6767 -1.8027
 6459SOL    HW230840   3.175   2.018   2.909  1.5079 -0.3397 -0.6690
 6460SOL     OW30841   2.070   3.722   7.800  0.5054  0.0185  0.0653
 6460SOL    HW130842   2.054   3.679   7.715 -3.7864 -0.6816  1.2187
 6460SOL    HW230843   2.076   3.645   7.855 -0.1603 -1.0439 -1.3364
 6461SOL     OW30844   0.323   1.631   7.350 -0.0655 -0.2372 -0.4441
 6461SOL    HW130845   0.257   1.567   7.377  1.5046 -0.3521  3.1367
 6461SOL    HW230846   0.368   1.637   7.434 -1.3674 -1.1562  0.3133
 6462SOL     OW30847   0.193   4.155  12.753  0.5059  0.2076 -0.0520
 6462SOL    HW130848   0.182   4.206  12.673 -0.2244  2.7994  1.6805
 6462SOL    HW230849   0.271   4.099  12.743 -0.3355 -1.1079  0.7435
 6463SOL     OW30850   3.655   0.239  10.054 -0.1026  0.2348 -0.3221
 6463SOL    HW130851   3.742   0.215  10.023  0.5527  1.1128  0.8478
 6463SOL    HW230852   3.627   0.150  10.078  1.7613  0.1273  1.4410
 6464SOL     OW30853   1.718   3.497  17.180  0.5175  0.1697 -0.2446
 6464SOL    HW130854   1.809   3.524  17.168  0.8599 -0.1861  1.5216
 6464SOL    HW230855   1.708   3.431  17.111 -1.4985  0.1146  0.1031
 6465SOL     OW30856   3.006   3.061   4.871 -0.2224  0.0439 -0.0873
 6465SOL    HW130857   3.057   3.055   4.790 -0.5766 -2.3736 -0.1235
 6465SOL    HW230858   2.988   3.155   4.873  0.2912  0.1269  0.5883
 6466SOL     OW30859   1.189   4.686   2.476  0.2740  0.3501 -0.3420
 6466SOL    HW130860   1.116   4.703   2.416  2.0488 -2.5065 -3.3267
 6466SOL    HW230861   1.254   0.031   2.451 -1.6117  1.6796 -1.7268
 6467SOL     OW30862   1.148   3.599   6.403 -0.1141  0.3742  0.0056
 6467SOL    HW130863   1.127   3.508   6.381 -1.0740  0.1519  1.8852
 6467SOL    HW230864   1.072   3.650   6.374  1.6144  3.2056  0.4847
 6468SOL     OW30865   2.060   4.082   8.231  0.2787 -0.2487 -0.1843
 6468SOL    HW130866   2.079   3.988   8.237  2.2294  0.1596  0.2055
 6468SOL    HW230867   2.128   4.121   8.176  1.4010 -1.3929  0.3797
 6469SOL     OW30868   3.384   3.908   7.771  0.3528 -0.0052 -0.2513
 6469SOL    HW130869   3.443   3.878   7.840 -1.0709 -0.6475  0.6888
 6469SOL    HW230870   3.441   3.921   7.695  0.6219  1.3837  0.1817
 6470SOL     OW30871   2.092   1.162   5.343  0.0472  0.1324 -0.1892
 6470SOL    HW130872   2.001   1.172   5.314 -0.5522  1.9265  2.3006
 6470SOL    HW230873   2.134   1.142   5.259 -1.6098  0.6978 -1.1678
 6471SOL     OW30874   1.349   1.728  10.250  0.2047 -0.2792  0.4632
 6471SOL    HW130875   1.310   1.642  10.265 -0.0104 -0.5573 -1.5748
 6471SOL    HW230876   1.313   1.746  10.163  1.1462  1.0558  0.3615
 6472SOL     OW30877   2.265   2.924   4.343 -0.2140 -0.4438 -0.1929
 6472SOL    HW130878   2.295   2.839   4.312 -0.0826 -0.8404  1.0193
 6472SOL    HW230879   2.318   2.938   4.422  1.0327 -4.9683 -0.2567
 6473SOL     OW30880   3.372   3.295   5.003  0.0405  0.0433 -0.1690
 6473SOL    HW130881   3.366   3.371   5.061  1.4857 -0.1848  0.2790
 6473SOL    HW230882   3.436   3.330   4.942 -1.4372 -1.0328 -2.3418
 6474SOL     OW30883   2.393   0.084  17.328 -0.5060  0.1105  1.0030
 6474SOL    HW130884   2.412   4.715  17.301 -1.0017  0.1373  0.5815
 6474SOL    HW230885   2.480   0.120  17.307 -0.2927 -1.5048 -0.8622
 6475SOL     OW30886   0.969   3.398   1.219  0.8350  0.1777 -0.0856
 6475SOL    HW130887   0.973   3.409   1.124 -0.3432 -0.3985 -0.1951
 6475SOL    HW230888   1.049   3.438   1.253 -0.6693  1.7498  1.6129
 6476SOL     OW30889   4.381   0.709   4.599 -0.0189  0.4439 -0.4670
 6476SOL    HW130890   4.429   0.673   4.674 -0.8153  0.8224  0.2212
 6476SOL    HW230891   4.456   0.746   4.552  0.7215 -2.6996 -1.7893
 6477SOL     OW30892   2.947   2.763  16.146 -0.5038  0.2925  0.2215
 6477SOL    HW130893   2.942   2.820  16.223  1.1329 -0.0977  0.5999
 6477SOL    HW230894   2.945   2.679  16.193  0.0253  1.6102  2.5959
 6478SOL     OW30895   3.141   2.006   8.666 -0.0726  0.0656  0.7383
 6478SOL    HW130896   3.125   1.915   8.642 -1.4027  1.1713 -2.4624
 6478SOL    HW230897   3.228   2.006   8.626 -1.5119  2.3625 -2.3142
 6479SOL     OW30898   2.690   1.786   2.149 -0.1004 -0.0344 -0.2605
 6479SOL    HW130899   2.740   1.820   2.075  1.6423  0.6829  1.2384
 6479SOL    HW230900   2.640   1.863   2.173  0.8798  0.4801  0.1315
 6480SOL     OW30901   1.226   4.518   7.683  0.1610 -0.7403  0.4344
 6480SOL    HW130902   1.138   4.489   7.657 -0.2869 -0.7916  2.0007
 6480SOL    HW230903   1.213   4.611   7.667  1.4785 -0.5626  0.4377
 6481SOL     OW30904   1.949   2.058   7.983 -0.2678  0.1804 -0.3049
 6481SOL    HW130905   1.915   1.969   7.997 -1.3916  0.7249  0.4129
 6481SOL    HW230906   1.927   2.101   8.066  0.0690 -1.4084  0.6184
 6482SOL     OW30907   0.982   3.337   7.575  0.6008  0.2557  0.5349
 6482SOL    HW130908   1.058   3.366   7.624  0.4148 -1.3033  1.7636
 6482SOL    HW230909   0.942   3.275   7.636 -0.2026 -0.2783 -0.5278
 6483SOL     OW30910   0.500   1.021   8.617 -0.4235  0.5250  0.0474
 6483SOL    HW130911   0.530   0.993   8.704  1.9039 -0.1913 -0.9746
 6483SOL    HW230912   0.424   0.963   8.614 -0.6565  0.9573 -2.8453
 6484SOL     OW30913   0.370   3.876  12.600  0.0850 -0.1821  0.0508
 6484SOL    HW130914   0.350   3.805  12.661 -0.7765  0.5094  0.5805
 6484SOL    HW230915   0.439   3.927  12.644  0.0270 -0.0240 -0.0402
 6485SOL     OW30916   4.444   0.393   7.468  0.4385  0.7280  0.5240
 6485SOL    HW130917   4.353   0.406   7.493  0.3926  1.5053 -0.0581
 6485SOL    HW230918   4.450   0.335   7.392  0.2173 -1.4666  2.1570
 6486SOL     OW30919   0.411   1.341  11.492  0.8979  0.3044 -0.1679
 6486SOL    HW130920   0.361   1.394  11.431 -1.9404 -0.9530  1.0779
 6486SOL    HW230921   0.460   1.413  11.531  0.3673 -0.6193  2.2645
 6487SOL     OW30922   2.832   3.912  12.744  0.2007  0.0394  0.0071
 6487SOL    HW130923   2.916   3.938  12.782  0.9533 -0.5697 -1.2391
 6487SOL    HW230924   2.800   3.839  12.797  2.0546  0.6264  1.9561
 6488SOL     OW30925   3.723   3.635  17.612 -0.4405  0.4630  0.1550
 6488SOL    HW130926   3.710   3.719  17.569  0.6787  1.7375  2.2764
 6488SOL    HW230927   3.767   3.596  17.536  1.2202  1.2952  0.6687
 6489SOL     OW30928   1.096   2.257   7.853  0.8210 -0.2730 -0.3111
 6489SOL    HW130929   1.006   2.258   7.820  0.8382  0.0487 -0.3500
 6489SOL    HW230930   1.089   2.220   7.942 -1.6678  0.4255 -0.2207
 6490SOL     OW30931   1.799   0.131   6.117  0.4066  0.1839 -0.5589
 6490SOL    HW130932   1.874   0.153   6.062  0.8060  0.0650 -0.0579
 6490SOL    HW230933   1.758   0.055   6.076 -0.2810 -0.7845  1.9222
 6491SOL     OW30934   3.652   2.104  10.799 -0.2798  0.1635  0.2647
 6491SOL    HW130935   3.696   2.188  10.815 -1.1015  0.3905  1.3628
 6491SOL    HW230936   3.727   2.048  10.817 -1.6741 -2.5949 -2.4995
 6492SOL     OW30937   4.237   1.208   8.031  0.6744 -0.2875 -0.0023
 6492SOL    HW130938   4.313   1.265   8.043  0.4286  0.1689 -0.6094
 6492SOL    HW230939   4.270   1.134   8.081  2.8349  1.5014  1.2366
 6493SOL     OW30940   1.330   0.360   3.487  0.0214  0.0051  0.4128
 6493SOL    HW130941   1.261   0.377   3.422  1.5348  2.4559 -0.5697
 6493SOL    HW230942   1.296   0.294   3.547  1.9780 -0.4366  1.0105
 6494SOL     OW30943   3.255   3.331   7.415 -0.3036 -0.1940  0.4196
 6494SOL    HW130944   3.307   3.330   7.496  1.1358  0.9289 -0.4982
 6494SOL    HW230945   3.193   3.400   7.438  2.2738  3.3198 -3.1245
 6495SOL     OW30946   1.362   1.757   7.615 -0.2226 -0.1958 -0.1700
 6495SOL    HW130947   1.308   1.836   7.620  1.9144  1.1798  0.8018
 6495SOL    HW230948   1.403   1.752   7.701  0.1545  0.5756 -0.3133
 6496SOL     OW30949   3.918   1.181   3.987 -0.0392 -0.3135  0.1294
 6496SOL    HW130950   3.898   1.271   3.959 -0.5297 -1.1013 -2.0794
 6496SOL    HW230951   3.898   1.129   3.909  1.7558  1.5574 -1.6012
 6497SOL     OW30952   2.628   1.016   6.277  0.2926  0.4817 -0.6407
 6497SOL    HW130953   2.695   0.973   6.223 -0.7923 -1.2890 -0.5594
 6497SOL    HW230954   2.631   0.958   6.353  0.3282  0.2717 -0.7993
 6498SOL     OW30955   0.555   1.170   6.543  0.1852 -0.1944  0.3521
 6498SOL    HW130956   0.545   1.256   6.501  1.2187  0.0096  0.5293
 6498SOL    HW230957   0.585   1.116   6.469  3.4623  0.3761  1.2614
 6499SOL     OW30958   2.868   4.100   2.453 -0.2233  0.5077 -0.4163
 6499SOL    HW130959   2.908   4.166   2.396 -1.5610  2.4115  0.8613
 6499SOL    HW230960   2.806   4.062   2.391 -0.7520  1.3550 -0.4011
 6500SOL     OW30961   1.764   0.310   2.157 -0.1516 -0.9797 -0.2486
 6500SOL    HW130962   1.814   0.251   2.100 -0.3668  0.1600 -1.6109
 6500SOL    HW230963   1.739   0.245   2.223 -0.5018 -0.5105  0.0811
 6501SOL     OW30964   0.592   3.234  17.057  0.1553  0.1931  0.4539
 6501SOL    HW130965   0.563   3.235  16.966  1.2063  3.4879  0.1605
 6501SOL    HW230966   0.576   3.141  17.076  1.1239  0.1075  0.8549
 6502SOL     OW30967   2.405   2.310  17.051 -0.4859  0.4189 -0.6517
 6502SOL    HW130968   2.331   2.259  17.016  0.0006 -0.8899  0.2103
 6502SOL    HW230969   2.381   2.402  17.046  0.4284  0.6212 -1.2089
 6503SOL     OW30970   2.365   0.964  13.981  0.2814  0.0571 -0.3055
 6503SOL    HW130971   2.333   1.038  14.032 -0.7413 -1.1066  0.7427
 6503SOL    HW230972   2.300   0.966  13.910  0.1925  3.0642 -0.1341
 6504SOL     OW30973   0.138   3.976   6.315  0.0804 -0.0578 -0.1684
 6504SOL    HW130974   0.125   4.042   6.248 -0.9224  1.7886  1.8335
 6504SOL    HW230975   0.226   3.952   6.287  0.5976 -0.2797  1.6130
 6505SOL     OW30976   4.648   0.026  16.685  0.2952  0.9248  0.0618
 6505SOL    HW130977   4.557   0.052  16.703  0.0220 -0.4798  0.6497
 6505SOL    HW230978   4.660   4.661  16.724  2.3027  0.9312 -0.5395
 6506SOL     OW30979   3.535   2.553   7.821 -0.0911 -0.8861  0.6152
 6506SOL    HW130980   3.584   2.482   7.779 -0.8334 -0.6975 -0.5730
 6506SOL    HW230981   3.478   2.583   7.750  1.5208 -0.0215 -0.3167
 6507SOL     OW30982   4.264   3.636   7.099 -0.1323 -0.1728 -0.1345
 6507SOL    HW130983   4.197   3.669   7.159  0.6993 -1.2708  1.3777
 6507SOL    HW230984   4.201   3.612   7.031 -2.5731  1.3197  1.6007
 6508SOL     OW30985   1.969   3.336   0.084  0.6280  0.5412  0.0064
 6508SOL    HW130986   2.056   3.347   0.047 -0.6413 -0.0865 -3.1676
 6508SOL    HW230987   1.957   3.419   0.130 -1.0094 -0.6621  1.7572
 6509SOL     OW30988   0.388   1.312   5.220 -0.1370  0.1570 -0.2040
 6509SOL    HW130989   0.473   1.336   5.183  0.6449 -1.2282  0.6756
 6509SOL    HW230990   0.323   1.327   5.152  0.9723 -0.7322 -1.4472
 6510SOL     OW30991   0.669   0.738   3.642 -0.6940 -0.2820  0.5683
 6510SOL    HW130992   0.663   0.752   3.737 -0.5107 -1.0698  0.6885
 6510SOL    HW230993   0.586   0.768   3.603  0.6494  1.5941 -0.8432
 6511SOL     OW30994   3.892   1.694   4.370 -0.1435 -0.7443  0.2080
 6511SOL    HW130995   3.798   1.714   4.372  0.1105  0.3397  1.9511
 6511SOL    HW230996   3.895   1.665   4.279 -0.3034 -0.9598  0.2707
 6512SOL     OW30997   0.228   4.491   0.284 -0.2846 -0.1916 -0.3968
 6512SOL    HW130998   0.238   4.586   0.274 -2.9537  0.3595  2.3105
 6512SOL    HW230999   0.165   4.484   0.356  0.1039 -0.3701 -0.0767
 6513SOL     OW31000   3.548   1.218   2.000 -0.3056 -0.4125  0.5281
 6513SOL    HW131001   3.461   1.241   1.968 -0.4527 -1.0515  0.4715
 6513SOL    HW231002   3.606   1.251   1.932  0.8945 -0.6161  1.4504
 6514SOL     OW31003   0.751   1.099   2.953  0.4852  0.0103  0.3022
 6514SOL    HW131004   0.668   1.137   2.922 -0.6867 -0.3690  2.9510
 6514SOL    HW231005   0.758   1.166   3.022 -0.2584  3.5889 -3.0532
 6515SOL     OW31006   4.640   4.130   8.153  0.2920 -0.1503 -0.1586
 6515SOL    HW131007   4.686   4.092   8.228 -0.7495 -1.6920 -0.3072
 6515SOL    HW231008   4.641   4.056   8.093  0.2588 -0.2534 -0.0339
 6516SOL     OW31009   4.265   3.761   8.752  0.2213 -0.5946  0.0814
 6516SOL    HW131010   4.291   3.721   8.669 -2.8286  0.5043 -1.4046
 6516SOL    HW231011   4.347   3.806   8.773  0.5976 -0.8122 -0.9086
 6517SOL     OW31012   4.051   2.415   3.477 -0.2138  0.6019  0.5530
 6517SOL    HW131013   4.004   2.370   3.548 -2.9146  2.2019 -0.2130
 6517SOL    HW231014   4.072   2.335   3.430 -0.1786  0.2573  1.1551
 6518SOL     OW31015   4.519   2.259   6.409  0.5457 -0.2922 -0.1557
 6518SOL    HW131016   4.428   2.248   6.436  1.0962 -1.0364  1.3662
 6518SOL    HW231017   4.540   2.183   6.355 -0.0325  0.3055 -1.2358
 6519SOL     OW31018   4.447   0.233   8.483  0.4964 -0.2005  0.1895
 6519SOL    HW131019   4.462   0.277   8.399 -1.5462  1.3965  0.6459
 6519SOL    HW231020   4.487   0.297   8.542  0.6071 -2.3917  2.4947
 6520SOL     OW31021   3.318   3.775  11.352  0.0417 -0.4991 -0.1407
 6520SOL    HW131022   3.291   3.737  11.436 -0.2353 -1.1421 -0.5211
 6520SOL    HW231023   3.409   3.801  11.365 -0.7676  2.2785 -0.0613
 6521SOL     OW31024   0.932   0.328  16.273 -0.0612 -0.2522  0.2349
 6521SOL    HW131025   0.843   0.297  16.260  0.2837 -0.8667 -0.6485
 6521SOL    HW231026   0.960   0.289  16.356  0.6290 -0.0878  0.0831
 6522SOL     OW31027   2.081   4.290   3.568  0.1290 -0.1508 -0.0245
 6522SOL    HW131028   2.159   4.296   3.514 -0.3576 -2.6266 -0.9984
 6522SOL    HW231029   2.075   4.196   3.585 -0.4098  0.1079  1.2401
 6523SOL     OW31030   1.235   1.270   8.361  0.0537  0.2058  0.5931
 6523SOL    HW131031   1.227   1.266   8.456 -0.2252  0.4344  0.5801
 6523SOL    HW231032   1.167   1.335   8.345 -0.3002 -0.9698 -2.8357
 6524SOL     OW31033   3.104   0.845   1.124 -0.0051 -0.0309 -0.5124
 6524SOL    HW131034   3.095   0.826   1.218  1.4286  0.7975 -0.1988
 6524SOL    HW231035   3.167   0.775   1.106  0.5774  0.3126  0.1730
 6525SOL     OW31036   2.619   4.220   4.113 -0.2717 -0.5039 -0.1172
 6525SOL    HW131037   2.596   4.129   4.130  3.5010 -1.3002  0.7341
 6525SOL    HW231038   2.609   4.251   4.203  0.4772  2.1614 -0.9589
 6526SOL     OW31039   0.727   2.380   1.062 -0.0662 -0.1191 -0.2043
 6526SOL    HW131040   0.703   2.318   0.994 -0.3240 -1.2002  0.8774
 6526SOL    HW231041   0.689   2.460   1.025 -0.6935 -1.7832 -3.1852
 6527SOL     OW31042   1.159   1.979  15.284  0.0995  0.3401 -0.6199
 6527SOL    HW131043   1.112   2.020  15.357 -1.9577  1.3124 -2.4997
 6527SOL    HW231044   1.182   2.059  15.236  1.4012  0.4986  0.2700
 6528SOL     OW31045   1.407   0.110   2.560 -0.1083  0.4574 -0.0730
 6528SOL    HW131046   1.381   0.134   2.649  1.2944 -0.3552  0.5550
 6528SOL    HW231047   1.387   0.197   2.527  2.9987  0.8250 -0.9665
 6529SOL     OW31048   2.655   4.618   4.375 -0.1573  0.6196 -0.1338
 6529SOL    HW131049   2.659   4.698   4.321  1.5128  0.2807 -0.5094
 6529SOL    HW231050   2.620   4.655   4.456 -1.0432  0.0855 -0.2811
 6530SOL     OW31051   1.459   2.412   4.065  0.2446 -0.4235 -0.2627
 6530SOL    HW131052   1.426   2.342   4.009 -1.8031 -0.4324  0.9837
 6530SOL    HW231053   1.425   2.375   4.146  1.1502  1.9141  1.1735
 6531SOL     OW31054   2.640   0.604   8.603 -0.4908  0.4407  0.1628
 6531SOL    HW131055   2.715   0.587   8.547 -1.7773  1.2064 -1.8119
 6531SOL    HW231056   2.679   0.631   8.686  0.1671 -1.5075  0.4864
 6532SOL     OW31057   3.223   1.096   1.810  0.9312 -0.3164  0.6062
 6532SOL    HW131058   3.226   1.187   1.840 -2.8470  0.0225  0.0153
 6532SOL    HW231059   3.310   1.093   1.773  0.5006 -3.4247 -0.1876
 6533SOL     OW31060   1.978   0.057   4.470 -0.5088 -0.2544  0.1726
 6533SOL    HW131061   1.899   0.103   4.441  0.6451  0.7683 -1.3796
 6533SOL    HW231062   2.005   0.002   4.396  0.1007 -0.2397  0.3854
 6534SOL     OW31063   1.027   0.475   7.807 -0.3917 -0.3338  0.6293
 6534SOL    HW131064   0.977   0.556   7.790  1.1527  0.6442  0.7413
 6534SOL    HW231065   1.010   0.476   7.901  4.3095 -1.2679  1.4717
 6535SOL     OW31066   1.488   0.340   5.447  0.0529 -1.0289 -0.1820
 6535SOL    HW131067   1.481   0.401   5.373  3.2708 -1.4401 -0.8207
 6535SOL    HW231068   1.515   0.259   5.402  1.9723 -0.5488  0.0884
 6536SOL     OW31069   2.382   2.219  15.820  0.2871  0.2454 -0.8515
 6536SOL    HW131070   2.287   2.230  15.815  0.0472 -0.9932  0.8791
 6536SOL    HW231071   2.390   2.185  15.910  1.2517  0.5670 -0.8104
 6537SOL     OW31072   2.895   0.629   8.458  0.2749 -0.2315 -0.1115
 6537SOL    HW131073   2.867   0.704   8.510 -1.0390 -0.7460 -0.0682
 6537SOL    HW231074   2.972   0.608   8.511  0.4988  0.5295 -0.1351
 6538SOL     OW31075   4.419   2.632   7.093 -0.0486  0.3973 -0.0171
 6538SOL    HW131076   4.480   2.604   7.025 -1.7391 -0.3449 -1.1939
 6538SOL    HW231077   4.466   2.706   7.132  0.3236  0.1797 -0.0512
 6539SOL     OW31078   0.113   2.433   7.358 -0.4748 -0.1980  0.6403
 6539SOL    HW131079   0.059   2.365   7.317  1.2928 -2.4923  2.0778
 6539SOL    HW231080   0.142   2.373   7.427 -2.3348  0.2125  1.7858
 6540SOL     OW31081   4.488   3.247   2.781  0.2807 -0.2167  0.1811
 6540SOL    HW131082   4.558   3.303   2.814 -0.1743  0.6823 -0.3917
 6540SOL    HW231083   4.538   3.166   2.793  2.1637  0.9069 -0.0529
 6541SOL     OW31084   1.610   1.134   4.141  0.2742  0.0550 -0.2788
 6541SOL    HW131085   1.695   1.134   4.185  0.7725 -0.0228 -1.2618
 6541SOL    HW231086   1.624   1.071   4.071  1.6372  0.6845 -0.5705
 6542SOL     OW31087   1.568   0.354   7.191  0.1047  0.0913 -0.4744
 6542SOL    HW131088   1.533   0.311   7.269  1.0843  0.2163  0.0365
 6542SOL    HW231089   1.601   0.437   7.224 -0.6361  0.3245 -0.3174
 6543SOL     OW31090   2.443   2.379   0.547  0.3636  0.0088  0.3373
 6543SOL    HW131091   2.488   2.308   0.593  1.6176  0.3969 -0.2634
 6543SOL    HW231092   2.353   2.351   0.561  0.5530 -0.4599  0.6242
 6544SOL     OW31093   0.579   3.558  10.061 -0.1640  0.3004 -0.0583
 6544SOL    HW131094   0.672   3.560  10.082 -0.1313 -0.6782 -0.1297
 6544SOL    HW231095   0.566   3.651  10.043  0.1487  0.4218  0.3386
 6545SOL     OW31096   2.537   0.879   3.390  0.2340  0.4307  0.2857
 6545SOL    HW131097   2.450   0.884   3.351  0.4343 -2.2860 -0.4552
 6545SOL    HW231098   2.592   0.871   3.312  0.3837 -0.9585  0.5352
 6546SOL     OW31099   0.227   1.274   4.959 -0.5253 -0.2580  0.2111
 6546SOL    HW131100   0.255   1.219   4.886 -2.8889 -2.1938  0.7609
 6546SOL    HW231101   0.168   1.211   5.000  0.3216 -1.3652 -0.2516
 6547SOL     OW31102   1.389   4.434  13.671  0.0690  0.0296 -0.6051
 6547SOL    HW131103   1.330   4.497  13.629  0.5576  0.4360 -0.6789
 6547SOL    HW231104   1.454   4.498  13.701  0.1523  0.1723 -1.0793
 6548SOL     OW31105   3.244   2.719   9.972 -0.4833 -0.5131  0.0666
 6548SOL    HW131106   3.319   2.663   9.952 -0.0428  0.6351 -1.5037
 6548SOL    HW231107   3.209   2.660  10.038 -1.1814 -0.4026 -0.1945
 6549SOL     OW31108   3.656   4.506   6.297 -0.2333 -0.3125 -0.0883
 6549SOL    HW131109   3.736   4.558   6.301  0.0028 -0.5431 -1.8572
 6549SOL    HW231110   3.671   4.462   6.214 -0.0890  0.8802 -0.6887
 6550SOL     OW31111   2.726   2.005   8.082  0.1215  0.7076 -0.4916
 6550SOL    HW131112   2.631   1.991   8.084  0.2005  0.3703  0.6686
 6550SOL    HW231113   2.739   2.082   8.138  1.3260 -2.2506  3.2709
 6551SOL     OW31114   4.125   2.094   4.634 -0.4805 -0.0592 -0.8772
 6551SOL    HW131115   4.065   2.020   4.618 -2.9791  1.9803 -0.9193
 6551SOL    HW231116   4.088   2.157   4.573 -1.0825 -1.7085 -2.2212
 6552SOL     OW31117   3.460   2.783   6.065  0.0352  0.3569 -0.0253
 6552SOL    HW131118   3.480   2.872   6.091 -0.9120 -0.2634  2.8032
 6552SOL    HW231119   3.507   2.771   5.982 -0.4674 -1.1307 -0.1049
 6553SOL     OW31120   1.971   1.561   2.235  0.6754  0.3249 -0.5363
 6553SOL    HW131121   2.005   1.552   2.324  1.7273 -0.5066 -1.0131
 6553SOL    HW231122   2.056   1.589   2.200 -0.1727 -0.1342 -2.9800
 6554SOL     OW31123   0.592   2.249  15.906  0.5884 -0.1327  0.2946
 6554SOL    HW131124   0.534   2.215  15.838  1.9360  1.4123 -1.6370
 6554SOL    HW231125   0.618   2.328  15.859  0.5367 -1.0756 -1.2932
 6555SOL     OW31126   1.646   1.497   8.889 -0.4425  0.2214 -0.0936
 6555SOL    HW131127   1.660   1.558   8.816 -0.3038  0.2802 -0.0170
 6555SOL    HW231128   1.644   1.417   8.837 -0.7076 -0.4708  0.9794
 6556SOL     OW31129   3.949   1.273   4.650 -0.5980 -0.1795  0.3507
 6556SOL    HW131130   4.042   1.279   4.671 -0.6888 -0.4266  0.8242
 6556SOL    HW231131   3.963   1.250   4.559 -0.4965 -0.0390  0.3299
 6557SOL     OW31132   1.431   2.385   8.321 -0.6055  0.0427 -0.3870
 6557SOL    HW131133   1.452   2.479   8.317 -2.2643  0.3634 -2.4167
 6557SOL    HW231134   1.516   2.342   8.328 -0.4475  0.3705 -0.2933
 6558SOL     OW31135   3.635   1.812   4.282 -0.7910 -0.1975 -0.3058
 6558SOL    HW131136   3.642   1.798   4.187 -1.4377  0.7721 -0.4978
 6558SOL    HW231137   3.686   1.892   4.296 -0.2754 -0.9385  2.0401
 6559SOL     OW31138   0.577   1.533   5.963 -0.1847 -0.3773  0.3697
 6559SOL    HW131139   0.638   1.551   6.034 -1.4847 -0.2477  1.4735
 6559SOL    HW231140   0.587   1.438   5.965 -0.3451 -0.4574 -1.9978
 6560SOL     OW31141   4.454   1.305   5.672  0.5669 -0.2283 -0.1094
 6560SOL    HW131142   4.405   1.313   5.754  0.2096 -0.5523 -0.2923
 6560SOL    HW231143   4.515   1.234   5.692  1.2618  0.3209 -0.2908
 6561SOL     OW31144   3.446   4.635   4.799 -0.3842 -0.2893 -0.2991
 6561SOL    HW131145   3.539   4.612   4.802 -0.2085  0.8629  3.0500
 6561SOL    HW231146   3.458   0.009   4.795 -0.5211 -0.2613 -0.0739
 6562SOL     OW31147   3.246   1.171  16.335 -0.3964 -0.6704  0.3072
 6562SOL    HW131148   3.166   1.133  16.300  0.7876 -1.7730 -1.2456
 6562SOL    HW231149   3.314   1.150  16.271 -0.6968  0.9116 -0.5307
 6563SOL     OW31150   1.701   3.357   3.748  0.2296 -0.0700 -0.8398
 6563SOL    HW131151   1.750   3.294   3.800 -1.2611  0.0531  0.6843
 6563SOL    HW231152   1.616   3.315   3.735 -0.5156  0.5667  2.0859
 6564SOL     OW31153   3.008   3.790   6.363  0.5125  0.8306  0.0383
 6564SOL    HW131154   2.924   3.746   6.364  0.5067  0.8286 -0.5406
 6564SOL    HW231155   3.016   3.835   6.278 -1.2537 -1.0321 -1.1031
 6565SOL     OW31156   3.534   2.595   7.323 -0.3723 -0.1450 -0.0833
 6565SOL    HW131157   3.518   2.680   7.282 -2.2156 -0.6869 -0.4813
 6565SOL    HW231158   3.625   2.615   7.342 -0.4855  0.2519  0.0412
 6566SOL     OW31159   2.091   0.719  16.071 -0.0745 -0.3314  0.4122
 6566SOL    HW131160   2.158   0.690  16.010  0.7718  1.7925  0.3074
 6566SOL    HW231161   2.056   0.640  16.111  1.5663  0.2380  3.0081
 6567SOL     OW31162   1.895   2.103   1.311  0.0299 -0.1847 -0.0724
 6567SOL    HW131163   1.839   2.177   1.333 -2.1085 -1.2607 -1.9161
 6567SOL    HW231164   1.962   2.099   1.379  0.9250 -0.5403 -0.9678
 6568SOL     OW31165   1.738   3.565   7.744 -0.6185  0.2060  0.3813
 6568SOL    HW131166   1.699   3.629   7.685 -1.1542 -0.1438  0.3551
 6568SOL    HW231167   1.726   3.485   7.693  0.0354  0.4653 -0.1636
 6569SOL     OW31168   3.752   1.523  16.544 -0.2365 -0.2236 -0.0807
 6569SOL    HW131169   3.675   1.576  16.522  0.9437  1.6148  0.1894
 6569SOL    HW231170   3.706   1.475  16.612  0.9792 -0.5257  0.5338
 6570SOL     OW31171   0.245   0.215  17.251  0.4727 -0.6859  0.2656
 6570SOL    HW131172   0.325   0.230  17.201  0.4900 -2.2549 -0.1796
 6570SOL    HW231173   0.229   0.127  17.218 -1.7647  0.0260 -0.5742
 6571SOL     OW31174   0.738   3.274   5.286  0.6477 -0.0777  0.0008
 6571SOL    HW131175   0.828   3.297   5.308  1.5179  0.1090 -3.6886
 6571SOL    HW231176   0.688   3.308   5.360  0.8591 -0.8637  0.4954
 6572SOL     OW31177   3.182   3.951  15.206 -0.2256 -0.4340  0.1836
 6572SOL    HW131178   3.234   3.988  15.134 -2.6514  0.5738 -1.0345
 6572SOL    HW231179   3.250   3.933  15.271  0.8092 -1.3077 -1.1248
 6573SOL     OW31180   4.018   2.772  15.264 -0.1156  0.3808 -0.3843
 6573SOL    HW131181   4.024   2.811  15.352 -1.1798 -3.4440  1.3623
 6573SOL    HW231182   3.985   2.687  15.291 -0.7705  0.0209 -2.3189
 6574SOL     OW31183   4.614   1.222   1.997 -0.3079 -0.1135 -0.1324
 6574SOL    HW131184   4.574   1.192   1.915 -1.8932  1.8349 -0.0670
 6574SOL    HW231185   4.540   1.224   2.058  1.2688 -0.0974  1.7773
 6575SOL     OW31186   4.139   2.789   8.086  0.0324 -0.3405  0.2491
 6575SOL    HW131187   4.066   2.830   8.038 -1.1037 -2.0945  0.5137
 6575SOL    HW231188   4.107   2.800   8.175  1.6924  1.8734  0.5536
 6576SOL     OW31189   3.073   0.276   2.033 -0.2284  0.7205 -0.0452
 6576SOL    HW131190   3.013   0.346   2.009  0.0591  0.5082 -1.4040
 6576SOL    HW231191   3.155   0.323   2.046 -0.3781  1.1440 -0.6459
 6577SOL     OW31192   4.487   0.308   6.703 -0.3553 -0.3358 -0.1420
 6577SOL    HW131193   4.418   0.374   6.715 -0.0280  0.2139 -1.2676
 6577SOL    HW231194   4.550   0.341   6.767 -1.7996 -1.9225  2.0980
 6578SOL     OW31195   3.133   3.454   8.146 -0.0715 -0.1296 -0.0665
 6578SOL    HW131196   3.161   3.545   8.161  0.9094 -0.4425 -0.0235
 6578SOL    HW231197   3.183   3.407   8.212 -0.1225  0.0800  0.1262
 6579SOL     OW31198   3.829   0.434  15.569 -0.5172 -0.5349  0.3446
 6579SOL    HW131199   3.815   0.345  15.535 -0.0514 -0.0486 -1.1081
 6579SOL    HW231200   3.909   0.455  15.520 -0.2263  0.3138  1.1838
 6580SOL     OW31201   2.207   3.334   2.327  0.3592 -0.3325  0.7272
 6580SOL    HW131202   2.181   3.410   2.378 -2.6394  0.1375 -1.4648
 6580SOL    HW231203   2.246   3.377   2.251  1.7791  0.3168  1.8314
 6581SOL     OW31204   1.157   0.329   1.769 -0.1906 -0.1901  0.2394
 6581SOL    HW131205   1.152   0.370   1.856  1.2763 -0.9690  0.6973
 6581SOL    HW231206   1.069   0.290   1.770 -0.8358  1.2425 -0.0240
 6582SOL     OW31207   1.873   2.711   4.791 -0.1249  0.3995 -0.0652
 6582SOL    HW131208   1.913   2.673   4.869  2.7662  1.1243 -1.1948
 6582SOL    HW231209   1.822   2.634   4.766  0.0013 -0.2813  1.7579
 6583SOL     OW31210   1.377   0.809   5.737  0.4378  0.2049 -0.1848
 6583SOL    HW131211   1.325   0.729   5.737  0.9339 -0.1221 -0.8148
 6583SOL    HW231212   1.422   0.804   5.821 -0.0235 -1.6230 -0.0480
 6584SOL     OW31213   3.603   3.155   1.074 -0.3965 -0.3668  0.0623
 6584SOL    HW131214   3.533   3.111   1.122 -0.5098 -0.6201 -0.3304
 6584SOL    HW231215   3.559   3.139   0.990 -0.9953  1.1913  0.0944
 6585SOL     OW31216   3.480   0.141   2.139  0.1537  0.2122  0.2661
 6585SOL    HW131217   3.431   0.146   2.221 -1.3851  0.3414 -0.6595
 6585SOL    HW231218   3.534   0.219   2.153  0.9478 -0.5181  1.3188
 6586SOL     OW31219   2.175   2.029   2.489  0.0187 -0.4323  0.1919
 6586SOL    HW131220   2.256   2.044   2.537  1.0429  1.6842 -2.1437
 6586SOL    HW231221   2.144   2.120   2.485  1.2771 -0.0075  0.2250
 6587SOL     OW31222   0.687   3.772   2.089 -0.1368 -0.0599  0.7278
 6587SOL    HW131223   0.734   3.822   2.157  2.2174 -1.6336  0.2340
 6587SOL    HW231224   0.617   3.730   2.139  1.1523 -1.1756  1.6032
 6588SOL     OW31225   0.529   0.521  16.240  0.3083 -0.0547 -0.0576
 6588SOL    HW131226   0.463   0.590  16.236 -0.5203 -0.8347  0.1600
 6588SOL    HW231227   0.508   0.481  16.155  0.5642  0.9581 -0.5903
 6589SOL     OW31228   2.986   2.185   8.995 -0.5271 -0.8563 -0.7317
 6589SOL    HW131229   2.924   2.210   9.064  1.9284  2.5781  0.2212
 6589SOL    HW231230   2.979   2.089   8.991  0.2487 -0.9092 -0.7277
 6590SOL     OW31231   0.755   1.388  16.415  1.0274 -0.0886  0.2528
 6590SOL    HW131232   0.744   1.477  16.450  1.5159  0.6537 -1.4623
 6590SOL    HW231233   0.776   1.328  16.487 -2.4118  2.7952  3.6828
 6591SOL     OW31234   4.292   3.250   6.027 -0.2004  0.5454 -0.0989
 6591SOL    HW131235   4.255   3.168   5.994  0.1217  0.7231 -0.8929
 6591SOL    HW231236   4.224   3.294   6.078  1.6119  0.6001  2.2379
 6592SOL     OW31237   3.477   0.746  14.261  0.3667 -0.2608 -0.0484
 6592SOL    HW131238   3.389   0.710  14.248  0.4878 -0.4390 -0.3528
 6592SOL    HW231239   3.473   0.772  14.353 -1.7099  0.9208 -0.4534
 6593SOL     OW31240   2.173   3.563   5.709 -0.0559 -0.7229  0.8312
 6593SOL    HW131241   2.267   3.546   5.716  0.7048  2.9827 -0.8776
 6593SOL    HW231242   2.163   3.516   5.626  0.3464  0.9566 -0.1504
 6594SOL     OW31243   0.459   0.687   3.118  0.4406 -0.1571 -0.4863
 6594SOL    HW131244   0.517   0.763   3.127  2.6395 -1.7489 -1.1745
 6594SOL    HW231245   0.519   0.615   3.138 -0.2460 -1.1197 -1.8807
 6595SOL     OW31246   1.602   3.718  13.500  0.2766  0.2126  0.7027
 6595SOL    HW131247   1.533   3.731  13.564 -0.9649 -0.8765 -0.4132
 6595SOL    HW231248   1.652   3.794  13.528  0.2305  0.4680  0.0856
 6596SOL     OW31249   0.168   4.542   3.425 -0.0734 -0.3729  0.2827
 6596SOL    HW131250   0.117   4.615   3.391 -1.6188 -0.4606  2.4591
 6596SOL    HW231251   0.220   4.525   3.346 -0.4019  0.1301 -0.0404
 6597SOL     OW31252   2.635   1.397   6.361 -0.0543 -0.2653  0.4973
 6597SOL    HW131253   2.560   1.338   6.369 -0.4471  0.0588 -0.7914
 6597SOL    HW231254   2.633   1.433   6.450 -0.5716 -0.9230  0.7498
 6598SOL     OW31255   1.959   3.877   7.077  0.3850  0.3937  0.4610
 6598SOL    HW131256   1.947   3.784   7.057  2.1327  0.5715 -1.3033
 6598SOL    HW231257   1.914   3.876   7.162 -0.1215 -0.2981  0.1881
 6599SOL     OW31258   4.546   2.027  16.645 -0.1610  0.3811  0.3456
 6599SOL    HW131259   4.531   1.990  16.732  2.3417  0.5052  0.8103
 6599SOL    HW231260   4.572   1.944  16.605  0.8491  1.2014 -0.7194
 6600SOL     OW31261   0.295   3.148  10.853  0.2986 -0.0678 -0.7338
 6600SOL    HW131262   0.350   3.142  10.931 -0.6976  2.8993  0.1660
 6600SOL    HW231263   0.348   3.172  10.777  1.1833 -0.0085 -0.0997
 6601SOL     OW31264   2.191   2.421   3.065 -0.3259  0.2876  0.0537
 6601SOL    HW131265   2.118   2.476   3.034  1.5390  1.4662 -2.2706
 6601SOL    HW231266   2.172   2.438   3.157  0.1863  1.4444 -0.0537
 6602SOL     OW31267   3.629   0.613   8.433  0.3210 -0.1283  0.3688
 6602SOL    HW131268   3.608   0.582   8.521  0.4190  2.5973  1.3639
 6602SOL    HW231269   3.584   0.539   8.392  1.5686 -0.0784 -1.0644
 6603SOL     OW31270   2.768   0.819   2.762  0.0043 -0.0112 -0.2920
 6603SOL    HW131271   2.797   0.855   2.846 -0.8854 -0.0457  0.0216
 6603SOL    HW231272   2.686   0.780   2.791 -0.9029 -1.3092 -4.5792
 6604SOL     OW31273   3.137   1.210   9.646  0.3744  0.5970  0.0805
 6604SOL    HW131274   3.077   1.164   9.705  0.2077  1.8702  0.9116
 6604SOL    HW231275   3.208   1.221   9.709 -1.2988 -0.5841  2.1658
 6605SOL     OW31276   2.102   2.464  14.445  0.0225  0.0548 -0.6362
 6605SOL    HW131277   2.067   2.510  14.369 -1.0125  1.0598  0.4330
 6605SOL    HW231278   2.177   2.416  14.411 -1.7716 -2.9565 -0.2576
 6606SOL     OW31279   1.369   2.200   6.637  0.3602  0.3831  0.6259
 6606SOL    HW131280   1.334   2.288   6.620  0.8248  0.2107 -1.2128
 6606SOL    HW231281   1.449   2.227   6.683 -0.0785  1.5044  0.7478
 6607SOL     OW31282   2.801   4.515   3.988  0.9082  0.1484  0.4029
 6607SOL    HW131283   2.860   4.585   4.016  1.2017 -0.4646  1.2890
 6607SOL    HW231284   2.771   4.560   3.909 -3.4815 -2.7476  0.4123
 6608SOL     OW31285   3.961   2.064   3.205 -0.4806  0.2684 -0.5231
 6608SOL    HW131286   3.944   2.000   3.135 -0.2208 -1.1605  0.7271
 6608SOL    HW231287   3.906   2.137   3.177 -0.9430  0.1582  0.1156
 6609SOL     OW31288   4.216   4.395  11.103  0.0782 -1.0146 -0.7806
 6609SOL    HW131289   4.247   4.421  11.016 -0.2643  3.2219  0.3210
 6609SOL    HW231290   4.286   4.333  11.122  1.1222  0.0132 -1.2087
 6610SOL     OW31291   4.168   4.004   2.463  0.1695 -0.5406 -0.4233
 6610SOL    HW131292   4.244   4.005   2.404  0.1907  1.4290 -0.3624
 6610SOL    HW231293   4.191   3.929   2.518 -0.1772 -0.8906 -0.7507
 6611SOL     OW31294   0.671   4.545   4.800 -0.8843  0.7104 -0.2242
 6611SOL    HW131295   0.657   4.587   4.715 -2.8453 -0.2485 -0.3801
 6611SOL    HW231296   0.753   4.497   4.788 -1.5499 -0.0235 -1.9226
 6612SOL     OW31297   2.607   4.651   5.573 -0.1934  0.5096  0.4651
 6612SOL    HW131298   2.654   4.585   5.625 -0.6706 -0.6886 -0.6207
 6612SOL    HW231299   2.601   4.720   5.640 -0.6022  0.7118  0.2189
 6613SOL     OW31300   3.398   3.802   3.306  0.3054 -0.3037  0.1667
 6613SOL    HW131301   3.460   3.732   3.327 -0.2479 -1.0948 -0.8161
 6613SOL    HW231302   3.317   3.752   3.299  1.3366 -1.8177 -0.9109
 6614SOL     OW31303   4.651   3.989  16.892 -0.3617  0.2368  0.2973
 6614SOL    HW131304   0.010   4.036  16.914  0.6452 -1.7317  0.8372
 6614SOL    HW231305   4.588   4.029  16.951 -2.6075 -0.9893 -1.2497
 6615SOL     OW31306   1.527   2.531   1.621 -0.5567 -0.0293 -0.0253
 6615SOL    HW131307   1.586   2.601   1.596 -0.5449 -0.4981 -1.3010
 6615SOL    HW231308   1.520   2.477   1.543  0.5986 -1.6393  0.9888
 6616SOL     OW31309   3.286   2.992  11.046 -0.3900  0.4554 -0.0617
 6616SOL    HW131310   3.250   3.062  10.992 -0.7011 -0.5195 -1.1307
 6616SOL    HW231311   3.319   3.038  11.123 -0.0583  0.0036  0.0675
 6617SOL     OW31312   0.823   4.199   8.611  0.6033 -0.0087  0.2438
 6617SOL    HW131313   0.832   4.119   8.662 -0.5117  0.2611  0.8465
 6617SOL    HW231314   0.888   4.184   8.542  2.3274  1.1356  1.6344
 6618SOL     OW31315   4.277   2.595   6.368 -0.6595  0.7205  0.5558
 6618SOL    HW131316   4.294   2.655   6.440  0.6615 -1.5320  2.1114
 6618SOL    HW231317   4.233   2.520   6.408 -1.2845  0.5970 -0.3576
 6619SOL     OW31318   4.233   0.331   6.220 -0.6915  0.1963  0.0492
 6619SOL    HW131319   4.326   0.350   6.236 -0.4883  1.7961 -3.1020
 6619SOL    HW231320   4.197   0.272   6.286  0.8461  0.8487  1.4910
 6620SOL     OW31321   0.271   3.008   2.003  0.1725 -0.2423 -0.7794
 6620SOL    HW131322   0.238   2.918   1.998 -0.6033 -0.0816  1.3379
 6620SOL    HW231323   0.340   3.014   1.937 -0.3407 -2.6944 -1.5245
 6621SOL     OW31324   2.861   2.846   1.898  0.0296 -0.5119  0.3041
 6621SOL    HW131325   2.904   2.931   1.890  2.2976 -1.6006  0.8161
 6621SOL    HW231326   2.859   2.818   1.806 -0.7772  1.1769 -0.1897
 6622SOL     OW31327   0.183   2.583   8.298 -0.1413  0.0931 -0.6595
 6622SOL    HW131328   0.245   2.563   8.368  0.1548 -0.6894 -1.1548
 6622SOL    HW231329   0.123   2.640   8.347  0.3984 -1.3072  1.6191
 6623SOL     OW31330   0.653   0.330   6.592 -0.2625  0.4366 -0.0615
 6623SOL    HW131331   0.693   0.409   6.557 -0.4499  0.1755 -0.8636
 6623SOL    HW231332   0.717   0.304   6.658  1.8898  1.1477 -1.8992
 6624SOL     OW31333   4.525   2.590   4.540 -0.5618 -0.0322  0.6639
 6624SOL    HW131334   4.480   2.518   4.584 -2.4925 -0.0818 -1.3629
 6624SOL    HW231335   4.581   2.544   4.477  0.3942  0.6072  1.0408
 6625SOL     OW31336   2.817   0.278   2.941 -0.0749  0.3551 -0.4657
 6625SOL    HW131337   2.737   0.225   2.940  1.3187 -1.7717 -0.8163
 6625SOL    HW231338   2.822   0.308   2.851 -0.4279 -0.6303 -0.8181
 6626SOL     OW31339   3.620   4.630  15.822  0.4994 -0.2602  0.0228
 6626SOL    HW131340   3.608   0.004  15.823 -1.8153 -0.5802  1.1087
 6626SOL    HW231341   3.645   4.607  15.733  1.0471 -0.2245  0.1653
 6627SOL     OW31342   3.332   3.319   2.839  0.2462 -0.3577  0.0804
 6627SOL    HW131343   3.419   3.301   2.873 -0.1512  2.1714  2.4533
 6627SOL    HW231344   3.363   3.359   2.758  0.5450 -0.5244  0.1140
 6628SOL     OW31345   1.565   2.659   8.360 -0.4882 -0.1719 -0.1530
 6628SOL    HW131346   1.655   2.691   8.370 -1.4775  2.7330 -0.3837
 6628SOL    HW231347   1.530   2.684   8.445  1.9257 -0.2775  0.8779
 6629SOL     OW31348   0.979   2.356   6.901 -0.2887  0.1751 -0.4425
 6629SOL    HW131349   0.925   2.432   6.920  0.7280  0.6023  0.6840
 6629SOL    HW231350   1.064   2.398   6.914  0.9326 -1.2585 -3.7877
 6630SOL     OW31351   1.790   3.293   7.644 -0.4984 -0.3030  0.3741
 6630SOL    HW131352   1.870   3.242   7.659 -0.9422 -0.4852  2.0720
 6630SOL    HW231353   1.737   3.224   7.604  0.2980 -0.2551 -0.7668
 6631SOL     OW31354   1.641   0.581   2.975 -0.5056 -0.0717 -1.0305
 6631SOL    HW131355   1.724   0.620   2.948  0.2013 -0.8486  0.0393
 6631SOL    HW231356   1.644   0.619   3.062 -1.7203 -0.1181 -0.9662
 6632SOL     OW31357   1.509   4.122   9.646 -0.3314 -0.2928 -0.7178
 6632SOL    HW131358   1.589   4.118   9.594  1.3408 -0.7299  1.8693
 6632SOL    HW231359   1.502   4.217   9.654 -0.3758 -0.5256  2.1096
 6633SOL     OW31360   4.016   0.167   1.981 -0.1956 -0.3379  0.2799
 6633SOL    HW131361   4.097   0.213   1.959 -0.0703  0.2246  1.9042
 6633SOL    HW231362   4.045   0.076   1.971  0.9030 -0.0434  0.9049
 6634SOL     OW31363   0.669   4.176   8.147  0.4521  0.0654  0.0340
 6634SOL    HW131364   0.638   4.086   8.156  1.4760 -0.3103 -0.2268
 6634SOL    HW231365   0.609   4.204   8.078  0.9630  1.8140  0.2914
 6635SOL     OW31366   3.731   3.282   3.300  0.1894 -0.1663  0.1487
 6635SOL    HW131367   3.776   3.241   3.226 -1.8704 -1.6800 -0.2772
 6635SOL    HW231368   3.786   3.358   3.318  0.5710  0.1129 -2.2152
 6636SOL     OW31369   3.928   0.291   0.794 -0.2424  0.0546  0.1019
 6636SOL    HW131370   4.007   0.277   0.742 -0.2816  1.3338 -0.2932
 6636SOL    HW231371   3.872   0.226   0.752  2.0908  0.2659 -3.3197
 6637SOL     OW31372   4.448   0.354   6.398  0.2135 -0.0827  0.6704
 6637SOL    HW131373   4.544   0.359   6.400  0.0818  3.2710 -0.4122
 6637SOL    HW231374   4.425   0.329   6.487  0.4498 -1.6739  0.2864
 6638SOL     OW31375   2.405   2.704   7.160  0.0308  0.4108  0.6816
 6638SOL    HW131376   2.483   2.650   7.167  0.6830  1.5328  1.8638
 6638SOL    HW231377   2.330   2.645   7.152  0.6545  0.1960 -3.7276
 6639SOL     OW31378   0.467   3.687   5.988  0.0951  0.6587  0.2884
 6639SOL    HW131379   0.443   3.611   6.041 -0.1712  1.1046  0.8131
 6639SOL    HW231380   0.381   3.707   5.951 -0.1466 -0.5803  0.1944
 6640SOL     OW31381   0.106   3.055  14.515  0.0257 -0.3070 -0.4974
 6640SOL    HW131382   0.051   3.045  14.592  0.9353  1.0951  0.3483
 6640SOL    HW231383   0.050   3.112  14.462  0.6675  1.5266  0.7616
 6641SOL     OW31384   0.224   1.854   5.426 -0.0376 -0.4630 -0.1069
 6641SOL    HW131385   0.276   1.861   5.506 -2.6264  0.1061  1.5011
 6641SOL    HW231386   0.164   1.783   5.446 -0.1514 -0.6301 -1.0283
 6642SOL     OW31387   3.440   4.186   9.607  0.2091 -0.3417  0.0375
 6642SOL    HW131388   3.472   4.218   9.692  1.1705  0.7808 -0.7322
 6642SOL    HW231389   3.515   4.210   9.551 -1.0417 -0.1400 -1.5355
 6643SOL     OW31390   1.321   2.780  13.329  0.0781 -0.3327  0.2867
 6643SOL    HW131391   1.228   2.770  13.351 -0.2165 -0.1025 -0.8406
 6643SOL    HW231392   1.310   2.832  13.250  2.1481 -0.9265 -0.4044
 6644SOL     OW31393   2.759   0.585  14.056  0.4170  0.4546  0.2781
 6644SOL    HW131394   2.789   0.582  14.147  0.7207 -0.7072  0.1337
 6644SOL    HW231395   2.664   0.585  14.066  0.5030 -0.6000  1.0651
 6645SOL     OW31396   3.680   3.444   8.889  0.1135 -0.0533 -0.3403
 6645SOL    HW131397   3.647   3.406   8.808  0.4407 -1.5199  0.2139
 6645SOL    HW231398   3.621   3.518   8.892 -2.5261 -2.1197 -1.3305
 6646SOL     OW31399   3.019   3.753   3.019  0.5568  0.8352 -0.2316
 6646SOL    HW131400   3.113   3.742   3.003  0.9674  0.1029  2.6512
 6646SOL    HW231401   3.023   3.842   3.054 -0.0575 -0.1758  2.4197
 6647SOL     OW31402   3.330   3.042   6.848  0.3404  0.0530  0.1076
 6647SOL    HW131403   3.388   3.012   6.779  0.4449 -0.7395  0.5350
 6647SOL    HW231404   3.254   2.983   6.846  1.3853 -1.3773  2.1259
 6648SOL     OW31405   0.801   0.566  10.924  0.4373  0.3560  0.0923
 6648SOL    HW131406   0.852   0.611  10.992  0.8852 -0.5785  0.3811
 6648SOL    HW231407   0.732   0.526  10.977 -2.0664  1.8857 -2.0281
 6649SOL     OW31408   4.202   2.788   4.236  0.4757 -0.0006  0.3568
 6649SOL    HW131409   4.219   2.822   4.149 -2.0436 -3.4489 -1.4757
 6649SOL    HW231410   4.291   2.758   4.255  1.1454  2.4026  0.9573
 6650SOL     OW31411   3.457   0.855   8.041  0.2520  0.5245  0.1820
 6650SOL    HW131412   3.381   0.814   8.083  0.3372 -1.3424 -1.4547
 6650SOL    HW231413   3.526   0.788   8.040 -2.3606 -2.1639  0.2646
 6651SOL     OW31414   3.590   4.609   2.242  0.1816 -0.2210 -0.2635
 6651SOL    HW131415   3.571   4.588   2.151  0.1668  2.1522 -0.8148
 6651SOL    HW231416   3.523   4.677   2.246  1.1046  0.6893 -0.0999
 6652SOL     OW31417   2.046   0.911   3.037 -0.1844 -0.2220  0.5537
 6652SOL    HW131418   1.959   0.878   3.014  0.4681 -2.7017  1.6345
 6652SOL    HW231419   2.019   0.992   3.081  2.0997  0.4950  0.6592
 6653SOL     OW31420   4.209   3.442   4.231 -0.3182  0.2842  0.2097
 6653SOL    HW131421   4.133   3.473   4.182  0.5923  1.4950 -0.4303
 6653SOL    HW231422   4.166   3.374   4.283 -1.0151  2.0134  1.9011
 6654SOL     OW31423   2.289   3.056   0.805  0.2199  0.1213  0.3159
 6654SOL    HW131424   2.304   3.108   0.884  3.9040 -0.9308  0.3067
 6654SOL    HW231425   2.292   2.972   0.851  0.5984  1.4887  2.7914
 6655SOL     OW31426   3.250   4.300   0.401 -0.2135  0.0302 -0.2873
 6655SOL    HW131427   3.309   4.375   0.407  1.2646 -1.2359  1.2726
 6655SOL    HW231428   3.259   4.267   0.491  1.9766  3.0045  0.5927
 6656SOL     OW31429   2.171   2.776   5.031 -0.2669  0.0630 -0.3619
 6656SOL    HW131430   2.122   2.701   4.997  1.6931 -1.3190 -0.1503
 6656SOL    HW231431   2.193   2.813   4.945 -1.3085  0.3971 -0.4769
 6657SOL     OW31432   3.298   3.040   8.011 -0.0737 -0.2245 -0.1516
 6657SOL    HW131433   3.379   3.091   8.017 -0.7621  0.8354  0.2033
 6657SOL    HW231434   3.329   2.951   8.022  0.4604  0.2399  2.1702
 6658SOL     OW31435   4.495   0.353   0.701 -0.3412  0.2188 -0.0470
 6658SOL    HW131436   4.522   0.320   0.616  1.1276 -0.9122  0.8666
 6658SOL    HW231437   4.456   0.437   0.675 -1.3747 -0.0812  0.5159
 6659SOL     OW31438   3.076   1.995   9.551 -0.0969 -0.1684 -0.0705
 6659SOL    HW131439   2.994   2.024   9.592 -0.7727 -0.3146 -1.3348
 6659SOL    HW231440   3.104   1.928   9.614 -0.7376  1.2281  1.6805
 6660SOL     OW31441   0.149   2.246   3.456 -0.2818 -0.6159 -0.4118
 6660SOL    HW131442   0.153   2.225   3.363  0.3190  1.7260 -0.8926
 6660SOL    HW231443   0.241   2.261   3.476 -0.6445  0.4528  0.4179
 6661SOL     OW31444   0.112   1.030   1.959 -0.4092 -0.6145 -0.3709
 6661SOL    HW131445   0.077   0.949   1.922 -0.5391  0.0714 -1.7863
 6661SOL    HW231446   0.034   1.086   1.955 -0.7345 -1.1787 -2.0146
 6662SOL     OW31447   3.868   4.659   7.751 -0.3422 -0.0517 -0.2380
 6662SOL    HW131448   3.896   4.600   7.681 -2.2197 -1.8235  0.4700
 6662SOL    HW231449   3.885   4.592   7.818  2.7534  0.1178 -0.8594
 6663SOL     OW31450   0.227   3.729  14.349 -0.5113 -0.1737  0.2368
 6663SOL    HW131451   0.296   3.666  14.368  1.9745  2.7816  0.9747
 6663SOL    HW231452   0.264   3.777  14.275  2.3442 -1.2157  1.0225
 6664SOL     OW31453   0.714   2.000  14.154  0.4818  0.2663  0.3035
 6664SOL    HW131454   0.674   1.913  14.149  0.1992  0.4656 -0.7238
 6664SOL    HW231455   0.791   1.980  14.102  0.1497  0.0351 -0.0989
 6665SOL     OW31456   2.802   4.163   5.242  0.0013 -0.1817  0.5790
 6665SOL    HW131457   2.818   4.209   5.324  0.4147  0.5561  0.0867
 6665SOL    HW231458   2.793   4.239   5.184  1.1920 -2.5611 -2.7558
 6666SOL     OW31459   3.281   2.761   7.885 -0.6063 -0.4518 -0.1291
 6666SOL    HW131460   3.187   2.764   7.904 -0.3917 -0.1409  0.8423
 6666SOL    HW231461   3.307   2.675   7.918  1.2423  0.0988 -0.1453
 6667SOL     OW31462   3.118   3.795  15.514  0.5245 -0.5712 -0.3100
 6667SOL    HW131463   3.093   3.743  15.438  1.2858 -0.8755 -0.3620
 6667SOL    HW231464   3.213   3.779  15.510  0.5321 -0.3984 -0.8641
 6668SOL     OW31465   3.146   0.043   9.094 -0.1594  0.3652 -0.1987
 6668SOL    HW131466   3.126   0.135   9.114 -0.0242  0.2625  0.4105
 6668SOL    HW231467   3.085   0.004   9.156  0.5689  2.0067  1.5588
 6669SOL     OW31468   0.198   3.912   7.405 -0.5136 -0.0357 -0.1594
 6669SOL    HW131469   0.253   3.844   7.368  0.9830  0.6069  0.9003
 6669SOL    HW231470   0.112   3.888   7.369  0.0979 -0.4551 -1.3488
 6670SOL     OW31471   4.026   1.832  17.459 -0.2676  0.3740  0.0958
 6670SOL    HW131472   4.013   1.905  17.521  0.4472  0.2538  0.3867
 6670SOL    HW231473   4.119   1.811  17.463 -0.0725  1.3063  0.4858
 6671SOL     OW31474   3.938   3.182  10.767 -0.3728  0.0725  0.0942
 6671SOL    HW131475   3.921   3.240  10.841 -1.3728  1.1968 -1.0025
 6671SOL    HW231476   3.919   3.241  10.694 -1.1451  0.7449  0.8523
 6672SOL     OW31477   3.821   2.475   4.244  0.1046 -0.4181 -0.3633
 6672SOL    HW131478   3.863   2.561   4.240 -0.1446 -0.3190 -0.8436
 6672SOL    HW231479   3.889   2.414   4.214 -0.7605 -0.8519 -1.4464
 6673SOL     OW31480   2.381   2.537  11.369  0.4376  0.7255 -0.4366
 6673SOL    HW131481   2.442   2.464  11.369  0.0852  0.4314 -1.2059
 6673SOL    HW231482   2.375   2.567  11.460  0.1855  1.9435 -0.8445
 6674SOL     OW31483   1.084   0.461   5.372  0.4313  0.0580 -0.2776
 6674SOL    HW131484   1.075   0.391   5.437  1.2920 -1.0968 -1.4066
 6674SOL    HW231485   1.149   0.421   5.314 -1.3183 -3.9193  0.5430
 6675SOL     OW31486   2.833   1.128   4.770 -0.8607 -0.1000  0.2047
 6675SOL    HW131487   2.864   1.151   4.857 -1.2469  2.8705 -0.4358
 6675SOL    HW231488   2.779   1.049   4.781 -1.6534  0.4784  0.4765
 6676SOL     OW31489   3.557   4.487   3.893 -0.6769 -0.1676 -0.7317
 6676SOL    HW131490   3.548   4.403   3.848  0.6895  0.7096 -2.6526
 6676SOL    HW231491   3.652   4.490   3.904 -0.5424  0.3372 -2.0676
 6677SOL     OW31492   2.750   3.018   7.113 -0.1847  0.3090 -0.4732
 6677SOL    HW131493   2.726   2.940   7.163 -1.9433  2.5241  2.1563
 6677SOL    HW231494   2.696   3.078   7.165  0.6253 -2.5498  3.6905
 6678SOL     OW31495   3.360   0.236   4.038  0.1084 -0.0052 -0.0903
 6678SOL    HW131496   3.283   0.210   3.987  0.0927  0.3086 -0.2254
 6678SOL    HW231497   3.415   0.161   4.012  0.0392 -0.4229  0.9743
 6679SOL     OW31498   2.428   3.034   6.559  0.0101 -0.4218 -0.1493
 6679SOL    HW131499   2.401   3.108   6.505  0.7023  0.7874  1.1381
 6679SOL    HW231500   2.465   3.081   6.634 -0.8973 -1.3558  0.8739
 6680SOL     OW31501   1.288   1.869  12.711 -0.4359 -0.2999  0.0359
 6680SOL    HW131502   1.296   1.930  12.784 -0.6063  1.5802 -1.4955
 6680SOL    HW231503   1.362   1.809  12.720  0.0270 -0.0242 -1.8583
 6681SOL     OW31504   3.778   0.209   7.947 -0.1826 -0.2497 -0.2678
 6681SOL    HW131505   3.688   0.206   7.913 -0.2337  0.8413 -0.2272
 6681SOL    HW231506   3.789   0.303   7.959 -1.0875 -0.2697  0.6974
 6682SOL     OW31507   2.604   3.580  11.803  0.0529  0.3500 -0.7586
 6682SOL    HW131508   2.667   3.588  11.875  1.2673 -1.9345 -1.5497
 6682SOL    HW231509   2.523   3.577  11.853 -0.3368 -0.9581 -1.4829
 6683SOL     OW31510   1.016   3.245   8.707  0.0266 -0.6537  0.4784
 6683SOL    HW131511   0.950   3.191   8.749  2.3288 -1.3303  3.2566
 6683SOL    HW231512   0.980   3.334   8.710 -0.2493 -0.7341 -0.4566
 6684SOL     OW31513   0.693   0.577   2.254  0.2688  0.1173  0.1211
 6684SOL    HW131514   0.776   0.580   2.302 -0.3584  0.4256  1.1898
 6684SOL    HW231515   0.642   0.622   2.321  0.0710  2.3178 -1.5169
 6685SOL     OW31516   0.069   0.233   1.460  0.3327  0.2295 -0.1444
 6685SOL    HW131517   0.015   0.311   1.456 -0.6463 -0.5150 -1.6127
 6685SOL    HW231518   0.081   0.209   1.368 -1.0950 -1.9945  0.2534
 6686SOL     OW31519   3.049   1.249   4.127  0.1292 -0.1352  0.6731
 6686SOL    HW131520   3.136   1.225   4.159 -0.3948  0.1328  2.2924
 6686SOL    HW231521   3.009   1.162   4.125  0.5683 -0.2877 -1.2857
 6687SOL     OW31522   1.575   2.971   3.745 -0.3914 -0.0322  0.7236
 6687SOL    HW131523   1.555   2.880   3.721  1.0478 -0.7096  2.0735
 6687SOL    HW231524   1.498   3.000   3.793  1.0417  1.5687  2.0827
 6688SOL     OW31525   0.298   0.202  12.308 -0.5269 -0.6042 -0.2864
 6688SOL    HW131526   0.257   0.123  12.270 -0.1705  0.0453 -2.0196
 6688SOL    HW231527   0.247   0.277  12.278 -2.7129 -0.9018  2.7037
 6689SOL     OW31528   0.280   3.178   4.125  0.3607  0.7588 -0.3579
 6689SOL    HW131529   0.338   3.150   4.196  0.1260 -0.1191 -0.5219
 6689SOL    HW231530   0.201   3.138   4.160  0.2161  1.2652 -0.1089
 6690SOL     OW31531   0.369   1.279   1.848 -0.1197 -0.4236 -0.1753
 6690SOL    HW131532   0.368   1.218   1.774  0.7144  0.8177 -1.2009
 6690SOL    HW231533   0.288   1.243   1.886  0.4055 -1.0810  0.3039
 6691SOL     OW31534   4.076   3.098   7.775  0.0176  0.1470  0.3946
 6691SOL    HW131535   4.024   3.073   7.851 -2.2579  1.3983 -0.7486
 6691SOL    HW231536   4.031   3.073   7.694 -2.9405  2.5487  1.2823
 6692SOL     OW31537   2.045   0.752  14.696 -0.4101 -0.0102 -0.2852
 6692SOL    HW131538   1.981   0.763  14.766 -1.0290 -0.7597 -0.7214
 6692SOL    HW231539   2.127   0.731  14.740 -0.3067 -1.5311 -1.1936
 6693SOL     OW31540   1.862   2.746   7.249  0.6157 -0.3791  0.4141
 6693SOL    HW131541   1.870   2.707   7.162 -0.8598 -0.5057  0.3372
 6693SOL    HW231542   1.844   2.673   7.308 -1.7955  0.4222  0.6451
 6694SOL     OW31543   0.429   0.632  10.397  0.4778  0.3703 -0.3453
 6694SOL    HW131544   0.476   0.662  10.475  2.1310 -1.6803 -0.5629
 6694SOL    HW231545   0.368   0.569  10.434 -1.1684  0.3696 -3.0969
 6695SOL     OW31546   0.004   4.021   5.687  1.2872 -0.4742  0.2915
 6695SOL    HW131547   4.718   4.000   5.780  0.1526 -0.5789  0.1898
 6695SOL    HW231548   0.043   3.942   5.649 -2.2317 -1.5298 -1.1360
 6696SOL     OW31549   3.221   3.426   1.903  0.1931  0.6191 -0.5479
 6696SOL    HW131550   3.208   3.514   1.938  3.1571  0.8036  0.1112
 6696SOL    HW231551   3.310   3.436   1.871  0.8281 -0.4395  0.8725
 6697SOL     OW31552   0.035   0.757   3.598 -0.1379  0.1511 -0.2880
 6697SOL    HW131553   0.115   0.742   3.648  1.3267  3.2972 -1.6782
 6697SOL    HW231554   0.026   0.682   3.539  0.5745  0.5958 -0.9575
 6698SOL     OW31555   4.312   0.155   6.963 -0.4254  0.3451  0.0737
 6698SOL    HW131556   4.247   0.225   6.970  1.7772  2.3841  0.0194
 6698SOL    HW231557   4.265   0.076   6.993  2.1863 -1.0654  0.4421
 6699SOL     OW31558   2.440   2.479   5.208 -0.1397 -0.5791  0.1527
 6699SOL    HW131559   2.476   2.473   5.297 -0.7770 -0.8227  0.3903
 6699SOL    HW231560   2.520   2.466   5.156  0.2228  0.2393  0.5049
 6700SOL     OW31561   3.942   1.853   9.110  0.0999 -0.2073  0.3661
 6700SOL    HW131562   3.878   1.828   9.177 -1.1250 -1.9368 -1.4561
 6700SOL    HW231563   3.981   1.926   9.159 -0.3160  0.9717 -1.0769
 6701SOL     OW31564   1.859   3.141   9.134 -1.0474  0.3639  0.3375
 6701SOL    HW131565   1.818   3.222   9.102 -1.7117 -0.1924 -0.1989
 6701SOL    HW231566   1.816   3.076   9.079  1.6840 -0.4990 -0.7932
 6702SOL     OW31567   2.872   1.612   1.342  0.3689  0.0006  0.2095
 6702SOL    HW131568   2.873   1.664   1.422 -0.2276  0.3673 -0.0206
 6702SOL    HW231569   2.845   1.673   1.274  0.5549 -1.2626 -1.0018
 6703SOL     OW31570   1.132   2.633   7.445  0.1691 -0.5774  0.6941
 6703SOL    HW131571   1.093   2.595   7.366  2.6174  0.8005 -1.1900
 6703SOL    HW231572   1.057   2.632   7.504 -0.5311 -1.9096 -0.2052
 6704SOL     OW31573   2.326   3.869   8.647  0.2186  0.2118  0.3710
 6704SOL    HW131574   2.271   3.946   8.657  2.1490  1.8568 -1.4412
 6704SOL    HW231575   2.273   3.810   8.592  0.7346 -0.0393  0.1396
 6705SOL     OW31576   0.468   0.425   4.524  0.2447  0.7438  0.3354
 6705SOL    HW131577   0.549   0.412   4.573 -0.6424 -0.2551  1.5119
 6705SOL    HW231578   0.500   0.405   4.436  0.0846  1.1588  0.1786
 6706SOL     OW31579   1.085   3.387  16.998 -0.0782  0.6074 -0.2777
 6706SOL    HW131580   1.052   3.469  17.036 -0.6811 -0.9977  2.6259
 6706SOL    HW231581   1.033   3.323  17.046  1.0701 -0.1262 -0.0200
 6707SOL     OW31582   3.551   1.228   2.611  0.3052  0.1253 -0.8151
 6707SOL    HW131583   3.595   1.147   2.584  0.5365  0.3506 -1.1202
 6707SOL    HW231584   3.464   1.213   2.574  0.5919  1.1623 -1.9423
 6708SOL     OW31585   3.274   1.345  16.616 -0.1294 -0.2351 -0.1759
 6708SOL    HW131586   3.289   1.283  16.545 -1.1208  0.3189 -0.8823
 6708SOL    HW231587   3.188   1.319  16.650  0.6942 -0.9273  1.3448
 6709SOL     OW31588   4.583   1.521  15.907  0.5195  0.0836 -0.2524
 6709SOL    HW131589   4.546   1.566  15.832  0.2995 -0.7317 -0.6333
 6709SOL    HW231590   4.664   1.489  15.868 -0.3869 -2.0948 -0.3335
 6710SOL     OW31591   3.814   2.599   7.965  0.7201 -0.5550 -0.0332
 6710SOL    HW131592   3.820   2.573   7.873 -1.2354 -0.3866 -0.2009
 6710SOL    HW231593   3.771   2.683   7.953 -0.1328 -0.5908  2.7700
 6711SOL     OW31594   1.303   4.018   0.792 -0.9858 -0.2257  0.0760
 6711SOL    HW131595   1.309   3.925   0.769 -0.3416 -0.2928  0.5382
 6711SOL    HW231596   1.384   4.052   0.755 -0.0957 -3.1961 -0.7007
 6712SOL     OW31597   0.788   2.651   1.763  0.5155 -0.3108 -0.2203
 6712SOL    HW131598   0.875   2.660   1.804 -0.1630  0.4627  1.0522
 6712SOL    HW231599   0.812   2.679   1.675 -2.8757  0.0110 -1.0396
 6713SOL     OW31600   2.261   4.635   3.325 -0.1182 -0.4410 -0.0964
 6713SOL    HW131601   2.178   4.659   3.366  0.1779  1.2771 -0.5017
 6713SOL    HW231602   2.327   4.691   3.365  0.0887  1.2012 -2.7098
 6714SOL     OW31603   1.439   2.563   5.965 -0.2623 -0.2069 -0.3437
 6714SOL    HW131604   1.516   2.558   5.909  0.2781 -0.8484  0.4514
 6714SOL    HW231605   1.452   2.494   6.031  2.6061  0.8055  0.1558
 6715SOL     OW31606   1.373   3.112   8.044 -0.8431  0.0316  0.2388
 6715SOL    HW131607   1.332   3.032   8.010 -0.1261 -1.4639  2.8564
 6715SOL    HW231608   1.458   3.102   8.003 -0.8907 -1.4842  0.5301
 6716SOL     OW31609   4.022   1.711  14.322 -0.4641  0.2797  0.0273
 6716SOL    HW131610   4.036   1.624  14.285  1.2868  0.9507 -0.8995
 6716SOL    HW231611   3.939   1.730  14.278 -1.4082  0.7224  2.0116
 6717SOL     OW31612   4.530   3.126  14.456 -0.2521  0.0979  0.3955
 6717SOL    HW131613   4.520   3.054  14.395  0.9830  1.3286 -1.2614
 6717SOL    HW231614   4.580   3.181  14.395 -2.2005 -0.3294 -1.5624
 6718SOL     OW31615   0.599   1.459   3.388  0.3096 -0.3113  0.1488
 6718SOL    HW131616   0.523   1.517   3.397  2.6403  2.5414  1.0146
 6718SOL    HW231617   0.659   1.490   3.455  1.4678 -0.1100 -0.9900
 6719SOL     OW31618   4.089   0.680   5.537 -0.0678  0.0446 -0.3208
 6719SOL    HW131619   4.062   0.644   5.622  0.8847  1.2288  0.4827
 6719SOL    HW231620   4.039   0.626   5.476  0.3136 -1.5272  0.7449
 6720SOL     OW31621   2.042   0.101   3.313 -0.6244  0.0319  0.6127
 6720SOL    HW131622   2.006   0.096   3.224  0.7327  1.3475 -0.0037
 6720SOL    HW231623   2.051   0.195   3.325 -1.4125 -0.0911  2.1733
 6721SOL     OW31624   3.550   2.795   5.329  0.1650 -0.0574  0.8614
 6721SOL    HW131625   3.582   2.882   5.356  0.0510  0.0219  0.7363
 6721SOL    HW231626   3.509   2.816   5.246  1.0574  1.2948  0.7565
 6722SOL     OW31627   3.558   3.736   1.611 -0.3547  0.1554 -0.0510
 6722SOL    HW131628   3.494   3.713   1.544  0.1869 -0.9817 -0.1888
 6722SOL    HW231629   3.630   3.763   1.554 -1.2308  0.1464 -1.1597
 6723SOL     OW31630   2.980   0.693   7.725 -0.4944 -0.0654  0.3608
 6723SOL    HW131631   2.891   0.723   7.743  0.1015  1.0212  1.4492
 6723SOL    HW231632   3.008   0.769   7.675  1.3505 -0.6182  0.5467
 6724SOL     OW31633   3.287   0.085   0.491 -0.2556 -0.1238 -0.7313
 6724SOL    HW131634   3.214   0.103   0.550 -0.2734 -0.6774 -0.5864
 6724SOL    HW231635   3.324   0.009   0.534  3.5073  1.8933 -0.4046
 6725SOL     OW31636   1.436   1.977   2.459  0.3719 -0.3381  0.1425
 6725SOL    HW131637   1.418   2.071   2.465 -0.9274 -0.6261  0.6751
 6725SOL    HW231638   1.527   1.974   2.491 -0.3566 -3.2906  1.9679
 6726SOL     OW31639   3.044   1.814   6.146 -0.2519  0.6557 -0.5837
 6726SOL    HW131640   3.076   1.724   6.152  2.9512  1.7942 -0.3244
 6726SOL    HW231641   3.129   1.856   6.138 -0.4279  0.8837 -1.1880
 6727SOL     OW31642   1.985   0.721   6.076  0.4277 -0.1229  0.3927
 6727SOL    HW131643   2.072   0.682   6.082  0.7884  0.3739 -1.8649
 6727SOL    HW231644   1.932   0.642   6.064 -1.6084  0.9833  2.1710
 6728SOL     OW31645   3.244   2.651  13.518  0.2375 -0.5317  0.1971
 6728SOL    HW131646   3.257   2.715  13.449  1.8261  0.0326  1.0148
 6728SOL    HW231647   3.250   2.702  13.599  0.5309  0.5753 -0.5321
 6729SOL     OW31648   1.624   0.358  12.560 -0.1435  0.0597  0.0186
 6729SOL    HW131649   1.590   0.338  12.647  1.3915 -2.7320  0.0037
 6729SOL    HW231650   1.711   0.395  12.576 -0.3126 -1.0777  3.4722
 6730SOL     OW31651   1.584   2.691   3.745  0.2656  0.6139  0.4254
 6730SOL    HW131652   1.589   2.602   3.708 -1.5130  0.9199 -0.5786
 6730SOL    HW231653   1.496   2.714   3.714  0.7262  2.7638  0.7234
 6731SOL     OW31654   2.332   3.425   3.864 -0.3639  0.2460 -0.1484
 6731SOL    HW131655   2.324   3.330   3.859  0.1454  0.2273 -0.5958
 6731SOL    HW231656   2.346   3.455   3.774  2.2079  1.4324  0.6394
 6732SOL     OW31657   4.422   4.091   2.317 -0.4694  0.1480  0.3228
 6732SOL    HW131658   4.480   4.054   2.250 -0.6556 -0.1363  0.3161
 6732SOL    HW231659   4.465   4.097   2.403 -2.3069 -1.4430  1.3545
 6733SOL     OW31660   3.263   0.538   4.006  0.3708  0.5351 -0.4593
 6733SOL    HW131661   3.171   0.552   4.027  0.0077  0.1272 -1.7697
 6733SOL    HW231662   3.281   0.460   4.057  1.3562  2.1207  1.6125
 6734SOL     OW31663   3.352   2.923   7.363 -0.1500 -0.3934 -0.4270
 6734SOL    HW131664   3.399   3.001   7.391  1.1052 -1.5554  0.7145
 6734SOL    HW231665   3.285   2.949   7.300  0.6284 -1.4151 -1.6909
 6735SOL     OW31666   3.040   4.393   6.284  0.0612 -0.0880  0.2296
 6735SOL    HW131667   2.971   4.459   6.273  1.9052  2.0008  1.0000
 6735SOL    HW231668   3.112   4.432   6.333  0.7953 -0.6237 -0.4264
 6736SOL     OW31669   2.330   4.456  15.704  0.3033  0.5749  0.1540
 6736SOL    HW131670   2.366   4.393  15.765 -1.9295 -1.2681 -0.4571
 6736SOL    HW231671   2.247   4.424  15.671  0.8380  1.4763 -2.1444
 6737SOL     OW31672   2.591   1.167  14.157 -0.4181 -0.6108 -0.6084
 6737SOL    HW131673   2.639   1.090  14.187  0.6246  0.4140  0.3581
 6737SOL    HW231674   2.607   1.236  14.221 -0.0664  0.2033 -1.5765
 6738SOL     OW31675   4.688   0.664   2.713 -0.1261 -0.1910 -0.3497
 6738SOL    HW131676   0.036   0.728   2.695 -0.9416  0.6540 -0.4591
 6738SOL    HW231677   4.658   0.645   2.624 -0.0110 -3.2719  0.2653
 6739SOL     OW31678   4.604   4.377   3.843 -0.0274  0.2396  0.3473
 6739SOL    HW131679   4.639   4.396   3.756  1.3326 -0.8897  0.6395
 6739SOL    HW231680   4.509   4.386   3.837  0.1086  0.4857 -1.4696
 6740SOL     OW31681   2.515   2.140   6.728 -0.1643 -0.1325  0.1735
 6740SOL    HW131682   2.461   2.162   6.804 -0.9225  3.3472 -1.3867
 6740SOL    HW231683   2.603   2.140   6.764  0.6112 -0.6415 -1.7479
 6741SOL     OW31684   3.542   4.623   9.094 -0.3308 -0.0618  0.2295
 6741SOL    HW131685   3.616   4.665   9.050  0.5459 -0.4451  1.3605
 6741SOL    HW231686   3.496   4.694   9.140  0.2425 -0.4062  1.3332
 6742SOL     OW31687   0.241   0.754  11.327 -0.4423  0.2234 -0.1231
 6742SOL    HW131688   0.147   0.742  11.311 -0.8517  0.1350  2.3310
 6742SOL    HW231689   0.237   0.747  11.422 -0.2710 -0.2012 -0.1434
 6743SOL     OW31690   4.581   1.916   9.838  0.1281 -0.3107  0.2086
 6743SOL    HW131691   4.645   1.987   9.829 -0.4008 -0.1078 -1.9443
 6743SOL    HW231692   4.552   1.912   9.930  0.1521  2.3843  0.3107
 6744SOL     OW31693   2.880   0.248   1.113  0.6952  0.6518 -0.2856
 6744SOL    HW131694   2.795   0.209   1.093 -0.0878  1.7744  0.7934
 6744SOL    HW231695   2.941   0.199   1.057 -0.6358  0.9058 -1.9387
 6745SOL     OW31696   1.081   2.941   2.293 -0.0973  0.2928  0.1848
 6745SOL    HW131697   1.037   3.019   2.257  0.5258  0.8899  0.7170
 6745SOL    HW231698   1.066   2.863   2.240 -1.6887  1.6991 -1.4744
 6746SOL     OW31699   2.792   2.790   6.829  0.3470 -0.1355  0.2351
 6746SOL    HW131700   2.827   2.708   6.794  1.5672  0.8665 -0.8723
 6746SOL    HW231701   2.841   2.793   6.912 -1.7686 -0.2074  1.5002
 6747SOL     OW31702   3.213   4.335   8.236  0.6304 -1.0217  0.2862
 6747SOL    HW131703   3.263   4.310   8.313  2.8656 -2.2191 -1.5482
 6747SOL    HW231704   3.188   4.253   8.193 -0.1934 -0.0033 -1.2056
 6748SOL     OW31705   4.515   0.658   0.645 -0.0025 -0.0114  0.9538
 6748SOL    HW131706   4.424   0.685   0.659 -0.3528 -0.9552  0.4278
 6748SOL    HW231707   4.544   0.647   0.736  1.3961  2.0341  0.7610
 6749SOL     OW31708   2.802   1.734   6.932 -0.2551 -0.1499 -0.1212
 6749SOL    HW131709   2.777   1.797   6.999  1.1163 -0.0660  0.3057
 6749SOL    HW231710   2.814   1.795   6.859  0.9031 -0.2240  0.0033
 6750SOL     OW31711   2.989   1.403   9.150  0.2741 -0.2226 -0.0664
 6750SOL    HW131712   2.897   1.391   9.127  0.0104 -1.5024  1.6283
 6750SOL    HW231713   3.028   1.330   9.100 -2.2853 -0.8254 -1.1582
 6751SOL     OW31714   2.806   4.512  14.194  0.5879 -0.3070  0.0281
 6751SOL    HW131715   2.834   4.488  14.106  1.5442 -0.2263  0.3164
 6751SOL    HW231716   2.756   4.433  14.217 -1.2916  1.2327  1.2735
 6752SOL     OW31717   2.020   4.714   2.863 -0.0954 -0.0240 -0.0020
 6752SOL    HW131718   2.104   4.682   2.894  0.3952 -0.2598 -1.5939
 6752SOL    HW231719   2.048   0.080   2.833 -1.0955  0.9984  2.0254
 6753SOL     OW31720   2.927   1.990   3.766  0.1386 -0.2023  0.5521
 6753SOL    HW131721   2.930   1.925   3.836  0.5226 -0.6756  0.0913
 6753SOL    HW231722   2.948   2.070   3.815  0.3994  1.0912 -1.6719
 6754SOL     OW31723   3.440   1.228   6.960 -0.0419  0.4755  0.5950
 6754SOL    HW131724   3.439   1.192   7.048  1.8224 -1.2698 -0.1006
 6754SOL    HW231725   3.353   1.197   6.935  0.9774 -1.3380 -0.6898
 6755SOL     OW31726   0.885   3.489   6.094  0.0368 -0.8415 -0.1550
 6755SOL    HW131727   0.875   3.570   6.145 -2.4820 -1.5228  0.4632
 6755SOL    HW231728   0.944   3.428   6.139 -0.4437 -0.7562  0.5835
 6756SOL     OW31729   0.296   3.234   7.102  0.5408 -0.3197 -0.0915
 6756SOL    HW131730   0.236   3.269   7.168  0.6692 -0.3421  0.0349
 6756SOL    HW231731   0.336   3.317   7.074  0.1962 -0.2979 -0.5297
 6757SOL     OW31732   1.442   3.869   1.280  0.2199  0.3748  0.8443
 6757SOL    HW131733   1.422   3.929   1.208 -0.2310  0.0955  0.7383
 6757SOL    HW231734   1.409   3.919   1.355  0.3013  1.2629  0.2863
 6758SOL     OW31735   0.753   2.297   1.327  0.2557  0.4014  0.3210
 6758SOL    HW131736   0.667   2.334   1.348  1.1879  2.5686  0.3291
 6758SOL    HW231737   0.753   2.314   1.233 -4.0283  1.3043  0.4551
 6759SOL     OW31738   2.304   2.937   2.995  0.7208  0.5233 -0.7709
 6759SOL    HW131739   2.243   3.006   2.970  0.1298  0.1989 -0.2388
 6759SOL    HW231740   2.374   2.988   3.034  0.2466  0.8865 -0.3905
 6760SOL     OW31741   0.042   2.866  17.126 -1.0482 -0.0216  0.1332
 6760SOL    HW131742   0.080   2.780  17.112 -1.5146 -0.0110 -1.1090
 6760SOL    HW231743   0.054   2.892  17.035 -1.2258  2.7052  0.8873
 6761SOL     OW31744   2.430   3.494   4.811  0.4080  0.0568 -0.1946
 6761SOL    HW131745   2.419   3.417   4.755  0.8927  0.2830 -0.5998
 6761SOL    HW231746   2.343   3.516   4.842  1.2061  1.8625  0.7467
 6762SOL     OW31747   3.112   1.631   2.709 -0.0444  0.1812  0.0084
 6762SOL    HW131748   3.075   1.558   2.660 -1.0715 -0.4038  1.6496
 6762SOL    HW231749   3.036   1.684   2.733 -0.1926  0.0310 -0.1352
 6763SOL     OW31750   4.104   2.962  14.890 -0.1716  0.6438 -0.1729
 6763SOL    HW131751   4.067   2.957  14.801  0.3353  1.3649 -0.4269
 6763SOL    HW231752   4.027   2.936  14.940  1.4945 -1.9811  0.9980
 6764SOL     OW31753   0.876   1.322   8.762  0.0258 -0.3706 -0.3760
 6764SOL    HW131754   0.859   1.238   8.719  1.0779 -0.8243  0.1112
 6764SOL    HW231755   0.832   1.309   8.846  0.8202 -0.1394  0.0789
 6765SOL     OW31756   2.731   0.414  16.545 -0.2237  0.4077  0.3620
 6765SOL    HW131757   2.825   0.399  16.547 -0.0863  1.0004 -1.9864
 6765SOL    HW231758   2.718   0.447  16.457  0.5112 -1.4669 -0.4426
 6766SOL     OW31759   0.640   0.031   2.950 -0.3404 -0.4582  0.3038
 6766SOL    HW131760   0.597   0.048   2.867  2.0034 -1.5409 -1.1181
 6766SOL    HW231761   0.706   0.100   2.943  0.4588 -1.2647 -0.1443
 6767SOL     OW31762   1.960   1.054   9.561  0.4738  0.7900  0.4384
 6767SOL    HW131763   1.973   0.991   9.490  1.8142  2.0133 -0.4031
 6767SOL    HW231764   1.913   1.124   9.516  0.8604  0.1011 -1.0319
 6768SOL     OW31765   3.875   0.688   6.445 -0.8062  0.2298 -0.1717
 6768SOL    HW131766   3.822   0.737   6.507  0.5713  2.5247 -0.7999
 6768SOL    HW231767   3.966   0.700   6.473 -0.9076 -1.5515  0.9352
 6769SOL     OW31768   0.158   4.092   4.272  0.1293  0.1136 -0.0702
 6769SOL    HW131769   0.089   4.082   4.206  0.4030  0.6839 -0.4345
 6769SOL    HW231770   0.165   4.186   4.284 -2.0225  0.5977 -2.5674
 6770SOL     OW31771   2.139   1.379   0.123  0.2879  0.1154 -0.4507
 6770SOL    HW131772   2.060   1.427   0.098 -0.2842  0.3595  1.8646
 6770SOL    HW231773   2.115   1.290   0.095 -1.9759  0.9140 -1.0648
 6771SOL     OW31774   0.311   2.584  16.540  0.6730 -0.6405  0.3678
 6771SOL    HW131775   0.287   2.492  16.529  0.2958 -0.4119 -0.7618
 6771SOL    HW231776   0.333   2.594  16.632 -2.1016 -0.7385  1.0252
 6772SOL     OW31777   4.338   0.009  14.101 -0.2721  0.1494 -1.0340
 6772SOL    HW131778   4.279   0.066  14.053  0.5046 -0.0620 -2.2383
 6772SOL    HW231779   4.291   4.647  14.095  0.4099 -0.3839  0.8073
 6773SOL     OW31780   1.294   4.232   7.753  0.7697  0.2947 -0.1754
 6773SOL    HW131781   1.319   4.164   7.690  0.6966 -0.1047  0.2282
 6773SOL    HW231782   1.279   4.299   7.686 -3.1628  1.0864  1.5041
 6774SOL     OW31783   3.658   1.991   6.659 -0.0509  0.0147 -0.2490
 6774SOL    HW131784   3.570   2.009   6.624 -0.7878  0.3759  1.7669
 6774SOL    HW231785   3.672   2.076   6.701 -1.2336  0.6036 -1.0292
 6775SOL     OW31786   2.901   4.540   1.964 -0.3798 -0.3463 -0.5261
 6775SOL    HW131787   2.941   4.522   2.049 -0.1171 -0.6848 -0.7180
 6775SOL    HW231788   2.867   4.629   1.971  0.3035 -0.1786  0.6574
 6776SOL     OW31789   0.332   1.048   1.681  0.8009 -0.1104  0.0097
 6776SOL    HW131790   0.318   1.065   1.587 -1.4143  1.0668  0.5523
 6776SOL    HW231791   0.319   0.953   1.683  0.7997 -0.1404 -0.9883
 6777SOL     OW31792   4.061   3.203   5.154  0.6217  0.0250 -0.6253
 6777SOL    HW131793   4.117   3.156   5.215 -1.4516 -0.2455  1.0661
 6777SOL    HW231794   4.028   3.135   5.096  1.6652 -1.1363  0.1630
 6778SOL     OW31795   2.761   4.337   5.483  0.1270 -0.1514  0.3740
 6778SOL    HW131796   2.834   4.378   5.527 -0.2208 -0.6210  1.3884
 6778SOL    HW231797   2.710   4.313   5.561 -3.4470  0.3431 -1.8029
 6779SOL     OW31798   1.931   2.145   1.652 -0.2281 -0.1628  0.1886
 6779SOL    HW131799   1.903   2.151   1.744  1.1270  0.8869  0.5459
 6779SOL    HW231800   1.919   2.052   1.633  1.6473 -0.5766  1.0198
 6780SOL     OW31801   0.450   3.119  14.357 -0.0736 -0.0778  0.4716
 6780SOL    HW131802   0.421   3.071  14.435  0.8534 -2.0675 -0.4030
 6780SOL    HW231803   0.545   3.128  14.362  0.1550 -2.5788  0.9099
 6781SOL     OW31804   2.102   4.250   1.058 -0.2175 -0.2805  0.1826
 6781SOL    HW131805   2.128   4.166   1.019 -1.2783  0.0337 -1.2337
 6781SOL    HW231806   2.069   4.292   0.978 -1.5851  0.4574  1.1384
 6782SOL     OW31807   3.032   1.729  15.127  0.0510  0.1645  0.1706
 6782SOL    HW131808   2.937   1.724  15.137  0.0666 -0.6307 -0.1335
 6782SOL    HW231809   3.052   1.800  15.189  1.4816  0.3647 -0.5290
 6783SOL     OW31810   1.791   2.302  14.201  0.1567 -0.5001  0.0382
 6783SOL    HW131811   1.842   2.323  14.123  0.8368  1.6259  1.0527
 6783SOL    HW231812   1.754   2.215  14.189  2.2946 -1.4847  0.6890
 6784SOL     OW31813   2.111   4.205   0.489 -0.4141 -0.0289 -0.0612
 6784SOL    HW131814   2.193   4.231   0.530  1.0598 -0.9416 -2.4265
 6784SOL    HW231815   2.058   4.284   0.499 -0.1970  0.2475 -1.0752
 6785SOL     OW31816   2.373   0.765  16.208 -0.3724  0.3444 -0.1691
 6785SOL    HW131817   2.302   0.829  16.207 -0.1115  0.6085 -1.5311
 6785SOL    HW231818   2.339   0.681  16.239 -1.8751  0.8481 -0.4286
 6786SOL     OW31819   1.539   2.928   6.033 -0.0849  0.4730  0.3512
 6786SOL    HW131820   1.589   2.882   5.966  0.7207  1.4609  0.2612
 6786SOL    HW231821   1.524   2.859   6.097 -0.4758 -0.5051 -0.7989
 6787SOL     OW31822   1.316   4.276   8.184  0.8003 -0.0681 -0.0391
 6787SOL    HW131823   1.347   4.244   8.269 -2.1308 -0.9323  0.7291
 6787SOL    HW231824   1.332   4.190   8.144 -0.6249  0.1501 -1.0708
 6788SOL     OW31825   3.962   1.142   6.771  0.5763  0.4707 -0.2817
 6788SOL    HW131826   4.031   1.191   6.815  0.6541  0.4318 -0.3589
 6788SOL    HW231827   3.993   1.052   6.787 -0.7850  0.0902  0.2292
 6789SOL     OW31828   2.765   2.318  16.136 -0.0809  0.1255 -0.2414
 6789SOL    HW131829   2.728   2.230  16.128 -2.8274  1.1304  1.3565
 6789SOL    HW231830   2.712   2.354  16.065 -0.5358  1.5070  0.7732
 6790SOL     OW31831   0.137   3.750   0.915 -0.1974 -0.1823 -0.1839
 6790SOL    HW131832   0.197   3.816   0.881  1.4890 -1.0241  1.2054
 6790SOL    HW231833   0.191   3.705   0.980 -0.0447  1.6714  0.9522
 6791SOL     OW31834   3.646   1.859   8.535 -0.6201  0.0262 -0.2357
 6791SOL    HW131835   3.721   1.915   8.553  1.0113 -1.3810 -2.6630
 6791SOL    HW231836   3.697   1.786   8.500  1.3635  1.3238 -0.0373
 6792SOL     OW31837   2.827   3.768   2.614 -0.0400  0.3044  0.0525
 6792SOL    HW131838   2.819   3.681   2.577  2.0227 -0.1455  0.7034
 6792SOL    HW231839   2.865   3.813   2.538  0.1334  0.7079  0.3769
 6793SOL     OW31840   0.125   2.937   1.021  0.1149 -0.0933 -0.3552
 6793SOL    HW131841   0.124   2.984   1.104 -0.5886 -0.9243  0.1115
 6793SOL    HW231842   0.041   2.946   0.976 -0.2840  0.4609  0.5153
 6794SOL     OW31843   4.114   0.312   3.579 -0.1221  0.2089  0.4683
 6794SOL    HW131844   4.181   0.292   3.514 -0.3238 -0.0542  0.3397
 6794SOL    HW231845   4.117   0.236   3.637 -1.6029  0.3842  0.7793
 6795SOL     OW31846   0.688   1.111  13.465 -0.0048 -0.1534 -0.1916
 6795SOL    HW131847   0.656   1.127  13.376 -1.0318  1.1539  0.4152
 6795SOL    HW231848   0.741   1.031  13.456  0.2566  0.1624 -1.4704
 6796SOL     OW31849   0.612   0.461   3.134  0.4906  0.4232 -0.1099
 6796SOL    HW131850   0.676   0.526   3.164 -0.1780  0.0398  2.1718
 6796SOL    HW231851   0.660   0.387   3.098 -0.3675 -1.0675  1.7822
 6797SOL     OW31852   2.768   3.698   6.472  0.8276  0.0035  0.1852
 6797SOL    HW131853   2.712   3.621   6.482  2.2499 -1.0360  0.1753
 6797SOL    HW231854   2.811   3.692   6.558 -2.2219  2.0565  1.8399
 6798SOL     OW31855   4.528   4.692   3.547  0.2668  0.3843 -0.5846
 6798SOL    HW131856   4.564   4.713   3.461  1.1809 -2.3364 -0.8752
 6798SOL    HW231857   4.603   4.679   3.604  0.2649  1.4810 -0.3461
 6799SOL     OW31858   3.538   2.944   6.409 -0.0751 -0.3638 -0.3011
 6799SOL    HW131859   3.470   2.934   6.476 -0.0938  0.9658 -0.1206
 6799SOL    HW231860   3.556   2.851   6.399  0.6298 -0.3532  0.7906
 6800SOL     OW31861   1.787   2.705  14.725 -0.5813 -0.1171 -0.9592
 6800SOL    HW131862   1.834   2.735  14.803 -3.3751  3.7785 -0.7872
 6800SOL    HW231863   1.789   2.611  14.743  2.1060  0.3777  1.2550
 6801SOL     OW31864   0.533   3.131   2.088 -0.7000  0.3620  0.0319
 6801SOL    HW131865   0.562   3.173   2.007  1.6411 -0.5187  0.3950
 6801SOL    HW231866   0.437   3.132   2.085 -0.6411 -1.1218 -2.6631
 6802SOL     OW31867   2.573   2.079   7.009  0.2174 -0.2270 -0.3875
 6802SOL    HW131868   2.536   2.011   6.953 -5.5026  1.5821  1.2044
 6802SOL    HW231869   2.662   2.088   6.975  1.3742 -0.3332  2.6214
 6803SOL     OW31870   3.244   2.551   9.413 -0.2839 -0.5545  0.1782
 6803SOL    HW131871   3.298   2.514   9.343 -0.0280 -1.7853  1.0234
 6803SOL    HW231872   3.313   2.595   9.463 -0.5290  0.4286 -0.3715
 6804SOL     OW31873   0.264   4.149   3.217  0.5230  0.8130  0.3577
 6804SOL    HW131874   0.193   4.109   3.267  1.4840  0.6593  1.5938
 6804SOL    HW231875   0.228   4.139   3.129  2.6592 -0.7675 -0.3372
 6805SOL     OW31876   2.268   2.754  17.479 -0.2607 -0.8307  0.5251
 6805SOL    HW131877   2.224   2.749  17.564  1.5653 -0.1802  1.5094
 6805SOL    HW231878   2.358   2.749  17.511  0.2056 -0.2641 -0.6810
 6806SOL     OW31879   2.505   4.508   9.218 -0.4466  0.3200 -0.2303
 6806SOL    HW131880   2.584   4.457   9.201 -0.8101 -1.0201  1.9065
 6806SOL    HW231881   2.487   4.516   9.125  1.7608 -0.3887 -0.7157
 6807SOL     OW31882   2.942   1.267   2.939  0.6321  0.8961  0.2032
 6807SOL    HW131883   2.963   1.214   2.862  2.6612  1.2780  0.4911
 6807SOL    HW231884   3.002   1.235   3.006  0.4118  0.5767  0.2503
 6808SOL     OW31885   1.274   1.645   2.859  0.0836 -0.0882 -0.4714
 6808SOL    HW131886   1.187   1.682   2.843  1.6205  3.0715 -1.4631
 6808SOL    HW231887   1.290   1.656   2.953  0.3663 -1.8180 -0.3120
 6809SOL     OW31888   0.617   2.867  14.661 -0.3923  0.5318  0.2948
 6809SOL    HW131889   0.538   2.901  14.619  0.1178  0.6111 -0.6059
 6809SOL    HW231890   0.656   2.816  14.590  1.0487  0.3194  1.2489
 6810SOL     OW31891   1.636   2.667  13.601 -0.7098 -0.0727  0.5687
 6810SOL    HW131892   1.606   2.751  13.637  2.5420  0.6690  1.4949
 6810SOL    HW231893   1.722   2.660  13.641  0.3785 -0.4416 -1.8426
 6811SOL     OW31894   1.884   0.226   1.895  0.0568  0.0632 -0.7871
 6811SOL    HW131895   1.846   0.274   1.821  0.1252  0.8796 -0.2852
 6811SOL    HW231896   1.928   0.147   1.861  1.6195  0.4691  0.2785
 6812SOL     OW31897   2.632   0.724  16.124  0.3779  0.6343 -0.0452
 6812SOL    HW131898   2.541   0.738  16.149  0.5838  0.7063  0.6663
 6812SOL    HW231899   2.680   0.787  16.178  0.6064 -0.2101  0.7360
 6813SOL     OW31900   0.629   2.136  12.534  0.6947 -0.0855 -0.1946
 6813SOL    HW131901   0.557   2.195  12.512 -0.3444 -0.7117  1.4999
 6813SOL    HW231902   0.645   2.097  12.448  0.8851  0.1280 -0.2549
 6814SOL     OW31903   0.344   1.292  10.257  0.2596  0.1856 -0.2436
 6814SOL    HW131904   0.276   1.255  10.200  0.6192  1.5550 -1.5667
 6814SOL    HW231905   0.412   1.322  10.197  1.3415  0.0231  0.9213
 6815SOL     OW31906   3.909   4.564   6.881 -0.3098 -0.0567  0.2738
 6815SOL    HW131907   3.817   4.590   6.880 -1.1520 -3.0387  0.5423
 6815SOL    HW231908   3.931   4.591   6.792 -0.9689 -0.3002  0.0344
 6816SOL     OW31909   0.707   4.321  10.370  0.4839 -0.6095  0.4277
 6816SOL    HW131910   0.666   4.239  10.343 -2.2908  0.0909  2.6128
 6816SOL    HW231911   0.719   4.305  10.463  0.0552 -1.4619  0.3358
 6817SOL     OW31912   4.278   0.999   7.034 -0.2304 -0.4316  0.4385
 6817SOL    HW131913   4.253   1.059   7.104  0.8388 -0.4038  0.8024
 6817SOL    HW231914   4.228   1.036   6.962 -0.0269  0.2625  0.6563
 6818SOL     OW31915   0.494   3.474   7.972  0.1442  0.1664  0.6411
 6818SOL    HW131916   0.535   3.454   7.887 -0.8179  0.9499 -0.0106
 6818SOL    HW231917   0.431   3.542   7.949  2.0988  1.9347  0.5159
 6819SOL     OW31918   0.019   0.431   2.878 -0.4618 -0.0641 -0.3362
 6819SOL    HW131919   4.700   0.353   2.840 -0.4222 -1.5004  2.6074
 6819SOL    HW231920   4.708   0.498   2.817 -0.4524 -0.2947 -0.5940
 6820SOL     OW31921   4.356   3.482   0.555  0.4366  0.4217 -0.5757
 6820SOL    HW131922   4.286   3.529   0.601  0.8621 -1.8140  2.3141
 6820SOL    HW231923   4.424   3.546   0.534  0.3408  0.5103 -0.6201
 6821SOL     OW31924   3.790   2.651   9.347  0.3663 -0.0488  0.2986
 6821SOL    HW131925   3.796   2.605   9.431  1.0048  0.2678  0.4315
 6821SOL    HW231926   3.716   2.708   9.364  1.3132  1.2875 -0.0775
 6822SOL     OW31927   4.569   0.616  12.236 -0.1380 -0.4481  0.0958
 6822SOL    HW131928   4.648   0.576  12.273  0.8504  1.2587 -0.1623
 6822SOL    HW231929   4.575   0.707  12.265  0.9273 -0.5964  0.3756
 6823SOL     OW31930   3.868   1.513   9.586  0.3572  0.7750 -0.1065
 6823SOL    HW131931   3.880   1.474   9.673 -0.9568 -1.5908 -0.9888
 6823SOL    HW231932   3.773   1.521   9.589  0.2980  0.7079 -1.7394
 6824SOL     OW31933   3.694   2.585  10.692 -0.0263  0.0716  0.2577
 6824SOL    HW131934   3.705   2.605  10.785  2.2048 -0.5790  0.1419
 6824SOL    HW231935   3.764   2.638  10.653  1.8587 -1.6800  1.2096
 6825SOL     OW31936   2.744   0.351   3.479 -0.0842  0.2376  0.1692
 6825SOL    HW131937   2.724   0.263   3.447 -0.7718 -0.1224  1.5662
 6825SOL    HW231938   2.839   0.352   3.467 -0.1180  0.9090 -0.0480
 6826SOL     OW31939   2.250   0.165   4.252 -0.6794  0.0812 -0.3553
 6826SOL    HW131940   2.343   0.188   4.263 -0.8374  0.1477  0.8696
 6826SOL    HW231941   2.247   0.083   4.302 -3.3290  1.3737  1.6254
 6827SOL     OW31942   0.418   3.038   4.747 -0.3490 -0.1351  0.8536
 6827SOL    HW131943   0.349   3.078   4.694 -0.0568 -0.5550  0.1414
 6827SOL    HW231944   0.367   3.012   4.823 -1.7982  0.7354  0.1860
 6828SOL     OW31945   4.383   0.317  13.783  1.0250 -0.2951  0.6377
 6828SOL    HW131946   4.316   0.356  13.727 -0.0590 -0.4337  1.8394
 6828SOL    HW231947   4.325   0.297  13.857 -0.7723 -1.2517 -1.0177
 6829SOL     OW31948   2.733   1.062   5.807 -0.2773  0.4361 -0.4810
 6829SOL    HW131949   2.743   0.971   5.834  0.0927  0.7084  0.2954
 6829SOL    HW231950   2.664   1.051   5.741  0.1125  0.1633 -0.8470
 6830SOL     OW31951   0.297   3.986   5.873 -0.3363  0.3015 -0.1751
 6830SOL    HW131952   0.265   3.962   5.786 -1.7594  0.6877  0.2408
 6830SOL    HW231953   0.282   3.903   5.920 -0.1948 -1.3965 -3.1140
 6831SOL     OW31954   3.106   2.630   8.784 -0.5636 -0.2951 -0.3439
 6831SOL    HW131955   3.049   2.554   8.781 -0.4057 -0.4485  0.6704
 6831SOL    HW231956   3.085   2.664   8.871  0.5582 -1.2145  0.2875
 6832SOL     OW31957   0.087   0.018   9.502 -0.6440  0.5163  0.6573
 6832SOL    HW131958   0.053   4.697   9.423 -1.5538  0.7062  0.9576
 6832SOL    HW231959   0.097   4.668   9.565  1.0272 -0.0070 -0.1916
 6833SOL     OW31960   1.719   1.116   4.751  0.0738 -0.0460  0.3720
 6833SOL    HW131961   1.716   1.083   4.841  2.5630 -1.6872 -0.1434
 6833SOL    HW231962   1.631   1.152   4.739  0.1029 -0.4616 -1.0957
 6834SOL     OW31963   3.867   0.118   8.650 -0.0028  0.1784 -0.0327
 6834SOL    HW131964   3.871   0.206   8.687  0.2901 -0.2886  1.0495
 6834SOL    HW231965   3.954   0.112   8.612  1.0746  0.7025  2.3519
 6835SOL     OW31966   3.367   0.224   3.267 -0.0335  0.0056 -0.2081
 6835SOL    HW131967   3.291   0.275   3.296 -0.2275  1.1698 -2.7249
 6835SOL    HW231968   3.321   0.152   3.224 -2.3498  0.6643  1.1846
 6836SOL     OW31969   0.410   4.515   2.090  0.2891  0.1644 -0.3950
 6836SOL    HW131970   0.321   4.540   2.067 -0.3079  0.2605  2.0577
 6836SOL    HW231971   0.414   4.441   2.029 -0.7564 -0.0321 -0.2246
 6837SOL     OW31972   3.299   1.131   4.988 -0.5611 -0.4224  0.1364
 6837SOL    HW131973   3.378   1.089   4.956  0.0872 -0.2788  1.5459
 6837SOL    HW231974   3.339   1.195   5.047  0.3990 -2.3338  1.5545
 6838SOL     OW31975   4.497   2.650  16.703 -0.2756 -0.0093  0.5782
 6838SOL    HW131976   4.522   2.736  16.669  1.0665 -1.3229 -1.7449
 6838SOL    HW231977   4.403   2.656  16.721 -0.5419 -3.2296  0.2721
 6839SOL     OW31978   2.136   3.379   3.060 -0.4553 -0.0406 -0.2691
 6839SOL    HW131979   2.202   3.447   3.064 -1.8897  1.3697 -0.6829
 6839SOL    HW231980   2.115   3.359   3.151 -1.2769  0.2234 -0.3989
 6840SOL     OW31981   0.403   3.784   5.077 -0.0046  0.4437 -0.4527
 6840SOL    HW131982   0.435   3.848   5.140  0.5935  0.9608 -1.2748
 6840SOL    HW231983   0.348   3.734   5.137 -0.1280  0.5703 -0.4592
 6841SOL     OW31984   2.010   0.050   1.671  0.0698 -0.8025  0.5587
 6841SOL    HW131985   2.092   0.029   1.716  0.2284 -2.2230 -0.3738
 6841SOL    HW231986   2.002   4.694   1.615 -0.6376 -1.1706  1.1621
 6842SOL     OW31987   1.899   3.641   0.862  0.3796  0.2287  0.0154
 6842SOL    HW131988   1.952   3.708   0.906  1.8668 -1.4847  0.8034
 6842SOL    HW231989   1.881   3.578   0.931  1.4463  0.6441  0.6636
 6843SOL     OW31990   4.643   1.369  12.028  0.2396 -0.3872  0.4686
 6843SOL    HW131991   4.623   1.437  12.093 -1.0134  0.0778 -0.3973
 6843SOL    HW231992   4.579   1.403  11.965  0.6647  1.4141  0.9860
 6844SOL     OW31993   2.666   0.161   7.612 -0.2744  0.4200 -0.1553
 6844SOL    HW131994   2.758   0.138   7.622 -0.5335 -1.6561 -2.3906
 6844SOL    HW231995   2.653   0.171   7.517  0.0413  0.3265 -0.2089
 6845SOL     OW31996   1.161   3.708   1.538 -0.8009 -0.1770 -0.1397
 6845SOL    HW131997   1.238   3.703   1.595  0.1834 -1.5717 -1.6108
 6845SOL    HW231998   1.158   3.799   1.509  1.1319  1.3667  4.4043
 6846SOL     OW31999   0.958   4.272  14.428  0.6136  0.1321  0.4615
 6846SOL    HW132000   1.050   4.296  14.433  0.7482 -0.0304 -1.0896
 6846SOL    HW232001   0.951   4.208  14.499 -2.2258  0.1380  0.2178
 6847SOL     OW32002   3.847   3.125   4.259 -0.5471  0.5622  0.0634
 6847SOL    HW132003   3.759   3.163   4.251 -2.3052 -3.6592 -0.4329
 6847SOL    HW232004   3.850   3.074   4.340  3.6638 -2.1176 -1.7724
 6848SOL     OW32005   4.713   2.723  11.321 -0.2535 -0.1348  0.2602
 6848SOL    HW132006   0.023   2.811  11.341 -1.6043  0.4454 -0.2387
 6848SOL    HW232007   0.021   2.715  11.229 -0.3331 -2.1904  0.4172
 6849SOL     OW32008   0.063   3.006   7.825 -0.4986 -0.0947 -0.1328
 6849SOL    HW132009   0.027   2.970   7.744 -2.7987 -0.1179  0.8894
 6849SOL    HW232010   0.100   2.928   7.868  1.8852  1.6860  1.0680
 6850SOL     OW32011   4.616   2.703   5.882  0.1802  0.0190  0.1530
 6850SOL    HW132012   4.554   2.765   5.921  1.0932  0.9915  0.0525
 6850SOL    HW232013   4.572   2.673   5.802  0.9504 -0.2348 -0.1733
 6851SOL     OW32014   4.669   4.451  14.137 -0.2595 -0.4655 -0.3302
 6851SOL    HW132015   4.702   4.540  14.121  1.3692 -0.8226  1.0512
 6851SOL    HW232016   4.707   4.419  14.219  1.0380 -0.7101 -1.0201
 6852SOL     OW32017   0.875   1.812   8.024  0.0455 -0.1903  0.2036
 6852SOL    HW132018   0.957   1.793   7.979  0.8093  1.0963  1.0527
 6852SOL    HW232019   0.906   1.840   8.110  0.1071  1.8056 -0.4578
 6853SOL     OW32020   1.053   3.663  15.114  0.6728  0.0830  0.1225
 6853SOL    HW132021   1.002   3.741  15.134  1.3036  0.0150  2.0719
 6853SOL    HW232022   0.989   3.614  15.063 -0.4625  3.1958 -1.3751
 6854SOL     OW32023   0.025   4.661   5.090  0.1473 -0.2747  0.2008
 6854SOL    HW132024   0.049   4.665   5.183 -1.6013 -0.3906  0.6610
 6854SOL    HW232025   0.039   4.567   5.077 -1.1072 -0.0317 -2.9834
 6855SOL     OW32026   3.566   2.984   2.438  0.2681  0.0627 -0.4922
 6855SOL    HW132027   3.480   2.982   2.396 -0.6503 -0.3423  1.4078
 6855SOL    HW232028   3.612   2.931   2.372  0.8016  0.0070 -0.0729
 6856SOL     OW32029   3.224   0.148  11.950 -0.0932 -0.5213  0.4480
 6856SOL    HW132030   3.298   0.095  11.979 -0.0051 -0.6789 -0.0503
 6856SOL    HW232031   3.267   0.233  11.949  1.5357 -1.3527 -0.0852
 6857SOL     OW32032   4.575   3.611  14.563 -0.4009 -0.4516 -0.2374
 6857SOL    HW132033   4.597   3.682  14.502  0.1255 -0.8167 -0.4635
 6857SOL    HW232034   4.601   3.665  14.638 -0.5706  1.6070 -1.6459
 6858SOL     OW32035   3.990   0.938   6.282  0.7634 -0.4485  0.2215
 6858SOL    HW132036   4.010   1.024   6.320  0.9894 -0.9250  1.2024
 6858SOL    HW232037   4.026   0.880   6.349  2.4828  1.8507  1.2780
 6859SOL     OW32038   4.128   3.413  10.172  0.2837 -0.8606 -0.3983
 6859SOL    HW132039   4.084   3.420  10.087  0.1728 -1.8360 -0.4208
 6859SOL    HW232040   4.183   3.491  10.162 -0.9908 -0.0355 -0.8733
 6860SOL     OW32041   2.033   4.518   3.717  0.5394 -0.2100  0.3795
 6860SOL    HW132042   2.065   4.439   3.672 -1.5373 -0.8711  0.0616
 6860SOL    HW232043   2.002   4.574   3.646 -0.8704  0.3215  1.4347
 6861SOL     OW32044   1.488   2.317   6.086 -0.2993  0.0957  0.1706
 6861SOL    HW132045   1.411   2.293   6.136 -1.4993 -1.4081 -2.4037
 6861SOL    HW232046   1.552   2.283   6.148  0.3939  0.9880 -0.0426
 6862SOL     OW32047   0.324   3.926   4.858 -0.3690 -0.2983 -0.4371
 6862SOL    HW132048   0.392   3.984   4.893  0.0297 -0.3577 -1.1133
 6862SOL    HW232049   0.334   3.853   4.920  1.6454  0.8329  0.5758
 6863SOL     OW32050   2.515   1.684   5.914 -0.3748  0.2949  0.2558
 6863SOL    HW132051   2.572   1.698   5.989  0.3009 -0.8211 -0.0496
 6863SOL    HW232052   2.576   1.642   5.853 -2.7745 -1.1361 -1.1664
 6864SOL     OW32053   4.410   3.985  12.795  0.3804 -0.3209 -0.5309
 6864SOL    HW132054   4.490   3.935  12.781 -0.2749 -1.4565 -0.2162
 6864SOL    HW232055   4.437   4.067  12.838  0.1606  0.0864 -1.1719
 6865SOL     OW32056   0.827   2.532   2.147 -0.2218 -0.8035  0.2786
 6865SOL    HW132057   0.731   2.526   2.148 -0.2679 -0.0947 -0.8291
 6865SOL    HW232058   0.841   2.617   2.107 -2.2493 -0.9755 -0.8071
 6866SOL     OW32059   2.249   2.262  12.332  0.8295 -0.3429  0.5406
 6866SOL    HW132060   2.328   2.280  12.384 -0.4431  0.3527  2.2012
 6866SOL    HW232061   2.213   2.194  12.389  0.7945  0.0389  0.9675
 6867SOL     OW32062   1.572   0.246  15.234 -0.6392  0.0293  0.3595
 6867SOL    HW132063   1.497   0.229  15.176 -1.1645  0.9046  0.7783
 6867SOL    HW232064   1.635   0.197  15.182  0.6645  2.5527 -0.4494
 6868SOL     OW32065   2.614   3.676   7.345  0.1193 -0.0880  0.2819
 6868SOL    HW132066   2.572   3.731   7.278 -0.6093 -1.7595 -0.6218
 6868SOL    HW232067   2.589   3.727   7.422 -1.4844  1.1671 -1.0571
 6869SOL     OW32068   4.402   2.571  10.295  0.0665 -0.3504 -0.3297
 6869SOL    HW132069   4.434   2.567  10.385 -0.1329  2.4456 -0.1586
 6869SOL    HW232070   4.486   2.549  10.254  0.3889  0.3094 -0.0193
 6870SOL     OW32071   0.057   2.751   4.583  0.4885  0.1378  0.5602
 6870SOL    HW132072   4.718   2.677   4.583  0.0800  0.4540 -1.4001
 6870SOL    HW232073   0.007   2.811   4.638  1.2499  1.7105 -0.4529
 6871SOL     OW32074   2.912   3.726  17.072  0.0607 -0.2768 -0.2355
 6871SOL    HW132075   2.832   3.694  17.115 -0.9565 -0.4585 -2.2449
 6871SOL    HW232076   2.868   3.791  17.017  0.1099  1.8380  2.2104
 6872SOL     OW32077   0.796   4.459   8.705  0.2493  0.0549 -0.7130
 6872SOL    HW132078   0.829   4.369   8.701 -1.0985 -0.3934 -1.5917
 6872SOL    HW232079   0.735   4.480   8.634  0.1728 -0.0043 -0.6640
 6873SOL     OW32080   1.154   3.554   8.853  0.0567 -0.4536 -0.1236
 6873SOL    HW132081   1.187   3.644   8.853  0.7771 -0.7203  0.7447
 6873SOL    HW232082   1.132   3.551   8.760 -1.9928  1.5568  0.3011
 6874SOL     OW32083   0.500   4.089   1.991 -0.4647  0.5008 -0.5965
 6874SOL    HW132084   0.444   4.012   2.001 -1.0411  0.9551 -0.2565
 6874SOL    HW232085   0.542   4.093   2.076  2.3533  0.3086 -1.9979
 6875SOL     OW32086   0.363   1.269   3.644  0.9643  0.0254  0.4243
 6875SOL    HW132087   0.351   1.185   3.599  0.3669  0.7100 -0.6718
 6875SOL    HW232088   0.276   1.303   3.621  1.5614  1.3326  0.1580
 6876SOL     OW32089   3.365   2.480   4.849  0.7520  0.2031  0.0527
 6876SOL    HW132090   3.355   2.388   4.823 -3.4472  0.7195 -0.1742
 6876SOL    HW232091   3.453   2.499   4.816  1.1387 -0.9824  0.3984
 6877SOL     OW32092   0.317   3.823  17.027 -0.3157  0.0570  0.1124
 6877SOL    HW132093   0.300   3.730  17.041  3.4547 -0.5515  0.5884
 6877SOL    HW232094   0.332   3.827  16.933  1.0611 -2.9118  0.2177
 6878SOL     OW32095   0.749   2.821   0.233  0.1298 -0.4087 -0.5652
 6878SOL    HW132096   0.661   2.815   0.195  0.1753 -3.2172 -0.1756
 6878SOL    HW232097   0.775   2.908   0.203 -0.3512 -0.0693 -0.0048
 6879SOL     OW32098   4.391   3.707  11.581 -0.0135  0.4856 -0.0954
 6879SOL    HW132099   4.440   3.675  11.506  2.3206 -0.8652  2.0357
 6879SOL    HW232100   4.462   3.689  11.642  1.9491  1.7862 -2.0083
 6880SOL     OW32101   3.749   4.370   9.615 -0.3994  0.0383 -0.3234
 6880SOL    HW132102   3.690   4.317   9.668  0.7558 -2.5116 -1.5487
 6880SOL    HW232103   3.716   4.457   9.634  0.4185  0.1133  0.7712
 6881SOL     OW32104   0.028   4.337   2.361 -0.1909  0.2807  0.0995
 6881SOL    HW132105   0.028   4.243   2.343 -0.2573 -0.1575  2.4087
 6881SOL    HW232106   4.679   4.358   2.298  1.1883 -0.0421 -1.5322
 6882SOL     OW32107   1.688   1.138   6.771  0.7037  0.0220 -0.1662
 6882SOL    HW132108   1.700   1.128   6.677 -1.1564 -2.0742 -0.1953
 6882SOL    HW232109   1.595   1.118   6.776  0.9380 -0.7548  1.2510
 6883SOL     OW32110   4.415   1.626   0.476 -0.3306 -0.0755  0.0328
 6883SOL    HW132111   4.348   1.671   0.528  0.6517  0.9989  0.3719
 6883SOL    HW232112   4.477   1.596   0.543 -0.8713  0.7863  0.9082
 6884SOL     OW32113   3.556   0.583  17.216 -0.1235  0.0394 -0.0302
 6884SOL    HW132114   3.591   0.579  17.305 -0.2285 -1.6791 -0.0739
 6884SOL    HW232115   3.492   0.654  17.224  0.7087  0.5451  2.1040
 6885SOL     OW32116   4.358   4.240  13.762  0.1466  0.0161 -0.4928
 6885SOL    HW132117   4.425   4.186  13.719 -2.6363 -2.5526 -1.5667
 6885SOL    HW232118   4.418   4.277  13.827  0.1626 -0.3531 -0.2962
 6886SOL     OW32119   2.161   4.326   7.945  0.6150  0.1023 -0.0723
 6886SOL    HW132120   2.219   4.273   8.000  0.0516 -1.5322 -1.0699
 6886SOL    HW232121   2.090   4.268   7.917  1.3499 -0.6132 -0.4523
 6887SOL     OW32122   1.537   4.195   3.413  0.8310 -0.4777  0.3724
 6887SOL    HW132123   1.506   4.110   3.443 -3.2041  0.5759 -0.8138
 6887SOL    HW232124   1.631   4.184   3.430  0.6383 -0.1967  1.6043
 6888SOL     OW32125   0.747   2.174  11.049 -0.0787 -0.0825  0.1998
 6888SOL    HW132126   0.750   2.229  11.127 -2.6942 -0.7769  0.7994
 6888SOL    HW232127   0.654   2.179  11.025 -0.0827  1.5575  0.5335
 6889SOL     OW32128   0.250   4.348  13.060 -0.0387  0.1552 -0.0695
 6889SOL    HW132129   0.219   4.286  13.126 -1.3003  0.6411 -0.2118
 6889SOL    HW232130   0.224   4.294  12.985 -0.1524  1.3524 -0.8846
 6890SOL     OW32131   3.264   2.979   2.549 -0.0308 -0.5596 -0.2521
 6890SOL    HW132132   3.201   2.919   2.589  0.5824 -0.0321  1.5196
 6890SOL    HW232133   3.346   2.951   2.588 -0.8496  0.4686  2.2132
 6891SOL     OW32134   1.916   3.612   7.030 -0.1370 -0.4459  0.4134
 6891SOL    HW132135   1.874   3.556   7.095 -1.9454  2.6015  1.8477
 6891SOL    HW232136   1.916   3.553   6.954  0.8015  0.0086  0.0679
 6892SOL     OW32137   3.149   3.832  17.135  0.0957  0.2966 -0.2572
 6892SOL    HW132138   3.215   3.836  17.066  1.2638 -2.1214  0.7236
 6892SOL    HW232139   3.078   3.783  17.095 -1.0206  2.7357 -1.2320
 6893SOL     OW32140   1.555   1.345  13.237  0.1327 -0.6689  0.3350
 6893SOL    HW132141   1.608   1.332  13.158 -0.2344  0.5693 -0.1206
 6893SOL    HW232142   1.484   1.281  13.230  1.1283 -1.5461 -1.9110
 6894SOL     OW32143   1.016   3.963   1.036 -0.0745  0.1037 -0.1129
 6894SOL    HW132144   0.964   4.043   1.038 -1.6427 -0.8958 -0.8037
 6894SOL    HW232145   0.980   3.923   1.116  1.3084  1.3762  1.1435
 6895SOL     OW32146   3.764   4.110   5.716 -0.0102 -0.1244 -0.2373
 6895SOL    HW132147   3.851   4.148   5.701 -0.1945  0.7319  0.8490
 6895SOL    HW232148   3.716   4.192   5.731 -1.2551 -0.2564 -3.4944
 6896SOL     OW32149   4.097   2.545   7.504  0.3537 -0.3599  0.8637
 6896SOL    HW132150   4.111   2.637   7.528  1.2241 -1.5282  4.7997
 6896SOL    HW232151   4.153   2.548   7.427 -0.6205  1.0011  0.2112
 6897SOL     OW32152   1.008   4.267  10.575  0.2617  0.5702  0.4088
 6897SOL    HW132153   1.034   4.301  10.489 -0.7423  0.9733  0.2650
 6897SOL    HW232154   0.941   4.200  10.565  0.5297  0.1656  1.2904
 6898SOL     OW32155   3.405   3.362   8.322  0.0602  0.3811  0.1330
 6898SOL    HW132156   3.317   3.341   8.354  1.1593  0.7188  3.3797
 6898SOL    HW232157   3.435   3.274   8.302  1.4121  0.9940 -0.5820
 6899SOL     OW32158   4.207   4.408   5.586  0.5191  0.3622 -0.3109
 6899SOL    HW132159   4.275   4.345   5.561 -0.8375 -0.6171 -1.5967
 6899SOL    HW232160   4.239   4.493   5.557 -2.7305  1.6530 -0.0714
 6900SOL     OW32161   3.865   4.471   1.726 -0.4557  0.4773  0.1599
 6900SOL    HW132162   3.835   4.536   1.662  0.7903  1.9444  1.0591
 6900SOL    HW232163   3.779   4.433   1.746  0.1670 -0.2186  1.5086
 6901SOL     OW32164   0.206   2.822  13.076 -0.5088 -0.4872 -0.3683
 6901SOL    HW132165   0.142   2.754  13.057 -1.9672  0.6643  0.3999
 6901SOL    HW232166   0.270   2.813  13.005 -0.8890  2.8699 -1.1272
 6902SOL     OW32167   0.509   1.029   4.251  0.1082 -0.0329 -0.1372
 6902SOL    HW132168   0.601   1.007   4.240  0.2493  1.2166 -1.4706
 6902SOL    HW232169   0.491   0.985   4.334  0.2185  0.6099  0.2267
 6903SOL     OW32170   0.402   0.329   6.464 -0.4936 -0.2158  0.0683
 6903SOL    HW132171   0.480   0.333   6.519  0.7746  0.5660 -1.7555
 6903SOL    HW232172   0.408   0.250   6.410  0.9332  0.4357 -0.7640
 6904SOL     OW32173   4.474   3.956  17.274  0.0493  0.1326 -0.1357
 6904SOL    HW132174   4.547   3.966  17.335 -0.7401 -0.6397  0.9338
 6904SOL    HW232175   4.397   3.948  17.330 -0.7802  2.4035 -0.9814
 6905SOL     OW32176   4.435   0.199  16.741  0.2771 -0.0058 -0.2067
 6905SOL    HW132177   4.366   0.262  16.718  0.0474 -0.2104 -0.0812
 6905SOL    HW232178   4.461   0.248  16.819 -0.2158  0.0212 -0.0578
 6906SOL     OW32179   1.984   3.234  14.708 -0.6789  0.1985  0.4255
 6906SOL    HW132180   1.948   3.159  14.660 -0.3868 -0.0760  0.6278
 6906SOL    HW232181   2.074   3.226  14.676 -0.6203  3.3843 -0.2066
 6907SOL     OW32182   1.338   2.183   8.621 -0.1999 -0.2335  0.7234
 6907SOL    HW132183   1.285   2.248   8.575  0.4152 -1.0583 -1.1445
 6907SOL    HW232184   1.327   2.213   8.712 -1.2316 -1.7129  1.0927
 6908SOL     OW32185   3.933   1.862   4.677  0.1270 -0.3617  0.1238
 6908SOL    HW132186   3.893   1.921   4.741  0.4279  0.7651 -0.7251
 6908SOL    HW232187   3.856   1.809   4.657 -0.4724  0.1583  1.0516
 6909SOL     OW32188   0.370   0.017   0.385 -0.0399 -0.6738  0.0369
 6909SOL    HW132189   0.433   4.669   0.367  0.4153 -0.1634 -0.2915
 6909SOL    HW232190   0.416   0.096   0.357  0.8469 -1.2192 -0.0289
 6910SOL     OW32191   4.160   3.003   6.231 -0.1098  0.2426  0.0242
 6910SOL    HW132192   4.129   3.093   6.217 -2.3656 -0.4131  0.9443
 6910SOL    HW232193   4.085   2.967   6.278 -0.2458 -1.5143 -1.5461
 6911SOL     OW32194   2.960   0.031   9.301  0.8769  0.2838 -0.1008
 6911SOL    HW132195   3.014   0.080   9.363  0.9121  0.4909 -0.2929
 6911SOL    HW232196   2.873   0.035   9.341  0.2422  0.2057 -1.4658
 6912SOL     OW32197   1.835   0.333   6.791 -0.4483 -0.1151  0.1470
 6912SOL    HW132198   1.776   0.335   6.866  1.6396  1.7886  1.7051
 6912SOL    HW232199   1.815   0.245   6.756 -0.1645 -0.2624  0.3578
 6913SOL     OW32200   0.645   3.547  10.454  0.0070  0.4431  0.0944
 6913SOL    HW132201   0.688   3.548  10.368 -2.2485  2.5539 -1.0042
 6913SOL    HW232202   0.709   3.574  10.520  1.4859 -1.6816 -0.4461
 6914SOL     OW32203   3.367   1.049  15.251 -0.5170  0.4854 -0.0218
 6914SOL    HW132204   3.383   1.143  15.265  2.0889 -0.0195  0.3158
 6914SOL    HW232205   3.435   1.016  15.309  0.8021  0.1598 -1.7716
 6915SOL     OW32206   0.627   2.536  11.176  0.1489 -0.2071  0.3445
 6915SOL    HW132207   0.545   2.491  11.198 -0.5354  0.4302 -0.9157
 6915SOL    HW232208   0.677   2.456  11.191 -0.0279 -0.3264  0.2948
 6916SOL     OW32209   1.046   1.298   7.673 -0.0845  0.2026 -0.0464
 6916SOL    HW132210   1.127   1.261   7.639  1.1062  1.2259  1.6944
 6916SOL    HW232211   0.990   1.291   7.595 -0.4837  0.0348  0.2555
 6917SOL     OW32212   0.587   2.520   3.188 -0.0330 -0.2071 -0.7675
 6917SOL    HW132213   0.597   2.438   3.235  0.9538  0.1396 -0.3919
 6917SOL    HW232214   0.674   2.529   3.150 -0.1023  0.0931 -0.8535
 6918SOL     OW32215   0.561   2.108   5.782  0.0692  0.5869  0.9169
 6918SOL    HW132216   0.468   2.090   5.769  0.4901 -0.8359 -0.0809
 6918SOL    HW232217   0.570   2.184   5.723  0.5356  0.5235  0.9092
 6919SOL     OW32218   0.432   2.384   0.658  0.0317 -0.0904  0.3609
 6919SOL    HW132219   0.351   2.427   0.631  0.5964  1.4060  1.0377
 6919SOL    HW232220   0.416   2.290   0.646  0.8659  0.0798 -1.9203
 6920SOL     OW32221   3.704   1.336   8.571  0.0658  0.3528 -0.0631
 6920SOL    HW132222   3.632   1.384   8.613 -0.0557  0.7926 -0.7796
 6920SOL    HW232223   3.680   1.300   8.486 -0.7994 -0.7323  0.6299
 6921SOL     OW32224   4.342   3.760   6.083  0.6729 -0.1703 -0.2643
 6921SOL    HW132225   4.340   3.722   5.996  0.9052  1.7922 -1.1443
 6921SOL    HW232226   4.332   3.854   6.065  1.0730 -0.4826 -2.0980
 6922SOL     OW32227   0.342   1.518  13.367  0.6431 -0.4030 -0.0669
 6922SOL    HW132228   0.417   1.558  13.411  0.0205 -2.4527  2.8238
 6922SOL    HW232229   0.349   1.569  13.286  0.8361  0.8645  0.7408
 6923SOL     OW32230   2.104   4.526   5.006  0.6873  0.4984  0.0699
 6923SOL    HW132231   2.095   4.445   5.057 -0.5549  1.9785  2.2362
 6923SOL    HW232232   2.190   4.511   4.968  1.1358 -0.2520  1.3656
 6924SOL     OW32233   0.428   4.100  15.419 -0.1139  0.2259  0.2569
 6924SOL    HW132234   0.496   4.164  15.395 -1.3094  1.1772 -0.6105
 6924SOL    HW232235   0.476   4.025  15.454 -2.2180 -1.6878 -0.9636
 6925SOL     OW32236   1.496   4.087   2.743 -0.5536  0.3225  0.1837
 6925SOL    HW132237   1.562   4.068   2.677 -0.6437 -1.5145  0.6156
 6925SOL    HW232238   1.515   4.180   2.755  0.2960 -0.0215  1.4490
 6926SOL     OW32239   3.725   0.064   9.584 -0.7325 -0.4038  0.5888
 6926SOL    HW132240   3.704   0.153   9.555  0.4218 -0.3271  0.0174
 6926SOL    HW232241   3.644   0.015   9.570 -1.1315 -0.4802  3.1663
 6927SOL     OW32242   0.024   0.774   0.130 -0.0094 -0.1940 -0.0040
 6927SOL    HW132243   4.714   0.704   0.073 -2.4447 -1.2913  2.6913
 6927SOL    HW232244   0.114   0.742   0.141 -0.1929 -0.6933  0.0416
 6928SOL     OW32245   3.990   3.062   2.281 -0.3721  0.0901 -0.1301
 6928SOL    HW132246   4.061   3.005   2.311  1.4768  1.8749 -1.1088
 6928SOL    HW232247   4.032   3.132   2.231 -0.9991  1.2087  0.9075
 6929SOL     OW32248   0.235   0.316   4.344  0.0816 -0.0564 -0.0942
 6929SOL    HW132249   0.286   0.248   4.299  0.8787  0.5074 -0.0260
 6929SOL    HW232250   0.299   0.367   4.393  1.8917 -0.5562 -1.9177
 6930SOL     OW32251   0.120   3.462   6.388 -0.3823 -0.7845 -0.3099
 6930SOL    HW132252   0.055   3.430   6.451 -0.9324 -0.2041 -0.5914
 6930SOL    HW232253   0.075   3.538   6.352  0.2112  0.2249  1.0793
 6931SOL     OW32254   1.954   0.697   2.119 -0.0368  0.1641  0.3490
 6931SOL    HW132255   1.899   0.696   2.197 -1.4402  2.4341 -0.6098
 6931SOL    HW232256   1.981   0.606   2.101 -1.0642 -0.1658  0.5063
 6932SOL     OW32257   3.986   0.575   4.036  0.3467  0.5253 -0.8549
 6932SOL    HW132258   4.019   0.651   3.987 -1.4163  1.4631 -0.6036
 6932SOL    HW232259   3.951   0.519   3.967  0.5094 -1.2940  0.5614
 6933SOL     OW32260   2.671   0.820   2.446 -0.2634 -0.4284  0.9834
 6933SOL    HW132261   2.698   0.869   2.368 -2.7301 -1.7433 -0.7078
 6933SOL    HW232262   2.670   0.727   2.420 -1.9159  0.5598 -2.5127
 6934SOL     OW32263   4.287   1.050   2.852  0.3972 -0.2173  0.6246
 6934SOL    HW132264   4.351   0.993   2.810  1.4323 -0.0307  1.9467
 6934SOL    HW232265   4.330   1.134   2.862 -0.5918  0.5584 -1.6092
 6935SOL     OW32266   1.320   1.440   6.257  0.0616 -0.4186  0.0974
 6935SOL    HW132267   1.414   1.436   6.276  0.6026  1.3610 -2.2434
 6935SOL    HW232268   1.285   1.397   6.336 -2.9449  1.4110 -0.2445
 6936SOL     OW32269   0.049   4.367   5.033  0.4987 -0.4664 -0.3195
 6936SOL    HW132270   0.120   4.302   5.024 -0.3132 -1.1455 -1.9190
 6936SOL    HW232271   0.060   4.407   4.946  2.1197  3.1635  1.5879
 6937SOL     OW32272   2.096   4.006   8.938  0.5869  0.4361  0.6672
 6937SOL    HW132273   2.132   3.917   8.940  2.3651  1.0986 -2.8851
 6937SOL    HW232274   2.008   3.987   8.971 -0.9588  1.9169 -2.6787
 6938SOL     OW32275   0.308   4.276  17.222  0.2155 -0.6786 -0.2271
 6938SOL    HW132276   0.394   4.240  17.198  0.8325  0.1018  0.8021
 6938SOL    HW232277   0.250   4.208  17.189 -0.4408 -0.6269  0.8193
 6939SOL     OW32278   0.654   3.371   2.656 -0.1776 -0.2371 -0.0636
 6939SOL    HW132279   0.588   3.363   2.587  1.3371  0.9616 -1.6765
 6939SOL    HW232280   0.626   3.302   2.715 -0.4514  0.7218  0.9397
 6940SOL     OW32281   1.582   1.383   6.379 -0.2270  0.1444  0.2168
 6940SOL    HW132282   1.574   1.443   6.453  0.1602  0.1438  0.2581
 6940SOL    HW232283   1.613   1.308   6.431 -0.3849 -0.5957 -0.7500
 6941SOL     OW32284   3.890   4.455  10.539  0.0209 -0.5255 -0.1442
 6941SOL    HW132285   3.899   4.476  10.446 -2.6786  0.1385 -0.2478
 6941SOL    HW232286   3.942   4.374  10.544 -0.1900 -0.6175  0.5840
 6942SOL     OW32287   0.741   2.024   6.337  0.4081  0.3606  0.3478
 6942SOL    HW132288   0.827   2.058   6.362  1.2176 -0.4791 -1.2838
 6942SOL    HW232289   0.751   1.929   6.348 -1.4200  0.3878  2.2135
 6943SOL     OW32290   3.364   1.719   8.495  0.1680 -0.3184  0.1612
 6943SOL    HW132291   3.443   1.668   8.480 -0.5341 -1.1697 -0.6860
 6943SOL    HW232292   3.390   1.774   8.568 -0.8161  2.6600 -1.7187
 6944SOL     OW32293   0.770   2.227   4.518 -0.0108 -0.2857 -0.0777
 6944SOL    HW132294   0.832   2.227   4.591 -0.0077 -0.6754 -0.0848
 6944SOL    HW232295   0.809   2.157   4.466  0.9650 -1.3003  2.0131
 6945SOL     OW32296   0.464   2.235   6.467  0.2860  0.3614  0.1067
 6945SOL    HW132297   0.502   2.173   6.406  0.7806 -0.4408  1.2217
 6945SOL    HW232298   0.506   2.198   6.544 -0.6030  1.2276  1.0222
 6946SOL     OW32299   1.084   3.161   5.654  0.4886 -0.2664  0.0915
 6946SOL    HW132300   1.105   3.226   5.586  0.9212  1.0141  1.4556
 6946SOL    HW232301   1.045   3.212   5.724 -1.4365 -3.3911  1.2748
 6947SOL     OW32302   0.034   2.049   3.926 -0.1692 -0.0848 -0.1781
 6947SOL    HW132303   0.011   2.130   3.970 -0.2122 -0.2000  0.0101
 6947SOL    HW232304   4.718   2.056   3.838  1.4200 -2.1294 -1.0148
 6948SOL     OW32305   1.068   0.658   9.666 -0.2614 -0.5512  0.6523
 6948SOL    HW132306   1.159   0.627   9.669 -0.1366 -0.4562 -2.4420
 6948SOL    HW232307   1.066   0.671   9.761 -0.8065 -0.7846  0.6735
 6949SOL     OW32308   1.395   3.154   4.479  0.4504 -0.0069 -0.4987
 6949SOL    HW132309   1.324   3.181   4.538  1.2237  1.3163 -0.1845
 6949SOL    HW232310   1.461   3.127   4.542  0.3608  3.1625  0.9323
 6950SOL     OW32311   2.873   4.716  17.159  0.1786  0.0422 -0.1050
 6950SOL    HW132312   2.958   0.002  17.115  0.2959  0.1947  0.1422
 6950SOL    HW232313   2.872   4.628  17.195 -0.7729  0.0375 -0.1519
 6951SOL     OW32314   4.065   4.294  17.575 -0.2799  0.2235  0.0846
 6951SOL    HW132315   4.016   4.375  17.583  0.6234  1.1249 -3.9327
 6951SOL    HW232316   3.995   4.232  17.594  0.2214 -0.3379  0.1288
 6952SOL     OW32317   4.400   1.275   5.412 -0.1244  0.2291 -0.1855
 6952SOL    HW132318   4.417   1.313   5.498  2.6068 -0.6810 -0.3165
 6952SOL    HW232319   4.355   1.344   5.364  4.3251  0.7676 -3.5605
 6953SOL     OW32320   4.577   4.430   1.024  0.2160 -0.5708  0.3587
 6953SOL    HW132321   4.637   4.373   0.974  0.3740  1.2340 -1.5008
 6953SOL    HW232322   4.512   4.361   1.040  0.4936 -0.5433  1.6093
 6954SOL     OW32323   1.790   0.588   3.604 -0.3012 -0.1254  0.1293
 6954SOL    HW132324   1.771   0.496   3.586 -0.7731 -0.3153  1.5720
 6954SOL    HW232325   1.880   0.594   3.636  0.5899  1.0137 -2.6266
 6955SOL     OW32326   3.470   2.263   7.630  0.4460 -0.0549 -0.5772
 6955SOL    HW132327   3.551   2.312   7.619 -0.2094  1.2144  0.2550
 6955SOL    HW232328   3.443   2.268   7.538  0.3633 -0.9980 -0.6088
 6956SOL     OW32329   4.659   3.002  11.548 -0.1058 -0.1145 -0.8037
 6956SOL    HW132330   4.610   3.020  11.628  0.6094  3.1569 -1.1394
 6956SOL    HW232331   4.584   2.983  11.491 -1.1017 -1.2866  0.8974
 6957SOL     OW32332   1.427   2.148   2.759 -0.0266  0.2641  0.3823
 6957SOL    HW132333   1.371   2.184   2.690  0.5041 -1.5533 -0.9840
 6957SOL    HW232334   1.488   2.221   2.774  2.1810 -1.0893 -2.0443
 6958SOL     OW32335   1.824   3.667   2.462 -0.1818  0.4919 -0.5992
 6958SOL    HW132336   1.740   3.681   2.506 -0.2709 -0.3437 -0.5030
 6958SOL    HW232337   1.835   3.748   2.413  2.4146  1.1962  1.1719
 6959SOL     OW32338   1.971   1.287   8.002  0.3675 -0.5154 -0.2093
 6959SOL    HW132339   2.026   1.315   8.075 -0.6698  0.5914  0.1543
 6959SOL    HW232340   1.911   1.361   7.990  2.0812  0.8207 -0.4553
 6960SOL     OW32341   1.403   4.143   5.470  0.2695 -0.0408 -0.3697
 6960SOL    HW132342   1.314   4.175   5.481  0.7230  1.3460 -0.7748
 6960SOL    HW232343   1.442   4.222   5.432 -1.6859 -0.3890 -3.0575
 6961SOL     OW32344   4.293   1.683  16.280 -0.1596 -0.4269 -0.1954
 6961SOL    HW132345   4.291   1.614  16.346  0.9959 -2.3799 -2.1788
 6961SOL    HW232346   4.368   1.651  16.229  1.2618  3.6951 -0.6276
 6962SOL     OW32347   1.338   0.447   4.760  0.4888 -0.1062 -0.6227
 6962SOL    HW132348   1.302   0.473   4.675  1.2375  2.6071 -0.0996
 6962SOL    HW232349   1.263   0.459   4.818 -0.0581 -2.7057 -0.7651
 6963SOL     OW32350   3.838   2.429  10.338 -0.2789 -0.2411 -0.2086
 6963SOL    HW132351   3.765   2.490  10.353  0.1858  0.3152 -0.1829
 6963SOL    HW232352   3.864   2.473  10.257 -0.7972  1.4981  0.5510
 6964SOL     OW32353   3.330   4.492   7.605  0.1055 -0.3292 -0.2755
 6964SOL    HW132354   3.304   4.400   7.605  0.8049 -0.5284 -0.1649
 6964SOL    HW232355   3.412   4.496   7.557 -0.4892  1.9882 -1.1056
 6965SOL     OW32356   4.285   4.178   4.424 -0.0914  0.5667 -0.2761
 6965SOL    HW132357   4.312   4.126   4.349 -1.5871 -2.9041  1.5870
 6965SOL    HW232358   4.301   4.264   4.386 -0.1982  0.2709 -0.9845
 6966SOL     OW32359   0.113   1.041   4.214  0.0955 -0.9023  0.3755
 6966SOL    HW132360   0.019   1.041   4.229  0.5352 -4.0168  2.9907
 6966SOL    HW232361   0.111   1.050   4.118  0.1726 -0.5081  0.4094
 6967SOL     OW32362   2.219   3.101  17.128 -0.0411  0.5069  0.3700
 6967SOL    HW132363   2.221   3.008  17.150 -1.8864  0.9243  2.3443
 6967SOL    HW232364   2.124   3.117  17.128 -0.5566 -2.4545  1.3689
 6968SOL     OW32365   4.543   3.903   0.606  0.0818  0.1047  0.0030
 6968SOL    HW132366   4.503   3.990   0.603  3.4871  1.5835 -2.8295
 6968SOL    HW232367   4.608   3.908   0.536 -0.1340 -2.5363 -0.3913
 6969SOL     OW32368   4.569   2.870   5.561  0.8950 -0.0325  0.3129
 6969SOL    HW132369   4.520   2.794   5.592  0.3201 -0.5592 -1.8386
 6969SOL    HW232370   4.593   2.908   5.645 -0.6697 -0.8832  1.1575
 6970SOL     OW32371   3.173   1.307   9.408 -0.1844 -0.4899  0.5789
 6970SOL    HW132372   3.195   1.240   9.343 -2.0125 -0.6261  0.1024
 6970SOL    HW232373   3.178   1.245   9.481 -0.1406  0.2033  1.1577
 6971SOL     OW32374   0.993   1.715   7.548 -0.1470  0.2610  0.0311
 6971SOL    HW132375   1.062   1.723   7.613 -0.1199 -1.1394  0.1792
 6971SOL    HW232376   1.038   1.718   7.463 -2.1970  1.8201 -1.0108
 6972SOL     OW32377   2.691   3.257   3.813  0.3057  0.2341 -0.1134
 6972SOL    HW132378   2.695   3.162   3.801  3.4100  0.2680  0.6307
 6972SOL    HW232379   2.609   3.278   3.768 -0.1600 -0.5232  0.3803
 6973SOL     OW32380   0.361   2.138  12.465  0.2072 -0.2483  0.6145
 6973SOL    HW132381   0.322   2.060  12.503 -2.8153  0.4055 -1.1023
 6973SOL    HW232382   0.396   2.110  12.381 -1.0580  0.3626 -0.1217
 6974SOL     OW32383   4.355   1.230  14.624 -0.0008 -0.1682  0.1310
 6974SOL    HW132384   4.442   1.226  14.585  0.1874 -0.0769  0.5439
 6974SOL    HW232385   4.340   1.139  14.650  2.7320  0.3721  3.6192
 6975SOL     OW32386   0.414   3.004   0.006 -0.1519  0.5307  0.2269
 6975SOL    HW132387   0.432   2.964   0.091  3.4851 -0.5677 -1.0594
 6975SOL    HW232388   0.404   2.926  17.637  0.3009  0.8940 -0.3674
 6976SOL     OW32389   3.814   3.340   6.270 -0.2337  0.4446 -0.0759
 6976SOL    HW132390   3.750   3.283   6.314  1.0815 -1.7398 -1.0054
 6976SOL    HW232391   3.766   3.420   6.250  0.7550  0.7387 -1.2454
 6977SOL     OW32392   1.912   1.618   8.118 -0.0477 -0.4394 -0.9031
 6977SOL    HW132393   1.883   1.545   8.064  1.2461 -0.4534 -1.5982
 6977SOL    HW232394   1.842   1.681   8.105 -1.2664 -1.6698 -0.2830
 6978SOL     OW32395   3.848   4.233   9.188 -0.3198 -0.2565 -0.3820
 6978SOL    HW132396   3.874   4.325   9.196 -0.2299 -0.0012 -3.6048
 6978SOL    HW232397   3.891   4.200   9.109  0.2893 -2.5018  0.8931
 6979SOL     OW32398   0.145   2.611   8.643 -0.1589 -0.2034 -0.2166
 6979SOL    HW132399   0.106   2.602   8.730 -0.0031 -0.7890 -0.2076
 6979SOL    HW232400   0.146   2.519   8.617  1.0523 -0.7650  1.8469
 6980SOL     OW32401   4.651   2.328  16.160 -0.3662  0.1840  0.8105
 6980SOL    HW132402   4.683   2.407  16.205 -1.0201  2.0514 -2.0526
 6980SOL    HW232403   4.701   2.266  16.213 -0.2930 -1.3638 -1.1021
 6981SOL     OW32404   2.429   4.518   2.316 -0.3906  0.7147  0.2700
 6981SOL    HW132405   2.337   4.498   2.334 -0.4015 -2.4198 -3.4078
 6981SOL    HW232406   2.418   4.612   2.301 -1.5899 -0.0192 -3.4421
 6982SOL     OW32407   1.819   3.887  17.316  0.3773  0.2855  0.2561
 6982SOL    HW132408   1.791   3.803  17.279  1.1943 -0.5962  1.6199
 6982SOL    HW232409   1.914   3.882  17.307  0.0323 -1.7975 -2.3629
 6983SOL     OW32410   4.167   2.215   3.329 -0.0870 -0.4672 -0.1141
 6983SOL    HW132411   4.207   2.292   3.291  0.0604 -0.1426  0.6924
 6983SOL    HW232412   4.112   2.174   3.262 -1.0553  1.1688 -0.3084
 6984SOL     OW32413   3.550   0.433  12.535  0.2826 -0.6142 -0.4040
 6984SOL    HW132414   3.597   0.351  12.523 -0.1648 -0.7586 -1.1875
 6984SOL    HW232415   3.548   0.445  12.630 -1.7655 -1.0749 -0.3878
 6985SOL     OW32416   2.971   2.709   3.453 -0.2975 -0.3175 -0.1054
 6985SOL    HW132417   2.970   2.678   3.543  2.8626 -0.4633 -0.1226
 6985SOL    HW232418   2.925   2.793   3.464  0.2395  0.5243 -3.9852
 6986SOL     OW32419   4.706   4.599   4.067 -0.0789  0.1465 -0.2210
 6986SOL    HW132420   0.001   4.689   4.096 -2.8280  0.0626  1.5932
 6986SOL    HW232421   4.627   4.619   4.016 -0.7085 -2.5189 -0.2576
 6987SOL     OW32422   3.598   4.043   8.385 -0.0577 -0.2712  0.6802
 6987SOL    HW132423   3.597   4.090   8.301  2.6462 -1.2445  0.0822
 6987SOL    HW232424   3.571   3.956   8.355 -0.0174 -1.0969  3.0863
 6988SOL     OW32425   0.452   1.721   4.577  0.3080  0.0367  0.3950
 6988SOL    HW132426   0.480   1.692   4.664  0.8210 -0.4581  0.0667
 6988SOL    HW232427   0.465   1.816   4.580  1.2992 -0.1005  0.6476
 6989SOL     OW32428   1.466   1.975   2.176 -0.1496 -0.0992  0.3029
 6989SOL    HW132429   1.449   1.957   2.268  1.8495 -0.1718  0.6679
 6989SOL    HW232430   1.557   2.006   2.170  0.8170 -3.2414 -1.2726
 6990SOL     OW32431   4.424   4.471  14.314 -0.2294  0.3243 -0.2269
 6990SOL    HW132432   4.357   4.532  14.282 -0.9033 -0.0767  0.4057
 6990SOL    HW232433   4.423   4.497  14.406  2.3439 -0.7861  0.1185
 6991SOL     OW32434   4.694   2.493   3.232 -0.4556 -0.0636 -0.1744
 6991SOL    HW132435   4.709   2.405   3.200  3.8047  0.8320 -0.6419
 6991SOL    HW232436   0.039   2.541   3.183 -0.0070  0.6741  1.1391
 6992SOL     OW32437   4.656   2.816   6.248 -0.1502  0.0807  0.2810
 6992SOL    HW132438   4.664   2.726   6.217 -1.0514  0.5654 -1.3693
 6992SOL    HW232439   4.562   2.829   6.244  0.0248  1.7073  1.4934
 6993SOL     OW32440   2.204   2.414   8.710  0.4880 -0.2021  0.1280
 6993SOL    HW132441   2.298   2.431   8.714  0.2892  0.8493  0.1289
 6993SOL    HW232442   2.180   2.416   8.802 -1.0152  2.5283 -0.3426
 6994SOL     OW32443   2.876   3.308   8.362 -0.1081 -0.1704  0.4432
 6994SOL    HW132444   2.820   3.265   8.297  0.8288  0.0778 -0.5389
 6994SOL    HW232445   2.848   3.263   8.441 -0.3528 -0.4646  0.1912
 6995SOL     OW32446   0.238   4.529  10.435 -0.6993 -0.4242  0.0783
 6995SOL    HW132447   0.215   4.467  10.366  0.5402  2.2446 -2.7186
 6995SOL    HW232448   0.332   4.543  10.424 -0.7870  0.0821 -0.0412
 6996SOL     OW32449   2.983   0.582  11.106 -0.3884  0.0434  0.6134
 6996SOL    HW132450   2.919   0.615  11.168  0.6529  2.4139  0.4477
 6996SOL    HW232451   2.999   0.493  11.135  1.3098  0.0741 -0.2053
 6997SOL     OW32452   3.567   2.222   1.265 -0.3663 -0.6339 -0.2757
 6997SOL    HW132453   3.618   2.169   1.327 -0.3054 -0.8106 -0.4803
 6997SOL    HW232454   3.627   2.285   1.226  0.2201 -0.7906  0.3834
 6998SOL     OW32455   3.705   0.625   4.529 -0.7478 -0.2451  0.4137
 6998SOL    HW132456   3.658   0.705   4.506  0.0781  0.2669  0.4982
 6998SOL    HW232457   3.645   0.555   4.505  1.5401 -2.3355  0.8393
 6999SOL     OW32458   3.683   1.833   5.945  0.5120  0.3315 -0.1174
 6999SOL    HW132459   3.685   1.741   5.968 -1.5649  0.8523  2.1247
 6999SOL    HW232460   3.671   1.868   6.033  0.1306 -1.8217  0.6733
 7000SOL     OW32461   3.709   2.062   4.282 -0.0342 -0.8265  1.0671
 7000SOL    HW132462   3.697   2.100   4.195  1.1687 -1.1634  0.7586
 7000SOL    HW232463   3.644   2.113   4.330  0.4945  2.4024 -1.6586
 7001SOL     OW32464   4.465   2.377   2.934  0.1802 -0.4930  0.0748
 7001SOL    HW132465   4.400   2.306   2.938 -0.7214  0.3167 -0.3392
 7001SOL    HW232466   4.444   2.433   3.009 -0.5996  1.0492 -1.2962
 7002SOL     OW32467   4.164   4.101  16.782 -0.3285  0.2089  0.0635
 7002SOL    HW132468   4.187   4.175  16.838  1.0704 -0.5992  0.5453
 7002SOL    HW232469   4.135   4.147  16.704  0.5679 -1.4150 -1.2179
 7003SOL     OW32470   1.505   1.197   7.143 -0.2570  0.6673  0.5796
 7003SOL    HW132471   1.585   1.231   7.104 -1.2292  1.1636 -0.9878
 7003SOL    HW232472   1.432   1.253   7.117  0.7524  1.2866 -0.9168
 7004SOL     OW32473   2.451   0.842   2.623 -0.0973 -0.3649 -0.7696
 7004SOL    HW132474   2.483   0.919   2.576  0.0179  0.1742  0.2085
 7004SOL    HW232475   2.536   0.798   2.617 -0.4741 -0.8267 -2.6241
 7005SOL     OW32476   1.704   4.690   8.490 -0.0122 -0.3603 -0.0444
 7005SOL    HW132477   1.663   0.040   8.539  1.4537 -0.5971  1.5165
 7005SOL    HW232478   1.744   0.016   8.416 -0.6134 -1.2395 -0.9243
 7006SOL     OW32479   2.522   4.430   8.147 -0.0536 -0.0020  0.0545
 7006SOL    HW132480   2.511   4.335   8.155  2.5342 -0.2493  0.7301
 7006SOL    HW232481   2.494   4.447   8.237  0.8912  0.2153  0.3086
 7007SOL     OW32482   2.275   0.879   0.578 -0.6945  0.5341  0.3310
 7007SOL    HW132483   2.300   0.813   0.514 -0.9253  0.8049 -0.0441
 7007SOL    HW232484   2.274   0.832   0.661 -1.2169  0.9926  0.5852
 7008SOL     OW32485   0.509   3.715   0.375 -0.2666 -0.5085  0.3937
 7008SOL    HW132486   0.468   3.689   0.457 -0.3945  0.0773  0.5135
 7008SOL    HW232487   0.513   3.626   0.340  2.5383 -0.2411  0.0085
 7009SOL     OW32488   4.477   0.575   4.043 -0.0314  0.4070  0.1233
 7009SOL    HW132489   4.398   0.609   4.001 -0.8030 -0.1961  1.1063
 7009SOL    HW232490   4.522   0.659   4.028 -0.7211  0.7311 -0.1266
 7010SOL     OW32491   3.795   3.246   4.678  0.5062  0.1414  0.2712
 7010SOL    HW132492   3.718   3.203   4.641  1.4918 -1.4022  0.0128
 7010SOL    HW232493   3.801   3.324   4.623 -1.0390 -0.2705 -0.4649
 7011SOL     OW32494   1.011   0.126   2.305  0.4511  0.3781  0.5852
 7011SOL    HW132495   1.026   0.146   2.212  2.0139  3.0487  1.4261
 7011SOL    HW232496   0.939   0.063   2.309  0.8133  0.0227  1.4539
 7012SOL     OW32497   4.611   0.880  16.737 -0.2617 -0.2749  0.3005
 7012SOL    HW132498   4.556   0.955  16.763 -2.0211 -0.6409 -2.2776
 7012SOL    HW232499   4.565   0.805  16.773  2.4697 -2.0607  0.0112
 7013SOL     OW32500   0.995   2.474   7.221  0.3670  0.0156 -0.1930
 7013SOL    HW132501   0.950   2.554   7.193 -1.2646 -1.4604 -1.7401
 7013SOL    HW232502   1.048   2.460   7.142  2.0715 -1.9234  1.2973
 7014SOL     OW32503   3.764   2.310  16.422 -0.5256  0.0182  0.6638
 7014SOL    HW132504   3.835   2.359  16.463  0.3603 -1.0519  0.3979
 7014SOL    HW232505   3.779   2.356  16.339 -1.8146  0.0387  0.4383
 7015SOL     OW32506   2.156   4.309  13.814 -0.2518  0.1659  0.1635
 7015SOL    HW132507   2.198   4.346  13.891 -0.4639 -1.5438  1.1011
 7015SOL    HW232508   2.190   4.220  13.821 -0.5319  0.1458  1.1547
 7016SOL     OW32509   0.063   3.178   8.474  0.0109 -0.2275 -0.2883
 7016SOL    HW132510   0.030   3.222   8.396  0.5270  0.0072 -0.3742
 7016SOL    HW232511   0.133   3.240   8.497 -0.8039 -0.1687  2.0812
 7017SOL     OW32512   2.276   3.725   2.013 -0.5388  0.0589  0.2057
 7017SOL    HW132513   2.258   3.812   2.049 -0.7495  0.6977 -1.4597
 7017SOL    HW232514   2.357   3.738   1.964 -1.0109  0.1236 -0.5613
 7018SOL     OW32515   4.082   1.854  14.784 -0.2011  0.2401 -0.3949
 7018SOL    HW132516   3.990   1.844  14.810 -0.9612  1.2808 -2.6910
 7018SOL    HW232517   4.107   1.764  14.804  2.0038  0.6106 -1.4629
 7019SOL     OW32518   0.976   4.156   6.050 -0.1820 -0.2758  0.0152
 7019SOL    HW132519   0.899   4.203   6.016  0.0902 -0.4663 -0.8442
 7019SOL    HW232520   0.942   4.096   6.116 -0.4556  2.0436  1.9816
 7020SOL     OW32521   3.353   1.039  13.499 -0.1097  0.0024  0.4093
 7020SOL    HW132522   3.292   1.113  13.499  1.6197  1.4162  1.3827
 7020SOL    HW232523   3.427   1.086  13.461 -0.1888 -0.1818  0.0278
 7021SOL     OW32524   2.587   3.104   2.942 -0.0431 -0.2410 -0.4257
 7021SOL    HW132525   2.511   3.121   2.886  0.2615  2.2442 -0.0775
 7021SOL    HW232526   2.569   3.145   3.026 -0.0940 -3.2977  1.0516
 7022SOL     OW32527   3.932   0.239   1.715  0.0273 -0.7655  0.0117
 7022SOL    HW132528   3.994   0.183   1.667 -1.1857 -1.1970 -1.0502
 7022SOL    HW232529   3.945   0.207   1.804  1.3467 -1.2657 -0.3456
 7023SOL     OW32530   0.168   2.617  10.303 -0.1478  0.4240 -0.1998
 7023SOL    HW132531   0.080   2.597  10.270 -0.5121  0.7268  0.5886
 7023SOL    HW232532   0.160   2.705  10.340 -0.7545  0.6349 -0.8219
 7024SOL     OW32533   0.687   1.439  15.297  0.0589 -0.3416 -0.1166
 7024SOL    HW132534   0.684   1.497  15.373  3.0549  0.4420 -0.5929
 7024SOL    HW232535   0.775   1.452  15.261  0.5182  1.0116  1.5027
 7025SOL     OW32536   3.145   2.458   8.240 -0.1810  0.1737 -0.0094
 7025SOL    HW132537   3.188   2.415   8.167 -1.4015  1.1927 -1.3176
 7025SOL    HW232538   3.113   2.380   8.286 -0.1637  0.8071  1.0766
 7026SOL     OW32539   1.516   2.126   1.107  0.9465 -0.2225  0.8336
 7026SOL    HW132540   1.460   2.148   1.181 -0.5137 -1.0723 -0.0066
 7026SOL    HW232541   1.448   2.122   1.039 -1.4773  1.1189  3.1733
 7027SOL     OW32542   3.058   2.802   7.588 -0.2618 -0.9249 -0.0186
 7027SOL    HW132543   3.013   2.813   7.672  1.1633  1.5167  0.4229
 7027SOL    HW232544   3.053   2.891   7.554 -0.3437 -2.0094 -2.8605
 7028SOL     OW32545   0.853   2.609   3.358 -0.4011  0.6401 -0.0825
 7028SOL    HW132546   0.806   2.535   3.399 -0.3486  0.6476 -0.0086
 7028SOL    HW232547   0.848   2.584   3.266  2.3383 -0.4162  0.0583
 7029SOL     OW32548   0.338   3.899  16.748 -0.3005 -0.7788  0.7057
 7029SOL    HW132549   0.308   3.985  16.719 -0.9589 -0.6691  1.7017
 7029SOL    HW232550   0.304   3.844  16.678  0.8760 -1.1699  0.4395
 7030SOL     OW32551   3.393   1.277   6.575 -0.9108  0.1263  0.4055
 7030SOL    HW132552   3.473   1.278   6.629 -0.3165 -0.5592 -0.4616
 7030SOL    HW232553   3.403   1.185   6.552  1.1409  0.6091 -0.6596
 7031SOL     OW32554   1.708   2.507   4.397 -0.0423  0.3546 -0.3287
 7031SOL    HW132555   1.641   2.563   4.360 -1.6703 -0.0533  1.9794
 7031SOL    HW232556   1.721   2.442   4.328  0.2289 -0.3876  0.4190
 7032SOL     OW32557   2.498   1.494   7.498  0.2975  0.7283  0.0549
 7032SOL    HW132558   2.568   1.481   7.435 -0.6152  2.5081 -1.3226
 7032SOL    HW232559   2.465   1.404   7.506 -0.5263  1.0248  0.0534
 7033SOL     OW32560   4.482   0.946   3.806  0.0465  0.0354  0.6715
 7033SOL    HW132561   4.554   1.008   3.795 -1.6648  1.7152 -1.0829
 7033SOL    HW232562   4.483   0.916   3.715 -2.9850  0.3241  0.5548
 7034SOL     OW32563   2.661   4.300   6.193 -0.1140  0.1072  0.7207
 7034SOL    HW132564   2.589   4.329   6.137 -0.6589 -2.9037 -0.1225
 7034SOL    HW232565   2.620   4.333   6.273  2.8548  0.0991  2.2318
 7035SOL     OW32566   2.869   4.225   2.912 -0.6726 -0.3287  0.0095
 7035SOL    HW132567   2.773   4.219   2.914 -0.6549 -0.1418  1.1963
 7035SOL    HW232568   2.888   4.218   2.819 -0.0077 -0.8611  0.1850
 7036SOL     OW32569   0.469   4.113  17.105 -1.0182 -0.2542 -0.2442
 7036SOL    HW132570   0.486   4.021  17.128  0.8972  0.2821  0.4981
 7036SOL    HW232571   0.477   4.111  17.010  3.4770 -0.2535  0.1316
 7037SOL     OW32572   0.938   1.536   1.400 -0.7295 -0.6733  0.3554
 7037SOL    HW132573   0.966   1.478   1.470  0.6670  0.9773  1.1501
 7037SOL    HW232574   0.946   1.625   1.434 -2.4928 -1.2660  2.3353
 7038SOL     OW32575   0.554   2.691   1.489 -0.3182  0.6045  0.1688
 7038SOL    HW132576   0.534   2.776   1.451 -1.1143  0.4578  0.2515
 7038SOL    HW232577   0.555   2.709   1.583 -1.5956 -0.1351  0.3283
 7039SOL     OW32578   3.759   2.562   8.235 -0.2328 -0.8861  0.1053
 7039SOL    HW132579   3.805   2.630   8.283 -0.2820  0.1836 -1.3312
 7039SOL    HW232580   3.777   2.583   8.143  0.0549  0.2306  0.4188
 7040SOL     OW32581   0.008   4.547   8.180  0.7612  0.5267 -0.2001
 7040SOL    HW132582   0.069   4.483   8.143  2.1990  1.0030  1.3500
 7040SOL    HW232583   0.048   4.576   8.262  0.1556  0.7712  0.0084
 7041SOL     OW32584   1.028   3.166   8.248 -0.4022 -0.1275 -0.1115
 7041SOL    HW132585   1.099   3.218   8.286 -0.7086 -0.4477  0.9127
 7041SOL    HW232586   1.059   3.184   8.160  0.4108  1.7180  0.5509
 7042SOL     OW32587   3.473   3.280   1.304 -0.2873 -0.1433 -0.5000
 7042SOL    HW132588   3.444   3.196   1.268 -1.6791 -0.1952  0.7420
 7042SOL    HW232589   3.442   3.284   1.394 -0.1041 -0.2378 -0.4337
 7043SOL     OW32590   2.286   3.025   7.432  0.2158  0.1570 -0.0783
 7043SOL    HW132591   2.197   2.990   7.434  0.6080 -0.8853 -1.2699
 7043SOL    HW232592   2.309   2.996   7.344 -2.5287  0.5550 -0.9385
 7044SOL     OW32593   2.060   0.794  16.592 -0.3076  0.2325  0.1412
 7044SOL    HW132594   2.034   0.713  16.548 -0.2427  0.4148 -0.2399
 7044SOL    HW232595   1.978   0.823  16.632 -0.4032  0.8263 -0.4726
 7045SOL     OW32596   3.082   0.002  12.159  0.0089  0.2649 -0.4559
 7045SOL    HW132597   3.130   0.079  12.191  0.3720  0.2996 -1.0677
 7045SOL    HW232598   3.066   0.028  12.068 -1.5791 -1.4694 -0.6664
 7046SOL     OW32599   4.635   1.725   6.441 -0.0660  0.1059 -0.1323
 7046SOL    HW132600   4.545   1.700   6.422 -0.2493  0.1871  0.6100
 7046SOL    HW232601   4.671   1.748   6.356  1.1087 -1.8835 -0.1576
 7047SOL     OW32602   2.240   2.917  16.089  0.3717  0.4285 -0.6212
 7047SOL    HW132603   2.273   2.838  16.046 -2.0666 -0.6621 -0.4630
 7047SOL    HW232604   2.198   2.871  16.162  0.2372  3.2012  1.0308
 7048SOL     OW32605   1.955   4.134   7.849  0.3235  0.3581 -0.4516
 7048SOL    HW132606   1.906   4.209   7.816  0.6799  1.7658  2.2607
 7048SOL    HW232607   2.026   4.133   7.785 -0.9901 -1.2767 -1.9195
 7049SOL     OW32608   1.024   2.113   4.311  0.0966 -0.4464 -0.5184
 7049SOL    HW132609   1.111   2.153   4.319 -0.0363 -0.2799  0.1604
 7049SOL    HW232610   1.014   2.062   4.392 -0.8980  0.2307 -0.2037
 7050SOL     OW32611   3.515   4.603   9.565  0.8224  0.1742  0.1412
 7050SOL    HW132612   3.489   4.625   9.655  1.2394 -2.2547  0.8596
 7050SOL    HW232613   3.432   4.624   9.524  1.2882  0.5467 -0.6071
 7051SOL     OW32614   4.045   0.432  10.495 -0.1046 -0.7524 -0.2476
 7051SOL    HW132615   3.959   0.429  10.537  0.4733 -0.7100  0.9392
 7051SOL    HW232616   4.019   0.443  10.403  1.5299 -0.4959 -0.6761
 7052SOL     OW32617   3.864   2.274   8.358 -0.1381  0.3949 -0.7557
 7052SOL    HW132618   3.851   2.367   8.339 -1.9086  0.4502  0.7788
 7052SOL    HW232619   3.788   2.260   8.415  1.6222  1.2745  1.8045
 7053SOL     OW32620   2.505   4.420  10.366 -0.0929  0.3291  0.4312
 7053SOL    HW132621   2.441   4.400  10.434 -1.4466  1.5124 -0.4822
 7053SOL    HW232622   2.447   4.411  10.290 -0.8604  0.0012  1.0636
 7054SOL     OW32623   4.065   2.082   2.852  0.0288  0.2756  0.3467
 7054SOL    HW132624   4.005   2.050   2.784 -0.8109  4.1091 -0.7506
 7054SOL    HW232625   4.030   2.020   2.916 -0.3290 -0.0336 -0.1497
 7055SOL     OW32626   1.969   3.518  13.418  0.4425 -0.8540 -0.8330
 7055SOL    HW132627   1.910   3.527  13.493  0.3437  0.0249 -1.0107
 7055SOL    HW232628   1.921   3.464  13.356 -1.8160  1.3940 -1.0265
 7056SOL     OW32629   3.793   4.240   0.697  0.1634 -0.3829  0.1133
 7056SOL    HW132630   3.799   4.257   0.791  2.4264 -1.5803  0.2127
 7056SOL    HW232631   3.711   4.274   0.663 -0.4937 -1.5952  0.4765
 7057SOL     OW32632   2.340   3.199   7.965 -0.1281 -0.6820  0.0102
 7057SOL    HW132633   2.431   3.190   7.994 -0.0003 -0.4257 -0.3161
 7057SOL    HW232634   2.311   3.289   7.975  2.6408  0.2532 -0.6014
 7058SOL     OW32635   0.859   0.385   1.090  0.2882 -0.4871 -0.1878
 7058SOL    HW132636   0.839   0.292   1.082 -1.0757 -0.5457  3.5973
 7058SOL    HW232637   0.845   0.385   1.185 -1.3701  0.1880 -0.4306
 7059SOL     OW32638   1.369   0.026  14.306  0.3482  0.0399 -0.1176
 7059SOL    HW132639   1.350   0.058  14.394 -3.0120 -1.1372 -0.4379
 7059SOL    HW232640   1.286   0.064  14.278  0.2214 -1.9149 -2.4101
 7060SOL     OW32641   3.857   4.438  14.763 -0.5727  0.4936 -0.0249
 7060SOL    HW132642   3.791   4.377  14.732  0.7384 -0.9241 -0.0121
 7060SOL    HW232643   3.917   4.433  14.689  2.3559  1.3723  2.2861
 7061SOL     OW32644   1.084   2.854  11.323  0.1882 -0.5682  0.4597
 7061SOL    HW132645   0.999   2.818  11.349  0.6668 -1.4208  0.8281
 7061SOL    HW232646   1.057   2.934  11.276  0.7266 -0.0041  1.1185
 7062SOL     OW32647   3.195   2.072   7.231 -0.1152  0.2186 -0.1870
 7062SOL    HW132648   3.198   1.979   7.210 -1.4019  0.5653 -1.9131
 7062SOL    HW232649   3.145   2.071   7.313  0.1568  3.2877  0.0301
 7063SOL     OW32650   3.034   2.926   8.044 -0.4334  0.6888 -0.4194
 7063SOL    HW132651   2.990   2.887   8.121 -1.7023  1.4805 -0.7420
 7063SOL    HW232652   3.125   2.936   8.069 -0.2620 -1.6783 -0.0765
 7064SOL     OW32653   2.247   2.164  12.027 -0.0132  0.3638 -0.4084
 7064SOL    HW132654   2.198   2.210  11.958  0.5328 -0.8452 -1.6199
 7064SOL    HW232655   2.220   2.204  12.109 -0.4166 -0.4226 -0.1564
 7065SOL     OW32656   0.766   2.963   4.775 -0.0016  0.1308 -0.5179
 7065SOL    HW132657   0.828   2.915   4.721  0.6265 -1.3927  1.5795
 7065SOL    HW232658   0.733   3.033   4.718  1.2968  0.0954 -1.3020
 7066SOL     OW32659   0.855   2.451   8.436  0.4034 -0.3625  0.5474
 7066SOL    HW132660   0.852   2.546   8.439 -1.2157 -0.4038  0.1596
 7066SOL    HW232661   0.852   2.436   8.341  3.5144  1.8796  0.0911
 7067SOL     OW32662   2.907   0.034   5.162 -0.1989 -0.1140 -0.1281
 7067SOL    HW132663   2.929   4.664   5.182 -1.7993 -0.4426  0.1390
 7067SOL    HW232664   2.925   0.029   5.069  0.2782 -0.5078 -0.0129
 7068SOL     OW32665   2.328   4.218   0.058 -0.8313  0.5418  0.0291
 7068SOL    HW132666   2.261   4.149   0.062  0.3125 -0.5512  0.3397
 7068SOL    HW232667   2.281   4.279   0.115 -2.2068  0.0212 -0.5267
 7069SOL     OW32668   0.690   0.951   9.439  0.7178  0.2349 -0.2958
 7069SOL    HW132669   0.721   1.038   9.414 -1.6344  1.0766 -0.3630
 7069SOL    HW232670   0.600   0.971   9.464  0.4440 -0.3845 -0.7899
 7070SOL     OW32671   1.273   2.688   5.485  0.4747 -0.0242 -0.2964
 7070SOL    HW132672   1.207   2.627   5.452  2.1436 -2.9244  1.7127
 7070SOL    HW232673   1.332   2.630   5.534 -2.1626 -0.8180  1.9028
 7071SOL     OW32674   1.897   1.765   6.211  0.2115  0.4469 -0.3130
 7071SOL    HW132675   1.810   1.787   6.177  0.4739  0.5035 -0.9502
 7071SOL    HW232676   1.866   1.703   6.278  2.4028 -0.9567 -0.5993
 7072SOL     OW32677   2.252   1.909  12.106  0.2607  0.0415 -0.0676
 7072SOL    HW132678   2.226   1.994  12.071  1.7415  0.0728 -1.0917
 7072SOL    HW232679   2.177   1.886  12.161  0.2824  1.1206  0.4086
 7073SOL     OW32680   3.580   1.601   6.941 -0.2531 -0.4472  0.2722
 7073SOL    HW132681   3.562   1.554   7.022 -0.8043 -1.4615 -0.4482
 7073SOL    HW232682   3.508   1.570   6.887 -1.0929  0.7712  0.6897
 7074SOL     OW32683   0.458   3.357   7.723  0.4878 -0.4137 -0.5461
 7074SOL    HW132684   0.418   3.271   7.737 -0.6287 -0.2025 -2.3900
 7074SOL    HW232685   0.384   3.407   7.689 -1.2614 -1.5063  1.6651
 7075SOL     OW32686   0.615   1.680  13.277 -0.0423 -0.6685  0.2619
 7075SOL    HW132687   0.623   1.662  13.183  0.0938  0.3246  0.0845
 7075SOL    HW232688   0.643   1.595  13.310 -1.4507 -1.0367  0.5272
 7076SOL     OW32689   3.143   1.485   4.852 -0.5804  0.0765 -0.0764
 7076SOL    HW132690   3.057   1.527   4.848  0.3606  1.8930 -1.5239
 7076SOL    HW232691   3.162   1.477   4.945 -0.9851  2.4349  0.2128
 7077SOL     OW32692   4.086   0.567   7.724 -0.6726  1.2277  0.0723
 7077SOL    HW132693   4.083   0.483   7.769 -0.0297  0.7238 -0.8428
 7077SOL    HW232694   4.003   0.607   7.750 -1.5628 -1.0999  0.7954
 7078SOL     OW32695   0.504   4.513  10.432 -0.5254 -0.3106  0.1082
 7078SOL    HW132696   0.581   4.456  10.438 -0.6094 -0.5992 -1.5973
 7078SOL    HW232697   0.545   4.597  10.417  0.0332 -0.9594 -1.9675
 7079SOL     OW32698   2.885   0.095   1.983 -0.0443  0.3623  0.1795
 7079SOL    HW132699   2.821   0.156   2.021  0.6085 -0.3114  2.3362
 7079SOL    HW232700   2.961   0.153   1.983  1.0874 -1.1184  1.0454
 7080SOL     OW32701   2.700   4.466   9.017  0.3581 -0.5264 -0.0889
 7080SOL    HW132702   2.783   4.469   9.065  0.0300 -0.2017  0.4659
 7080SOL    HW232703   2.687   4.551   8.975 -2.0468 -1.4472 -1.1658
 7081SOL     OW32704   1.607   2.250   6.771 -0.2342 -0.5604 -0.2395
 7081SOL    HW132705   1.651   2.318   6.720 -0.4306 -0.2803 -0.0393
 7081SOL    HW232706   1.648   2.247   6.857  0.0235 -0.2929 -0.3516
 7082SOL     OW32707   2.796   1.848   6.027  0.4597 -0.0816  0.8273
 7082SOL    HW132708   2.774   1.814   6.113 -3.6510 -1.6352 -0.8556
 7082SOL    HW232709   2.891   1.832   6.030  0.4416  0.3698  3.7369
 7083SOL     OW32710   1.367   2.745   7.327  0.0903 -0.2211 -0.2236
 7083SOL    HW132711   1.287   2.693   7.337  0.9154 -1.5530 -0.4859
 7083SOL    HW232712   1.325   2.828   7.304 -0.4156 -0.0116  1.4338
 7084SOL     OW32713   0.812   2.682   1.314  0.7113  0.2540 -0.0867
 7084SOL    HW132714   0.788   2.686   1.221  2.9500  0.7183 -0.6505
 7084SOL    HW232715   0.734   2.670   1.368  0.9288  0.9671  0.3782
 7085SOL     OW32716   0.416   1.730   8.322  0.4630 -0.2072 -0.4751
 7085SOL    HW132717   0.335   1.685   8.301  1.1339 -1.5194 -0.2519
 7085SOL    HW232718   0.386   1.821   8.315  3.8580  1.0027  0.3631
 7086SOL     OW32719   1.698   1.546   2.024  0.3018  0.2558 -0.7807
 7086SOL    HW132720   1.753   1.533   1.947  2.0358  0.5431  0.4026
 7086SOL    HW232721   1.761   1.554   2.095 -1.5118 -1.4822  1.0196
 7087SOL     OW32722   1.864   1.246   9.945 -0.3212 -0.0000 -0.3624
 7087SOL    HW132723   1.854   1.278   9.855  0.7013  0.4047 -0.3333
 7087SOL    HW232724   1.772   1.242   9.971 -0.0749 -1.3693  0.2631
 7088SOL     OW32725   4.694   2.822   0.506  0.1672  0.1419 -0.3085
 7088SOL    HW132726   4.677   2.739   0.462  1.9610  0.1714 -1.0390
 7088SOL    HW232727   4.634   2.885   0.465 -1.7537 -1.9031 -0.6433
 7089SOL     OW32728   2.116   3.867   6.700 -0.4254  0.2004  0.4221
 7089SOL    HW132729   2.147   3.876   6.790 -2.8858 -0.0187  1.2866
 7089SOL    HW232730   2.107   3.960   6.679 -0.3100 -0.2648 -1.7258
 7090SOL     OW32731   2.186   1.630   7.586 -0.6471  0.5799 -0.3179
 7090SOL    HW132732   2.232   1.598   7.664 -1.0057  0.6250 -0.0860
 7090SOL    HW232733   2.095   1.639   7.617 -0.2324  0.1163  1.0527
 7091SOL     OW32734   3.381   1.086   0.166  0.4423 -0.3996 -0.0832
 7091SOL    HW132735   3.327   1.137   0.226  1.2009 -0.8829  1.0213
 7091SOL    HW232736   3.315   1.028   0.128 -1.0596  1.2081  0.0902
 7092SOL     OW32737   2.645   3.530   7.999 -0.1447 -0.0302  0.4667
 7092SOL    HW132738   2.733   3.511   7.969  0.1855  0.4239  1.1409
 7092SOL    HW232739   2.636   3.451   8.052 -2.3253  0.3932  0.7417
 7093SOL     OW32740   0.661   3.364   0.259 -0.5344 -0.1203  0.0157
 7093SOL    HW132741   0.617   3.433   0.209  1.1045  1.8839  1.3124
 7093SOL    HW232742   0.754   3.390   0.257 -0.6118  0.0780 -1.2413
 7094SOL     OW32743   3.676   3.165   6.411 -0.1728 -0.1048  0.0130
 7094SOL    HW132744   3.630   3.083   6.394 -0.0212 -0.0685 -0.5567
 7094SOL    HW232745   3.605   3.204   6.461 -1.6946 -0.4992 -1.8606
 7095SOL     OW32746   2.781   2.849  17.421  0.4237 -0.3661  0.4072
 7095SOL    HW132747   2.747   2.856  17.332 -1.0730 -1.6491  0.9009
 7095SOL    HW232748   2.693   2.863  17.455  0.1332 -0.7978 -0.1709
 7096SOL     OW32749   3.638   0.137   8.167 -0.0941 -0.1965 -0.3858
 7096SOL    HW132750   3.682   0.092   8.239 -1.4580  0.2425  0.7213
 7096SOL    HW232751   3.709   0.157   8.106  0.4950 -0.2843  0.2799
 7097SOL     OW32752   0.115   2.865   9.421 -0.1837  0.0163 -0.5705
 7097SOL    HW132753   0.127   2.835   9.331 -0.1746 -1.3229 -0.1168
 7097SOL    HW232754   0.203   2.859   9.458 -0.1612 -2.3652 -1.0019
 7098SOL     OW32755   1.141   4.263   0.075 -0.0176  0.0658  0.5592
 7098SOL    HW132756   1.111   4.206   0.146 -0.4105  0.1030  0.4257
 7098SOL    HW232757   1.234   4.261   0.098 -0.2985 -0.2512  1.6279
 7099SOL     OW32758   0.645   3.696   4.728  0.6905 -0.1920 -0.7388
 7099SOL    HW132759   0.556   3.676   4.757  0.1187 -0.3311 -2.5799
 7099SOL    HW232760   0.636   3.703   4.632  1.5779 -2.5222 -0.9827
 7100SOL     OW32761   3.343   3.697   8.566 -1.3463  0.1614 -0.6042
 7100SOL    HW132762   3.320   3.790   8.569 -1.5310  0.1406 -1.2095
 7100SOL    HW232763   3.258   3.655   8.579 -0.7356 -0.7251  0.4511
 7101SOL     OW32764   0.165   1.013   7.507  0.3190 -0.4562  0.6218
 7101SOL    HW132765   0.076   0.978   7.498  0.7840 -1.1367 -1.4800
 7101SOL    HW232766   0.162   1.072   7.432 -0.2192 -0.0982  0.9305
 7102SOL     OW32767   0.751   0.955   7.400 -0.2064  0.1929  0.4909
 7102SOL    HW132768   0.813   0.920   7.463 -1.3026  1.4820  2.3059
 7102SOL    HW232769   0.678   0.975   7.459 -1.2631  0.5458 -0.9144
 7103SOL     OW32770   3.879   2.900  15.065  0.0249  0.1327 -0.4497
 7103SOL    HW132771   3.804   2.844  15.049 -0.1602 -0.3756  2.1754
 7103SOL    HW232772   3.927   2.852  15.133  0.3086 -0.2400 -0.9152
 7104SOL     OW32773   1.152   1.399   5.853 -0.2182  0.0985 -0.0284
 7104SOL    HW132774   1.124   1.377   5.942  3.0563 -2.3541  0.4209
 7104SOL    HW232775   1.080   1.456   5.826 -0.9728 -1.7157 -1.8338
 7105SOL     OW32776   0.445   1.228  14.509  0.0775 -0.8118  0.0981
 7105SOL    HW132777   0.378   1.169  14.544 -0.7836  0.0327 -0.1283
 7105SOL    HW232778   0.456   1.181  14.426  2.1489  0.0851 -0.1228
 7106SOL     OW32779   1.382   1.366  11.474 -0.0666 -0.2217  0.2447
 7106SOL    HW132780   1.327   1.361  11.553 -3.1764 -1.5579 -1.9854
 7106SOL    HW232781   1.469   1.389  11.506  0.2702  0.8955 -1.4579
 7107SOL     OW32782   1.826   3.822   4.933  0.3266  0.1142 -0.5004
 7107SOL    HW132783   1.885   3.801   4.860 -0.4936 -0.7552 -0.9089
 7107SOL    HW232784   1.871   3.783   5.009 -0.6826  2.0475  1.0779
 7108SOL     OW32785   4.492   1.570   8.884  0.3460 -0.0017  0.4202
 7108SOL    HW132786   4.427   1.633   8.918 -0.7444 -2.0712  2.1534
 7108SOL    HW232787   4.571   1.622   8.895 -0.4247  0.8097  2.2468
 7109SOL     OW32788   1.637   0.916   3.965 -0.2927 -0.1651  0.1831
 7109SOL    HW132789   1.618   0.938   3.874 -1.1208 -2.4192 -0.2097
 7109SOL    HW232790   1.623   0.821   3.962  0.1253 -0.2007 -0.5905
 7110SOL     OW32791   3.099   4.356   9.025  0.0173 -0.1943 -0.5331
 7110SOL    HW132792   3.039   4.427   9.047  2.3006  0.9086  2.1355
 7110SOL    HW232793   3.045   4.279   9.041  0.3914 -0.7015 -1.6781
 7111SOL     OW32794   2.192   1.682  11.069 -0.2374  0.2483  0.5305
 7111SOL    HW132795   2.224   1.682  11.159  0.6355 -0.2700  0.2234
 7111SOL    HW232796   2.163   1.592  11.078  0.1838  0.1826  1.2932
 7112SOL     OW32797   2.897   0.453  17.374  0.1005 -0.1663 -0.2525
 7112SOL    HW132798   2.947   0.530  17.400 -1.2667  1.6759 -3.0492
 7112SOL    HW232799   2.943   0.390  17.430  0.5612 -0.1581 -0.6140
 7113SOL     OW32800   4.379   4.247   3.046  0.2992 -0.2267 -0.1041
 7113SOL    HW132801   4.301   4.295   3.017 -0.1732 -0.9204  0.0144
 7113SOL    HW232802   4.326   4.182   3.092  2.3956 -1.2467  0.8493
 7114SOL     OW32803   3.323   0.440   7.500 -0.3982  0.0584 -0.1976
 7114SOL    HW132804   3.282   0.450   7.414  3.5789  0.0986 -2.1370
 7114SOL    HW232805   3.344   0.529   7.529 -0.8640 -0.2358  1.0084
 7115SOL     OW32806   0.004   4.109   0.839  0.6544  0.2661  0.3122
 7115SOL    HW132807   4.643   4.061   0.826 -0.4985  2.6816 -1.3563
 7115SOL    HW232808   0.007   4.094   0.933 -2.5781  0.2694  0.3923
 7116SOL     OW32809   4.490   0.074   6.532  0.0940  0.3339  0.2323
 7116SOL    HW132810   4.500   4.717   6.587 -2.0469 -1.3312 -1.7399
 7116SOL    HW232811   4.492   0.145   6.597 -1.1020 -0.1695  0.8252
 7117SOL     OW32812   1.150   1.398   4.577  0.4518  0.0458 -0.1757
 7117SOL    HW132813   1.178   1.333   4.513  0.8557  0.5867 -0.5437
 7117SOL    HW232814   1.075   1.442   4.536  0.3442  0.8331  0.8589
 7118SOL     OW32815   0.050   4.339  11.723 -0.4670  0.3262 -0.1129
 7118SOL    HW132816   0.125   4.297  11.680  1.4620  1.7131  1.8420
 7118SOL    HW232817   0.042   4.415  11.666 -0.5918  0.8883  0.6518
 7119SOL     OW32818   0.112   1.552   1.802  0.0711 -0.4317 -0.4372
 7119SOL    HW132819   0.142   1.631   1.846 -1.0562 -1.3214  1.9136
 7119SOL    HW232820   0.186   1.548   1.741 -0.5110 -0.6212 -1.1308
 7120SOL     OW32821   3.224   3.595  11.127 -0.0920 -0.5281  0.3429
 7120SOL    HW132822   3.210   3.676  11.175 -0.5986  0.1120 -0.8846
 7120SOL    HW232823   3.313   3.571  11.152  1.3514  0.0259 -4.3971
 7121SOL     OW32824   3.628   0.389   5.401  0.2576  0.2464 -0.4918
 7121SOL    HW132825   3.607   0.453   5.333  2.1251  1.1329 -0.2214
 7121SOL    HW232826   3.688   0.335   5.351  0.0822  0.2908 -0.7526
 7122SOL     OW32827   1.398   3.495   8.157  0.0197  0.1902  0.4842
 7122SOL    HW132828   1.476   3.450   8.125 -1.4438 -1.4275 -0.8533
 7122SOL    HW232829   1.423   3.588   8.152 -0.4119  0.0831 -3.7435
 7123SOL     OW32830   1.287   0.309   8.154 -0.0577  0.1680 -0.2413
 7123SOL    HW132831   1.311   0.230   8.202  3.1813  0.7494 -0.8618
 7123SOL    HW232832   1.338   0.378   8.196 -0.2798 -0.6580  1.3833
 7124SOL     OW32833   3.924   2.963   8.016  0.3400 -0.1677 -0.3476
 7124SOL    HW132834   3.894   3.008   8.094  0.1275  1.3052 -1.2780
 7124SOL    HW232835   3.846   2.949   7.962 -0.3978 -0.3051  0.7557
 7125SOL     OW32836   1.671   0.512   8.292 -1.0187  0.3084 -0.3930
 7125SOL    HW132837   1.657   0.498   8.198  2.2935  0.5889 -0.9255
 7125SOL    HW232838   1.587   0.556   8.308 -0.6624  0.4069  1.1872
 7126SOL     OW32839   1.804   2.470   8.344  0.6270 -0.2461  0.7356
 7126SOL    HW132840   1.869   2.413   8.385  0.0280 -2.2966 -1.2090
 7126SOL    HW232841   1.837   2.556   8.371 -0.1752  0.3406 -0.1424
 7127SOL     OW32842   0.155   2.158   7.011 -1.0045  0.3302 -0.2375
 7127SOL    HW132843   0.144   2.082   6.954  1.9388 -0.9986  0.9343
 7127SOL    HW232844   0.246   2.142   7.038 -1.5690 -3.6396 -0.7384
 7128SOL     OW32845   3.351   3.792  12.638  0.0400  0.3355  0.2673
 7128SOL    HW132846   3.337   3.866  12.579 -0.9516 -0.6412 -0.7369
 7128SOL    HW232847   3.327   3.829  12.723  2.3658 -0.1692  1.1390
 7129SOL     OW32848   3.388   2.677   7.596  0.0360  0.1934  0.4445
 7129SOL    HW132849   3.295   2.700   7.595 -0.1864 -0.7816 -1.3329
 7129SOL    HW232850   3.425   2.764   7.607  0.7501  0.2240 -2.0523
 7130SOL     OW32851   0.273   1.499   2.222  0.3076  0.2405  0.4645
 7130SOL    HW132852   0.217   1.467   2.152  2.5956 -1.9645 -0.3758
 7130SOL    HW232853   0.357   1.504   2.176 -0.2292 -1.2129 -0.6581
 7131SOL     OW32854   1.089   3.440   5.812 -0.0660 -0.5042  0.1806
 7131SOL    HW132855   1.183   3.426   5.803  0.0629 -0.5452  1.7190
 7131SOL    HW232856   1.087   3.529   5.846 -0.6201  0.6288 -2.7880
 7132SOL     OW32857   3.054   4.340   3.948 -0.3373 -0.1454 -0.8655
 7132SOL    HW132858   3.133   4.288   3.961  0.6969  1.4931 -0.6213
 7132SOL    HW232859   3.099   4.424   3.933 -0.1740  0.0116  0.5476
 7133SOL     OW32860   3.095   2.797  15.671  0.2928  0.5030 -0.0130
 7133SOL    HW132861   3.087   2.751  15.755  3.5392 -2.0230 -1.0799
 7133SOL    HW232862   3.189   2.810  15.662  0.2552  1.9204  1.6277
 7134SOL     OW32863   0.906   1.595  16.079 -0.0345  0.3506  0.2400
 7134SOL    HW132864   0.985   1.642  16.107 -0.5352  1.8247 -0.8266
 7134SOL    HW232865   0.863   1.679  16.063  1.8380  1.0969 -0.7796
 7135SOL     OW32866   2.970   0.278   6.664 -0.6928 -0.1844  0.0739
 7135SOL    HW132867   2.875   0.286   6.656 -0.6368 -0.1364 -0.5733
 7135SOL    HW232868   2.998   0.279   6.572  1.5996  1.7770  0.7874
 7136SOL     OW32869   0.535   0.832   7.206 -0.2781  0.1942  0.1246
 7136SOL    HW132870   0.614   0.875   7.173 -1.0616  1.9509  0.5042
 7136SOL    HW232871   0.528   0.762   7.141 -1.7422 -0.7290  1.2930
 7137SOL     OW32872   0.458   0.696   2.132 -0.0310 -0.2678 -0.4661
 7137SOL    HW132873   0.403   0.621   2.155  0.7798  0.1450  2.8111
 7137SOL    HW232874   0.542   0.669   2.170 -0.3858  0.0695  0.5615
 7138SOL     OW32875   2.387   2.475  16.126 -0.3048  0.5361  0.2166
 7138SOL    HW132876   2.383   2.380  16.122 -1.2489  0.4787  2.3437
 7138SOL    HW232877   2.473   2.487  16.087 -0.4626 -0.7340 -0.5068
 7139SOL     OW32878   1.857   3.556   8.631 -0.3744  0.8129 -0.3822
 7139SOL    HW132879   1.946   3.539   8.663 -1.0275 -0.2957  0.8447
 7139SOL    HW232880   1.811   3.546   8.715  0.0253 -0.1104 -0.2761
 7140SOL     OW32881   2.809   3.872   6.839 -0.8957  0.0309 -0.3457
 7140SOL    HW132882   2.722   3.844   6.812 -1.2610 -0.9053  1.8257
 7140SOL    HW232883   2.867   3.804   6.805  1.0806  0.9361  1.2131
 7141SOL     OW32884   3.460   1.475   7.174 -0.0993 -0.3157 -0.2261
 7141SOL    HW132885   3.475   1.380   7.174 -0.0105 -0.3023 -0.2439
 7141SOL    HW232886   3.368   1.478   7.147  0.1356 -0.3470 -1.0615
 7142SOL     OW32887   0.485   1.240   8.120  0.0269 -0.1466 -0.5932
 7142SOL    HW132888   0.576   1.218   8.100  0.0546 -2.0900  1.7338
 7142SOL    HW232889   0.493   1.237   8.215 -0.0489  2.4617 -0.4986
 7143SOL     OW32890   0.541   0.712   7.492 -0.3555  0.4485 -0.0117
 7143SOL    HW132891   0.506   0.675   7.411 -1.1203  0.6810  0.2156
 7143SOL    HW232892   0.546   0.804   7.469 -0.4413  0.2299 -0.9009
 7144SOL     OW32893   3.625   4.135   1.423 -0.0928 -0.2925 -0.3173
 7144SOL    HW132894   3.593   4.224   1.441  2.7937  0.6498  0.1879
 7144SOL    HW232895   3.545   4.082   1.423  0.7578 -1.5757  0.3783
 7145SOL     OW32896   3.457   1.059   7.452 -0.0347  0.0216 -0.7563
 7145SOL    HW132897   3.550   1.082   7.460 -0.2533 -0.0157  1.8605
 7145SOL    HW232898   3.425   1.051   7.541  0.5582 -1.5467 -0.6742
 7146SOL     OW32899   1.157   0.696   1.741  0.1353  0.2989 -0.2384
 7146SOL    HW132900   1.147   0.639   1.817  0.1487  0.7129  0.0739
 7146SOL    HW232901   1.083   0.756   1.750 -0.4900 -0.4699 -0.2681
 7147SOL     OW32902   1.806   2.417   6.664  0.6455  0.0720 -0.3545
 7147SOL    HW132903   1.849   2.354   6.605  2.7957  1.8095 -0.6611
 7147SOL    HW232904   1.814   2.500   6.617  1.3170 -0.5096 -1.2637
 7148SOL     OW32905   2.591   1.309   2.250 -0.6852 -0.1979 -0.5356
 7148SOL    HW132906   2.619   1.219   2.239 -2.1362 -0.6535 -0.5669
 7148SOL    HW232907   2.649   1.370   2.204 -0.8791  0.8831  0.6453
 7149SOL     OW32908   3.502   4.525  11.550 -0.4128 -0.8435  0.0868
 7149SOL    HW132909   3.542   4.504  11.466 -1.0518  0.4755 -0.5584
 7149SOL    HW232910   3.472   4.614  11.528  3.4044  0.3817 -0.1516
 7150SOL     OW32911   1.251   4.141   6.050  0.0916  0.4625 -0.2485
 7150SOL    HW132912   1.155   4.133   6.050  0.1629 -0.3806  0.0817
 7150SOL    HW232913   1.269   4.191   5.970 -2.2445  1.4879 -0.1523
 7151SOL     OW32914   2.689   0.147   9.423 -0.6629 -0.1302 -0.2829
 7151SOL    HW132915   2.711   0.182   9.337 -0.0803 -1.0895 -0.5285
 7151SOL    HW232916   2.602   0.115   9.400 -0.4984 -0.5593 -0.3060
 7152SOL     OW32917   2.615   4.065   5.574 -0.3270  0.6340  0.1074
 7152SOL    HW132918   2.594   3.982   5.617  0.9149  0.3129  0.0908
 7152SOL    HW232919   2.598   4.132   5.641  1.2379  3.8340 -2.6727
 7153SOL     OW32920   2.644   4.037   3.585  0.1744  0.0139  0.0993
 7153SOL    HW132921   2.620   4.062   3.496  1.0524  0.8234  0.0873
 7153SOL    HW232922   2.561   4.046   3.631 -0.7634 -0.1620 -1.5625
 7154SOL     OW32923   0.629   1.639   6.836  0.5589  0.2759 -0.3695
 7154SOL    HW132924   0.685   1.693   6.779  0.5972  1.5675  0.8942
 7154SOL    HW232925   0.669   1.649   6.922 -0.9994 -0.7365  0.4608
 7155SOL     OW32926   2.114   3.408  11.388  0.6659  0.1634 -0.2539
 7155SOL    HW132927   2.099   3.450  11.473  0.0260  1.0454 -0.7990
 7155SOL    HW232928   2.023   3.410  11.357  0.3787 -0.0284  0.5542
 7156SOL     OW32929   1.227   3.044   5.199 -0.4383  0.0446  0.0700
 7156SOL    HW132930   1.274   3.109   5.252  1.5849  0.0503 -1.7276
 7156SOL    HW232931   1.296   2.978   5.190 -0.3237  0.2025 -0.2057
 7157SOL     OW32932   3.193   0.411  11.711 -0.5569  0.4951 -0.5504
 7157SOL    HW132933   3.205   0.427  11.618 -0.3397  0.2427 -0.5645
 7157SOL    HW232934   3.233   0.492  11.744 -1.9029 -0.2611  2.9730
 7158SOL     OW32935   0.636   2.085  14.969 -0.2983 -0.1315 -0.3969
 7158SOL    HW132936   0.706   2.030  14.934 -0.0763  0.9679 -1.6486
 7158SOL    HW232937   0.572   2.075  14.899 -0.1036 -0.2540 -0.5553
 7159SOL     OW32938   1.567   3.906   5.446 -0.5631  0.4670 -0.4145
 7159SOL    HW132939   1.500   3.853   5.490 -0.1403  0.8655  0.7215
 7159SOL    HW232940   1.520   3.989   5.441  0.2757  1.0230  0.8565
 7160SOL     OW32941   1.849   3.572   3.003  0.0257  0.0065  0.2565
 7160SOL    HW132942   1.768   3.572   3.054 -1.1367 -1.8995 -1.5623
 7160SOL    HW232943   1.850   3.493   2.949 -0.2097  0.3398 -0.2358
 7161SOL     OW32944   0.136   4.683   5.814  0.4352  0.1436 -0.5176
 7161SOL    HW132945   0.066   0.020   5.781  0.3714  0.1552 -0.3586
 7161SOL    HW232946   0.121   4.601   5.765  2.1553  0.8216 -2.1889
 7162SOL     OW32947   3.301   4.210   3.701  0.3199  0.0991 -0.0314
 7162SOL    HW132948   3.223   4.157   3.686 -0.7546  1.4370  0.8906
 7162SOL    HW232949   3.299   4.277   3.634  3.3482 -0.2427 -0.4924
 7163SOL     OW32950   0.082   2.906   8.854  0.5796 -0.1639 -0.5861
 7163SOL    HW132951   0.107   2.965   8.925 -0.3248  0.1386 -0.5203
 7163SOL    HW232952   4.708   2.913   8.864  0.6085 -0.0741 -0.3846
 7164SOL     OW32953   2.887   2.915  10.545 -0.3707 -0.0983  0.1282
 7164SOL    HW132954   2.842   2.835  10.573  0.1281 -1.6209 -3.4614
 7164SOL    HW232955   2.872   2.915  10.451 -2.9983 -0.8416  0.5528
 7165SOL     OW32956   0.256   1.975  13.687 -0.4693  0.1896  0.0378
 7165SOL    HW132957   0.283   2.015  13.769  1.6857  0.4032 -0.7839
 7165SOL    HW232958   0.306   2.026  13.624  1.2808 -0.2835  1.0546
 7166SOL     OW32959   4.175   3.838   4.398  0.5929  0.3385 -0.3283
 7166SOL    HW132960   4.149   3.893   4.473 -2.9324 -1.4933 -0.2166
 7166SOL    HW232961   4.124   3.872   4.325 -1.3857  0.5822  1.1532
 7167SOL     OW32962   4.161   2.811   3.971  0.0071  0.3199 -0.0890
 7167SOL    HW132963   4.183   2.796   3.879 -0.1111 -2.0191  0.2629
 7167SOL    HW232964   4.098   2.883   3.961 -0.9912 -0.7780 -1.7200
 7168SOL     OW32965   3.999   0.613   5.822 -0.8920 -0.1546  0.5708
 7168SOL    HW132966   4.005   0.684   5.886  1.9155 -0.1449  0.2700
 7168SOL    HW232967   3.954   0.540   5.866 -0.1848 -0.6775  0.4330
 7169SOL     OW32968   2.207   4.546  16.848  0.4135  0.7107  0.7797
 7169SOL    HW132969   2.222   4.452  16.841 -1.8027  0.2137  2.8551
 7169SOL    HW232970   2.192   4.545  16.943 -1.7054 -1.1110  0.4124
 7170SOL     OW32971   0.701   3.137  14.892 -0.1269 -0.0439  0.0296
 7170SOL    HW132972   0.607   3.130  14.874  0.2436 -5.3419  0.1814
 7170SOL    HW232973   0.701   3.219  14.941 -1.0335 -0.3762  0.5777
 7171SOL     OW32974   1.915   4.327   8.872 -0.0963 -0.0816 -0.1558
 7171SOL    HW132975   1.842   4.277   8.908  0.8020 -1.4041 -0.1749
 7171SOL    HW232976   1.884   4.372   8.793 -0.3956  0.5786  0.3360
 7172SOL     OW32977   0.960   0.610   4.320  0.8334 -0.1842 -0.2550
 7172SOL    HW132978   0.901   0.539   4.295 -2.3289  2.0928  0.5695
 7172SOL    HW232979   1.026   0.594   4.253  0.9486  0.4499 -0.2992
 7173SOL     OW32980   2.698   1.881  11.334  0.6614 -0.0872 -0.0264
 7173SOL    HW132981   2.747   1.958  11.306  2.6315 -1.6258 -0.8227
 7173SOL    HW232982   2.679   1.824  11.260 -0.9194  1.6803 -0.9686
 7174SOL     OW32983   2.974   2.720   3.739  0.3980 -0.4686  0.4665
 7174SOL    HW132984   2.918   2.734   3.816  0.1352 -2.3177  0.6071
 7174SOL    HW232985   3.052   2.773   3.756  1.3037 -0.7616 -2.7719
 7175SOL     OW32986   4.389   2.393   0.013  0.0049  0.5409  0.0820
 7175SOL    HW132987   4.361   2.305  17.673  0.2706  0.9811 -1.7260
 7175SOL    HW232988   4.390   2.389   0.109 -0.2822 -0.7740  0.0247
 7176SOL     OW32989   4.411   3.935   5.394  0.3097  0.2545 -0.2803
 7176SOL    HW132990   4.447   3.951   5.481  1.3447  1.9465 -1.0126
 7176SOL    HW232991   4.481   3.956   5.332 -0.4835 -0.3796 -1.3972
 7177SOL     OW32992   0.849   0.813   4.015 -0.0984 -0.1447 -0.1042
 7177SOL    HW132993   0.830   0.732   3.968  0.7735 -1.5007  1.8306
 7177SOL    HW232994   0.939   0.822   3.984  0.5110 -0.2461  1.6106
 7178SOL     OW32995   1.945   0.425  14.712  0.4638  0.0474 -0.2289
 7178SOL    HW132996   1.954   0.345  14.764 -0.6394 -0.1421 -0.3391
 7178SOL    HW232997   2.027   0.431  14.663  0.9349  1.0731  0.7047
 7179SOL     OW32998   3.569   3.563   8.248 -0.3071  0.7909  0.6926
 7179SOL    HW132999   3.527   3.485   8.283 -0.0312  0.6597  0.7298
 7179SOL    HW233000   3.660   3.541   8.269 -0.0788  0.8488 -0.2171
 7180SOL     OW33001   4.027   1.302   8.185  0.0187 -0.4973  0.4451
 7180SOL    HW133002   4.095   1.253   8.138  1.3661 -0.3698  2.2371
 7180SOL    HW233003   3.982   1.345   8.113  1.0823 -1.0995 -0.5753
 7181SOL     OW33004   1.566   0.652   2.715  0.0388  0.0944  0.4331
 7181SOL    HW133005   1.600   0.615   2.797  2.1693  0.8908 -0.0890
 7181SOL    HW233006   1.551   0.745   2.735  0.1629  0.4207 -0.9614
 7182SOL     OW33007   0.037   3.641  16.882  0.0972  0.2203  0.4564
 7182SOL    HW133008   4.695   3.578  16.917  0.3777  1.0176  2.4332
 7182SOL    HW233009   0.108   3.655  16.946  0.8143 -0.2140 -0.2413
 7183SOL     OW33010   1.950   0.637   5.329  0.1831 -0.0711 -0.0192
 7183SOL    HW133011   1.974   0.663   5.418 -0.3757 -0.4981  0.2514
 7183SOL    HW233012   1.870   0.584   5.328  1.1290 -1.5098  0.1332
 7184SOL     OW33013   2.335   4.051   4.763  0.1091 -0.6281  0.0867
 7184SOL    HW133014   2.426   4.040   4.734  0.4145  1.8176  0.0964
 7184SOL    HW233015   2.283   4.044   4.683  0.9124 -1.1508 -0.3815
 7185SOL     OW33016   0.424   3.111  13.667  0.5702 -0.2784 -0.4043
 7185SOL    HW133017   0.354   3.171  13.639 -1.9300 -3.3593 -0.7543
 7185SOL    HW233018   0.384   3.062  13.739 -0.1938  0.3786 -0.3782
 7186SOL     OW33019   0.936   2.680   6.598 -0.2611 -0.4007 -0.0089
 7186SOL    HW133020   0.850   2.713   6.625 -1.2305 -1.9695 -1.2206
 7186SOL    HW233021   0.931   2.680   6.503 -1.2077 -1.8840  0.0430
 7187SOL     OW33022   1.796   0.378   3.983 -0.4248  0.4297 -1.2017
 7187SOL    HW133023   1.851   0.369   3.905  0.2316  3.0173 -1.0593
 7187SOL    HW233024   1.829   0.312   4.043  1.5307  2.7585  0.2556
 7188SOL     OW33025   4.518   1.582  16.169 -0.1490 -0.0256 -0.2889
 7188SOL    HW133026   4.559   1.562  16.085  0.1050 -0.2605 -0.1110
 7188SOL    HW233027   4.472   1.500  16.187  2.4764 -1.4607 -0.0792
 7189SOL     OW33028   2.465   4.336   5.102 -0.2237 -0.6281  0.1419
 7189SOL    HW133029   2.489   4.400   5.169  0.2078  0.7621 -1.3119
 7189SOL    HW233030   2.449   4.262   5.160  1.0741 -0.8077  0.2772
 7190SOL     OW33031   2.360   3.256   5.079 -0.0937  0.1552 -0.2053
 7190SOL    HW133032   2.413   3.243   5.001  1.9625  1.0304  1.0280
 7190SOL    HW233033   2.399   3.336   5.115 -1.6204 -0.4701  2.8377
 7191SOL     OW33034   2.726   2.088   7.825 -0.0929  0.1129 -0.6440
 7191SOL    HW133035   2.783   2.160   7.851  0.2379  0.2357 -1.6985
 7191SOL    HW233036   2.726   2.032   7.903  2.6364 -2.7951 -2.7069
 7192SOL     OW33037   1.507   0.936   2.690 -0.4895  0.5794 -0.4693
 7192SOL    HW133038   1.562   0.949   2.613 -0.9169 -1.3390 -1.0935
 7192SOL    HW233039   1.419   0.932   2.651  0.2296 -1.0777 -1.9035
 7193SOL     OW33040   1.204   0.326  12.579  0.0304  0.4562  0.2998
 7193SOL    HW133041   1.182   0.237  12.608 -1.2796  0.0665 -1.8941
 7193SOL    HW233042   1.123   0.363  12.542  0.2550 -1.1559 -1.7957
 7194SOL     OW33043   0.244   3.186  17.361 -0.0581 -0.4233  0.7579
 7194SOL    HW133044   0.173   3.200  17.423 -1.7796 -1.4092 -1.0089
 7194SOL    HW233045   0.303   3.254  17.394  0.5601 -1.2300  1.3261
 7195SOL     OW33046   1.092   0.895   3.892  0.2328  0.6748 -0.0574
 7195SOL    HW133047   1.129   0.821   3.941  0.3641 -1.0279 -2.7574
 7195SOL    HW233048   1.166   0.956   3.881  0.9337 -0.4667 -1.6501
 7196SOL     OW33049   4.595   2.733   4.021  0.2891 -0.1391  0.2807
 7196SOL    HW133050   4.571   2.807   4.076 -2.8215 -1.2297  0.3663
 7196SOL    HW233051   4.658   2.694   4.082  1.2394 -1.0716 -1.2894
 7197SOL     OW33052   1.806   3.080  13.806  0.1437 -0.4980  0.1903
 7197SOL    HW133053   1.894   3.080  13.767 -0.0398 -1.7083 -0.2175
 7197SOL    HW233054   1.818   3.055  13.897 -0.4819  1.0998  0.7110
 7198SOL     OW33055   2.750   1.834   4.624 -0.4962  0.2704 -0.4820
 7198SOL    HW133056   2.659   1.819   4.649  0.2898 -2.8238  0.6309
 7198SOL    HW233057   2.795   1.878   4.696 -1.3197 -0.2249  0.3420
 7199SOL     OW33058   4.325   2.001   2.529  0.2195  0.0592 -0.0791
 7199SOL    HW133059   4.378   2.053   2.469 -0.9984  1.6857  0.2501
 7199SOL    HW233060   4.275   2.071   2.571  2.2565  0.1204  2.1811
 7200SOL     OW33061   3.605   1.315   9.843 -0.1490  0.1489  0.3562
 7200SOL    HW133062   3.686   1.366   9.837  0.9290 -1.7508 -1.0219
 7200SOL    HW233063   3.623   1.247   9.778 -0.9219  0.5821 -0.3114
 7201SOL     OW33064   3.535   1.303   5.935 -0.2919  0.3247 -0.4004
 7201SOL    HW133065   3.562   1.285   5.845  0.3548 -0.9876  0.0448
 7201SOL    HW233066   3.606   1.247   5.968 -1.1949 -0.6537 -0.1489
 7202SOL     OW33067   2.573   0.370   4.522  0.2110  0.0540 -0.4699
 7202SOL    HW133068   2.548   0.325   4.602 -1.9261  3.5991  0.7939
 7202SOL    HW233069   2.669   0.360   4.525 -0.0238 -2.1806 -0.2204
 7203SOL     OW33070   3.400   4.467   0.856  0.4366 -0.4119  0.0181
 7203SOL    HW133071   3.352   4.388   0.834  2.1561 -1.7198  0.9477
 7203SOL    HW233072   3.412   4.480   0.950  1.7355 -0.4683 -0.1338
 7204SOL     OW33073   0.027   3.940   4.037  0.3525 -0.4672  0.1171
 7204SOL    HW133074   4.689   4.007   4.002 -0.0090 -0.9559 -0.1959
 7204SOL    HW233075   4.696   3.899   4.106 -0.6772  0.4865 -0.0921
 7205SOL     OW33076   0.209   1.305   8.797 -0.4698 -0.2291 -0.6639
 7205SOL    HW133077   0.272   1.364   8.756  0.1300  0.2016  0.8846
 7205SOL    HW233078   0.208   1.345   8.884  0.7576 -0.6698 -0.4504
 7206SOL     OW33079   2.759   0.869   7.785  0.1903 -0.2780 -0.5980
 7206SOL    HW133080   2.763   0.933   7.856  0.7669 -1.7942  0.7393
 7206SOL    HW233081   2.665   0.852   7.779 -0.0448  1.3696 -1.3512
 7207SOL     OW33082   3.069   0.213  11.450 -0.4418  0.1340 -0.6996
 7207SOL    HW133083   3.123   0.292  11.447 -0.4997  0.1770 -0.6174
 7207SOL    HW233084   2.985   0.260  11.451 -1.0346 -1.0711  3.4787
 7208SOL     OW33085   2.207   0.527  13.325 -0.3648  0.1735  0.3563
 7208SOL    HW133086   2.170   0.610  13.296 -0.5007 -1.0217 -2.8575
 7208SOL    HW233087   2.286   0.527  13.271 -1.3964 -0.3379 -1.1580
 7209SOL     OW33088   3.941   2.620   6.283 -0.3220  0.3872  0.2208
 7209SOL    HW133089   3.874   2.555   6.261  1.8016 -1.8981  0.6361
 7209SOL    HW233090   4.009   2.607   6.218 -0.8083 -1.1471  0.0256
 7210SOL     OW33091   1.290   3.936   4.621 -0.9391  0.1986  0.3831
 7210SOL    HW133092   1.209   3.903   4.580 -1.7873 -1.4191  3.3698
 7210SOL    HW233093   1.320   3.860   4.671 -0.3040  1.3224  1.6987
 7211SOL     OW33094   3.353   4.018  15.014 -0.6871 -0.7936 -0.1349
 7211SOL    HW133095   3.438   3.981  14.989  0.5012  2.2693 -0.7350
 7211SOL    HW233096   3.343   4.097  14.960 -0.6978  0.3840  1.5693
 7212SOL     OW33097   3.053   3.378   5.830 -0.0829 -0.6258 -0.1421
 7212SOL    HW133098   3.028   3.326   5.753 -0.1008 -1.3214  0.3333
 7212SOL    HW233099   3.124   3.427   5.787 -0.8795  1.0079  0.4338
 7213SOL     OW33100   2.485   3.137   6.820  0.3150 -0.4052  0.0775
 7213SOL    HW133101   2.440   3.212   6.858  1.4323  0.6786 -0.7743
 7213SOL    HW233102   2.560   3.122   6.877  1.7960 -1.0487 -2.0306
 7214SOL     OW33103   1.382   4.142   3.686  0.6653  0.6847 -0.0879
 7214SOL    HW133104   1.414   4.188   3.608 -1.6226 -0.4279 -1.6953
 7214SOL    HW233105   1.297   4.185   3.696  1.2223  1.9921 -0.9190
 7215SOL     OW33106   4.354   3.533   4.836 -0.1732 -0.4496 -0.4358
 7215SOL    HW133107   4.340   3.607   4.776  0.0070  0.0616  0.1522
 7215SOL    HW233108   4.444   3.549   4.863 -0.6378 -0.2792  0.9960
 7216SOL     OW33109   4.178   4.183   7.546  0.1624 -0.1881 -0.0585
 7216SOL    HW133110   4.141   4.267   7.518 -4.4305 -2.2623 -0.1798
 7216SOL    HW233111   4.244   4.211   7.610  0.2095 -0.9878  0.2383
 7217SOL     OW33112   2.217   3.646   3.368 -0.0831  0.1983  0.5012
 7217SOL    HW133113   2.148   3.681   3.312  0.6166  1.1447  0.2274
 7217SOL    HW233114   2.175   3.592   3.435 -1.3399 -1.0563 -1.3088
 7218SOL     OW33115   0.902   1.460   0.884 -0.1590  0.6704  0.0376
 7218SOL    HW133116   0.825   1.460   0.941  2.8747  1.3492  4.0702
 7218SOL    HW233117   0.956   1.393   0.924  0.0476 -0.5731 -2.3124
 7219SOL     OW33118   3.822   3.325  10.554 -0.2519  0.4357 -0.3450
 7219SOL    HW133119   3.848   3.312  10.463 -0.2889  1.2947 -0.4791
 7219SOL    HW233120   3.770   3.246  10.568 -1.6529  1.1827 -1.3231
 7220SOL     OW33121   3.289   4.257   8.838 -0.2739  0.2934 -0.9494
 7220SOL    HW133122   3.375   4.272   8.876  0.0901 -1.2973 -1.1184
 7220SOL    HW233123   3.233   4.308   8.896 -1.4145 -0.0496 -1.7471
 7221SOL     OW33124   0.403   0.686   4.424  0.3790  0.4473 -0.2456
 7221SOL    HW133125   0.475   0.748   4.438 -1.7906  3.0993 -0.7791
 7221SOL    HW233126   0.419   0.622   4.494 -0.0749  0.3923 -0.1964
 7222SOL     OW33127   0.346   3.485   6.762  0.1294  0.7339 -0.2055
 7222SOL    HW133128   0.269   3.541   6.747  0.0395  0.1952 -1.7373
 7222SOL    HW233129   0.362   3.486   6.856 -0.8398 -0.6924 -0.0187
 7223SOL     OW33130   3.719   3.750   7.451 -0.2900 -0.0147 -0.0556
 7223SOL    HW133131   3.734   3.764   7.358 -0.6353  2.3219  0.2310
 7223SOL    HW233132   3.741   3.657   7.452  0.1079  0.0794 -0.1825
 7224SOL     OW33133   1.847   4.127   6.322 -0.0942 -0.0266 -0.2258
 7224SOL    HW133134   1.884   4.209   6.355 -1.8068  0.4253  0.5827
 7224SOL    HW233135   1.790   4.167   6.257  0.4237  0.4582 -0.3857
 7225SOL     OW33136   2.900   3.603   3.614  0.2206 -0.0534 -0.0456
 7225SOL    HW133137   2.854   3.687   3.617 -0.2582 -0.3164 -0.0218
 7225SOL    HW233138   2.991   3.630   3.598 -1.0205  2.9586 -2.1530
 7226SOL     OW33139   2.990   1.021   6.213  0.1004  0.3192 -0.3138
 7226SOL    HW133140   3.074   1.047   6.251 -0.5091 -2.2759  2.8782
 7226SOL    HW233141   2.950   0.970   6.284  0.5223 -1.0127 -1.0292
 7227SOL     OW33142   3.546   3.074   4.886 -0.2917  0.0428 -0.0269
 7227SOL    HW133143   3.541   3.160   4.844  1.8884 -0.4819 -1.3455
 7227SOL    HW233144   3.508   3.024   4.814  0.2118 -1.4472  0.7456
 7228SOL     OW33145   4.566   2.550   6.103 -0.1518 -0.2826 -0.1696
 7228SOL    HW133146   4.529   2.463   6.094 -1.3208  0.1452  0.5025
 7228SOL    HW233147   4.614   2.570   6.022 -0.9269  0.6882 -0.4031
 7229SOL     OW33148   0.511   4.225   4.297  0.1367  0.1098  0.2513
 7229SOL    HW133149   0.456   4.200   4.223  0.3275  0.5327 -0.0322
 7229SOL    HW233150   0.465   4.184   4.371  0.7672 -0.2573  0.4364
 7230SOL     OW33151   1.707   3.782   9.932  0.1739  0.4622 -0.1093
 7230SOL    HW133152   1.768   3.718   9.895 -0.0120  0.0721  0.2550
 7230SOL    HW233153   1.770   3.839   9.976  0.4797 -0.3686  0.5363
 7231SOL     OW33154   3.785   0.162   3.749  0.2017 -0.4043 -0.3200
 7231SOL    HW133155   3.856   0.212   3.711  0.1022 -0.0731 -0.0685
 7231SOL    HW233156   3.729   0.147   3.673  1.6983  0.8312 -1.6430
 7232SOL     OW33157   1.620   3.255   5.388 -0.0259 -0.0861 -0.7716
 7232SOL    HW133158   1.698   3.205   5.413 -2.5759 -2.4802  2.4524
 7232SOL    HW233159   1.651   3.286   5.303 -1.7967  1.0132 -1.0095
 7233SOL     OW33160   2.290   1.305   7.784  0.4155 -0.4000  0.0930
 7233SOL    HW133161   2.254   1.249   7.852 -0.7977  0.1753 -0.0797
 7233SOL    HW233162   2.381   1.294   7.813 -0.2012  0.2209  2.2464
 7234SOL     OW33163   0.682   0.813   0.535 -0.3309 -0.0468  0.2115
 7234SOL    HW133164   0.729   0.730   0.543 -1.2064 -0.5952 -0.2854
 7234SOL    HW233165   0.666   0.811   0.440 -2.2708  1.8826  0.5266
 7235SOL     OW33166   4.079   1.099   0.963  0.4449 -0.3963  0.4319
 7235SOL    HW133167   4.049   1.010   0.945  1.6986 -0.5707 -0.7870
 7235SOL    HW233168   4.168   1.089   0.929  0.5683 -3.1971  1.6032
 7236SOL     OW33169   1.314   2.054   6.384  0.3317  0.1927  0.1586
 7236SOL    HW133170   1.331   2.101   6.465 -0.8913  0.0411  0.5161
 7236SOL    HW233171   1.392   2.066   6.331  0.8948  2.1436  1.4361
 7237SOL     OW33172   2.129   0.430   5.860 -0.1909 -0.2466  0.2514
 7237SOL    HW133173   2.128   0.373   5.937  1.3499  1.3577  1.4506
 7237SOL    HW233174   2.084   0.370   5.800 -3.2067  0.2660  1.9964
 7238SOL     OW33175   1.016   0.717  17.360 -0.2212  0.0875  0.0711
 7238SOL    HW133176   1.085   0.659  17.393  0.7048  1.8084  1.1163
 7238SOL    HW233177   0.956   0.712  17.434 -2.0579  2.3812 -1.2883
 7239SOL     OW33178   2.026   1.792   7.319  0.1172  0.1314  0.3593
 7239SOL    HW133179   1.958   1.731   7.348  2.1598 -2.8335 -1.0029
 7239SOL    HW233180   2.102   1.734   7.323 -0.0775 -0.1283  0.3499
 7240SOL     OW33181   0.356   3.728   7.303 -0.5524 -0.9629 -0.0708
 7240SOL    HW133182   0.432   3.770   7.262 -0.0114 -1.0844  0.8279
 7240SOL    HW233183   0.396   3.661   7.358  0.3248 -0.4449 -0.0793
 7241SOL     OW33184   2.326   2.061   6.093 -0.2785  0.0951  0.7241
 7241SOL    HW133185   2.314   2.096   6.181  3.0439  1.5734  0.5606
 7241SOL    HW233186   2.248   2.006   6.083  0.7214 -1.6792  2.6844
 7242SOL     OW33187   4.232   1.441   6.383  0.5193  0.2735  0.3191
 7242SOL    HW133188   4.202   1.371   6.441  0.1957  0.6824  0.6465
 7242SOL    HW233189   4.143   1.473   6.368  1.2039  1.2582 -1.5894
 7243SOL     OW33190   3.568   4.110   4.160  0.3720 -0.2824  0.1875
 7243SOL    HW133191   3.517   4.115   4.079  0.0467  0.8523  0.4633
 7243SOL    HW233192   3.517   4.051   4.215 -1.8448  2.7776  1.4741
 7244SOL     OW33193   2.315   0.848   4.860  0.4956  0.0525  0.5918
 7244SOL    HW133194   2.229   0.829   4.821  0.8217 -0.3976  0.0916
 7244SOL    HW233195   2.312   0.816   4.950  0.9904  0.4298  0.7415
 7245SOL     OW33196   0.375   2.600   6.878 -0.4979 -0.6303  0.6816
 7245SOL    HW133197   0.410   2.511   6.868 -0.7644 -0.4554 -1.6059
 7245SOL    HW233198   0.336   2.615   6.793  1.0981  0.4036  0.1332
 7246SOL     OW33199   0.053   2.107   8.169  0.2535  0.6235  0.2032
 7246SOL    HW133200   0.004   2.090   8.089 -0.4734  4.2198 -0.1116
 7246SOL    HW233201   0.102   2.187   8.149 -1.9910  2.3504  1.5439
 7247SOL     OW33202   2.106   1.843   1.788  0.2780  0.3799  0.0607
 7247SOL    HW133203   2.123   1.754   1.819 -0.9189 -0.4903 -1.7447
 7247SOL    HW233204   2.075   1.821   1.700 -0.1456 -1.0527  0.5584
 7248SOL     OW33205   3.456   0.532   6.010 -0.1203 -0.2629 -0.4105
 7248SOL    HW133206   3.388   0.573   5.957  0.8394  0.2178 -1.2687
 7248SOL    HW233207   3.517   0.498   5.944 -0.4238  2.1129 -1.8824
 7249SOL     OW33208   0.018   4.557  11.572 -0.3517 -0.4006  0.2196
 7249SOL    HW133209   4.655   4.569  11.530 -0.2323 -1.8679 -0.4514
 7249SOL    HW233210   0.030   4.632  11.630  0.8974 -0.3721 -0.0735
 7250SOL     OW33211   3.126   1.726   2.047  0.2382 -0.3732 -0.2084
 7250SOL    HW133212   3.102   1.813   2.079 -2.6025 -1.4324  0.5318
 7250SOL    HW233213   3.046   1.705   2.000  0.1144  0.7861 -0.5158
 7251SOL     OW33214   0.297   0.441  11.153 -0.9408 -0.2585  0.2189
 7251SOL    HW133215   0.220   0.486  11.117 -1.2284 -0.9608 -0.0489
 7251SOL    HW233216   0.273   0.433  11.245  0.2984 -0.5107  0.5182
 7252SOL     OW33217   2.623   0.332   6.384  1.2385 -0.1506 -0.0557
 7252SOL    HW133218   2.582   0.397   6.327  1.3611 -2.0090 -2.2557
 7252SOL    HW233219   2.715   0.334   6.358  1.5239  0.6121  0.9955
 7253SOL     OW33220   2.374   1.939   4.527  0.7813  0.5044  0.7061
 7253SOL    HW133221   2.333   1.943   4.614  1.1644  1.3147  0.8445
 7253SOL    HW233222   2.376   2.032   4.506 -0.1638  0.4597  0.4246
 7254SOL     OW33223   1.044   0.726   7.635  0.3478 -0.7255  0.2635
 7254SOL    HW133224   1.014   0.671   7.562 -1.2280 -0.4606  0.7131
 7254SOL    HW233225   0.994   0.807   7.625  0.9751 -0.2330  1.0689
 7255SOL     OW33226   0.450   1.704  12.030  0.0780  0.6226 -0.9449
 7255SOL    HW133227   0.528   1.661  11.995  0.5419  0.7419 -0.0708
 7255SOL    HW233228   0.466   1.695  12.124  0.2593  2.4001 -0.8122
 7256SOL     OW33229   4.610   2.549   2.293  0.5573 -0.2282  0.0102
 7256SOL    HW133230   4.630   2.460   2.323 -1.1304  0.1865  2.3918
 7256SOL    HW233231   4.514   2.551   2.290  0.4877 -2.4727  0.3420
 7257SOL     OW33232   1.697   3.895   5.849  0.2798 -0.3052 -0.7176
 7257SOL    HW133233   1.665   3.971   5.898  2.7012  1.5935 -2.0941
 7257SOL    HW233234   1.615   3.849   5.830 -0.8202  1.9892 -1.5172
 7258SOL     OW33235   1.987   2.594   2.980 -0.1558  0.4820 -0.4081
 7258SOL    HW133236   1.901   2.601   2.939 -0.1130 -0.0736 -0.5904
 7258SOL    HW233237   1.983   2.671   3.037  0.4842 -0.4979  0.9690
 7259SOL     OW33238   3.582   1.233   5.656 -0.7007  0.4145  0.1088
 7259SOL    HW133239   3.639   1.288   5.603 -0.1738 -1.1791 -0.9966
 7259SOL    HW233240   3.616   1.150   5.623 -0.0197  0.0952  1.6602
 7260SOL     OW33241   3.789   3.198   2.391 -0.0883 -0.0455 -0.8382
 7260SOL    HW133242   3.761   3.115   2.430 -0.5069 -0.2717 -1.6429
 7260SOL    HW233243   3.870   3.169   2.349  0.1680 -0.9310  0.2373
 7261SOL     OW33244   3.398   0.208   8.410  0.0372 -0.4768 -0.2331
 7261SOL    HW133245   3.493   0.197   8.419  0.0862 -0.1899 -0.4091
 7261SOL    HW233246   3.390   0.177   8.319 -1.5872  2.8779 -1.2069
 7262SOL     OW33247   3.455   2.428   1.011  0.6558 -0.1441 -0.3504
 7262SOL    HW133248   3.433   2.429   1.104  0.1907  0.4372 -0.4699
 7262SOL    HW233249   3.371   2.392   0.982 -0.5493 -0.1397  3.1675
 7263SOL     OW33250   0.793   0.564  12.320 -0.3999 -0.0142 -0.1020
 7263SOL    HW133251   0.805   0.542  12.228 -1.3512  0.6513 -0.3901
 7263SOL    HW233252   0.750   0.649  12.304  0.2248  0.8811  2.9042
 7264SOL     OW33253   3.552   3.079   7.056  0.6570  0.3857 -0.4578
 7264SOL    HW133254   3.501   3.067   6.976  1.1521 -0.4829 -0.6394
 7264SOL    HW233255   3.483   3.107   7.115  1.0573  0.3872  0.0087
 7265SOL     OW33256   2.893   4.541  16.498  0.2078  0.2311 -0.1189
 7265SOL    HW133257   2.938   4.535  16.414  0.3205 -0.2001 -0.0294
 7265SOL    HW233258   2.810   4.497  16.477  0.3688 -0.2084  0.1754
 7266SOL     OW33259   2.359   3.050   4.570  0.5696 -0.5476  0.1192
 7266SOL    HW133260   2.433   3.083   4.621  0.2462 -0.2719  0.4083
 7266SOL    HW233261   2.346   3.122   4.508 -0.9648 -1.0072 -0.1051
 7267SOL     OW33262   4.550   0.019   6.036  0.3257  0.1395  0.4454
 7267SOL    HW133263   4.609   0.056   5.969  0.4814 -1.1480 -0.1219
 7267SOL    HW233264   4.591   0.058   6.113  1.0238  2.2118 -0.9699
 7268SOL     OW33265   4.189   0.493   8.752  0.0755  0.0105  0.1754
 7268SOL    HW133266   4.251   0.427   8.781 -0.3192  0.0359  1.0741
 7268SOL    HW233267   4.211   0.495   8.659 -1.7776  0.7229 -0.2375
 7269SOL     OW33268   3.672   4.312  14.626 -0.2983 -0.1846  0.7145
 7269SOL    HW133269   3.701   4.221  14.619  1.4747  0.4116  0.2208
 7269SOL    HW233270   3.578   4.313  14.606 -0.6144 -1.0863  2.1472
 7270SOL     OW33271   0.453   3.116  14.780  0.0083 -0.1736 -0.0007
 7270SOL    HW133272   0.366   3.114  14.819  0.1062  0.1180  0.2381
 7270SOL    HW233273   0.428   3.062  14.705 -0.2183  0.6469 -0.5085
 7271SOL     OW33274   3.026   3.341   2.886  0.1321 -0.1702 -0.2066
 7271SOL    HW133275   3.121   3.331   2.891  0.0672 -0.2196  0.8960
 7271SOL    HW233276   3.019   3.296   2.802 -0.2517  2.1079 -1.4083
 7272SOL     OW33277   3.854   2.410   6.043  0.7770 -0.2431  0.3362
 7272SOL    HW133278   3.786   2.349   6.013 -1.1661  1.5201  1.1510
 7272SOL    HW233279   3.924   2.347   6.061 -0.3188 -1.0192  1.8434
 7273SOL     OW33280   2.442   3.539   7.649  0.2449  0.0764 -1.1106
 7273SOL    HW133281   2.480   3.605   7.590  1.9636  0.3011  0.2655
 7273SOL    HW233282   2.367   3.516   7.595 -1.9841  3.1173  0.7334
 7274SOL     OW33283   0.461   3.978  11.370  0.0353  0.3132  0.4583
 7274SOL    HW133284   0.417   3.920  11.309  1.4241 -0.6383  0.3538
 7274SOL    HW233285   0.517   4.030  11.312  1.8630  0.7354  2.5878
 7275SOL     OW33286   2.217   0.215   7.326 -0.1919 -0.0232  0.0882
 7275SOL    HW133287   2.258   0.128   7.322 -1.9934 -0.8268 -1.2848
 7275SOL    HW233288   2.202   0.226   7.232  1.6624 -1.0687 -0.3412
 7276SOL     OW33289   4.091   4.172   4.619 -0.7656  0.8717  0.4839
 7276SOL    HW133290   4.036   4.093   4.611 -0.2901  0.7225 -1.2502
 7276SOL    HW233291   4.159   4.163   4.552  0.3153  2.5876  1.3397
 7277SOL     OW33292   2.086   1.659   7.916  0.4512 -0.0748 -0.1437
 7277SOL    HW133293   2.036   1.635   7.995  2.2016 -1.1996  0.6161
 7277SOL    HW233294   2.033   1.631   7.841  1.1439  0.7581 -0.9464
 7278SOL     OW33295   2.664   0.919   4.266  0.0912 -0.3672 -0.5588
 7278SOL    HW133296   2.633   0.930   4.356 -0.3280 -0.9967 -0.6265
 7278SOL    HW233297   2.578   0.920   4.224  0.8323 -1.8987 -2.1160
 7279SOL     OW33298   2.822   0.936   1.584 -0.3336 -0.5394  0.0376
 7279SOL    HW133299   2.903   0.986   1.575 -0.9860  0.6006  0.5399
 7279SOL    HW233300   2.780   0.948   1.499  1.4548 -0.9788 -0.9147
 7280SOL     OW33301   1.798   0.815   2.336  0.4196 -0.1563  0.1237
 7280SOL    HW133302   1.721   0.864   2.306 -0.2077 -1.3659 -0.2275
 7280SOL    HW233303   1.759   0.748   2.392 -0.0239 -0.7970 -0.9611
 7281SOL     OW33304   1.235   3.679   7.638  0.2555  0.1318 -0.5866
 7281SOL    HW133305   1.279   3.763   7.639  0.1598  0.1875 -0.8783
 7281SOL    HW233306   1.189   3.693   7.720  1.6881  1.5219 -0.0321
 7282SOL     OW33307   2.408   2.897   5.667 -0.4486  0.5885 -0.0325
 7282SOL    HW133308   2.388   2.826   5.606 -1.1409  0.1397  0.7222
 7282SOL    HW233309   2.409   2.862   5.756 -1.3271 -0.0820 -0.2797
 7283SOL     OW33310   0.990   3.017   1.207 -0.1595  0.2010  0.1192
 7283SOL    HW133311   0.940   2.943   1.240  0.7668  0.1351  1.3922
 7283SOL    HW233312   0.921   3.078   1.180  0.8612  0.9521 -0.8113
 7284SOL     OW33313   2.658   2.397  12.158 -0.1568 -0.3288  0.7413
 7284SOL    HW133314   2.582   2.356  12.117  0.0351 -0.5142  0.5731
 7284SOL    HW233315   2.721   2.327  12.140  0.4498  0.3056  0.4137
 7285SOL     OW33316   0.722   4.123   1.813 -0.1658 -0.5087  0.2915
 7285SOL    HW133317   0.674   4.117   1.896  0.3640  2.4979  0.8296
 7285SOL    HW233318   0.693   4.042   1.772 -2.4594  1.1348 -1.3060
 7286SOL     OW33319   4.582   1.141   2.653  0.2737  0.2594  0.3920
 7286SOL    HW133320   4.623   1.215   2.609 -0.8305  2.3160  2.7799
 7286SOL    HW233321   4.576   1.180   2.740 -0.5335  0.0974  0.4119
 7287SOL     OW33322   3.178   0.887   3.009  0.2953  0.7816 -0.2992
 7287SOL    HW133323   3.217   0.875   2.922 -2.5488  1.5465 -1.6898
 7287SOL    HW233324   3.090   0.864   2.978  0.2607  0.4907  0.0117
 7288SOL     OW33325   1.093   0.080   6.814 -0.2719  0.0699  0.2783
 7288SOL    HW133326   1.150   0.037   6.751  0.6903  0.3299  0.9802
 7288SOL    HW233327   1.122   0.047   6.899 -0.3904  2.0621  1.1020
 7289SOL     OW33328   1.100   3.317   7.980  0.2792 -0.1997  0.2623
 7289SOL    HW133329   1.160   3.333   7.907  1.4182  0.5148  1.3723
 7289SOL    HW233330   1.088   3.409   8.001 -3.4337 -0.2685 -1.4213
 7290SOL     OW33331   4.163   3.205   0.169 -0.1830  0.0337 -0.3075
 7290SOL    HW133332   4.186   3.119   0.134  3.2243  1.0857 -0.6572
 7290SOL    HW233333   4.211   3.218   0.250  0.2471 -1.0862 -0.3761
 7291SOL     OW33334   2.030   0.324   4.960  0.5234 -0.2014  0.1703
 7291SOL    HW133335   2.045   0.402   4.906 -2.9105 -0.4384 -1.1170
 7291SOL    HW233336   2.036   0.253   4.896 -2.2626  0.2820 -0.6160
 7292SOL     OW33337   4.479   0.727   3.336 -0.2643 -0.5693 -0.3668
 7292SOL    HW133338   4.387   0.729   3.312 -0.6358  1.9466  1.2946
 7292SOL    HW233339   4.521   0.773   3.263  1.2324 -1.5325 -0.1245
 7293SOL     OW33340   2.229   2.656   2.497 -0.1836  0.0579  0.6439
 7293SOL    HW133341   2.248   2.748   2.476 -1.4311  0.0157 -0.6510
 7293SOL    HW233342   2.141   2.656   2.535 -0.3236  3.1897  0.3285
 7294SOL     OW33343   4.229   3.283   2.325 -0.1987 -0.1329 -0.6654
 7294SOL    HW133344   4.187   3.253   2.244  1.6192 -1.1268 -1.2433
 7294SOL    HW233345   4.168   3.353   2.346 -1.6147 -0.8976 -2.2515
 7295SOL     OW33346   3.856   1.473   8.759  0.1097  0.1192 -0.0018
 7295SOL    HW133347   3.812   1.416   8.697 -0.2921  0.2528  0.1607
 7295SOL    HW233348   3.798   1.472   8.835  2.4180  1.7779  1.8095
 7296SOL     OW33349   2.632   0.048   2.463 -0.2257  0.0454 -0.1177
 7296SOL    HW133350   2.657   4.693   2.516 -2.3374 -1.3313 -1.1087
 7296SOL    HW233351   2.641   0.018   2.373  0.1182  1.8332 -0.6781
 7297SOL     OW33352   3.110   0.859   1.726  0.1020 -0.0901 -0.0778
 7297SOL    HW133353   3.015   0.873   1.730 -0.1865 -1.4202 -2.2161
 7297SOL    HW233354   3.150   0.945   1.714 -1.9285  0.9234  0.3500
 7298SOL     OW33355   3.304   1.525   7.853 -0.1797  0.1306  0.2284
 7298SOL    HW133356   3.376   1.467   7.828  0.1844  1.2106 -1.1995
 7298SOL    HW233357   3.335   1.607   7.815 -2.2500  0.0803 -1.5248
 7299SOL     OW33358   4.671   1.205   0.206  0.0737 -0.5210 -0.3556
 7299SOL    HW133359   4.636   1.119   0.181  0.3055 -0.4930 -0.7840
 7299SOL    HW233360   4.586   1.241   0.181 -0.2147  0.0015  1.3923
 7300SOL     OW33361   3.523   0.743  16.242 -0.6177 -0.0005 -0.2068
 7300SOL    HW133362   3.510   0.690  16.321 -1.6427  1.2267  0.4443
 7300SOL    HW233363   3.532   0.683  16.168  0.1630  0.1551 -0.2330
 7301SOL     OW33364   3.905   0.665   2.573 -0.5407  0.2717  0.2384
 7301SOL    HW133365   3.956   0.738   2.607  0.0978  0.8517 -1.9158
 7301SOL    HW233366   3.963   0.600   2.612 -0.1947  1.5569  1.8317
 7302SOL     OW33367   4.698   0.801  11.280  0.0302 -0.2163 -0.0565
 7302SOL    HW133368   4.630   0.755  11.232 -0.7948  1.0359 -0.0975
 7302SOL    HW233369   4.679   0.778  11.371  0.4954 -1.9808 -0.4130
 7303SOL     OW33370   0.630   1.877   1.494 -0.2605 -0.4493  0.2201
 7303SOL    HW133371   0.544   1.880   1.536  0.0668  0.9370  0.7704
 7303SOL    HW233372   0.612   1.800   1.440 -1.9249 -0.4679  0.8040
 7304SOL     OW33373   1.088   2.014   2.130  0.9636 -0.1428 -0.1258
 7304SOL    HW133374   1.113   1.931   2.091 -1.6726 -0.0465 -2.0253
 7304SOL    HW233375   1.141   2.075   2.079  4.2472 -1.3854  1.8242
 7305SOL     OW33376   2.332   1.589   8.691 -0.6222  0.7147  0.2704
 7305SOL    HW133377   2.245   1.608   8.727 -1.3884 -0.4061 -1.0046
 7305SOL    HW233378   2.365   1.522   8.751 -0.3547  0.1428 -0.5179
 7306SOL     OW33379   3.399   0.841   4.128 -0.0027  0.4309  0.2528
 7306SOL    HW133380   3.490   0.871   4.138  0.1879 -0.0852  0.0550
 7306SOL    HW233381   3.403   0.807   4.039  1.2980 -1.5789  1.0579
 7307SOL     OW33382   4.588   4.322  14.544  0.0795 -0.3348 -0.1040
 7307SOL    HW133383   4.550   4.249  14.593  0.6167 -0.6509 -0.1556
 7307SOL    HW233384   4.520   4.333  14.477  0.9595 -1.5996 -1.2189
 7308SOL     OW33385   2.063   3.850  14.054 -0.3167 -0.5023 -0.0779
 7308SOL    HW133386   2.009   3.904  14.112  1.5626  1.8960 -0.5806
 7308SOL    HW233387   2.037   3.760  14.075 -0.6811 -0.0679  1.2829
 7309SOL     OW33388   1.668   4.679   4.920 -0.0051  0.3236  0.2838
 7309SOL    HW133389   1.703   4.686   4.831 -0.1030 -2.3540  0.0386
 7309SOL    HW233390   1.708   0.037   4.958  1.8047  0.1265 -1.2135
 7310SOL     OW33391   3.054   1.760   7.837  0.0270  0.0290 -0.0217
 7310SOL    HW133392   2.989   1.745   7.906 -1.2795  2.1276 -0.7975
 7310SOL    HW233393   3.126   1.721   7.886  1.0751  1.0868 -0.7315
 7311SOL     OW33394   0.270   2.859  11.155  0.1432  0.3097 -0.4715
 7311SOL    HW133395   0.350   2.848  11.207  1.0470  3.0387 -1.2751
 7311SOL    HW233396   0.216   2.907  11.218  0.7714  1.0826 -0.5287
 7312SOL     OW33397   2.055   2.055  10.509  0.7211  0.5114 -0.1828
 7312SOL    HW133398   2.089   2.018  10.591  1.7621  1.7039 -0.0802
 7312SOL    HW233399   1.961   2.036  10.513  0.3430  2.6772  1.7877
 7313SOL     OW33400   2.503   0.655   0.523  0.1431  0.5403  0.0003
 7313SOL    HW133401   2.569   0.588   0.537 -0.5523  0.3968  2.6325
 7313SOL    HW233402   2.504   0.711   0.602 -0.0472  2.4558 -1.3503
 7314SOL     OW33403   2.583   3.806   7.815 -0.2634 -0.0193 -0.1464
 7314SOL    HW133404   2.626   3.867   7.875 -0.8926 -1.0590  1.3486
 7314SOL    HW233405   2.598   3.724   7.861 -0.4115  1.3782  2.4010
 7315SOL     OW33406   2.367   3.176  16.075  0.5567 -0.4734 -0.5712
 7315SOL    HW133407   2.308   3.102  16.081  0.1201  0.0446  1.3389
 7315SOL    HW233408   2.371   3.190  16.169 -2.4825 -2.1169 -0.1830
 7316SOL     OW33409   2.979   0.628   3.252  0.6617 -0.0801  0.3713
 7316SOL    HW133410   3.013   0.552   3.205  0.3599  0.3137 -0.4907
 7316SOL    HW233411   2.885   0.608   3.245  1.1220 -2.8815  2.4136
 7317SOL     OW33412   3.971   3.169   9.607  0.0555 -0.6052  0.1256
 7317SOL    HW133413   3.891   3.132   9.570  0.2978  2.5118 -3.5140
 7317SOL    HW233414   3.959   3.264   9.601 -0.4165 -0.5803  1.4702
 7318SOL     OW33415   1.037   3.421   1.766 -0.0023  0.1251  0.2711
 7318SOL    HW133416   1.105   3.487   1.753  1.2013 -1.6126 -2.1932
 7318SOL    HW233417   0.985   3.442   1.689  1.2816  1.8098 -0.1244
 7319SOL     OW33418   1.725   2.986   7.229  0.3555  0.0988  0.2800
 7319SOL    HW133419   1.795   2.926   7.251  0.3343 -0.2977 -0.7722
 7319SOL    HW233420   1.760   3.010   7.143 -0.8705 -0.2835 -0.3241
 7320SOL     OW33421   3.103   4.025  10.428  0.1472 -0.0114  0.5734
 7320SOL    HW133422   3.130   4.015  10.520  1.0880  1.5316  0.4655
 7320SOL    HW233423   3.017   3.984  10.436  0.3310 -0.7458 -1.2853
 7321SOL     OW33424   1.993   2.349   0.461  0.1247  0.6666 -0.2043
 7321SOL    HW133425   1.978   2.431   0.413 -1.0869  1.5619  1.7176
 7321SOL    HW233426   1.903   2.333   0.490 -0.5137  0.6614 -2.1614
 7322SOL     OW33427   1.611   4.079  16.807 -0.4877  0.2603 -0.0945
 7322SOL    HW133428   1.645   4.001  16.763 -0.1429  0.7313 -0.6664
 7322SOL    HW233429   1.657   4.071  16.891  1.3190  0.1341 -1.0870
 7323SOL     OW33430   0.278   1.606  12.683 -0.1450 -0.4786 -0.2012
 7323SOL    HW133431   0.349   1.660  12.647 -0.5334 -0.4054 -0.8743
 7323SOL    HW233432   0.209   1.673  12.685 -0.4366 -0.8499  1.6136
 7324SOL     OW33433   4.357   0.058   3.188 -0.1753  0.1183 -0.4097
 7324SOL    HW133434   4.413   4.711   3.149 -0.3942 -1.0814  1.3629
 7324SOL    HW233435   4.392   0.139   3.150  4.4830 -2.0041 -0.6571
 7325SOL     OW33436   4.197   1.191   6.112  0.5003 -0.0002 -0.0446
 7325SOL    HW133437   4.232   1.193   6.201  0.8818 -1.4690 -0.1570
 7325SOL    HW233438   4.245   1.116   6.075  3.1344  0.9628  1.4291
 7326SOL     OW33439   1.963   0.662   2.538  0.8136 -0.0242  0.4141
 7326SOL    HW133440   1.973   0.755   2.516 -0.3074  0.1781  0.7252
 7326SOL    HW233441   1.928   0.627   2.456 -0.8974  0.0492  1.1153
 7327SOL     OW33442   0.605   3.075   3.839 -0.0949 -0.0026  0.4246
 7327SOL    HW133443   0.603   3.041   3.749  0.9265  0.6732  0.1456
 7327SOL    HW233444   0.660   3.151   3.820 -0.0193 -0.6338 -1.9759
 7328SOL     OW33445   2.390   2.012  14.167  0.1975  0.4660 -0.0252
 7328SOL    HW133446   2.453   2.080  14.142 -0.5706  1.0664 -0.3497
 7328SOL    HW233447   2.306   2.051  14.142  0.0417  1.2716  1.7004
 7329SOL     OW33448   0.812   2.873  10.885  0.1201  0.0158 -0.4638
 7329SOL    HW133449   0.823   2.793  10.835  0.0421 -2.2569  3.1369
 7329SOL    HW233450   0.795   2.835  10.972  0.3614 -1.0759 -0.8959
 7330SOL     OW33451   1.178   1.914  12.474  0.1393 -0.0116 -0.5727
 7330SOL    HW133452   1.223   1.888  12.555 -1.0721 -0.6260 -0.0891
 7330SOL    HW233453   1.225   1.997  12.463  3.3162 -1.9759 -1.8699
 7331SOL     OW33454   2.253   1.278   1.988  0.1530 -0.4303  0.1804
 7331SOL    HW133455   2.331   1.332   2.004 -0.5469  0.8914 -0.8385
 7331SOL    HW233456   2.184   1.344   1.989 -0.1533 -0.7561  0.6784
 7332SOL     OW33457   2.902   1.543   0.957  0.4046  0.0174 -0.2106
 7332SOL    HW133458   2.928   1.625   0.913 -0.1736  0.2139 -0.1851
 7332SOL    HW233459   2.978   1.488   0.938 -0.4761 -1.7498  1.4480
 7333SOL     OW33460   0.961   1.263   6.580  0.0461 -0.7716 -0.2903
 7333SOL    HW133461   0.914   1.277   6.662  2.4366  0.0087  0.9149
 7333SOL    HW233462   0.943   1.170   6.591  1.5631 -1.0272 -0.0234
 7334SOL     OW33463   2.566   4.384   7.253 -0.1466 -0.2386  0.1932
 7334SOL    HW133464   2.486   4.335   7.236  0.4900 -0.9116 -0.8355
 7334SOL    HW233465   2.593   4.402   7.163 -1.7054  1.7723  0.1158
 7335SOL     OW33466   1.036   3.476  16.361 -0.1035  0.2568  0.2454
 7335SOL    HW133467   1.086   3.505  16.284  0.1011 -0.0491  0.2664
 7335SOL    HW233468   0.995   3.557  16.393  0.8005  1.2194 -1.0186
 7336SOL     OW33469   2.966   1.326   6.887  0.0383 -0.8628  0.5752
 7336SOL    HW133470   2.943   1.409   6.930  0.6047 -0.8083  0.7697
 7336SOL    HW233471   2.879   1.317   6.847  0.0996 -1.4422  0.5791
 7337SOL     OW33472   0.123   1.433   9.715  0.2126  0.2680  0.2345
 7337SOL    HW133473   0.163   1.513   9.749 -1.2721  1.3085 -0.4663
 7337SOL    HW233474   0.173   1.362   9.755 -2.4487 -0.3126  2.5558
 7338SOL     OW33475   3.089   2.232   2.252  0.0072  0.0256  0.4160
 7338SOL    HW133476   3.042   2.295   2.307  0.1475  0.3965  0.1189
 7338SOL    HW233477   3.070   2.256   2.161  0.1920  1.2582  0.6918
 7339SOL     OW33478   2.975   3.148   2.680  0.3634 -0.0966  0.0970
 7339SOL    HW133479   2.968   3.162   2.586 -0.2583 -0.9809  0.0085
 7339SOL    HW233480   2.898   3.097   2.708 -2.0125  1.7559 -3.0525
 7340SOL     OW33481   0.856   4.348   1.848 -0.0535  0.3157 -0.5064
 7340SOL    HW133482   0.805   4.270   1.827  1.1644 -1.3035  2.5370
 7340SOL    HW233483   0.938   4.310   1.880  0.3826  1.8832  0.2685
 7341SOL     OW33484   0.151   2.701   3.149 -0.3381  0.1884  0.6036
 7341SOL    HW133485   0.136   2.726   3.240 -0.8565  0.2110  0.5070
 7341SOL    HW233486   0.235   2.745   3.131 -0.4594  0.3039  0.3273
 7342SOL     OW33487   0.268   0.046   7.864  0.2900  0.5571 -0.0407
 7342SOL    HW133488   0.251   4.673   7.852 -1.5056  0.9129 -0.1541
 7342SOL    HW233489   0.342   0.064   7.806  1.3957 -1.3401  0.7959
 7343SOL     OW33490   1.446   2.400   0.348 -0.3484 -0.1728  0.0992
 7343SOL    HW133491   1.448   2.352   0.431  0.6046  0.2291  0.3095
 7343SOL    HW233492   1.392   2.338   0.299 -0.3375  2.0063 -2.6484
 7344SOL     OW33493   0.172   2.497  10.800  0.2384 -0.0003  0.3646
 7344SOL    HW133494   0.128   2.412  10.806  2.6359 -1.3018 -0.5719
 7344SOL    HW233495   0.242   2.495  10.866 -0.6754  1.2766  1.3722
 7345SOL     OW33496   3.624   4.513   7.493 -0.4002  0.0813 -0.0374
 7345SOL    HW133497   3.570   4.453   7.441 -1.7870 -1.5507  3.3266
 7345SOL    HW233498   3.672   4.459   7.556  0.3751  2.6042  1.4832
 7346SOL     OW33499   0.745   4.233  10.635  0.2290 -0.4267  0.3153
 7346SOL    HW133500   0.705   4.177  10.702 -1.8042  0.8009  0.1302
 7346SOL    HW233501   0.810   4.280  10.688 -0.2727  0.3589  0.2284
 7347SOL     OW33502   0.918   2.474   4.808  0.1341  0.0476 -0.8158
 7347SOL    HW133503   0.966   2.523   4.874 -0.0076 -1.0419  0.0880
 7347SOL    HW233504   0.984   2.444   4.745  0.6562  2.0038 -1.2185
 7348SOL     OW33505   3.478   1.847   9.348  0.3175 -0.1196 -0.1910
 7348SOL    HW133506   3.395   1.821   9.308  1.5683 -0.8462 -2.3145
 7348SOL    HW233507   3.492   1.798   9.430  0.6533 -2.5852 -1.7062
 7349SOL     OW33508   3.298   0.952   0.885  0.0463  0.1129  0.4718
 7349SOL    HW133509   3.393   0.959   0.883  0.0581 -0.1764 -0.0576
 7349SOL    HW233510   3.284   0.886   0.816 -0.5111  0.8326 -0.1084
 7350SOL     OW33511   0.199   1.411  12.276 -0.2044  0.6169  0.1196
 7350SOL    HW133512   0.255   1.401  12.353 -0.1954 -0.8014 -0.0688
 7350SOL    HW233513   0.145   1.479  12.316  1.8460  1.2554  1.8043
 7351SOL     OW33514   3.342   1.170   3.360 -0.0997 -0.1958 -0.4613
 7351SOL    HW133515   3.333   1.084   3.320 -2.6539 -0.3804  0.5358
 7351SOL    HW233516   3.274   1.161   3.426 -0.6316 -0.4234 -1.0425
 7352SOL     OW33517   1.813   4.303   4.338  0.2695  0.0115  0.3046
 7352SOL    HW133518   1.755   4.372   4.306 -0.6880 -0.4344  1.0771
 7352SOL    HW233519   1.774   4.273   4.420  0.0914 -0.6460 -0.0224
 7353SOL     OW33520   0.474   3.473   5.677  0.0534 -0.4767 -0.1721
 7353SOL    HW133521   0.423   3.544   5.637 -1.3323 -1.5206 -0.2766
 7353SOL    HW233522   0.407   3.405   5.689  0.4070 -0.8850 -0.5328
 7354SOL     OW33523   1.818   2.795   8.313  0.2194 -0.1414 -0.0962
 7354SOL    HW133524   1.812   2.888   8.335 -1.0340 -0.0170 -1.0146
 7354SOL    HW233525   1.828   2.792   8.218  0.9943 -1.2556  0.0204
 7355SOL     OW33526   2.048   0.336   9.213  0.0772  0.1087 -0.2072
 7355SOL    HW133527   1.977   0.396   9.189 -0.5363 -1.2433 -1.7650
 7355SOL    HW233528   2.108   0.394   9.259  1.2505 -1.1433 -0.1566
 7356SOL     OW33529   2.103   3.422  17.276  0.9898  0.0610  0.1954
 7356SOL    HW133530   2.122   3.329  17.263 -2.3601 -0.7054  0.7762
 7356SOL    HW233531   2.035   3.411  17.342  0.6173 -0.0719 -0.2086
 7357SOL     OW33532   3.230   4.474  11.843 -0.1556 -0.0846  0.1514
 7357SOL    HW133533   3.266   4.419  11.773  0.2266  1.2806 -0.7303
 7357SOL    HW233534   3.216   4.553  11.791 -1.0440 -0.2948  0.0705
 7358SOL     OW33535   3.509   0.032   1.675 -0.4582  0.5673  0.5317
 7358SOL    HW133536   3.569   4.682   1.650 -1.7538 -0.6734  0.9343
 7358SOL    HW233537   3.561   0.109   1.651  1.9474 -0.5806  2.0963
 7359SOL     OW33538   0.731   3.672  14.155  0.0141 -0.0730 -0.0570
 7359SOL    HW133539   0.771   3.754  14.127 -0.8686  0.6229  0.7092
 7359SOL    HW233540   0.768   3.671  14.244 -0.6183 -1.9163  0.1981
 7360SOL     OW33541   4.060   0.468  12.917  0.0847 -0.3156  0.0443
 7360SOL    HW133542   4.012   0.543  12.951  1.4135  0.7702 -0.4652
 7360SOL    HW233543   4.014   0.453  12.834 -0.3519 -1.0674  0.4263
 7361SOL     OW33544   3.609   1.871   7.293  0.0311  0.1272  0.4870
 7361SOL    HW133545   3.564   1.853   7.210 -0.6350 -0.8898  1.0643
 7361SOL    HW233546   3.615   1.790   7.344 -2.2882  0.2982  1.0360
 7362SOL     OW33547   2.823   3.246  15.199  0.2273 -0.3491 -0.2322
 7362SOL    HW133548   2.835   3.295  15.280 -0.5246 -0.4113 -0.0803
 7362SOL    HW233549   2.910   3.269  15.168  0.8545 -1.3814  0.7689
 7363SOL     OW33550   0.733   0.073   6.509  0.0164 -0.1691 -0.7864
 7363SOL    HW133551   0.752   0.165   6.491  0.6347  0.1030  1.2145
 7363SOL    HW233552   0.768   0.086   6.598 -1.9577  0.8069 -0.1489
 7364SOL     OW33553   4.451   3.323  12.542  0.4040 -0.1430  0.2264
 7364SOL    HW133554   4.405   3.241  12.525 -0.4890 -0.1129  2.4901
 7364SOL    HW233555   4.512   3.321  12.469  0.0770  1.4959 -0.0942
 7365SOL     OW33556   3.233   2.396   2.476 -0.2257  0.2157 -0.3469
 7365SOL    HW133557   3.141   2.373   2.489 -0.4196  1.4698  0.5195
 7365SOL    HW233558   3.228   2.487   2.448  0.3835 -0.3677 -2.3427
 7366SOL     OW33559   0.012   0.113   6.782  0.2096  0.0268  0.0953
 7366SOL    HW133560   0.018   0.025   6.745  0.3784  0.3549 -0.6545
 7366SOL    HW233561   0.045   0.169   6.711 -1.4767 -0.2080 -0.8574
 7367SOL     OW33562   4.121   2.381   6.474 -0.0958 -0.2062 -0.3294
 7367SOL    HW133563   4.057   2.331   6.423  1.0662  1.3225 -3.3133
 7367SOL    HW233564   4.064   2.444   6.518 -0.3661 -1.2232  0.7620
 7368SOL     OW33565   2.996   3.132   0.358  0.5059  0.2222 -0.2630
 7368SOL    HW133566   2.903   3.145   0.343  0.2776 -0.6173  0.4279
 7368SOL    HW233567   3.034   3.164   0.276 -0.5044 -0.0428 -0.8246
 7369SOL     OW33568   0.040   2.648  16.023 -0.2306  0.4523 -0.9477
 7369SOL    HW133569   0.123   2.647  15.976  1.2194 -3.2040  1.6540
 7369SOL    HW233570   0.068   2.594  16.097 -0.6769 -0.0704 -1.1569
 7370SOL     OW33571   0.778   1.278   4.236  0.3811 -0.2146 -0.2176
 7370SOL    HW133572   0.799   1.331   4.160 -0.2658  0.7565  0.2742
 7370SOL    HW233573   0.694   1.247   4.201 -0.8201 -1.0937  3.4239
 7371SOL     OW33574   2.115   2.424  12.169 -0.0943  0.8885  0.1858
 7371SOL    HW133575   2.171   2.371  12.225 -0.6871  1.0070  0.8869
 7371SOL    HW233576   2.178   2.457  12.105  0.0897  3.3449  1.6350
 7372SOL     OW33577   0.677   3.273   5.023  0.4553  0.1357  0.5659
 7372SOL    HW133578   0.728   3.264   5.103  0.8546  0.1001  0.3057
 7372SOL    HW233579   0.658   3.367   5.028  0.5109  0.2448 -1.2224
 7373SOL     OW33580   0.996   2.909   5.862  0.4025  0.2041  0.5446
 7373SOL    HW133581   1.040   2.975   5.916 -0.0037 -0.0477  1.1899
 7373SOL    HW233582   1.048   2.905   5.782  1.6786 -0.4376  1.4204
 7374SOL     OW33583   1.469   0.494  17.592 -0.2974 -0.4504 -0.5220
 7374SOL    HW133584   1.486   0.401  17.579 -3.3688 -1.1255  0.2297
 7374SOL    HW233585   1.553   0.536  17.573 -0.5721  0.3270 -0.0278
 7375SOL     OW33586   0.275   3.470  11.909  0.6788 -0.6633  0.3289
 7375SOL    HW133587   0.208   3.406  11.931  1.7961 -1.3968  1.5787
 7375SOL    HW233588   0.263   3.486  11.815  2.3264 -3.0957 -0.3003
 7376SOL     OW33589   1.042   4.600   7.982 -0.1481 -0.2207 -0.1660
 7376SOL    HW133590   1.045   4.523   7.926 -0.7391  0.6763 -1.4543
 7376SOL    HW233591   1.132   4.601   8.014  0.0024 -1.9631 -0.5624
 7377SOL     OW33592   0.238   3.698  17.421  0.5131 -0.2261 -0.2403
 7377SOL    HW133593   0.233   3.729  17.511  0.2470  1.8308 -0.9639
 7377SOL    HW233594   0.192   3.614  17.418 -0.5065  0.3304  0.3262
 7378SOL     OW33595   2.261   2.907   1.384 -0.2273 -0.6223  0.2064
 7378SOL    HW133596   2.239   2.918   1.291  3.9479  1.0892 -0.5710
 7378SOL    HW233597   2.192   2.844   1.405 -0.6204  0.5263  2.3150
 7379SOL     OW33598   0.232   1.994  11.766 -0.6893  0.2760 -0.2346
 7379SOL    HW133599   0.155   1.968  11.715  0.5420  2.8436 -3.3926
 7379SOL    HW233600   0.271   2.052  11.701 -0.2515  3.1024  2.5854
 7380SOL     OW33601   4.654   2.124   7.908  0.3309 -0.0051 -0.9209
 7380SOL    HW133602   4.680   2.190   7.844 -1.1854  1.0958 -0.3945
 7380SOL    HW233603   4.574   2.172   7.928 -0.8578 -1.3669 -2.3374
 7381SOL     OW33604   0.519   2.675  11.386 -0.2851 -0.0069  0.4820
 7381SOL    HW133605   0.596   2.658  11.331 -1.3009 -1.9313 -0.3344
 7381SOL    HW233606   0.528   2.769  11.397 -1.6065  0.2214 -0.4038
 7382SOL     OW33607   0.099   0.937   8.737  0.0513  0.3017  0.3391
 7382SOL    HW133608   0.113   0.845   8.761  1.4544  1.1815  2.8258
 7382SOL    HW233609   0.087   0.974   8.824 -2.7355 -2.4993  1.1327
 7383SOL     OW33610   3.330   3.122   3.834  0.1249 -0.2843 -0.0923
 7383SOL    HW133611   3.273   3.075   3.773 -1.4821 -0.5331  1.5799
 7383SOL    HW233612   3.411   3.134   3.785  0.1465  0.4516  0.1231
 7384SOL     OW33613   3.135   0.746   8.928  0.1794 -0.4453  0.0252
 7384SOL    HW133614   3.181   0.798   8.993 -0.8070  0.4685 -0.0230
 7384SOL    HW233615   3.045   0.758   8.959  0.4976  0.5503  0.5277
 7385SOL     OW33616   1.246   4.461  10.639  0.1238  0.8587 -0.0934
 7385SOL    HW133617   1.252   4.480  10.546 -0.9960 -1.3510 -0.6064
 7385SOL    HW233618   1.335   4.483  10.667 -0.3302 -0.0994  2.1487
 7386SOL     OW33619   0.510   2.401   1.468  0.0454 -0.1129 -0.4449
 7386SOL    HW133620   0.522   2.496   1.472  0.2881 -0.2069  0.9426
 7386SOL    HW233621   0.531   2.372   1.557  0.7687 -1.6093 -1.0979
 7387SOL     OW33622   0.631   3.143  17.638  0.2766 -0.0065  0.6521
 7387SOL    HW133623   0.567   3.082  17.676  0.1066  0.5803  1.3110
 7387SOL    HW233624   0.702   3.145   0.018 -0.5806  0.3066  1.5760
 7388SOL     OW33625   0.097   1.662   5.525  0.3090 -0.2396  0.4062
 7388SOL    HW133626   0.010   1.626   5.505 -0.0239  0.8621 -0.1632
 7388SOL    HW233627   0.152   1.584   5.528 -0.2670 -0.5989  1.4828
 7389SOL     OW33628   2.710   1.056   1.373 -0.0895 -0.1273 -0.0713
 7389SOL    HW133629   2.800   1.065   1.339 -0.3075 -0.9638 -0.9042
 7389SOL    HW233630   2.691   1.142   1.409 -0.9953  0.2768 -1.5109
 7390SOL     OW33631   4.230   0.393  12.395 -0.0593 -0.2960 -0.3963
 7390SOL    HW133632   4.159   0.332  12.412  0.2634 -0.2514  1.0759
 7390SOL    HW233633   4.309   0.346  12.418 -0.0811  0.3696  1.0673
 7391SOL     OW33634   0.805   1.774   4.659 -0.0281 -0.4381  0.1540
 7391SOL    HW133635   0.736   1.754   4.723 -0.2094  0.8340  0.3587
 7391SOL    HW233636   0.807   1.694   4.606  2.9903  0.8335 -1.6465
 7392SOL     OW33637   2.401   1.404  11.469 -0.0299  0.2450  0.1923
 7392SOL    HW133638   2.479   1.412  11.524 -0.3863 -1.2633  0.9487
 7392SOL    HW233639   2.404   1.492  11.432  1.9879 -0.1790 -0.6766
 7393SOL     OW33640   2.791   0.079  14.274 -0.4447 -0.1529  0.1152
 7393SOL    HW133641   2.831   4.716  14.252 -0.8859 -0.5300  0.7596
 7393SOL    HW233642   2.713   0.065  14.221 -0.7208 -2.0664  1.0343
 7394SOL     OW33643   1.842   0.170   8.643  0.7251  0.3008  0.2607
 7394SOL    HW133644   1.848   0.074   8.646  0.8512  0.2791 -0.6199
 7394SOL    HW233645   1.865   0.190   8.552 -1.5121  0.6057 -0.2300
 7395SOL     OW33646   3.583   1.544   9.530 -0.0492 -0.3671 -0.1477
 7395SOL    HW133647   3.498   1.502   9.546  0.6841 -1.5403  0.6817
 7395SOL    HW233648   3.587   1.589   9.615  0.9832  1.7575 -1.3496
 7396SOL     OW33649   3.447   0.348   6.231  0.0656  0.2038 -0.1173
 7396SOL    HW133650   3.432   0.371   6.139 -0.0479 -0.4310 -0.2560
 7396SOL    HW233651   3.355   0.338   6.255 -0.2373  1.0040 -0.9426
 7397SOL     OW33652   4.594   0.041   8.097 -0.3498 -0.0642  0.4618
 7397SOL    HW133653   4.636   4.681   8.125  0.2003  0.5566  1.4657
 7397SOL    HW233654   4.666   0.103   8.105 -1.1867  0.7985  1.4169
 7398SOL     OW33655   4.711   3.544   4.135 -0.1857  0.1202 -0.0515
 7398SOL    HW133656   0.005   3.453   4.163 -1.4221 -0.7982 -2.3931
 7398SOL    HW233657   4.620   3.534   4.108 -0.2971  0.3138  0.2590
 7399SOL     OW33658   2.310   4.177   9.213  0.2478 -0.0529  0.2110
 7399SOL    HW133659   2.374   4.147   9.148  2.4897  1.2783  1.8067
 7399SOL    HW233660   2.256   4.237   9.162 -0.7167 -2.6052 -1.7227
 7400SOL     OW33661   3.750   1.126   5.989  0.0935  0.8190  0.8531
 7400SOL    HW133662   3.823   1.162   6.038  0.8978 -0.9875  0.9748
 7400SOL    HW233663   3.739   1.042   6.034 -1.0396  0.9832  0.8823
 7401SOL     OW33664   0.541   3.782   7.129 -0.6555  0.6719 -0.3382
 7401SOL    HW133665   0.529   3.868   7.089  0.8530  1.2932  0.5183
 7401SOL    HW233666   0.617   3.752   7.079 -1.2472 -0.5635 -0.4888
 7402SOL     OW33667   3.932   0.278   6.779  0.2702  0.1938 -0.2048
 7402SOL    HW133668   3.839   0.266   6.798  0.6146 -0.3334  1.0751
 7402SOL    HW233669   3.970   0.295   6.865 -2.5848  3.2214  0.4613
 7403SOL     OW33670   4.157   0.677   3.589  0.0674 -0.4432  0.3212
 7403SOL    HW133671   4.083   0.622   3.616 -1.8616  1.1991 -1.5803
 7403SOL    HW233672   4.197   0.694   3.674  1.7308  1.5278 -0.8480
 7404SOL     OW33673   1.029   2.076   1.636  0.4425 -0.0875 -0.3576
 7404SOL    HW133674   0.946   2.087   1.590  1.0543  1.0405 -1.1776
 7404SOL    HW233675   1.084   2.041   1.566  0.1646 -2.1302  0.4299
 7405SOL     OW33676   0.218   0.211  16.427  0.2952  0.5610 -0.1613
 7405SOL    HW133677   0.167   0.276  16.379 -0.6797  0.9121  1.3606
 7405SOL    HW233678   0.301   0.211  16.379 -0.9222  0.4659 -2.2715
 7406SOL     OW33679   3.502   2.464   5.619  0.2548  0.2976 -0.1743
 7406SOL    HW133680   3.493   2.415   5.537  0.3394  1.6735 -1.0147
 7406SOL    HW233681   3.563   2.413   5.672  0.0087 -0.1932 -0.3603
 7407SOL     OW33682   1.131   2.101   2.626  0.0225  0.4130 -0.8861
 7407SOL    HW133683   1.130   2.191   2.593  1.3454  0.5873 -0.4365
 7407SOL    HW233684   1.120   2.051   2.545  0.7034  1.7182 -1.7900
 7408SOL     OW33685   2.221   1.145   4.458 -0.8795 -0.0403  0.3308
 7408SOL    HW133686   2.151   1.081   4.447 -1.1884  0.3138  0.2391
 7408SOL    HW233687   2.201   1.197   4.381 -0.0383 -1.6968 -1.0157
 7409SOL     OW33688   2.645   4.122   6.539  0.0649 -0.4143 -0.7177
 7409SOL    HW133689   2.611   4.032   6.535  0.4956 -0.7701  3.3575
 7409SOL    HW233690   2.720   4.121   6.480 -1.3958  1.5071 -2.6142
 7410SOL     OW33691   4.299   3.675   7.893  0.2195 -0.3458  0.1658
 7410SOL    HW133692   4.339   3.743   7.948 -0.4568  1.1055 -1.1321
 7410SOL    HW233693   4.361   3.603   7.897  1.0173  0.3615  0.6440
 7411SOL     OW33694   1.786   4.397   3.631  0.2789 -0.5042 -0.2097
 7411SOL    HW133695   1.870   4.442   3.625 -1.6741  2.9175 -1.9338
 7411SOL    HW233696   1.801   4.313   3.588  1.9482  0.4133 -1.4282
 7412SOL     OW33697   0.219   0.075   5.535 -0.2435  0.3888 -0.6153
 7412SOL    HW133698   0.310   0.087   5.560 -0.3513  1.5095 -0.7681
 7412SOL    HW233699   0.198   4.714   5.581 -0.6953  1.9103  1.8416
 7413SOL     OW33700   1.635   0.573   8.010  0.6941  0.7199 -0.0169
 7413SOL    HW133701   1.729   0.560   7.997  0.5787 -1.1855  1.0304
 7413SOL    HW233702   1.598   0.533   7.932  0.5468  1.1619 -0.1738
 7414SOL     OW33703   0.671   1.511   1.359 -0.2849  0.5054  0.0496
 7414SOL    HW133704   0.765   1.529   1.367 -0.1591 -0.2696  0.2903
 7414SOL    HW233705   0.675   1.416   1.354 -3.8478  0.4365 -1.1253
 7415SOL     OW33706   0.542   3.956   8.489  0.2582  0.7512  0.5656
 7415SOL    HW133707   0.486   3.999   8.425 -1.0283 -0.8474  0.6244
 7415SOL    HW233708   0.629   3.986   8.464 -0.3310  0.6508 -1.5740
 7416SOL     OW33709   0.655   3.351   6.111 -0.0308  0.2815  0.5921
 7416SOL    HW133710   0.738   3.383   6.075 -0.3233  2.2386  1.6823
 7416SOL    HW233711   0.658   3.371   6.204  1.6523  1.6534  0.2397
 7417SOL     OW33712   2.858   1.958   2.359 -0.0909 -0.8117 -0.2090
 7417SOL    HW133713   2.860   1.863   2.369  0.9918 -0.9006 -1.1488
 7417SOL    HW233714   2.904   1.964   2.275 -2.3064 -1.6178 -1.4619
 7418SOL     OW33715   3.080   1.548  10.560 -0.7427 -0.3831 -0.2610
 7418SOL    HW133716   3.156   1.602  10.580 -1.9935  0.4677  2.1567
 7418SOL    HW233717   3.123   1.465  10.579 -0.4455 -0.1797 -0.0462
 7419SOL     OW33718   4.365   3.354   4.508  0.3365  0.7112 -0.3373
 7419SOL    HW133719   4.307   3.343   4.433 -1.3310  0.9339  0.9191
 7419SOL    HW233720   4.450   3.370   4.466  0.6285  1.4157  0.5244
 7420SOL     OW33721   0.264   0.399   8.262  0.5601 -0.0383 -0.7317
 7420SOL    HW133722   0.284   0.464   8.195  1.1923  2.3286  1.7710
 7420SOL    HW233723   0.195   0.427   8.323  1.1281 -1.7193  0.7075
 7421SOL     OW33724   3.174   3.161   1.907 -0.4273  0.6795  0.0910
 7421SOL    HW133725   3.175   3.251   1.939 -3.1857  0.6499  0.2107
 7421SOL    HW233726   3.097   3.151   1.851 -1.5443  3.2045  1.1466
 7422SOL     OW33727   3.574   0.187   7.763 -0.0693  0.3503 -0.0375
 7422SOL    HW133728   3.614   0.149   7.685 -0.8029  0.7316 -0.5967
 7422SOL    HW233729   3.482   0.205   7.743 -0.1731  0.9042  0.9703
 7423SOL     OW33730   4.571   1.498  10.293  0.4989 -0.5732 -0.1788
 7423SOL    HW133731   4.607   1.445  10.223 -1.2118 -1.2810 -0.5207
 7423SOL    HW233732   4.503   1.437  10.324  0.2559 -0.3793 -0.3304
 7424SOL     OW33733   0.144   4.087  13.188  0.2557  0.4096  0.1927
 7424SOL    HW133734   0.067   4.032  13.180  0.7447 -0.0606 -1.1891
 7424SOL    HW233735   0.103   4.159  13.237  2.4386  1.5187  0.3992
 7425SOL     OW33736   1.465   2.472   6.482 -0.0062 -0.2678 -0.5662
 7425SOL    HW133737   1.408   2.411   6.435  0.1508 -0.4551 -0.5114
 7425SOL    HW233738   1.467   2.547   6.423 -0.9058  0.4580  0.3117
 7426SOL     OW33739   3.121   2.788   2.690  0.1628 -0.8477  0.3491
 7426SOL    HW133740   3.054   2.821   2.749 -0.4226 -3.2990  1.0426
 7426SOL    HW233741   3.170   2.740   2.756 -1.7144  0.0433  2.3992
 7427SOL     OW33742   1.563   2.580   1.155 -0.2265  0.8448  0.0591
 7427SOL    HW133743   1.654   2.586   1.126 -0.4144 -0.8634 -0.8552
 7427SOL    HW233744   1.560   2.508   1.217 -0.9015  0.2323 -0.6842
 7428SOL     OW33745   4.093   4.442  15.517 -0.0470 -0.1340 -0.4470
 7428SOL    HW133746   4.182   4.413  15.494 -0.3480 -0.1232 -1.6429
 7428SOL    HW233747   4.057   4.434  15.428  0.5201 -1.3169 -0.5779
 7429SOL     OW33748   4.037   4.509   9.008 -0.0036 -0.2738 -0.2243
 7429SOL    HW133749   4.071   4.599   9.007 -2.4601  0.7015  1.8458
 7429SOL    HW233750   4.034   4.495   9.103  0.5866 -0.1592 -0.1887
 7430SOL     OW33751   0.354   4.357   6.032  0.5761 -0.3153  0.1061
 7430SOL    HW133752   0.356   4.437   6.084 -1.5657 -0.4769  0.4334
 7430SOL    HW233753   0.390   4.293   6.094  0.6330  0.0471  0.4419
 7431SOL     OW33754   0.253   2.463   2.431  0.0059 -0.5024  0.4140
 7431SOL    HW133755   0.260   2.370   2.409 -0.6893 -0.5005  0.2016
 7431SOL    HW233756   0.328   2.483   2.487 -2.0477  2.1710  2.2184
 7432SOL     OW33757   0.927   3.135   4.323 -0.1419 -0.0108 -0.2150
 7432SOL    HW133758   1.001   3.087   4.286  0.4295 -0.2416  1.2270
 7432SOL    HW233759   0.865   3.070   4.357  0.4508 -0.1270  0.6497
 7433SOL     OW33760   2.586   2.124   3.803 -0.5430 -0.2340 -0.3065
 7433SOL    HW133761   2.575   2.200   3.746 -3.6407  0.4755  1.2018
 7433SOL    HW233762   2.554   2.048   3.754 -1.6269 -0.4562  0.7401
 7434SOL     OW33763   1.783   1.306   1.736 -0.5583  0.4145 -0.0447
 7434SOL    HW133764   1.876   1.282   1.728 -0.0229  2.5386 -0.1035
 7434SOL    HW233765   1.797   1.400   1.730  0.2254  0.1762 -2.3300
 7435SOL     OW33766   3.467   1.086   8.381 -0.8220  0.4926  0.1459
 7435SOL    HW133767   3.446   1.104   8.472  1.1300 -0.2342  0.7333
 7435SOL    HW233768   3.506   1.000   8.397  0.3204  0.6973 -1.5331
 7436SOL     OW33769   0.078   0.414  12.040 -0.0349 -0.1764 -0.8650
 7436SOL    HW133770   0.168   0.381  12.043  0.0792  0.3433  1.0555
 7436SOL    HW233771   0.047   0.436  12.127  2.0913 -2.5943  0.4995
 7437SOL     OW33772   2.677   2.611   5.479  0.5003 -0.2437  0.5873
 7437SOL    HW133773   2.723   2.532   5.507  2.2863 -0.7420 -3.8179
 7437SOL    HW233774   2.613   2.605   5.550 -0.5809  0.4687 -0.3142
 7438SOL     OW33775   4.433   0.788   2.781  0.8509  0.2503  0.0830
 7438SOL    HW133776   4.528   0.777   2.788  0.4672 -2.5541  0.6861
 7438SOL    HW233777   4.403   0.704   2.814  2.4303  1.3561  4.3657
 7439SOL     OW33778   4.013   4.060   5.271 -0.6501  0.0005  0.1691
 7439SOL    HW133779   3.977   4.102   5.349  0.7041 -0.4863  1.0805
 7439SOL    HW233780   4.105   4.083   5.288 -0.2619 -1.1505 -0.3302
 7440SOL     OW33781   3.929   1.348  11.651  0.0085 -0.3507 -0.1761
 7440SOL    HW133782   3.946   1.366  11.743 -1.1662  0.4991 -0.1093
 7440SOL    HW233783   4.015   1.323  11.617 -0.6313 -1.5909 -0.8932
 7441SOL     OW33784   2.383   4.509   4.118 -0.3463 -0.5919  0.2161
 7441SOL    HW133785   2.399   4.601   4.095 -0.9365  0.1096  2.6532
 7441SOL    HW233786   2.465   4.493   4.164  0.4370 -2.0526 -1.6632
 7442SOL     OW33787   0.174   2.702   5.931 -0.1756  0.0791 -0.1602
 7442SOL    HW133788   0.079   2.689   5.921 -0.4354  1.3841  0.6258
 7442SOL    HW233789   0.197   2.680   5.841  0.6500  3.1106 -0.6784
 7443SOL     OW33790   3.164   1.601  16.250 -0.3203  0.0247 -0.0386
 7443SOL    HW133791   3.255   1.627  16.263 -0.3161 -0.0128  0.0069
 7443SOL    HW233792   3.144   1.524  16.303  0.4674 -1.3789 -1.7375
 7444SOL     OW33793   1.082   1.748   5.554  0.2018 -0.5723 -0.2422
 7444SOL    HW133794   1.166   1.702   5.557  0.0819 -0.7957 -0.3072
 7444SOL    HW233795   1.031   1.683   5.506  0.4357 -0.2696 -0.8850
 7445SOL     OW33796   3.706   3.495   5.542  0.9836 -0.7574 -0.1480
 7445SOL    HW133797   3.695   3.540   5.626 -0.8728 -2.0347  0.2869
 7445SOL    HW233798   3.774   3.430   5.562  1.0736 -0.1806  1.4350
 7446SOL     OW33799   4.098   3.566   0.595  0.2129 -0.5485 -0.1102
 7446SOL    HW133800   4.092   3.599   0.506 -3.7532  0.1746  0.4201
 7446SOL    HW233801   4.013   3.530   0.619 -0.4028  0.5806 -0.5975
 7447SOL     OW33802   2.157   2.926   6.475 -0.0822  0.4369 -0.1689
 7447SOL    HW133803   2.122   3.014   6.495 -1.1960 -0.2950  1.1629
 7447SOL    HW233804   2.252   2.918   6.477 -0.2081 -1.0552 -0.7071
 7448SOL     OW33805   4.557   2.875   3.767 -0.3137  0.2513 -0.7146
 7448SOL    HW133806   4.550   2.798   3.711  1.8300 -1.1829  1.0333
 7448SOL    HW233807   4.583   2.832   3.849 -0.1408  0.1907 -0.8024
 7449SOL     OW33808   0.493   3.114   1.543 -0.1310  0.4594 -0.3653
 7449SOL    HW133809   0.505   3.057   1.467  0.8351 -0.5048  0.5003
 7449SOL    HW233810   0.402   3.108   1.572 -0.2247 -2.7290 -1.2344
 7450SOL     OW33811   2.604   4.305   4.756 -0.0590  0.6876 -0.1427
 7450SOL    HW133812   2.613   4.266   4.669  1.8182 -1.0304  0.8046
 7450SOL    HW233813   2.594   4.231   4.817 -0.5075  1.8843  1.2159
 7451SOL     OW33814   4.649   1.304  10.706 -0.6874  0.4417 -0.4695
 7451SOL    HW133815   4.719   1.256  10.661 -0.1148 -1.3353  2.3079
 7451SOL    HW233816   4.699   1.380  10.734  0.1226 -0.8423  1.6109
 7452SOL     OW33817   2.282   0.601   9.075  0.0283 -0.1697 -0.6141
 7452SOL    HW133818   2.270   0.641   9.161  0.3763 -0.1517 -0.5742
 7452SOL    HW233819   2.284   0.506   9.090  0.3208 -0.0796 -0.0854
 7453SOL     OW33820   0.768   1.039   6.200  0.2126  0.1732 -0.5359
 7453SOL    HW133821   0.815   1.121   6.212 -1.0650  1.1214 -1.8836
 7453SOL    HW233822   0.687   1.053   6.249  1.4078  2.5215  0.7197
 7454SOL     OW33823   2.463   1.336   9.288 -0.2395 -0.2519 -0.0456
 7454SOL    HW133824   2.553   1.342   9.255  0.5950 -1.7122  1.9444
 7454SOL    HW233825   2.453   1.403   9.356  1.1571 -0.5924  0.4865
 7455SOL     OW33826   2.258   3.463  12.171 -0.7063  0.0932 -0.2751
 7455SOL    HW133827   2.236   3.396  12.235 -1.5578  1.1648  0.5382
 7455SOL    HW233828   2.232   3.537  12.226 -1.4196 -0.0880 -0.3758
 7456SOL     OW33829   0.949   1.666  15.111 -0.2010 -0.2833  0.0955
 7456SOL    HW133830   0.934   1.664  15.205 -0.7485 -1.2504 -0.0183
 7456SOL    HW233831   1.043   1.682  15.112 -0.2926  0.2526  0.2347
 7457SOL     OW33832   4.188   2.332   5.906 -0.6392 -0.0459 -0.0855
 7457SOL    HW133833   4.123   2.299   5.968  0.7037 -1.3461  0.6191
 7457SOL    HW233834   4.135   2.381   5.843 -0.9527 -0.7945 -0.3944
 7458SOL     OW33835   3.809   0.886  11.328  0.5527 -0.9568 -0.0174
 7458SOL    HW133836   3.776   0.928  11.249  2.5260  2.3445  0.9311
 7458SOL    HW233837   3.868   0.826  11.281 -1.4251 -0.7170 -2.7900
 7459SOL     OW33838   3.232   2.095   9.182  0.1216  0.4729  0.4937
 7459SOL    HW133839   3.252   2.019   9.237 -0.3176  1.4012  1.9363
 7459SOL    HW233840   3.184   2.051   9.112 -1.1593  0.8368  1.1426
 7460SOL     OW33841   4.482   4.100  15.477 -0.2911  0.6074 -0.3104
 7460SOL    HW133842   4.513   4.050  15.552 -0.5747  0.2211 -0.4547
 7460SOL    HW233843   4.562   4.130  15.435  0.4256 -0.3697  0.3684
 7461SOL     OW33844   0.427   1.171  16.641 -0.2230  0.0724  0.7288
 7461SOL    HW133845   0.400   1.085  16.607  1.2532  0.4031 -1.2808
 7461SOL    HW233846   0.344   1.203  16.675 -0.4513  1.2604 -0.9131
 7462SOL     OW33847   2.882   2.884  16.384 -0.5553 -0.0997 -0.6828
 7462SOL    HW133848   2.915   2.960  16.432  0.7525 -1.0771 -0.0404
 7462SOL    HW233849   2.787   2.900  16.382 -0.7599 -1.2755 -0.4801
 7463SOL     OW33850   3.704   1.696   4.612 -0.5911 -0.2621 -0.0845
 7463SOL    HW133851   3.650   1.642   4.670  0.2206 -1.6445 -0.6205
 7463SOL    HW233852   3.733   1.629   4.550  0.5629 -1.0375  1.3161
 7464SOL     OW33853   1.913   3.027  16.577 -0.5469 -0.2956  0.0402
 7464SOL    HW133854   1.826   3.043  16.541  0.2821  0.6447 -1.5093
 7464SOL    HW233855   1.932   2.945  16.531  1.9452  1.4069 -1.9521
 7465SOL     OW33856   3.123   1.516   7.636 -0.0709  0.3057  0.5663
 7465SOL    HW133857   3.205   1.479   7.603  0.8877  3.4286 -0.5583
 7465SOL    HW233858   3.142   1.528   7.729  1.8759 -0.6166  0.2938
 7466SOL     OW33859   1.901   1.440   6.094  0.2479  0.2054 -0.3640
 7466SOL    HW133860   1.887   1.492   6.015  0.1925 -0.9401 -1.1007
 7466SOL    HW233861   1.909   1.499   6.170 -1.1471  1.1769 -0.9760
 7467SOL     OW33862   3.477   1.039   8.992 -0.1418 -0.3318 -0.6477
 7467SOL    HW133863   3.563   1.076   8.975  0.2652 -0.8708  0.1997
 7467SOL    HW233864   3.451   1.074   9.077 -1.6912  1.3851 -1.8197
 7468SOL     OW33865   3.208   3.164  16.480  0.2261  0.6109 -0.8770
 7468SOL    HW133866   3.172   3.233  16.425 -0.9694  0.2058 -0.5867
 7468SOL    HW233867   3.249   3.211  16.552  1.0427 -0.3517 -0.7035
 7469SOL     OW33868   0.184   2.258   6.427 -0.2247 -0.6263 -0.6825
 7469SOL    HW133869   0.275   2.239   6.452  0.0796  1.4528 -0.1806
 7469SOL    HW233870   0.167   2.188   6.364 -3.1176 -1.6136  1.2447
 7470SOL     OW33871   2.630   0.050  16.732  0.2299 -0.1590  0.5460
 7470SOL    HW133872   2.719   0.064  16.700 -0.2860  0.9177 -0.4130
 7470SOL    HW233873   2.632   4.712  16.808  0.4728  0.0501  0.7034
 7471SOL     OW33874   1.757   2.832   6.199 -0.1456 -0.1098  0.5576
 7471SOL    HW133875   1.823   2.783   6.248 -0.0815 -1.4767 -0.9155
 7471SOL    HW233876   1.759   2.921   6.233  1.5248 -0.3544  1.0747
 7472SOL     OW33877   1.688   3.821   0.926  0.3985  0.3888 -0.0496
 7472SOL    HW133878   1.750   3.857   0.989 -0.0153 -0.3792  0.7964
 7472SOL    HW233879   1.746   3.763   0.878 -0.4651  0.7839 -1.5790
 7473SOL     OW33880   0.394   4.232  12.544  0.3500  0.5900 -0.2561
 7473SOL    HW133881   0.489   4.239  12.549  0.4892 -1.4552 -0.1451
 7473SOL    HW233882   0.384   4.203  12.453 -1.5470 -2.1318  0.8064
 7474SOL     OW33883   1.083   0.531  12.703 -0.6127  0.5432  0.0134
 7474SOL    HW133884   1.103   0.559  12.793  0.3538 -2.5303  0.7559
 7474SOL    HW233885   1.137   0.452  12.707 -0.8655  0.3832  0.2981
 7475SOL     OW33886   3.381   2.522   6.974  0.2002 -0.1011  0.4486
 7475SOL    HW133887   3.343   2.466   7.043 -1.9037  1.5438  0.6196
 7475SOL    HW233888   3.473   2.505   6.991  0.0660 -0.9974  0.2955
 7476SOL     OW33889   0.798   4.243   4.688  0.1544 -0.2598 -0.1270
 7476SOL    HW133890   0.773   4.225   4.597 -0.6925  1.8952 -0.3107
 7476SOL    HW233891   0.880   4.193   4.682  0.4364  0.3912 -1.6802
 7477SOL     OW33892   3.110   1.809   1.697 -0.5893  0.5010 -0.1818
 7477SOL    HW133893   3.016   1.795   1.682 -0.2534  0.6783 -2.4514
 7477SOL    HW233894   3.121   1.902   1.676  1.4163  0.4217  0.4894
 7478SOL     OW33895   0.664   1.698   1.901  0.2626  0.1366 -0.3884
 7478SOL    HW133896   0.731   1.729   1.962 -1.6599  2.1266  0.6912
 7478SOL    HW233897   0.652   1.768   1.838  0.2467  1.0994  0.6767
 7479SOL     OW33898   0.354   2.550   7.610  0.4856  0.0446 -0.4892
 7479SOL    HW133899   0.330   2.629   7.658  2.4435  2.4262 -3.4371
 7479SOL    HW233900   0.448   2.565   7.617  0.1983  1.8492 -0.4515
 7480SOL     OW33901   0.770   4.161   4.427  0.4694 -0.4286 -0.1191
 7480SOL    HW133902   0.679   4.165   4.397  0.5433  0.7903 -0.1846
 7480SOL    HW233903   0.800   4.108   4.353 -1.1663 -1.2824 -0.1639
 7481SOL     OW33904   3.871   0.454   4.287 -0.9002 -0.2123 -0.8369
 7481SOL    HW133905   3.818   0.375   4.274  0.0671 -0.9000 -0.6012
 7481SOL    HW233906   3.959   0.418   4.284 -1.1251 -0.7753 -0.7052
 7482SOL     OW33907   2.697   3.435   8.652 -0.1780 -0.7934  0.0988
 7482SOL    HW133908   2.629   3.371   8.674  1.5928 -1.7689  2.7028
 7482SOL    HW233909   2.754   3.427   8.729  1.1462  2.2536 -0.5762
 7483SOL     OW33910   1.124   3.584   2.546 -0.0685  0.1092 -0.4043
 7483SOL    HW133911   1.030   3.600   2.555  0.1567  0.1816  1.9105
 7483SOL    HW233912   1.151   3.619   2.631  4.9662 -2.1325 -1.1079
 7484SOL     OW33913   0.595   4.534  14.361 -0.1570  0.4420 -0.1373
 7484SOL    HW133914   0.611   4.578  14.445 -1.6735 -2.0359  1.4521
 7484SOL    HW233915   0.617   4.444  14.382 -0.1355  0.6550  0.7631
 7485SOL     OW33916   1.385   4.636   5.295  0.0061 -0.2070 -0.0364
 7485SOL    HW133917   1.428   4.720   5.277 -0.8307  0.2981  0.3023
 7485SOL    HW233918   1.375   4.602   5.206 -0.0535  1.9625 -0.8712
 7486SOL     OW33919   0.413   2.751  16.790 -0.3410 -0.0853 -0.2854
 7486SOL    HW133920   0.321   2.747  16.816 -0.0267  0.4302  0.8842
 7486SOL    HW233921   0.463   2.714  16.863 -0.4392 -1.1812 -0.7621
 7487SOL     OW33922   4.583   3.067   8.617  0.2472 -0.3551  0.3787
 7487SOL    HW133923   4.509   3.089   8.561  0.2328  1.2464  1.0225
 7487SOL    HW233924   4.648   3.106   8.558 -1.2325 -1.4651 -1.9568
 7488SOL     OW33925   3.439   4.615   0.632 -0.0069 -0.2041 -0.7390
 7488SOL    HW133926   3.414   4.555   0.703  2.5500 -1.4571 -0.9072
 7488SOL    HW233927   3.467   4.692   0.680 -0.9163  0.3350 -1.0803
 7489SOL     OW33928   0.186   2.175  17.436  0.4838  0.1562 -0.0434
 7489SOL    HW133929   0.102   2.156  17.478  1.0803 -1.7665  0.2609
 7489SOL    HW233930   0.162   2.229  17.361  0.3097 -2.1150 -1.6293
 7490SOL     OW33931   2.323   3.936   3.359  0.1891  0.0845 -0.0729
 7490SOL    HW133932   2.280   3.965   3.278 -1.0030 -0.2445  0.4529
 7490SOL    HW233933   2.341   3.846   3.333 -1.9924 -0.7851  1.4282
 7491SOL     OW33934   0.693   1.993   8.045 -0.0574  0.1953 -0.6322
 7491SOL    HW133935   0.687   2.009   8.139  0.4217  4.7493 -1.3781
 7491SOL    HW233936   0.765   1.930   8.046  0.8836  1.2758 -0.4730
 7492SOL     OW33937   0.616   2.380   3.538 -0.0354  0.1123 -0.6465
 7492SOL    HW133938   0.558   2.455   3.554  0.2526  0.5191 -1.4631
 7492SOL    HW233939   0.673   2.388   3.614  1.5477 -0.5883 -1.7498
 7493SOL     OW33940   3.527   2.300   5.274  0.0333 -0.6691  0.5553
 7493SOL    HW133941   3.541   2.254   5.192  1.6250 -0.8916  0.9545
 7493SOL    HW233942   3.594   2.257   5.328 -0.4654 -1.6943  0.3490
 7494SOL     OW33943   3.826   0.805   9.055  0.8424 -0.0368 -0.1172
 7494SOL    HW133944   3.804   0.893   9.084 -1.4841 -1.1570  1.5267
 7494SOL    HW233945   3.915   0.810   9.089  1.0025 -0.6838 -0.4355
 7495SOL     OW33946   2.078   0.028   8.491 -0.4822  0.1113  0.0534
 7495SOL    HW133947   2.082   0.010   8.585  0.3575  0.6012  0.1045
 7495SOL    HW233948   2.141   0.099   8.483  0.6689 -0.9394 -0.1375
 7496SOL     OW33949   1.763   0.886  16.578 -0.3482 -0.0700 -0.5389
 7496SOL    HW133950   1.782   0.871  16.486 -0.5991 -3.1595 -0.0864
 7496SOL    HW233951   1.724   0.801  16.597  1.0104 -0.1987  1.6889
 7497SOL     OW33952   1.661   2.400   2.377  0.2929 -0.2198  0.8263
 7497SOL    HW133953   1.651   2.481   2.325 -0.3768 -2.1906 -2.1341
 7497SOL    HW233954   1.744   2.411   2.423  1.0314  0.8906 -0.7526
 7498SOL     OW33955   2.679   1.136   4.042  0.6791 -0.0288 -0.0426
 7498SOL    HW133956   2.701   1.089   4.123  0.8452  4.1635  2.3644
 7498SOL    HW233957   2.592   1.168   4.064  1.2628  0.8990  0.8960
 7499SOL     OW33958   4.536   0.869   2.131  0.5863 -0.2505 -0.8020
 7499SOL    HW133959   4.559   0.844   2.041  0.1984 -0.4126 -0.8520
 7499SOL    HW233960   4.512   0.783   2.165 -0.9764  0.7678  0.6755
 7500SOL     OW33961   0.468   0.135   6.290 -0.1300 -0.2261  0.1451
 7500SOL    HW133962   0.451   0.143   6.197 -0.9555  1.1088  0.4116
 7500SOL    HW233963   0.506   0.048   6.302  0.5040  0.4963  3.5262
 7501SOL     OW33964   2.192   1.420   8.847  0.4365 -0.0557  0.1502
 7501SOL    HW133965   2.142   1.407   8.766  0.7421 -0.5854  0.0470
 7501SOL    HW233966   2.122   1.452   8.904  0.5499  2.0415 -0.9058
 7502SOL     OW33967   1.755   2.804  15.250 -0.3208  0.1182 -0.5412
 7502SOL    HW133968   1.717   2.876  15.200 -0.6444  0.4130  0.1220
 7502SOL    HW233969   1.704   2.796  15.331 -1.2362 -0.2198 -1.1599
 7503SOL     OW33970   3.329   4.213  15.491  0.1063  0.3424 -0.3322
 7503SOL    HW133971   3.268   4.144  15.520  0.6893  1.0141  2.4602
 7503SOL    HW233972   3.317   4.208  15.396  0.8867  0.5532 -0.4381
 7504SOL     OW33973   1.740   3.771   2.028  0.4106 -0.0899  0.6680
 7504SOL    HW133974   1.822   3.741   1.987  0.6208 -1.4977  2.1178
 7504SOL    HW233975   1.670   3.737   1.972  1.0568  3.1366 -2.0482
 7505SOL     OW33976   0.241   2.407  14.023  0.0985 -0.8179 -0.4069
 7505SOL    HW133977   0.235   2.427  14.116  1.4017 -1.3258 -0.2130
 7505SOL    HW233978   0.148   2.400  14.002 -0.6852  0.5037  2.6688
 7506SOL     OW33979   4.609   0.084   1.974 -0.1002 -0.4682  0.3306
 7506SOL    HW133980   4.604   0.017   1.906  1.8612 -1.0015  0.7022
 7506SOL    HW233981   4.685   0.048   2.020 -0.7595 -1.1459  0.8807
 7507SOL     OW33982   3.686   0.539  17.457  0.5744  0.0458 -0.0172
 7507SOL    HW133983   3.733   0.574  17.533 -2.4060  1.4030  1.2128
 7507SOL    HW233984   3.598   0.528  17.494  0.1256 -0.7670 -1.3516
 7508SOL     OW33985   2.905   3.253   5.622 -0.2292 -0.0741  1.0508
 7508SOL    HW133986   2.915   3.209   5.538 -0.7155  2.5090 -0.3810
 7508SOL    HW233987   2.886   3.183   5.684  0.1755 -2.0209 -1.0561
 7509SOL     OW33988   0.656   0.630   4.142 -0.2897 -0.7089 -0.3798
 7509SOL    HW133989   0.578   0.664   4.099 -0.5953 -0.9817 -0.0440
 7509SOL    HW233990   0.723   0.694   4.118 -1.2876  0.0192 -1.1672
 7510SOL     OW33991   2.761   0.788   9.966  0.3474 -0.1264  0.3496
 7510SOL    HW133992   2.777   0.696   9.986 -0.5653 -0.6580 -1.3336
 7510SOL    HW233993   2.850   0.816   9.990  0.6831 -0.1044 -0.9031
 7511SOL     OW33994   0.176   4.502   7.754 -0.0805 -0.2077  0.0457
 7511SOL    HW133995   0.138   4.414   7.751 -0.7405  0.0359  1.7337
 7511SOL    HW233996   0.124   4.544   7.685  0.3589  0.2464 -0.0068
 7512SOL     OW33997   2.386   1.892   7.118 -0.2199  0.0652 -0.6117
 7512SOL    HW133998   2.472   1.929   7.139 -0.6155  0.8603 -0.3727
 7512SOL    HW233999   2.391   1.876   7.024  0.7491 -2.6720 -0.0816
 7513SOL     OW34000   3.083   3.750  12.824  0.4181 -0.7800 -0.9504
 7513SOL    HW134001   3.133   3.682  12.871 -1.0637 -0.0068  1.7546
 7513SOL    HW234002   3.087   3.717  12.735  1.3345 -1.1433 -0.7753
 7514SOL     OW34003   1.716   3.145   2.449 -0.0246 -0.1272  0.3518
 7514SOL    HW134004   1.680   3.095   2.375  1.5410 -1.6544  0.6191
 7514SOL    HW234005   1.651   3.213   2.464  0.9044  0.9119 -0.2874
 7515SOL     OW34006   2.644   3.165   2.105  0.5664 -0.0519 -1.0498
 7515SOL    HW134007   2.653   3.108   2.182  2.9903  0.6660 -0.8111
 7515SOL    HW234008   2.559   3.205   2.126 -0.5229 -2.5346 -0.6915
 7516SOL     OW34009   4.306   3.713   3.347 -0.4532 -0.0295  0.0270
 7516SOL    HW134010   4.334   3.788   3.399 -1.7501 -0.1899  0.9662
 7516SOL    HW234011   4.362   3.639   3.372  2.4605  2.0031 -0.5968
 7517SOL     OW34012   2.607   3.335   8.203 -0.1533  0.2640  0.5352
 7517SOL    HW134013   2.607   3.240   8.204  1.0883  0.2516 -0.7394
 7517SOL    HW234014   2.532   3.358   8.258 -0.0121  0.7611  0.5253
 7518SOL     OW34015   3.971   4.450   9.327  0.1277  0.3753 -0.4139
 7518SOL    HW134016   4.043   4.419   9.381 -0.7983 -0.0894  0.5474
 7518SOL    HW234017   3.950   4.532   9.371 -0.2702 -0.1794  0.4134
 7519SOL     OW34018   1.707   3.200   6.772  0.3882  0.6144 -0.6603
 7519SOL    HW134019   1.655   3.158   6.840 -1.1789 -0.3594 -2.4724
 7519SOL    HW234020   1.651   3.184   6.696  0.2739 -0.9961 -0.2409
 7520SOL     OW34021   2.598   2.295   5.489  0.1718  0.1156  0.2491
 7520SOL    HW134022   2.623   2.243   5.413 -0.6781 -3.3579  2.3527
 7520SOL    HW234023   2.521   2.345   5.461  0.9698  0.1207 -1.9652
 7521SOL     OW34024   4.720   3.419   2.871 -0.5896 -0.4313  0.1961
 7521SOL    HW134025   4.665   3.496   2.857 -0.3460 -0.0881  1.1145
 7521SOL    HW234026   0.079   3.432   2.821 -0.7479  1.1583  0.3637
 7522SOL     OW34027   1.767   1.986   3.349  0.4160  0.0498  0.1905
 7522SOL    HW134028   1.681   1.971   3.310 -0.1305  0.9396  1.0425
 7522SOL    HW234029   1.819   2.027   3.281  2.9712 -0.6781  1.7176
 7523SOL     OW34030   0.152   3.047   5.741  0.4429  0.0027  0.0299
 7523SOL    HW134031   0.204   3.016   5.666  1.8628  0.5858  0.7746
 7523SOL    HW234032   0.176   2.991   5.815  1.1913  3.5893  2.4444
 7524SOL     OW34033   2.125   2.917   8.642 -0.0380 -0.0183 -0.2329
 7524SOL    HW134034   2.109   2.924   8.737 -0.8380 -0.1136 -0.3560
 7524SOL    HW234035   2.110   2.822   8.636  0.9016 -0.1274 -0.7604
 7525SOL     OW34036   4.448   1.216   4.907 -0.5022 -0.6983  0.4909
 7525SOL    HW134037   4.507   1.288   4.885 -0.4931 -0.7386  0.3807
 7525SOL    HW234038   4.464   1.221   5.001  0.5617  0.0787  0.2632
 7526SOL     OW34039   0.449   1.764  11.730 -0.1253 -0.6556  0.1107
 7526SOL    HW134040   0.385   1.836  11.727 -0.6856 -1.2147 -1.5416
 7526SOL    HW234041   0.511   1.803  11.792 -0.0447  1.1681 -1.0900
 7527SOL     OW34042   4.469   2.884   7.222  0.5409 -0.0870  0.2705
 7527SOL    HW134043   4.488   2.973   7.190  0.1187  0.4908  1.6411
 7527SOL    HW234044   4.383   2.908   7.256  1.3509  1.3898  1.2867
 7528SOL     OW34045   1.685   1.761   8.066  1.3807  0.7701 -0.0792
 7528SOL    HW134046   1.669   1.839   8.119 -0.0838 -1.1330  2.2741
 7528SOL    HW234047   1.624   1.768   7.993  0.1536  0.8571  0.9544
 7529SOL     OW34048   2.422   2.473   2.605  0.4371 -1.0861 -0.1732
 7529SOL    HW134049   2.483   2.540   2.573  1.7090 -2.2740 -0.1816
 7529SOL    HW234050   2.336   2.514   2.591  1.0757 -0.4991 -2.4821
 7530SOL     OW34051   4.711   0.463  12.868  0.9656  0.3119  0.2366
 7530SOL    HW134052   4.700   0.538  12.927  1.7006  0.9274 -0.4158
 7530SOL    HW234053   0.044   0.405  12.923  1.7141  0.1330 -0.6836
 7531SOL     OW34054   1.061   2.376   3.584  0.1831 -0.4026  0.0505
 7531SOL    HW134055   1.087   2.466   3.600 -1.9959  0.3773 -0.8429
 7531SOL    HW234056   1.022   2.360   3.669  2.2019  0.9667  1.2292
 7532SOL     OW34057   4.207   1.303  16.646 -0.3771  0.6563 -0.4272
 7532SOL    HW134058   4.217   1.281  16.738 -1.5202  0.1183 -0.4308
 7532SOL    HW234059   4.120   1.264  16.637 -0.3199  0.2067  1.0607
 7533SOL     OW34060   3.162   2.413   9.051 -0.5190  0.3201  0.2255
 7533SOL    HW134061   3.084   2.466   9.034 -1.7181 -1.3929  0.3945
 7533SOL    HW234062   3.117   2.328   9.056 -2.8958  1.6034  0.8797
 7534SOL     OW34063   4.597   4.291  12.724 -0.0754 -0.2266 -0.6064
 7534SOL    HW134064   4.656   4.357  12.762  0.7385 -1.0707 -0.4166
 7534SOL    HW234065   4.546   4.265  12.801  3.3644 -1.2668  1.3224
 7535SOL     OW34066   2.382   3.203   2.075 -0.0055  0.1801  0.8288
 7535SOL    HW134067   2.331   3.176   2.151  0.3514  0.6831  1.2460
 7535SOL    HW234068   2.352   3.138   2.011 -2.4281  1.7236  0.4132
 7536SOL     OW34069   1.904   3.349   5.522  0.3346  0.8399 -0.2076
 7536SOL    HW134070   1.999   3.359   5.521  0.1442  2.6862  1.2442
 7536SOL    HW234071   1.873   3.438   5.534  0.2363  0.6624  0.8071
 7537SOL     OW34072   1.163   3.762  15.902 -0.1057 -0.1601 -0.3110
 7537SOL    HW134073   1.207   3.788  15.821 -0.1943  2.9873  0.6716
 7537SOL    HW234074   1.091   3.825  15.898  0.6874  0.9568  3.0015
 7538SOL     OW34075   3.044   3.213   7.989  0.2452 -0.1276 -0.5187
 7538SOL    HW134076   3.088   3.134   8.020  2.5201  0.7050 -1.5932
 7538SOL    HW234077   3.067   3.270   8.062  2.4143 -2.9312  0.9914
 7539SOL     OW34078   0.891   0.986   2.330 -0.1429  0.2877  0.2842
 7539SOL    HW134079   0.866   1.065   2.283 -2.4959  0.8745  2.5511
 7539SOL    HW234080   0.861   0.915   2.273  1.9270  0.3477 -0.8755
 7540SOL     OW34081   1.284   4.716   6.377 -0.1377  0.0136  0.3069
 7540SOL    HW134082   1.306   0.078   6.334 -1.5033 -0.4647 -1.2964
 7540SOL    HW234083   1.313   4.660   6.305  0.4270  3.0108 -1.7900
 7541SOL     OW34084   4.647   1.747   2.556 -0.1377  0.1621  0.3848
 7541SOL    HW134085   0.007   1.790   2.583  0.4700 -0.7603  0.0637
 7541SOL    HW234086   4.685   1.662   2.532 -3.2859 -1.6258  1.6762
 7542SOL     OW34087   3.920   1.186   5.743 -0.3255  0.2801  0.4155
 7542SOL    HW134088   3.929   1.102   5.698  0.8240 -0.0030  1.1975
 7542SOL    HW234089   3.893   1.144   5.824 -1.5940 -0.4840 -0.4012
 7543SOL     OW34090   2.306   1.747  17.419 -1.0246 -0.1211 -0.0211
 7543SOL    HW134091   2.313   1.699  17.337  0.0512 -0.8832  0.5186
 7543SOL    HW234092   2.276   1.833  17.388 -0.5596  0.5446  1.3616
 7544SOL     OW34093   2.105   0.428   0.619  0.3006 -0.3063  0.2875
 7544SOL    HW134094   2.030   0.432   0.677 -0.3324  2.4553 -0.7237
 7544SOL    HW234095   2.082   0.477   0.540 -1.6681 -0.3286  0.8702
 7545SOL     OW34096   2.976   3.133  10.904 -0.3952 -0.6058 -0.2194
 7545SOL    HW134097   3.000   3.212  10.953 -0.9421 -0.1784 -0.6498
 7545SOL    HW234098   3.005   3.066  10.966  2.4143  1.9138  1.1964
 7546SOL     OW34099   3.512   1.718  16.836  0.3766 -0.3990 -0.7109
 7546SOL    HW134100   3.440   1.682  16.785 -0.4586  1.0775 -0.5790
 7546SOL    HW234101   3.574   1.750  16.770 -0.0965  0.7856 -0.5752
 7547SOL     OW34102   1.303   4.299   9.236  1.2644  0.1598 -0.5468
 7547SOL    HW134103   1.298   4.205   9.249 -0.7211  0.2641 -0.6560
 7547SOL    HW234104   1.334   4.306   9.146 -1.6597 -1.7750 -1.6616
 7548SOL     OW34105   3.667   0.246   1.614  0.5480  0.5667 -0.6223
 7548SOL    HW134106   3.648   0.340   1.622 -3.0958 -0.2295  0.0373
 7548SOL    HW234107   3.753   0.241   1.655  1.1298 -0.9129 -2.0278
 7549SOL     OW34108   2.674   4.708   2.182  0.6560 -0.1343  0.7009
 7549SOL    HW134109   2.732   0.057   2.150 -0.6724  0.9214  0.5658
 7549SOL    HW234110   2.594   0.017   2.137  0.0266  1.2526  2.7666
 7550SOL     OW34111   1.605   1.385   4.956  0.0671 -0.9862  0.0465
 7550SOL    HW134112   1.563   1.343   5.032  2.9895 -0.7661  1.7796
 7550SOL    HW234113   1.686   1.335   4.962  0.3047 -0.6258 -0.2473
 7551SOL     OW34114   1.710   1.156  14.558 -0.1319 -0.1622 -0.0064
 7551SOL    HW134115   1.700   1.248  14.533  0.2689 -0.4612 -1.2615
 7551SOL    HW234116   1.781   1.137  14.497  1.6532  0.6757  1.8600
 7552SOL     OW34117   3.310   1.305   2.967  0.3221  0.1491  0.2763
 7552SOL    HW134118   3.282   1.275   2.881  1.0905 -1.1418  0.4834
 7552SOL    HW234119   3.402   1.281   2.957  0.0872 -0.7327  0.1996
 7553SOL     OW34120   2.708   2.154   1.019 -0.2131  0.1516 -0.4307
 7553SOL    HW134121   2.774   2.222   1.029  0.5256 -0.5777 -0.3208
 7553SOL    HW234122   2.766   2.087   0.984 -0.8861 -1.6012  1.7818
 7554SOL     OW34123   1.603   2.943   4.091  0.2425 -0.4873 -0.1126
 7554SOL    HW134124   1.629   2.871   4.033 -0.1767  0.5829 -1.6248
 7554SOL    HW234125   1.508   2.954   4.079  0.3398 -0.5133 -0.9073
 7555SOL     OW34126   3.325   1.118   4.175  0.6843  0.2273 -0.0820
 7555SOL    HW134127   3.419   1.101   4.162  0.0855 -2.2964 -1.1332
 7555SOL    HW234128   3.296   1.045   4.229  0.0096  1.0149  0.6206
 7556SOL     OW34129   0.665   3.359   6.961  0.0765  0.2790  0.1617
 7556SOL    HW134130   0.638   3.359   7.053  0.7105  0.3648  0.3457
 7556SOL    HW234131   0.667   3.265   6.944  2.5498  0.4415 -0.4394
 7557SOL     OW34132   1.195   2.879   6.164  0.0392  0.1026  0.0507
 7557SOL    HW134133   1.220   2.818   6.233  0.6376  1.5842  1.1436
 7557SOL    HW234134   1.162   2.821   6.095  0.0653  1.1045 -0.8086
 7558SOL     OW34135   2.178   1.647   4.325 -0.2312  0.1258  0.7242
 7558SOL    HW134136   2.184   1.701   4.247  0.2246 -0.9535  0.0150
 7558SOL    HW234137   2.095   1.671   4.365  0.2020  1.4750  0.8530
 7559SOL     OW34138   4.267   3.692  16.163 -0.2215  0.6633 -0.1872
 7559SOL    HW134139   4.274   3.779  16.124  0.6382  1.9101  2.7523
 7559SOL    HW234140   4.208   3.709  16.237  0.6867 -0.2177  0.7262
 7560SOL     OW34141   4.151   0.849   4.743  0.1940  0.1863 -0.0726
 7560SOL    HW134142   4.142   0.785   4.814  0.8540  1.9691  1.6220
 7560SOL    HW234143   4.237   0.824   4.708  0.5009 -0.5533  1.2169
 7561SOL     OW34144   2.141   0.634   8.847 -0.3745 -0.1992  0.1879
 7561SOL    HW134145   2.063   0.684   8.871 -0.8262 -1.7880  2.0509
 7561SOL    HW234146   2.182   0.632   8.934 -0.2098  0.7265  0.1306
 7562SOL     OW34147   3.341   1.696   3.249 -0.0644 -0.8886  0.3073
 7562SOL    HW134148   3.431   1.665   3.261  0.1875 -0.6440 -1.0431
 7562SOL    HW234149   3.338   1.667   3.158 -0.4929 -0.5344  0.2101
 7563SOL     OW34150   4.650   1.662   4.705  0.1806 -0.4546 -0.0302
 7563SOL    HW134151   4.624   1.749   4.737  0.3524 -0.3083 -0.2875
 7563SOL    HW234152   4.602   1.664   4.622 -1.0702 -0.3886  0.6982
 7564SOL     OW34153   1.622   2.580  12.491 -0.2871  0.1652  0.8037
 7564SOL    HW134154   1.565   2.545  12.559  2.6608 -2.3229  2.0475
 7564SOL    HW234155   1.644   2.494  12.456 -1.2308  0.5182 -0.6148
 7565SOL     OW34156   2.262   3.208   8.836  0.6414 -0.1039  0.0237
 7565SOL    HW134157   2.330   3.176   8.777 -0.4142  0.0282 -1.2600
 7565SOL    HW234158   2.312   3.258   8.902 -1.2574 -0.8495  2.0061
 7566SOL     OW34159   3.830   1.076   7.776 -0.4421 -0.3075 -0.2187
 7566SOL    HW134160   3.810   1.040   7.689 -1.6642  1.5944 -0.7357
 7566SOL    HW234161   3.917   1.114   7.768  0.6317 -2.9861 -0.9926
 7567SOL     OW34162   1.972   2.977   2.690 -0.5252 -0.0780  0.6051
 7567SOL    HW134163   1.998   3.067   2.672  1.4860 -0.5367  1.2261
 7567SOL    HW234164   1.888   2.987   2.734  0.4721  0.2974  2.4400
 7568SOL     OW34165   3.052   3.205  13.394  0.0622  0.2085  0.1173
 7568SOL    HW134166   3.074   3.273  13.331 -0.9284  1.5424  1.2155
 7568SOL    HW234167   3.129   3.157  13.426  0.6369  0.5871 -0.6842
 7569SOL     OW34168   3.245   0.014  11.717 -0.1494  0.4798 -0.3144
 7569SOL    HW134169   3.240   0.084  11.782  2.3478  0.0563  0.3108
 7569SOL    HW234170   3.320   0.051  11.670  1.3568 -1.0108  0.9245
 7570SOL     OW34171   3.486   3.787   8.353  0.1698 -0.1685  0.7635
 7570SOL    HW134172   3.425   3.747   8.414  0.3178  0.1731  1.1358
 7570SOL    HW234173   3.524   3.702   8.330  1.1857  0.6569 -0.5957
 7571SOL     OW34174   3.156   4.254   7.306  0.4971 -0.6391 -0.2816
 7571SOL    HW134175   3.171   4.187   7.373 -1.2821 -1.9743 -1.2243
 7571SOL    HW234176   3.171   4.199   7.229 -0.8550  0.1708 -1.1066
 7572SOL     OW34177   1.282   0.302   3.806 -0.5743 -0.1344  0.1249
 7572SOL    HW134178   1.239   0.217   3.793 -0.0790 -0.6063  1.5097
 7572SOL    HW234179   1.349   0.278   3.870 -0.2726  0.7391  0.1303
 7573SOL     OW34180   3.163   1.049   9.270 -0.6167  0.0950 -0.0544
 7573SOL    HW134181   3.145   1.012   9.356  0.6989  1.5603  0.8421
 7573SOL    HW234182   3.229   0.990   9.233  0.1469  0.9749 -0.0865
 7574SOL     OW34183   0.371   3.376   5.361 -0.8050  0.6148 -0.1207
 7574SOL    HW134184   0.287   3.337   5.386 -0.0750  0.0928  1.5185
 7574SOL    HW234185   0.395   3.317   5.289  1.4722  1.6256 -0.2140
 7575SOL     OW34186   3.998   2.529  14.595  0.5075 -0.5419 -0.4546
 7575SOL    HW134187   3.908   2.537  14.562  0.2678 -0.0207  0.3075
 7575SOL    HW234188   3.998   2.579  14.676  0.4873  2.1904 -2.1490
 7576SOL     OW34189   0.903   1.105   3.983  0.0855  0.4855  0.2728
 7576SOL    HW134190   0.949   1.029   3.946 -1.3447  0.2205 -0.9770
 7576SOL    HW234191   0.971   1.147   4.036  0.9525 -1.4956  0.7360
 7577SOL     OW34192   2.709   3.668  11.562  0.4643 -0.2640  0.0613
 7577SOL    HW134193   2.667   3.635  11.642 -0.1053 -1.2706 -0.6506
 7577SOL    HW234194   2.739   3.753  11.595 -0.2266  0.0047 -0.0052
 7578SOL     OW34195   3.921   4.243  11.901  0.3582 -0.3703 -0.2394
 7578SOL    HW134196   3.862   4.206  11.836  0.0668 -2.3417  1.1264
 7578SOL    HW234197   3.855   4.267  11.966 -0.1946 -3.2289  0.2362
 7579SOL     OW34198   2.126   3.631   6.611  0.0927  0.0345  0.3804
 7579SOL    HW134199   2.146   3.717   6.648 -2.4184  1.4961 -1.6844
 7579SOL    HW234200   2.104   3.644   6.519  2.0380 -1.6584 -0.3302
 7580SOL     OW34201   0.503   1.815   6.584 -0.3184  0.2252  0.5467
 7580SOL    HW134202   0.597   1.803   6.571 -0.5457 -1.2731  0.3226
 7580SOL    HW234203   0.479   1.742   6.642  0.9154 -0.1488  0.5901
 7581SOL     OW34204   2.630   0.439   9.236  0.1883  0.2389 -0.4436
 7581SOL    HW134205   2.566   0.481   9.293 -0.5502  0.3409 -1.3498
 7581SOL    HW234206   2.574   0.365   9.214  1.5875 -0.0582 -3.0441
 7582SOL     OW34207   1.842   1.712  11.738 -0.6456  0.5653  0.0635
 7582SOL    HW134208   1.925   1.666  11.749 -1.4525 -0.6075  1.2139
 7582SOL    HW234209   1.834   1.719  11.643  0.1072 -0.6986 -0.0832
 7583SOL     OW34210   1.868   2.827   3.880  0.2012 -0.1185  0.2092
 7583SOL    HW134211   1.905   2.747   3.843 -0.1390 -0.3762  0.4277
 7583SOL    HW234212   1.798   2.838   3.816  1.1489  0.5761 -0.7182
 7584SOL     OW34213   0.426   3.347   6.536  0.0559  0.2430  0.2268
 7584SOL    HW134214   0.388   3.391   6.613 -0.5035 -0.4288  0.3309
 7584SOL    HW234215   0.468   3.271   6.575 -1.7924 -0.3376  1.1158
 7585SOL     OW34216   1.226   0.994   8.660 -0.1703  0.0047 -0.3929
 7585SOL    HW134217   1.312   0.962   8.634 -1.3538 -2.0005 -1.9141
 7585SOL    HW234218   1.216   0.956   8.748 -0.1381  1.7976  0.3813
 7586SOL     OW34219   1.568   0.312   3.376  0.0596  0.0801 -0.3483
 7586SOL    HW134220   1.492   0.308   3.434  0.5583 -2.6968  0.1061
 7586SOL    HW234221   1.530   0.335   3.291 -0.0217 -0.1454 -0.3745
 7587SOL     OW34222   0.284   4.337   2.782  0.1622 -0.7211 -0.4476
 7587SOL    HW134223   0.302   4.415   2.729 -2.5002 -0.1349 -0.5105
 7587SOL    HW234224   0.351   4.339   2.850 -0.3593  0.5120  0.0372
 7588SOL     OW34225   1.519   0.944   0.068  0.4542 -0.5101 -0.0145
 7588SOL    HW134226   1.512   0.904  17.667  0.0667  0.0429 -0.2355
 7588SOL    HW234227   1.610   0.974   0.066  0.1573  0.4093  0.5571
 7589SOL     OW34228   4.438   2.636  17.574  0.0811  0.1696 -0.5802
 7589SOL    HW134229   4.381   2.560  17.565  0.0664 -0.0364  1.1866
 7589SOL    HW234230   4.476   2.626  17.662  1.9264  1.9475 -1.1568
 7590SOL     OW34231   2.232   1.448  13.581  0.1623  0.1426 -0.2156
 7590SOL    HW134232   2.325   1.449  13.604 -0.4568 -0.7786  2.2731
 7590SOL    HW234233   2.207   1.382  13.646 -3.4508  0.2553 -1.5132
 7591SOL     OW34234   4.169   1.212  16.895  0.0261 -0.0030 -0.0706
 7591SOL    HW134235   4.080   1.185  16.917  0.3396 -1.0650 -0.1117
 7591SOL    HW234236   4.205   1.236  16.980  0.6701 -0.6658 -0.1594
 7592SOL     OW34237   3.291   1.724   4.976 -0.2291  0.0054 -0.1316
 7592SOL    HW134238   3.377   1.705   5.013 -1.0844 -1.3689  1.1478
 7592SOL    HW234239   3.233   1.681   5.039 -1.3485  2.5134  0.5764
 7593SOL     OW34240   3.877   1.972  10.888 -0.5510 -0.3333 -1.2699
 7593SOL    HW134241   3.912   2.061  10.881  0.3669 -0.3918  2.2704
 7593SOL    HW234242   3.897   1.959  10.981  0.3770  1.9281 -1.1592
 7594SOL     OW34243   3.486   2.835   2.748  0.1253 -0.4186  0.5048
 7594SOL    HW134244   3.574   2.867   2.767 -0.1773  0.0320  1.1756
 7594SOL    HW234245   3.435   2.847   2.829  0.6013  1.4528  0.5420
 7595SOL     OW34246   3.308   0.866   9.143  0.2383 -0.2883  0.6699
 7595SOL    HW134247   3.333   0.795   9.202 -0.8302  0.8894  2.5441
 7595SOL    HW234248   3.386   0.875   9.088  0.3834 -0.6106  0.8238
 7596SOL     OW34249   2.351   0.581   4.215 -0.5747 -0.0006  0.1080
 7596SOL    HW134250   2.442   0.569   4.242 -0.2782 -1.0338 -1.3986
 7596SOL    HW234251   2.303   0.531   4.282  0.9088 -2.1310 -0.4394
 7597SOL     OW34252   0.655   0.521  15.573  0.6205 -0.1242  0.4747
 7597SOL    HW134253   0.651   0.586  15.643  0.8521  1.4692 -1.0014
 7597SOL    HW234254   0.734   0.469  15.590  0.9734  0.6616  1.2165
 7598SOL     OW34255   1.037   4.434   2.631 -0.2821 -0.4496  0.2567
 7598SOL    HW134256   1.096   4.359   2.637 -1.8632 -1.8133 -1.4360
 7598SOL    HW234257   1.080   4.500   2.686 -1.0125 -0.6019  1.0168
 7599SOL     OW34258   2.220   3.024   6.914  0.4492  0.0459 -0.0422
 7599SOL    HW134259   2.305   3.011   6.871 -1.9662 -0.1884 -4.7069
 7599SOL    HW234260   2.154   2.989   6.854 -0.0773  0.6838  0.1670
 7600SOL     OW34261   2.819   0.956   8.310  0.6797  0.0695 -0.0269
 7600SOL    HW134262   2.841   0.965   8.403 -1.4826 -2.7197  0.7353
 7600SOL    HW234263   2.825   1.046   8.278 -1.0237  0.1370 -0.1501
 7601SOL     OW34264   3.541   1.460   3.867 -0.4870 -0.6849 -0.4760
 7601SOL    HW134265   3.484   1.397   3.910 -1.3384 -0.4543 -1.2639
 7601SOL    HW234266   3.526   1.450   3.773  0.1117 -0.2240 -0.6227
 7602SOL     OW34267   3.188   4.634   2.422 -0.2652  0.0582 -0.8885
 7602SOL    HW134268   3.252   4.703   2.402  0.3213  0.6475  3.0180
 7602SOL    HW234269   3.147   4.672   2.500 -0.2933 -0.2677 -0.7446
 7603SOL     OW34270   2.641   3.096   7.908  0.3216 -0.0042  0.5300
 7603SOL    HW134271   2.726   3.133   7.886  0.5018 -1.3130 -1.0665
 7603SOL    HW234272   2.637   3.041   7.829  1.8668 -1.1626  1.2527
 7604SOL     OW34273   3.813   0.525  11.364  0.2851  0.0289 -0.0025
 7604SOL    HW134274   3.820   0.535  11.270 -1.4001 -0.5559 -0.1867
 7604SOL    HW234275   3.881   0.587  11.390 -0.5014  1.0559 -0.3602
 7605SOL     OW34276   1.831   4.644  13.890  0.0232  0.6465 -0.3541
 7605SOL    HW134277   1.880   4.639  13.973 -1.0207  0.7244  0.2585
 7605SOL    HW234278   1.862   4.565  13.845 -1.4030 -0.7841  1.1635
 7606SOL     OW34279   2.284   3.638   4.276 -0.4152  0.4535  0.1871
 7606SOL    HW134280   2.296   3.673   4.364  0.1815 -0.8509  0.6326
 7606SOL    HW234281   2.239   3.558   4.301 -1.9885  0.8934 -1.2566
 7607SOL     OW34282   1.296   0.162   4.624 -0.1451  0.5304  0.7004
 7607SOL    HW134283   1.356   0.125   4.559 -0.8801  0.5668  0.0026
 7607SOL    HW234284   1.353   0.233   4.651  0.6114 -0.1078  0.7863
 7608SOL     OW34285   2.760   1.260   7.707 -0.4607  0.3546  0.0843
 7608SOL    HW134286   2.736   1.351   7.726  1.2282  0.9048 -0.4467
 7608SOL    HW234287   2.820   1.243   7.779 -0.4069 -2.1524 -0.5442
 7609SOL     OW34288   2.410   3.773  13.854  0.7878 -0.1137  1.2400
 7609SOL    HW134289   2.495   3.817  13.848  0.8100 -0.2049  0.9087
 7609SOL    HW234290   2.443   3.687  13.880 -0.4081 -0.9640 -0.0285
 7610SOL     OW34291   2.577   4.002   6.116 -0.2166  0.2724 -0.5877
 7610SOL    HW134292   2.660   3.991   6.070  0.2405  2.6850 -0.3118
 7610SOL    HW234293   2.619   4.069   6.170  1.3392  1.2276 -3.0079
 7611SOL     OW34294   2.846   2.243   9.221 -0.0573  0.4447  0.3612
 7611SOL    HW134295   2.918   2.243   9.283 -0.5175  2.2645  0.8659
 7611SOL    HW234296   2.772   2.219   9.278 -0.0994 -0.2371  0.0233
 7612SOL     OW34297   0.768   0.856  15.116  0.1222  0.6470  0.1519
 7612SOL    HW134298   0.854   0.885  15.085  1.0568 -2.5913 -0.2011
 7612SOL    HW234299   0.772   0.869  15.210  1.2515  0.9355  0.0587
 7613SOL     OW34300   3.325   1.006  14.906  0.3376 -0.2421  0.1475
 7613SOL    HW134301   3.344   1.040  14.818 -2.2734 -2.2474 -1.2004
 7613SOL    HW234302   3.272   1.078  14.940 -0.7778 -1.4291  0.9016
 7614SOL     OW34303   1.890   0.897   9.224 -0.0361 -0.0470 -0.1910
 7614SOL    HW134304   1.822   0.963   9.236  1.2781  1.6514 -2.1430
 7614SOL    HW234305   1.972   0.946   9.232 -0.5723  1.2030 -2.4931
 7615SOL     OW34306   3.924   2.072   2.632  0.2947 -0.5874 -0.4749
 7615SOL    HW134307   3.842   2.103   2.593 -0.1169  0.2644  1.0668
 7615SOL    HW234308   3.949   2.008   2.566  1.6407 -1.2366  0.6688
 7616SOL     OW34309   1.619   0.012   3.730  0.0617 -0.2838  0.1321
 7616SOL    HW134310   1.701   0.050   3.763  0.2461 -2.3358  2.0106
 7616SOL    HW234311   1.606   4.657   3.788  0.0229 -0.7099 -0.4323
 7617SOL     OW34312   0.286   4.310   7.092  0.5297 -0.3294  0.5252
 7617SOL    HW134313   0.305   4.255   7.168  0.6269  0.5642  1.1440
 7617SOL    HW234314   0.323   4.396   7.112 -0.7925  0.7022 -1.5431
 7618SOL     OW34315   1.881   0.489   2.301 -0.0961 -0.5637 -0.6027
 7618SOL    HW134316   1.801   0.521   2.342  0.1870 -2.6013  1.5384
 7618SOL    HW234317   1.838   0.437   2.232  0.7388 -1.2969 -0.5658
 7619SOL     OW34318   3.220   4.473  14.768 -0.0281 -0.0285 -0.4469
 7619SOL    HW134319   3.160   4.454  14.840 -0.9751  1.0762 -0.9625
 7619SOL    HW234320   3.174   4.546  14.726 -3.5152 -0.9663  1.7535
 7620SOL     OW34321   2.201   1.124   7.945 -0.1887  0.3879 -0.1249
 7620SOL    HW134322   2.124   1.158   7.991 -0.9230  0.5825 -1.4939
 7620SOL    HW234323   2.156   1.066   7.884 -1.7940  1.5728 -0.0627
 7621SOL     OW34324   2.948   4.238  17.305 -0.2033  0.0271  0.4763
 7621SOL    HW134325   2.933   4.144  17.300 -0.2451  0.1252 -1.1657
 7621SOL    HW234326   2.929   4.251  17.398  1.2238 -2.2546  1.0873
 7622SOL     OW34327   1.746   1.626   4.925  0.3452  0.0988 -0.3387
 7622SOL    HW134328   1.692   1.547   4.927 -0.0276  0.3303 -1.4544
 7622SOL    HW234329   1.799   1.628   5.004 -0.4947  0.7491  0.2106
 7623SOL     OW34330   4.384   3.279   0.008 -0.1774 -0.2536  0.0724
 7623SOL    HW134331   4.411   3.189  17.677  0.0210 -0.0094 -0.9199
 7623SOL    HW234332   4.293   3.267   0.037 -0.6053  1.7616 -0.4372
 7624SOL     OW34333   1.414   1.415   5.821 -0.7240  0.1209  0.6806
 7624SOL    HW134334   1.421   1.320   5.817 -2.3914  0.0715 -0.9710
 7624SOL    HW234335   1.318   1.422   5.824 -0.7019 -0.2841  2.1819
 7625SOL     OW34336   0.826   1.589   8.243 -0.0037 -0.1123 -0.0653
 7625SOL    HW134337   0.899   1.634   8.287  0.9829 -1.3162 -0.4517
 7625SOL    HW234338   0.851   1.500   8.269 -0.4095 -0.2428 -0.1213
 7626SOL     OW34339   1.942   4.434  13.717 -0.0052  0.4881  0.5038
 7626SOL    HW134340   1.968   4.456  13.628  4.4867  3.0424  2.4474
 7626SOL    HW234341   2.019   4.388  13.750  0.3772  0.3830 -0.5441
 7627SOL     OW34342   2.988   2.130   7.020 -0.3025 -0.2209 -0.4593
 7627SOL    HW134343   3.072   2.097   7.052 -1.5824 -0.0797  2.9807
 7627SOL    HW234344   2.947   2.133   7.106  0.8575 -0.8221  0.1099
 7628SOL     OW34345   3.913   2.978   4.048 -0.3371  0.5158  0.1776
 7628SOL    HW134346   3.891   3.032   4.124 -2.5565 -3.0521  2.0686
 7628SOL    HW234347   3.934   3.046   3.984 -0.8851  0.4996 -0.0213
 7629SOL     OW34348   1.808   4.546   2.501  0.0748  0.0692  0.3195
 7629SOL    HW134349   1.831   4.524   2.591  0.3654 -1.3202 -0.0949
 7629SOL    HW234350   1.717   4.562   2.529  0.4738 -0.1539  1.7245
 7630SOL     OW34351   0.360   1.281   9.748 -0.8558  0.0524 -0.1233
 7630SOL    HW134352   0.405   1.365   9.759 -0.0379 -0.4878  0.7480
 7630SOL    HW234353   0.428   1.214   9.760  0.4293  1.3815 -0.0279
 7631SOL     OW34354   1.226   3.210   2.013  0.0435 -0.0916  0.1025
 7631SOL    HW134355   1.268   3.264   2.080 -1.9678  0.9512  0.5059
 7631SOL    HW234356   1.297   3.191   1.951  1.6310 -1.0192  2.1969
 7632SOL     OW34357   0.857   4.712   2.507 -0.5800  0.3620  0.2306
 7632SOL    HW134358   0.899   4.715   2.593 -0.4014 -0.3903  0.1745
 7632SOL    HW234359   0.822   0.080   2.501 -1.3210  0.1309  1.1366
 7633SOL     OW34360   3.600   3.126   4.546  0.0421 -0.0953 -0.1821
 7633SOL    HW134361   3.524   3.183   4.561 -0.4381 -1.1453  1.2892
 7633SOL    HW234362   3.568   3.071   4.474  0.0726 -0.2485 -0.0780
 7634SOL     OW34363   2.141   3.280   4.918  0.7466 -0.4178  0.0537
 7634SOL    HW134364   2.075   3.230   4.967 -0.6166 -0.1490 -1.5190
 7634SOL    HW234365   2.210   3.267   4.984  1.2332 -2.6350 -0.8982
 7635SOL     OW34366   2.737   2.020  17.602 -0.0490 -0.3025  0.0015
 7635SOL    HW134367   2.750   2.056  17.514 -2.9038  1.8733  0.4635
 7635SOL    HW234368   2.802   2.073  17.647 -0.0116  2.3976 -3.2296
 7636SOL     OW34369   4.087   0.954   2.405  0.2087 -0.1859 -0.1712
 7636SOL    HW134370   4.097   0.934   2.499  0.7008  1.3354  0.1036
 7636SOL    HW234371   4.168   1.005   2.401  0.2540 -0.3458 -1.1622
 7637SOL     OW34372   4.713   1.412   5.648  0.0528  0.1431 -0.2248
 7637SOL    HW134373   4.631   1.451   5.677 -2.1801 -2.3974 -3.0440
 7637SOL    HW234374   4.714   1.322   5.680 -0.5297  1.0212  2.2176
 7638SOL     OW34375   4.238   2.437   8.070 -0.4259 -0.2803  0.5488
 7638SOL    HW134376   4.228   2.498   7.997  1.8584  0.5563  0.9382
 7638SOL    HW234377   4.146   2.427   8.094 -0.6268 -1.4380 -0.6818
 7639SOL     OW34378   1.700   4.603   3.245  0.1049 -0.3525 -0.1355
 7639SOL    HW134379   1.643   4.534   3.277 -2.0349  1.2426 -0.4851
 7639SOL    HW234380   1.683   4.671   3.310 -0.3256  0.1063 -0.7208
 7640SOL     OW34381   1.292   3.859   6.770 -0.5802  0.3943  0.8519
 7640SOL    HW134382   1.341   3.892   6.695  0.2194 -0.0905  1.1549
 7640SOL    HW234383   1.312   3.766   6.759 -2.3853  0.0312  0.6363
 7641SOL     OW34384   0.466   2.827   2.672  0.3676 -0.6535 -0.1475
 7641SOL    HW134385   0.537   2.771   2.638  0.0243  0.9775 -3.6017
 7641SOL    HW234386   0.500   2.913   2.648  1.1107 -1.2930 -1.4244
 7642SOL     OW34387   3.797   0.451   3.849 -0.3099  0.2605 -0.3177
 7642SOL    HW134388   3.819   0.358   3.860  0.4697  0.3706 -1.0188
 7642SOL    HW234389   3.704   0.452   3.873 -0.5358 -0.9360 -1.1379
 7643SOL     OW34390   0.410   2.349  11.238  0.2098  0.2033 -0.8938
 7643SOL    HW134391   0.319   2.332  11.213  0.4204  1.0373 -2.2026
 7643SOL    HW234392   0.396   2.358  11.333 -0.4791  0.9313 -1.0655
 7644SOL     OW34393   3.832   1.682   8.434 -0.3327  0.0799  0.2170
 7644SOL    HW134394   3.921   1.712   8.415 -0.0200 -2.0002 -1.5300
 7644SOL    HW234395   3.855   1.592   8.410  1.2633  0.6747 -0.5051
 7645SOL     OW34396   1.066   2.577   2.872 -0.5007  0.0736  0.5338
 7645SOL    HW134397   1.135   2.574   2.938 -2.2961 -2.2107  2.2826
 7645SOL    HW234398   1.021   2.662   2.874 -0.1140  0.2902  0.1052
 7646SOL     OW34399   0.211   1.645   8.954  0.2081  0.2958  0.0712
 7646SOL    HW134400   0.192   1.567   9.005  1.6341 -1.0165 -1.3823
 7646SOL    HW234401   0.306   1.646   8.970  0.2733 -0.2833 -0.2929
 7647SOL     OW34402   2.138   2.370   1.310 -0.4201 -0.6850 -0.1507
 7647SOL    HW134403   2.085   2.372   1.230  1.1672  0.6582 -1.1737
 7647SOL    HW234404   2.188   2.289   1.299  1.6568  0.2415  2.4131
 7648SOL     OW34405   2.482   0.404   2.079 -0.2559 -0.2849  0.0132
 7648SOL    HW134406   2.500   0.461   2.004 -0.6575 -1.9673 -1.3609
 7648SOL    HW234407   2.417   0.348   2.036  0.5024 -1.5026  0.4404
 7649SOL     OW34408   4.545   3.334   3.983 -0.0909 -0.0245  0.2823
 7649SOL    HW134409   4.524   3.422   3.951  2.5452 -0.1565 -1.8218
 7649SOL    HW234410   4.577   3.297   3.901 -1.2716  1.2148 -0.7437
 7650SOL     OW34411   0.672   1.540   5.408  0.1961 -0.0682  0.2612
 7650SOL    HW134412   0.678   1.636   5.403 -0.4886 -0.0204  0.3522
 7650SOL    HW234413   0.602   1.540   5.474  0.7915  2.3077  0.8999
 7651SOL     OW34414   0.087   3.945   6.970 -0.3218  0.3226  1.2320
 7651SOL    HW134415   0.030   3.906   6.905 -1.2171 -1.0335  2.8134
 7651SOL    HW234416   0.032   4.022   6.982 -1.1472  0.0088 -0.6159
 7652SOL     OW34417   2.712   0.734   7.407  0.0411 -0.9367 -0.0590
 7652SOL    HW134418   2.627   0.734   7.363  0.9883 -1.4708 -1.8899
 7652SOL    HW234419   2.709   0.659   7.467  3.2356 -1.1574 -0.1417
 7653SOL     OW34420   3.438   4.312   4.281 -0.8486  0.7949  0.0075
 7653SOL    HW134421   3.487   4.261   4.216 -2.4341 -0.8013  0.0786
 7653SOL    HW234422   3.425   4.394   4.231  0.9186  1.0591 -0.0200
 7654SOL     OW34423   2.529   1.207   7.908 -0.2611  0.0080  0.7307
 7654SOL    HW134424   2.617   1.203   7.870 -2.4484 -3.0653 -3.9837
 7654SOL    HW234425   2.515   1.121   7.947  0.1358  0.0047  0.8669
 7655SOL     OW34426   1.795   4.119   2.940 -0.1888  0.2087 -0.1023
 7655SOL    HW134427   1.705   4.138   2.967  0.5170  0.6711  1.9173
 7655SOL    HW234428   1.831   4.206   2.957  1.2863 -0.5675  0.6991
 7656SOL     OW34429   4.680   3.746  14.785  0.3126 -0.7622 -0.0772
 7656SOL    HW134430   0.048   3.777  14.799 -0.8538  2.6332 -0.0410
 7656SOL    HW234431   4.695   3.663  14.831 -2.4672 -0.7552  0.8373
 7657SOL     OW34432   3.073   2.486   5.127  0.3004 -0.1800 -0.1459
 7657SOL    HW134433   3.127   2.564   5.112  1.2609 -0.9987 -0.9472
 7657SOL    HW234434   3.091   2.425   5.056 -0.5484  0.2685 -0.7411
 7658SOL     OW34435   3.550   2.819   9.537  0.4014  0.1694 -0.3372
 7658SOL    HW134436   3.489   2.818   9.463 -0.1074  0.7689  0.0814
 7658SOL    HW234437   3.504   2.872   9.601  2.1142  2.0496 -0.6486
 7659SOL     OW34438   0.236   2.377   5.587 -0.1398  0.2613  0.0721
 7659SOL    HW134439   0.215   2.461   5.627 -1.5451  0.7717 -1.7296
 7659SOL    HW234440   0.301   2.400   5.520  0.7812 -1.6907  0.2966
 7660SOL     OW34441   3.901   0.139  12.729  0.3468  0.5512  0.2011
 7660SOL    HW134442   3.845   0.143  12.806  1.8352 -0.4048  1.3425
 7660SOL    HW234443   3.869   0.057  12.692  0.5132  0.2523  0.7095
 7661SOL     OW34444   1.252   3.158   2.599 -0.2451  0.3349  0.2063
 7661SOL    HW134445   1.243   3.185   2.690 -1.0294 -0.7458  0.4459
 7661SOL    HW234446   1.215   3.070   2.605 -0.5919  0.4929  0.3781
 7662SOL     OW34447   0.629   0.907   2.216  0.4926 -0.1632  0.2006
 7662SOL    HW134448   0.635   0.974   2.284 -0.6749 -1.9365  2.0438
 7662SOL    HW234449   0.536   0.886   2.211  1.1803 -2.9060 -1.1361
 7663SOL     OW34450   0.582   4.133   6.696 -0.2362 -0.0762  0.3111
 7663SOL    HW134451   0.633   4.214   6.686 -0.3839 -0.3652 -2.8223
 7663SOL    HW234452   0.497   4.174   6.710 -0.4517  0.0610 -1.3618
 7664SOL     OW34453   0.360   2.450   3.043 -0.5691 -0.8368 -0.6785
 7664SOL    HW134454   0.366   2.527   2.986  0.4307 -1.5023 -1.4667
 7664SOL    HW234455   0.432   2.471   3.102 -0.3228  2.3424 -2.1242
 7665SOL     OW34456   3.583   4.271   9.830 -0.2248 -0.1090 -0.1424
 7665SOL    HW134457   3.510   4.241   9.886  0.0125 -2.7795 -1.2363
 7665SOL    HW234458   3.657   4.276   9.890 -0.4314  0.7449  0.0330
 7666SOL     OW34459   3.401   0.463   8.330 -0.7802  0.7478  0.4968
 7666SOL    HW134460   3.315   0.493   8.358 -1.1143  0.8501 -0.6295
 7666SOL    HW234461   3.403   0.377   8.372  0.3833  0.9450  0.8671
 7667SOL     OW34462   4.404   4.085  12.417 -0.2300  0.6917  0.6077
 7667SOL    HW134463   4.351   4.149  12.369  0.7670  1.2750  0.2894
 7667SOL    HW234464   4.343   4.017  12.447  0.3202 -0.2535 -0.4269
 7668SOL     OW34465   3.394   3.504   3.931  0.2097  0.3166 -0.0323
 7668SOL    HW134466   3.376   3.597   3.919 -2.1619  0.0443  1.2986
 7668SOL    HW234467   3.330   3.469   3.869 -1.7034 -0.8768  2.6281
 7669SOL     OW34468   3.528   0.198  15.767  0.1140  0.1431 -0.2283
 7669SOL    HW134469   3.541   0.284  15.726  0.2607 -0.1916 -0.8867
 7669SOL    HW234470   3.437   0.176  15.749  0.0240  1.1350 -0.9955
 7670SOL     OW34471   4.452   1.239   8.443  0.2791 -0.1200  0.8110
 7670SOL    HW134472   4.524   1.301   8.443  1.0146 -0.9825  1.8314
 7670SOL    HW234473   4.487   1.173   8.502 -1.0541 -1.2841  0.3286
 7671SOL     OW34474   1.133   3.621  16.135 -0.0194 -0.0644 -0.6253
 7671SOL    HW134475   1.125   3.683  16.062  0.6574  1.5130  0.6466
 7671SOL    HW234476   1.226   3.623  16.157 -0.4989 -0.8398  1.4788
 7672SOL     OW34477   4.110   0.841   3.946  0.0280 -0.0100 -0.4906
 7672SOL    HW134478   4.138   0.933   3.943 -0.0636  0.0393  0.1738
 7672SOL    HW234479   4.192   0.794   3.929  0.6047  0.9995 -0.4980
 7673SOL     OW34480   1.602   0.023  11.047  0.3202 -0.1257  0.2917
 7673SOL    HW134481   1.652   0.098  11.016  0.5733 -0.2702  0.3501
 7673SOL    HW234482   1.589   0.047  11.138  0.6749 -0.6402  0.4779
 7674SOL     OW34483   0.571   2.176   5.134  0.3717 -0.0254 -0.2445
 7674SOL    HW134484   0.593   2.185   5.041  1.4006 -1.7222 -0.1602
 7674SOL    HW234485   0.516   2.098   5.140  1.4578 -0.8005 -0.3289
 7675SOL     OW34486   0.598   2.997  15.352 -0.6187  0.2905 -0.3134
 7675SOL    HW134487   0.511   3.032  15.337 -0.9872 -0.5347 -0.1388
 7675SOL    HW234488   0.643   3.080  15.341  0.0459 -0.0670 -0.3010
 7676SOL     OW34489   4.581   0.959  17.347  0.0017 -0.0678 -0.1393
 7676SOL    HW134490   4.489   0.944  17.367 -0.2858  0.7721 -0.8989
 7676SOL    HW234491   4.622   1.017  17.411 -1.9441 -3.8615  4.6578
 7677SOL     OW34492   0.049   4.091   2.244  0.6112 -0.7247 -0.7162
 7677SOL    HW134493   0.108   4.016   2.247  0.2182 -1.0170 -0.0505
 7677SOL    HW234494   4.689   4.041   2.227 -0.7814  0.8368  1.2632
 7678SOL     OW34495   0.412   1.837  16.483 -0.5355  0.1198  0.2702
 7678SOL    HW134496   0.485   1.872  16.430 -0.2855 -0.0177  0.5247
 7678SOL    HW234497   0.396   1.901  16.552 -0.3729  0.5536 -0.0915
 7679SOL     OW34498   4.074   0.927   2.688 -0.2396 -0.7243 -0.6179
 7679SOL    HW134499   4.005   0.962   2.745 -0.7282  0.4509 -1.9097
 7679SOL    HW234500   4.147   0.927   2.749  0.2059  0.7266 -1.1670
 7680SOL     OW34501   1.862   3.848   1.737  0.0839  0.6995 -0.0673
 7680SOL    HW134502   1.953   3.822   1.755  0.3033  0.7403 -1.1294
 7680SOL    HW234503   1.812   3.767   1.750 -0.9967  1.5478  1.1288
 7681SOL     OW34504   3.874   4.649   8.241  0.2114 -0.1125  0.3697
 7681SOL    HW134505   3.846   4.568   8.198 -2.5048  0.4766  1.0186
 7681SOL    HW234506   3.860   4.624   8.333  1.0330  1.0546  0.8056
 7682SOL     OW34507   3.843   0.526  12.141  0.6095  0.1214  0.5089
 7682SOL    HW134508   3.854   0.566  12.227  0.6500 -1.0343  1.0383
 7682SOL    HW234509   3.820   0.435  12.159  0.5535  0.4898  2.3402
 7683SOL     OW34510   0.741   1.035   7.133  0.0599 -0.2186 -0.1134
 7683SOL    HW134511   0.732   1.128   7.109  0.4165  0.2739  1.6433
 7683SOL    HW234512   0.749   1.038   7.228  0.2614 -0.3630 -0.1264
 7684SOL     OW34513   4.406   3.314   9.416  0.0389  0.2335  0.4098
 7684SOL    HW134514   4.493   3.298   9.452  0.2370  1.2357  0.3775
 7684SOL    HW234515   4.352   3.325   9.494  1.1778 -1.3191  1.4067
 7685SOL     OW34516   3.209   3.776   3.686  0.4727  0.0260  0.4424
 7685SOL    HW134517   3.194   3.866   3.657 -1.3372 -0.8851 -1.5110
 7685SOL    HW234518   3.202   3.730   3.602 -0.5031 -2.0135  1.6196
 7686SOL     OW34519   0.437   3.317  10.171 -0.0735  0.2449  0.1118
 7686SOL    HW134520   0.475   3.395  10.132 -0.3295  0.9088  1.2034
 7686SOL    HW234521   0.405   3.349  10.255 -0.2280 -2.7346  1.1985
 7687SOL     OW34522   2.257   3.908  16.426  0.2990 -0.0625 -0.3303
 7687SOL    HW134523   2.326   3.845  16.405 -0.0124 -0.2429 -0.8252
 7687SOL    HW234524   2.266   3.973  16.357  0.1123  0.3868  0.0736
 7688SOL     OW34525   0.480   2.318   6.876  0.2632 -0.4072 -0.4245
 7688SOL    HW134526   0.508   2.365   6.798 -0.7685 -1.1022 -1.2175
 7688SOL    HW234527   0.489   2.229   6.844  1.9529 -0.1031 -0.7626
 7689SOL     OW34528   0.921   0.868  11.369 -0.0737  0.3080 -0.4552
 7689SOL    HW134529   0.945   0.829  11.285 -0.7763  0.1183 -0.5648
 7689SOL    HW234530   0.855   0.933  11.348 -4.2515 -3.7666  0.1296
 7690SOL     OW34531   0.099   0.961   2.284  0.4106 -0.0743 -0.5853
 7690SOL    HW134532   0.037   0.938   2.215 -0.9817  1.9584 -0.0019
 7690SOL    HW234533   0.049   0.964   2.365  0.0150  0.7623 -0.8637
 7691SOL     OW34534   2.296   3.854   7.954 -0.2809 -0.6547 -0.4990
 7691SOL    HW134535   2.217   3.838   7.901 -0.2856 -0.7398 -0.4668
 7691SOL    HW234536   2.368   3.806   7.913 -1.0836  0.4329 -3.2539
 7692SOL     OW34537   0.226   3.755   4.668  0.1733 -0.1640 -0.2134
 7692SOL    HW134538   0.302   3.779   4.722 -0.7124 -0.0329  0.9650
 7692SOL    HW234539   0.276   3.726   4.592 -2.3220 -2.5665 -0.9282
 7693SOL     OW34540   4.156   0.480   8.092 -0.2172 -0.1607  0.1089
 7693SOL    HW134541   4.090   0.542   8.122 -1.1272 -0.8598 -0.4473
 7693SOL    HW234542   4.224   0.530   8.046 -0.7817  0.2786 -0.2455
 7694SOL     OW34543   0.939   1.976  14.602 -0.7612  0.2695  0.3531
 7694SOL    HW134544   0.847   2.002  14.595 -0.0660  2.9843  1.5464
 7694SOL    HW234545   0.957   1.951  14.512  1.5819 -1.5346  1.3225
 7695SOL     OW34546   1.576   0.475   4.116 -0.5646 -0.4547 -0.8500
 7695SOL    HW134547   1.592   0.561   4.076 -2.3260  0.0193 -0.5645
 7695SOL    HW234548   1.639   0.416   4.076  0.4042  0.6506 -0.9413
 7696SOL     OW34549   2.115   1.019   6.172 -0.0392  0.6861  0.5351
 7696SOL    HW134550   2.089   1.100   6.214 -0.7553  0.5620  0.3281
 7696SOL    HW234551   2.034   0.977   6.143  1.4299 -1.8221  0.0145
 7697SOL     OW34552   0.371   2.058  17.572  0.3069 -0.1717  0.2939
 7697SOL    HW134553   0.308   2.109  17.521  1.8155  1.2825 -0.1228
 7697SOL    HW234554   0.390   1.977  17.526  1.6268  1.6419 -2.3830
 7698SOL     OW34555   0.451   0.888  15.561  0.6721 -0.4395  0.9664
 7698SOL    HW134556   0.401   0.807  15.567  0.1165 -0.2415 -0.9159
 7698SOL    HW234557   0.380   0.951  15.570 -0.9008 -2.1548  0.5219
 7699SOL     OW34558   3.125   4.048   3.301  0.2637 -0.4769  0.2044
 7699SOL    HW134559   3.183   3.972   3.311  0.3341 -0.7112 -2.0964
 7699SOL    HW234560   3.109   4.054   3.207 -0.3489 -0.9078  0.2794
 7700SOL     OW34561   3.598   0.619   1.332 -0.0225  0.1168  0.8802
 7700SOL    HW134562   3.557   0.573   1.406 -2.1345 -1.5568 -1.3242
 7700SOL    HW234563   3.677   0.652   1.375  0.5027 -2.6876  2.0657
 7701SOL     OW34564   0.016   3.241  11.470  0.1713  0.0795  0.2802
 7701SOL    HW134565   0.014   3.170  11.534 -2.5344 -0.3453 -0.2968
 7701SOL    HW234566   4.657   3.217  11.422  0.6619 -0.7408 -0.1142
 7702SOL     OW34567   4.452   2.171   8.891 -0.5046  0.5995  0.4395
 7702SOL    HW134568   4.376   2.205   8.938 -1.3635  1.3385 -1.4675
 7702SOL    HW234569   4.466   2.240   8.826 -0.0271 -0.0574 -0.1582
 7703SOL     OW34570   1.809   3.853  12.376  0.2253 -0.0758  0.1295
 7703SOL    HW134571   1.883   3.913  12.392 -0.8152  1.4129 -0.6433
 7703SOL    HW234572   1.738   3.873  12.436  2.2350 -0.8251  2.8029
 7704SOL     OW34573   2.583   2.506  14.877 -0.3716  0.3377  0.2496
 7704SOL    HW134574   2.665   2.512  14.827 -0.1057  0.2580  0.6708
 7704SOL    HW234575   2.613   2.488  14.966 -1.7306  2.5484  1.1473
 7705SOL     OW34576   3.160   0.661   7.078 -0.4305  0.3993 -0.0737
 7705SOL    HW134577   3.183   0.753   7.090 -2.3268  0.8108  0.4527
 7705SOL    HW234578   3.065   0.662   7.093 -0.0839 -0.3808  2.3227
 7706SOL     OW34579   2.831   3.671   8.540  0.3581 -0.1302 -0.3756
 7706SOL    HW134580   2.848   3.641   8.450  0.2382  0.7421 -0.6831
 7706SOL    HW234581   2.774   3.597   8.562 -0.6967  0.1065 -2.2864
 7707SOL     OW34582   0.460   2.986  13.124 -0.0616 -0.1182 -0.4092
 7707SOL    HW134583   0.465   2.893  13.103 -0.8840 -0.0611 -0.8546
 7707SOL    HW234584   0.548   3.000  13.158 -0.5425 -1.6462  1.4625
 7708SOL     OW34585   2.433   0.754   8.501  0.0930  1.0950  0.1584
 7708SOL    HW134586   2.506   0.708   8.543 -0.9673 -0.0499  0.7509
 7708SOL    HW234587   2.464   0.796   8.421  2.2981  0.2350  0.5501
 7709SOL     OW34588   0.313   1.823  15.418 -0.1616 -0.3434 -0.0032
 7709SOL    HW134589   0.282   1.848  15.331 -0.1495 -0.7170 -0.1146
 7709SOL    HW234590   0.377   1.759  15.386  0.9377  0.6948  0.1080
 7710SOL     OW34591   3.403   2.025   8.571  0.1911  0.1922  0.2590
 7710SOL    HW134592   3.380   2.091   8.505  1.4735 -0.0589 -0.4426
 7710SOL    HW234593   3.486   1.996   8.534  0.9954  0.7400  1.6715
 7711SOL     OW34594   2.225   0.256   8.492  0.3044  0.3516 -0.3240
 7711SOL    HW134595   2.292   0.325   8.488 -1.6019  2.3681  2.4077
 7711SOL    HW234596   2.158   0.320   8.467  0.0514 -0.8487 -2.7282
 7712SOL     OW34597   2.696   0.060   5.805  0.5172  0.1665  0.2325
 7712SOL    HW134598   2.627   0.119   5.777  1.6827 -0.2617 -3.4933
 7712SOL    HW234599   2.647   4.713   5.850  1.5009 -1.3865 -1.0330
 7713SOL     OW34600   1.355   3.223   4.136  0.2662 -0.2448 -0.3714
 7713SOL    HW134601   1.274   3.247   4.181  0.7631 -1.6981  1.2867
 7713SOL    HW234602   1.330   3.191   4.050 -0.2470 -1.2038  0.1363
 7714SOL     OW34603   2.821   2.552  16.263 -0.7397 -0.2303  0.1739
 7714SOL    HW134604   2.732   2.583  16.283 -0.1085  1.2978  0.6301
 7714SOL    HW234605   2.814   2.460  16.238 -0.8714  0.2143 -1.4304
 7715SOL     OW34606   0.682   3.052   7.595  0.4491 -0.2517 -0.0503
 7715SOL    HW134607   0.751   3.083   7.654 -0.0827  0.8660 -0.0224
 7715SOL    HW234608   0.653   3.137   7.563  1.1998 -0.6323 -1.7658
 7716SOL     OW34609   3.704   1.803   4.025 -0.1907  0.2134 -0.5087
 7716SOL    HW134610   3.752   1.721   4.016  0.4199  0.5683 -0.4948
 7716SOL    HW234611   3.745   1.856   3.957 -1.0834  0.3651 -0.9373
 7717SOL     OW34612   0.555   3.228  16.784  0.6237 -0.4179  0.4374
 7717SOL    HW134613   0.565   3.187  16.698 -1.4289 -0.3624  0.1661
 7717SOL    HW234614   0.639   3.274  16.790  0.1665  0.4964 -0.0855
 7718SOL     OW34615   0.622   2.454   6.650 -0.1144 -0.0208 -0.5432
 7718SOL    HW134616   0.641   2.542   6.681 -0.5622 -0.0427 -0.2022
 7718SOL    HW234617   0.575   2.460   6.567 -0.3986  0.9685 -0.3016
 7719SOL     OW34618   0.001   1.026  11.535 -0.0494  0.0217 -0.8385
 7719SOL    HW134619   4.647   1.045  11.477 -1.1831  0.7556  0.8643
 7719SOL    HW234620   0.006   0.930  11.531 -2.2504 -0.2048  1.5853
 7720SOL     OW34621   4.155   1.972  14.042  0.1554  0.0799  0.2706
 7720SOL    HW134622   4.123   1.894  13.996 -2.0103  0.2465  1.5178
 7720SOL    HW234623   4.147   1.942  14.132 -1.1267 -0.8122 -0.1365
 7721SOL     OW34624   4.072   0.857   8.321 -0.1039 -0.3473 -0.4953
 7721SOL    HW134625   4.041   0.815   8.241 -0.2568  0.2584 -0.7539
 7721SOL    HW234626   4.113   0.938   8.290  0.5570 -0.3871  0.2581
 7722SOL     OW34627   0.385   0.486   2.287  0.7549 -0.4499 -0.1674
 7722SOL    HW134628   0.345   0.427   2.223 -1.8188  1.4950 -0.3519
 7722SOL    HW234629   0.377   0.453   2.376  0.6712  0.8017  0.2908
 7723SOL     OW34630   4.688   2.960   4.294 -0.6052  0.0782 -0.5671
 7723SOL    HW134631   0.063   2.962   4.293 -0.5846 -1.0838 -0.9519
 7723SOL    HW234632   4.671   2.968   4.388  0.7428  0.5109 -0.3576
 7724SOL     OW34633   1.063   2.988  12.170 -0.5828 -0.2080 -0.0667
 7724SOL    HW134634   1.080   2.917  12.108 -1.9879  0.5391 -1.2913
 7724SOL    HW234635   1.131   3.052  12.148 -0.4095 -0.5235 -0.4628
 7725SOL     OW34636   0.152   4.593  15.184  0.4822 -0.3698  0.9007
 7725SOL    HW134637   0.085   4.652  15.219 -0.2187 -1.5460  1.5071
 7725SOL    HW234638   0.099   4.544  15.121  1.0521 -1.4380  1.2513
 7726SOL     OW34639   4.566   0.336   2.084  0.2628 -0.1314  0.3486
 7726SOL    HW134640   4.521   0.368   2.005  0.4254  0.9733  0.7143
 7726SOL    HW234641   4.577   0.246   2.052 -2.9448 -0.5987  0.5505
 7727SOL     OW34642   1.523   1.611  12.536  0.0210  0.5262 -0.1861
 7727SOL    HW134643   1.520   1.651  12.623  0.5655  0.3840 -0.1041
 7727SOL    HW234644   1.601   1.556  12.543 -0.7473 -0.1222  3.5317
 7728SOL     OW34645   1.685   3.601   4.733 -0.4496 -0.2201  0.6554
 7728SOL    HW134646   1.751   3.555   4.681 -0.5710 -0.1253  0.4239
 7728SOL    HW234647   1.604   3.565   4.698  0.1004  1.8565 -2.6553
 7729SOL     OW34648   0.185   3.218   6.723  0.2454 -0.1818 -0.5767
 7729SOL    HW134649   0.233   3.299   6.742  0.7208 -0.1948 -1.7214
 7729SOL    HW234650   0.107   3.230   6.778  0.3193 -0.6209 -0.3822
 7730SOL     OW34651   2.814   0.320  13.995  0.6173 -0.2342  0.0992
 7730SOL    HW134652   2.823   0.415  13.987 -1.6032  0.0029  0.4966
 7730SOL    HW234653   2.748   0.301  14.062  0.0486 -1.3799 -0.7849
 7731SOL     OW34654   3.555   4.520  16.077 -0.1464  0.6657  0.2900
 7731SOL    HW134655   3.582   4.551  15.991  0.0214  2.2957  0.9449
 7731SOL    HW234656   3.558   4.427  16.054  0.1039 -0.0752  3.2945
 7732SOL     OW34657   2.428   3.486  11.369 -0.1506 -0.0379  0.7160
 7732SOL    HW134658   2.353   3.428  11.380  1.1301 -1.5730  1.2087
 7732SOL    HW234659   2.497   3.427  11.398  1.3423  1.9202  1.1793
 7733SOL     OW34660   4.602   0.468   6.906 -0.3700  0.3624 -0.3036
 7733SOL    HW134661   4.618   0.413   6.983  0.6204  2.2322  0.7995
 7733SOL    HW234662   4.588   0.550   6.952 -0.5980  0.3052 -0.2705
 7734SOL     OW34663   4.253   4.370   7.030  0.4263 -0.5247 -0.0262
 7734SOL    HW134664   4.185   4.303   7.042 -1.6900  1.3372 -1.8650
 7734SOL    HW234665   4.284   4.355   6.941  1.8385  1.8838  0.0619
 7735SOL     OW34666   1.953   4.047   5.718  0.5228 -0.5016 -0.0325
 7735SOL    HW134667   1.981   3.982   5.654  0.0846 -2.3366  1.6456
 7735SOL    HW234668   1.865   4.061   5.684  0.6457 -0.3434 -0.2879
 7736SOL     OW34669   2.680   2.645   6.218 -0.0595 -0.2999  0.4934
 7736SOL    HW134670   2.588   2.656   6.194  0.2201 -1.7251 -1.2666
 7736SOL    HW234671   2.667   2.588   6.294 -0.0544  0.2477  0.9011
 7737SOL     OW34672   2.985   0.141   8.748  0.2777  0.0487  0.1121
 7737SOL    HW134673   3.021   0.070   8.801  2.2847  0.8766 -0.1373
 7737SOL    HW234674   2.949   0.107   8.666 -0.1395  1.2737 -0.2198
 7738SOL     OW34675   1.828   0.541  14.950 -0.2831  0.4577 -0.3236
 7738SOL    HW134676   1.869   0.503  14.873 -1.5124 -1.8301  0.1297
 7738SOL    HW234677   1.766   0.471  14.973  2.1625 -1.0875  1.7169
 7739SOL     OW34678   1.814   3.449  11.513 -0.3937  0.4710  0.2224
 7739SOL    HW134679   1.870   3.415  11.583 -1.5485 -2.0480 -0.0876
 7739SOL    HW234680   1.810   3.376  11.452 -0.8693 -0.1004  0.9366
 7740SOL     OW34681   0.720   1.947   6.956 -0.0410  0.1155 -0.1474
 7740SOL    HW134682   0.764   1.932   6.872  1.7811 -0.0607  0.8348
 7740SOL    HW234683   0.784   2.001   7.003 -0.4615  2.3756 -2.1937
 7741SOL     OW34684   1.690   0.144  10.712 -0.3937 -0.5504  0.1933
 7741SOL    HW134685   1.708   0.177  10.800 -2.2856 -1.4401  0.9122
 7741SOL    HW234686   1.774   0.111  10.679 -0.0532  1.5443 -0.9867
 7742SOL     OW34687   3.420   4.329   5.466 -0.2022  0.1213  0.4269
 7742SOL    HW134688   3.402   4.247   5.420 -0.8301 -0.1273  1.1193
 7742SOL    HW234689   3.393   4.309   5.556 -4.2558 -1.2940 -1.1055
 7743SOL     OW34690   1.919   4.627  16.470 -0.3619  0.0130  0.2257
 7743SOL    HW134691   1.881   4.694  16.413  0.5527  0.1926 -0.1747
 7743SOL    HW234692   1.859   4.627  16.544  1.9369 -1.8094  2.1104
 7744SOL     OW34693   1.917   1.421   2.680  0.4572  0.2601  0.0077
 7744SOL    HW134694   1.830   1.436   2.718 -0.2708  0.0730 -1.5566
 7744SOL    HW234695   1.964   1.434   2.762 -1.4280 -0.0091  1.1314
 7745SOL     OW34696   1.760   1.798   2.194 -0.6042 -0.1017 -0.0629
 7745SOL    HW134697   1.776   1.862   2.262  3.0441 -0.3836 -0.6576
 7745SOL    HW234698   1.848   1.760   2.198 -0.8410 -0.8370 -1.5232
 7746SOL     OW34699   3.639   0.633   7.615 -0.1342 -0.1414 -0.1638
 7746SOL    HW134700   3.598   0.693   7.677 -0.3117 -0.1925 -0.2322
 7746SOL    HW234701   3.580   0.558   7.621  0.8148 -0.8254  0.8353
 7747SOL     OW34702   1.381   0.978   6.501 -0.0462  0.2749 -0.2851
 7747SOL    HW134703   1.330   0.981   6.420  1.9494 -0.6571 -1.5863
 7747SOL    HW234704   1.356   0.890   6.527 -0.4649  0.4462 -0.1000
 7748SOL     OW34705   2.964   0.826  15.617 -0.3773 -0.1946  0.2463
 7748SOL    HW134706   2.998   0.890  15.554  2.1662 -1.8166 -0.0215
 7748SOL    HW234707   2.920   0.885  15.678 -1.7782 -1.5840  0.5617
 7749SOL     OW34708   2.158   0.696   8.553  0.2460  0.6747 -0.0116
 7749SOL    HW134709   2.164   0.691   8.649 -0.0930  2.9974  0.1436
 7749SOL    HW234710   2.251   0.715   8.537  1.5869 -1.8309  4.6451
 7750SOL     OW34711   1.497   0.633   6.865 -0.5626  0.5610 -0.7681
 7750SOL    HW134712   1.511   0.727   6.875 -2.3873  0.7607 -0.1700
 7750SOL    HW234713   1.543   0.617   6.782  1.8103 -0.0327  0.6703
 7751SOL     OW34714   3.617   0.555  11.537 -0.3199  0.1944 -0.1431
 7751SOL    HW134715   3.581   0.608  11.466  0.7576 -0.1539 -0.9619
 7751SOL    HW234716   3.696   0.526  11.491  0.6102  1.6190  0.5794
 7752SOL     OW34717   0.247   0.954   9.857 -0.1171  0.2478  0.3545
 7752SOL    HW134718   0.208   1.039   9.834 -2.0255 -0.3278  1.4939
 7752SOL    HW234719   0.322   0.977   9.912  0.2820  0.7255 -0.3766
 7753SOL     OW34720   3.910   2.783  10.026 -0.5521 -0.4686  0.1594
 7753SOL    HW134721   3.993   2.813  10.061 -2.7950  3.8587  1.7088
 7753SOL    HW234722   3.921   2.688  10.035  0.5804 -0.4292 -0.7715
 7754SOL     OW34723   2.500   4.177   9.413  0.3363 -0.1678  0.0804
 7754SOL    HW134724   2.448   4.171   9.333  0.0176 -1.5519  0.3742
 7754SOL    HW234725   2.459   4.243   9.468  3.7090  2.0607 -0.1053
 7755SOL     OW34726   0.015   0.185  10.893  0.1461 -0.3053  0.1443
 7755SOL    HW134727   0.062   0.148  10.967 -2.7157 -2.0935  1.0598
 7755SOL    HW234728   4.689   0.109  10.859  0.2152 -0.8156  1.2150
 7756SOL     OW34729   1.761   2.379   8.078 -0.9263  0.3300 -0.0826
 7756SOL    HW134730   1.790   2.290   8.101 -1.8548 -0.0771 -0.4734
 7756SOL    HW234731   1.744   2.422   8.162 -0.1077  0.1686  0.1663
 7757SOL     OW34732   4.202   4.089   6.323  0.0692  0.2442 -0.4077
 7757SOL    HW134733   4.295   4.067   6.327  0.1715  0.7850  0.1527
 7757SOL    HW234734   4.203   4.166   6.266 -1.9425 -1.8084 -3.2336
 7758SOL     OW34735   2.312   3.988   6.413  0.1224  0.0468 -0.1247
 7758SOL    HW134736   2.306   3.944   6.328 -0.0948 -0.8635  0.3650
 7758SOL    HW234737   2.385   3.934   6.444  0.4441  0.9680  0.7490
 7759SOL     OW34738   2.530   1.672   2.833  0.5083 -0.3880 -0.2353
 7759SOL    HW134739   2.518   1.579   2.812  0.7338 -0.7095  1.0502
 7759SOL    HW234740   2.441   1.707   2.820  0.6477 -0.0751 -0.3465
 7760SOL     OW34741   3.842   3.657   9.130 -0.8768  0.4771  0.1998
 7760SOL    HW134742   3.823   3.694   9.044 -0.7118  1.1971  0.4726
 7760SOL    HW234743   3.867   3.568   9.107  1.9380  0.8531  1.8865
 7761SOL     OW34744   4.578   2.503  11.104  0.0956 -0.4326  0.7235
 7761SOL    HW134745   4.573   2.431  11.167 -2.5366 -0.2209  0.7499
 7761SOL    HW234746   4.545   2.570  11.164 -0.4492  0.5689 -0.6936
 7762SOL     OW34747   4.455   0.299   0.432  0.1799  0.2713  0.3511
 7762SOL    HW134748   4.510   0.272   0.359 -1.3031 -2.4969  0.2317
 7762SOL    HW234749   4.394   0.228   0.413  1.0036 -1.3676  3.6859
 7763SOL     OW34750   0.519   3.555   0.135  0.2364  0.1598  1.1415
 7763SOL    HW134751   0.456   3.506   0.083  1.7113 -2.7098  2.0803
 7763SOL    HW234752   0.503   3.650   0.130  3.8974  0.9149  3.5439
 7764SOL     OW34753   2.392   3.028  15.781  0.0627  0.5143 -0.4397
 7764SOL    HW134754   2.461   3.071  15.730 -0.7641 -1.6295 -3.3718
 7764SOL    HW234755   2.444   2.969  15.836 -1.1317 -0.0705  0.0654
 7765SOL     OW34756   2.828   4.648   0.978 -0.3242  0.1736 -0.0495
 7765SOL    HW134757   2.759   4.713   0.990  1.0322  1.2976  1.7461
 7765SOL    HW234758   2.779   4.580   1.025 -1.4841  1.7791  1.0859
 7766SOL     OW34759   0.017   0.469   6.365  0.6151  0.5113  0.7052
 7766SOL    HW134760   0.068   0.396   6.329  0.7489  0.3377  1.2609
 7766SOL    HW234761   0.059   0.538   6.313  2.9654 -2.2602 -1.0669
 7767SOL     OW34762   2.849   2.965   3.415 -0.7831  0.0872  0.3940
 7767SOL    HW134763   2.875   3.052   3.446 -3.0592  0.9878 -0.2469
 7767SOL    HW234764   2.799   2.989   3.337  1.2650 -1.3848 -1.3695
 7768SOL     OW34765   4.058   3.866  16.098 -0.6901  0.0419 -0.1185
 7768SOL    HW134766   4.017   3.790  16.139  0.2465 -0.3385  0.1206
 7768SOL    HW234767   4.068   3.829  16.010  2.2529 -0.8537  0.5637
 7769SOL     OW34768   1.958   3.475   2.611 -0.6704  0.2033 -0.4312
 7769SOL    HW134769   2.030   3.537   2.619 -0.9208  0.4496 -0.1052
 7769SOL    HW234770   1.903   3.524   2.550  0.9649  0.9849 -1.2843
 7770SOL     OW34771   1.674   0.311   9.074 -0.6807  0.3109 -0.2809
 7770SOL    HW134772   1.631   0.265   9.146  2.5705  0.1958  1.5570
 7770SOL    HW234773   1.727   0.368   9.129  0.8829 -1.5296  0.0946
 7771SOL     OW34774   3.791   2.339   5.724  0.2303 -0.9895 -0.2149
 7771SOL    HW134775   3.879   2.302   5.731 -0.4872 -2.8541 -1.1501
 7771SOL    HW234776   3.825   2.429   5.723 -0.7288 -0.6318 -1.2206
 7772SOL     OW34777   1.932   2.251   4.366  0.2847  0.1896  0.4808
 7772SOL    HW134778   1.858   2.293   4.324  0.2907 -0.4079 -0.1329
 7772SOL    HW234779   1.975   2.327   4.405 -1.7176  0.9665  1.1573
 7773SOL     OW34780   2.363   3.998  15.401 -0.4655 -0.4592  0.1635
 7773SOL    HW134781   2.405   4.007  15.315 -2.0102 -0.0069 -0.5452
 7773SOL    HW234782   2.355   3.902  15.402  0.5548 -0.5602 -0.6786
 7774SOL     OW34783   1.117   1.769   0.364  0.4032  0.4303  0.1086
 7774SOL    HW134784   1.034   1.794   0.406  0.5706  1.1200  0.0315
 7774SOL    HW234785   1.093   1.723   0.284  1.8597 -0.8207  0.4094
 7775SOL     OW34786   3.364   3.152  13.457 -0.0533  0.8184 -0.2966
 7775SOL    HW134787   3.435   3.186  13.512  0.6968  1.1983 -1.5002
 7775SOL    HW234788   3.386   3.178  13.367 -0.4793  1.0573 -0.3310
 7776SOL     OW34789   0.040   2.537   3.581 -0.1478  0.1431  0.6639
 7776SOL    HW134790   0.059   2.526   3.674  0.5709 -2.9512  0.1557
 7776SOL    HW234791   0.076   2.456   3.544  0.9782  1.4106 -1.0596
 7777SOL     OW34792   2.676   0.172   0.355  0.2607  0.0878 -0.3375
 7777SOL    HW134793   2.756   0.149   0.307  0.3265 -1.5441  0.5567
 7777SOL    HW234794   2.674   0.112   0.430  1.1407 -0.2353 -0.5760
 7778SOL     OW34795   3.329   2.105   4.449 -0.0037  0.0449  0.0337
 7778SOL    HW134796   3.282   2.188   4.452  1.9552  1.1990 -0.9129
 7778SOL    HW234797   3.416   2.146   4.452 -0.4043  0.6863  2.8298
 7779SOL     OW34798   4.431   0.974  17.100  0.1788 -0.0028 -0.2560
 7779SOL    HW134799   4.381   1.043  17.144  1.7268  2.2798 -2.0911
 7779SOL    HW234800   4.492   0.956  17.172  1.4605  0.6358 -1.1689
 7780SOL     OW34801   0.439   2.691   1.183  0.1564  0.5470  0.1989
 7780SOL    HW134802   0.374   2.672   1.250 -1.3989  1.3010 -1.0970
 7780SOL    HW234803   0.498   2.757   1.220  1.1511  1.0732 -2.2899
 7781SOL     OW34804   3.138   0.555   5.313  0.6128  0.4486  0.3243
 7781SOL    HW134805   3.168   0.537   5.402  0.4530 -1.0885  0.0571
 7781SOL    HW234806   3.080   0.632   5.313  0.6856  0.5140 -1.7931
 7782SOL     OW34807   2.966   3.423   7.645 -0.0018 -0.0575 -0.4725
 7782SOL    HW134808   2.880   3.424   7.602 -0.4832  0.8779  0.5277
 7782SOL    HW234809   3.002   3.505   7.609  1.2305 -0.6801 -0.6596
 7783SOL     OW34810   2.569   3.463   2.881  0.2463 -0.4842  0.2772
 7783SOL    HW134811   2.624   3.448   2.804  0.7437  1.3409  0.2770
 7783SOL    HW234812   2.494   3.507   2.841  0.0417  0.3018  1.5252
 7784SOL     OW34813   3.742   2.143  15.407  0.6331 -0.8400  0.2361
 7784SOL    HW134814   3.796   2.198  15.465  0.2972  1.1592 -1.3231
 7784SOL    HW234815   3.657   2.170  15.441  0.6180  0.9800 -1.2451
 7785SOL     OW34816   0.201   2.345  17.035  0.0498  0.2591  0.4094
 7785SOL    HW134817   0.199   2.252  17.056  1.1465  0.0181 -0.5862
 7785SOL    HW234818   0.294   2.365  17.048 -0.5332  4.9142 -2.4475
 7786SOL     OW34819   0.404   1.961   5.177  0.1096 -0.5302  0.1440
 7786SOL    HW134820   0.339   1.896   5.203  1.5451 -1.9660  0.0703
 7786SOL    HW234821   0.443   1.988   5.260  0.4140 -2.3158  0.5691
 7787SOL     OW34822   1.397   0.246   4.955  0.3460 -0.4618 -0.8434
 7787SOL    HW134823   1.356   0.169   4.916 -0.6674  0.5777 -1.8627
 7787SOL    HW234824   1.377   0.311   4.886  0.5559 -0.5075 -0.9463
 7788SOL     OW34825   0.096   1.719   0.521  0.5094  0.0888 -0.3950
 7788SOL    HW134826   0.158   1.647   0.528 -0.8869 -1.1489 -0.7214
 7788SOL    HW234827   0.014   1.674   0.542  2.6049 -3.3863  0.3073
 7789SOL     OW34828   1.866   3.340   4.181  0.1099  0.3949 -0.0998
 7789SOL    HW134829   1.806   3.411   4.203 -1.3461 -1.7490  2.6655
 7789SOL    HW234830   1.810   3.267   4.156  0.2999  0.7969 -1.7314
 7790SOL     OW34831   1.911   1.343  17.346 -0.1462 -0.3914  0.2511
 7790SOL    HW134832   1.831   1.292  17.357 -0.6483 -0.0282 -1.7617
 7790SOL    HW234833   1.952   1.327  17.431 -0.5244  2.0435  0.8885
 7791SOL     OW34834   4.192   3.863   0.554 -0.1166  0.2334  0.3702
 7791SOL    HW134835   4.180   3.941   0.500  1.4641 -0.0085 -0.3608
 7791SOL    HW234836   4.250   3.812   0.497  1.1904  0.6468  1.3284
 7792SOL     OW34837   4.413   1.541  12.624 -0.1293 -0.6886  0.0797
 7792SOL    HW134838   4.508   1.555  12.621 -0.1857 -1.1410 -3.8862
 7792SOL    HW234839   4.412   1.446  12.633 -0.9929 -0.4606  2.2382
 7793SOL     OW34840   4.372   0.573   8.251 -0.2640 -0.5016  0.5437
 7793SOL    HW134841   4.341   0.573   8.161  0.6912  0.5904  0.2068
 7793SOL    HW234842   4.405   0.484   8.250 -2.6508 -1.3679  0.5650
 7794SOL     OW34843   4.279   3.319  16.980  0.0279 -0.9673 -0.4959
 7794SOL    HW134844   4.327   3.263  16.918  0.5273 -1.6860  0.5358
 7794SOL    HW234845   4.272   3.396  16.925  2.2690 -1.4027 -1.4022
 7795SOL     OW34846   2.109   1.583   3.929  0.1241 -0.2998 -0.2080
 7795SOL    HW134847   2.183   1.572   3.989  0.4910  2.9984 -0.0804
 7795SOL    HW234848   2.088   1.668   3.968  1.6379  0.9583 -2.1315
 7796SOL     OW34849   3.656   0.147   8.464 -0.2986 -0.5383  0.4203
 7796SOL    HW134850   3.717   0.106   8.525  2.8481  0.9488 -1.7161
 7796SOL    HW234851   3.712   0.221   8.442  0.4477 -1.6763 -1.4839
 7797SOL     OW34852   4.377   4.212   1.083 -0.8610  0.4985  0.0970
 7797SOL    HW134853   4.412   4.124   1.071  0.1993  0.8120  0.8196
 7797SOL    HW234854   4.285   4.189   1.094 -1.2540 -0.2033 -4.5367
 7798SOL     OW34855   0.407   0.540   3.595 -0.4044  0.2233  0.5330
 7798SOL    HW134856   0.395   0.615   3.537  1.3405  0.6769  0.7685
 7798SOL    HW234857   0.392   0.473   3.529  0.0733 -0.2916  0.9516
 7799SOL     OW34858   1.011   0.128  13.406 -0.3872 -0.5580  0.1424
 7799SOL    HW134859   1.106   0.120  13.398 -0.3284  0.5762 -0.2823
 7799SOL    HW234860   1.007   0.143  13.501  1.1690  1.3459 -0.1210
 7800SOL     OW34861   0.904   2.933  17.216 -0.8313 -0.0716  0.4814
 7800SOL    HW134862   0.827   2.938  17.272 -2.0439 -0.9802 -1.1222
 7800SOL    HW234863   0.895   3.016  17.168  2.5190 -1.2428 -2.2063
 7801SOL     OW34864   2.333   3.757   4.509  0.4107  0.4934 -0.4319
 7801SOL    HW134865   2.258   3.716   4.553  2.5631 -2.6902  0.2585
 7801SOL    HW234866   2.314   3.848   4.532  1.9584  0.4369  1.0876
 7802SOL     OW34867   4.407   0.802   4.223 -0.0589 -0.0415 -0.6225
 7802SOL    HW134868   4.316   0.830   4.224 -0.3662 -0.9669 -3.0480
 7802SOL    HW234869   4.399   0.716   4.265 -1.4416  0.8545  0.9286
 7803SOL     OW34870   1.744   2.082   4.651 -0.1136 -0.0939  0.5933
 7803SOL    HW134871   1.804   2.142   4.697  0.8397 -0.1176 -0.6238
 7803SOL    HW234872   1.662   2.106   4.694 -1.0132 -0.1940 -1.0601
 7804SOL     OW34873   2.177   3.992  10.693 -0.4755 -0.9336  0.1223
 7804SOL    HW134874   2.209   4.013  10.606  0.7569 -0.3080  0.7276
 7804SOL    HW234875   2.131   3.913  10.663 -2.6260  0.2231  0.3527
 7805SOL     OW34876   2.611   3.728  13.324 -0.5770 -0.7283  0.0636
 7805SOL    HW134877   2.567   3.734  13.409  0.9261  1.8675  0.6357
 7805SOL    HW234878   2.555   3.795  13.284  0.3159  0.4733  0.8513
 7806SOL     OW34879   2.446   1.710   4.788  0.4602 -0.4765 -0.0831
 7806SOL    HW134880   2.393   1.709   4.708  1.4700 -1.1012 -0.7546
 7806SOL    HW234881   2.452   1.805   4.797  0.0176 -0.0709 -3.7482
 7807SOL     OW34882   0.194   2.643   5.664  0.1616 -0.0300  0.2714
 7807SOL    HW134883   0.278   2.680   5.635  0.2880  0.8270  1.7374
 7807SOL    HW234884   0.132   2.689   5.609 -1.3218 -1.6727  0.5712
 7808SOL     OW34885   3.984   0.137   3.989 -0.4559 -0.1047 -0.0739
 7808SOL    HW134886   3.942   0.103   4.068  1.2374 -0.6392  0.6077
 7808SOL    HW234887   3.919   0.109   3.925 -0.6025  0.3352 -0.1159
 7809SOL     OW34888   1.721   0.347  17.431 -0.0693 -0.0514  0.0123
 7809SOL    HW134889   1.750   0.323  17.343  0.2009  0.4701 -0.0360
 7809SOL    HW234890   1.803   0.342  17.481  1.3146  1.6306 -2.0998
 7810SOL     OW34891   3.641   1.946   9.569  0.6489 -0.6497  0.1354
 7810SOL    HW134892   3.597   1.960   9.485 -0.2198 -0.9781  0.5310
 7810SOL    HW234893   3.735   1.949   9.551  0.6904 -1.9498  0.0951
 7811SOL     OW34894   0.432   4.008   7.759 -0.3797 -0.3687 -0.0832
 7811SOL    HW134895   0.484   3.942   7.804 -0.8616  0.9159  2.4058
 7811SOL    HW234896   0.372   3.942   7.725 -0.0535 -0.3512 -0.6923
 7812SOL     OW34897   2.669   1.749   7.517 -0.1274  0.2195  0.2071
 7812SOL    HW134898   2.654   1.663   7.477 -0.2843  0.0683  0.5983
 7812SOL    HW234899   2.745   1.733   7.574 -0.0722 -1.4497 -0.3297
 7813SOL     OW34900   3.702   0.854   4.251  0.0066 -0.2427  0.0248
 7813SOL    HW134901   3.795   0.875   4.242  0.4976 -3.0366 -1.3077
 7813SOL    HW234902   3.699   0.780   4.190  1.1016  0.4194 -0.8496
 7814SOL     OW34903   0.434   4.457   9.713 -0.9951 -0.1729  0.2978
 7814SOL    HW134904   0.423   4.443   9.619 -0.9005  1.5004  0.0363
 7814SOL    HW234905   0.530   4.463   9.717 -0.8576 -1.9069 -0.3556
 7815SOL     OW34906   0.509   2.805   6.038 -0.5127 -0.3456 -0.0150
 7815SOL    HW134907   0.489   2.714   6.019  1.1866 -0.6672 -0.2568
 7815SOL    HW234908   0.596   2.822   6.002 -0.6442 -1.1417 -0.7120
 7816SOL     OW34909   1.812   4.183   1.369  0.9332 -0.1328  0.0608
 7816SOL    HW134910   1.736   4.239   1.352 -1.8116 -3.8989 -0.2145
 7816SOL    HW234911   1.850   4.220   1.449 -0.1498 -2.1402  1.5045
 7817SOL     OW34912   2.129   0.565   1.830  0.4328 -0.4093 -0.2945
 7817SOL    HW134913   2.171   0.542   1.747  0.7408 -0.7994 -0.0310
 7817SOL    HW234914   2.094   0.651   1.806  0.9456 -0.2336 -0.4234
 7818SOL     OW34915   2.207   4.543  16.586 -0.1394 -0.6578  0.0656
 7818SOL    HW134916   2.198   4.570  16.677 -0.7316  0.7553 -0.4134
 7818SOL    HW234917   2.118   4.554  16.550  0.2041  0.3910 -0.4400
 7819SOL     OW34918   2.447   0.494   6.228  0.0836 -0.0786 -0.3825
 7819SOL    HW134919   2.398   0.497   6.145 -0.9309  1.2095  0.2437
 7819SOL    HW234920   2.431   0.585   6.254 -3.4958 -0.9546  0.4987
 7820SOL     OW34921   3.404   2.068  12.863  0.1373 -0.9082  0.0658
 7820SOL    HW134922   3.414   2.071  12.958 -2.8867 -0.9237  0.3936
 7820SOL    HW234923   3.491   2.037  12.836  0.9078  0.9851  0.3925
 7821SOL     OW34924   0.693   4.649  16.415  0.6664 -0.8160 -0.5501
 7821SOL    HW134925   0.681   4.565  16.371 -0.2872 -0.9075 -0.1179
 7821SOL    HW234926   0.735   4.705  16.350 -1.8038  0.9619 -0.5870
 7822SOL     OW34927   4.461   0.109   4.139 -0.3813 -0.2584 -0.2710
 7822SOL    HW134928   4.555   0.091   4.144 -0.2444 -0.1974 -2.6251
 7822SOL    HW234929   4.448   0.191   4.186  1.7486 -0.1713  0.1417
 7823SOL     OW34930   3.585   2.639   5.844 -0.2320  0.0308  0.0703
 7823SOL    HW134931   3.534   2.705   5.796  0.1442 -0.2938 -0.7736
 7823SOL    HW234932   3.527   2.564   5.833 -0.1064  0.0979 -1.0236
 7824SOL     OW34933   3.267   2.156   5.296 -0.0512  0.0836  0.3725
 7824SOL    HW134934   3.334   2.225   5.302 -2.4924  2.5802 -1.0478
 7824SOL    HW234935   3.324   2.102   5.241 -0.6799 -0.8468  0.6481
 7825SOL     OW34936   1.288   3.998   7.158  0.0721 -0.9438 -0.2160
 7825SOL    HW134937   1.287   3.903   7.146 -0.9971 -0.7270 -1.8506
 7825SOL    HW234938   1.200   4.022   7.129 -0.1942  0.6295  1.8967
 7826SOL     OW34939   1.348   4.002  13.711 -0.1913  0.4853 -0.3702
 7826SOL    HW134940   1.325   4.009  13.803 -2.0167 -2.2856 -0.6345
 7826SOL    HW234941   1.405   3.925  13.708 -0.0091  0.5592  1.3071
 7827SOL     OW34942   2.384   0.175   6.377 -0.2679 -0.2299 -0.2154
 7827SOL    HW134943   2.444   0.108   6.344  1.6870  1.2249  0.3719
 7827SOL    HW234944   2.444   0.249   6.382 -2.0268  1.3606 -3.1574
 7828SOL     OW34945   0.334   1.317   4.503  0.6269 -0.0979 -0.6879
 7828SOL    HW134946   0.302   1.407   4.497  0.5995 -0.2099 -2.2591
 7828SOL    HW234947   0.425   1.325   4.530 -0.2208  0.6023  1.9694
 7829SOL     OW34948   4.059   3.361   8.008 -0.3738  0.0687  0.0923
 7829SOL    HW134949   4.050   3.347   8.102 -1.5967  1.2400  0.1336
 7829SOL    HW234950   4.027   3.450   7.995 -3.7427 -1.0417  0.9730
 7830SOL     OW34951   0.109   2.554   2.908  0.3270 -0.2436 -0.7896
 7830SOL    HW134952   0.138   2.583   2.994  0.0444  0.9730 -1.1018
 7830SOL    HW234953   0.160   2.613   2.852  0.1738  1.6469  1.0950
 7831SOL     OW34954   2.715   3.250   4.917 -0.7370 -0.2875  0.4759
 7831SOL    HW134955   2.742   3.308   4.989 -0.4738 -0.0794  0.2075
 7831SOL    HW234956   2.687   3.168   4.959 -2.0329 -0.5385 -0.8907
 7832SOL     OW34957   1.741   3.678  13.813  0.1542 -0.1265 -0.5160
 7832SOL    HW134958   1.650   3.649  13.817  0.1006  0.9610  5.3227
 7832SOL    HW234959   1.718   3.765  13.782 -2.6588 -1.0601 -1.0385
 7833SOL     OW34960   2.155   0.514   2.284 -0.1087 -0.4537  0.1521
 7833SOL    HW134961   2.077   0.491   2.334  0.6504 -0.0446  1.5193
 7833SOL    HW234962   2.134   0.493   2.193 -0.1306  0.6034 -0.0868
 7834SOL     OW34963   1.043   0.376   8.954  0.5625 -0.4592  0.3116
 7834SOL    HW134964   1.035   0.409   8.865 -0.2360  1.3903  1.0756
 7834SOL    HW234965   1.120   0.320   8.938  1.3695  0.6086  0.5018
 7835SOL     OW34966   1.754   0.460   5.326  0.3674  0.2994  0.0805
 7835SOL    HW134967   1.671   0.499   5.352 -0.1610 -0.5698 -0.2964
 7835SOL    HW234968   1.726   0.414   5.246 -1.2936  1.1918  0.1472
 7836SOL     OW34969   4.324   4.325  15.413 -0.2517  0.0765 -0.4366
 7836SOL    HW134970   4.370   4.260  15.466 -2.0224 -0.9253 -0.1391
 7836SOL    HW234971   4.369   4.307  15.331 -0.6905 -0.4420 -0.5625
 7837SOL     OW34972   0.109   4.185   4.736  0.8447 -0.3424 -0.4155
 7837SOL    HW134973   0.150   4.172   4.822  0.0388  0.9016  0.1609
 7837SOL    HW234974   0.090   4.094   4.710  0.8951 -1.2141  2.5681
 7838SOL     OW34975   2.201   2.451   5.099 -0.0949  0.0135 -0.1112
 7838SOL    HW134976   2.288   2.474   5.134 -0.7624 -0.2623  1.7441
 7838SOL    HW234977   2.176   2.393   5.171  0.0426  1.9768  1.5216
 7839SOL     OW34978   1.214   4.650   2.761  0.6972 -0.3730 -0.4929
 7839SOL    HW134979   1.220   4.648   2.665  0.3447 -0.4678 -0.5103
 7839SOL    HW234980   1.252   0.017   2.771  3.1145 -1.5939  0.9845
 7840SOL     OW34981   3.302   0.708  17.250 -0.0566 -0.5880  0.3626
 7840SOL    HW134982   3.207   0.701  17.240 -0.2580 -1.0989  2.6390
 7840SOL    HW234983   3.308   0.737  17.342 -1.2384  1.2285 -0.1274
 7841SOL     OW34984   4.141   3.150   3.316  0.4963 -0.7434 -0.1082
 7841SOL    HW134985   4.232   3.127   3.333  0.6708 -0.7156 -0.9757
 7841SOL    HW234986   4.088   3.078   3.349  1.2424 -1.7765 -1.1821
 7842SOL     OW34987   4.087   0.450   2.463  0.1113 -0.5037  0.9733
 7842SOL    HW134988   4.047   0.421   2.381  1.4781 -2.3795  0.9782
 7842SOL    HW234989   4.024   0.437   2.534 -0.9828  1.1209  0.3146
 7843SOL     OW34990   2.237   3.702  17.683 -0.1632  0.1330  0.1731
 7843SOL    HW134991   2.161   3.752  17.654 -0.9047  0.6692  3.1348
 7843SOL    HW234992   2.247   3.657  17.598  1.6678  1.9052 -0.5357
 7844SOL     OW34993   2.548   0.423   7.688 -0.5527 -0.3856  1.1830
 7844SOL    HW134994   2.612   0.473   7.739  1.0856  0.9169 -2.1380
 7844SOL    HW234995   2.607   0.351   7.665 -0.3469  0.4730 -0.9401
 7845SOL     OW34996   0.701   0.513  16.476 -0.7906 -0.2110 -0.4445
 7845SOL    HW134997   0.663   0.548  16.396 -0.4116  1.6433  0.1955
 7845SOL    HW234998   0.696   0.421  16.449 -0.8189  0.6823 -3.5330
 7846SOL     OW34999   0.290   3.344   1.289  0.1772  0.3532 -0.1143
 7846SOL    HW135000   0.273   3.418   1.231  0.5713  0.5576  0.0267
 7846SOL    HW235001   0.257   3.376   1.374  1.7443 -2.5708  1.5951
 7847SOL     OW35002   3.972   2.601   2.828 -0.2621 -0.3344 -0.4500
 7847SOL    HW135003   3.983   2.508   2.807 -3.3446 -0.5648 -0.9805
 7847SOL    HW235004   4.062   2.624   2.803 -0.9010  0.4158 -2.0369
 7848SOL     OW35005   0.712   2.778   3.649  0.1770 -0.5805  0.5112
 7848SOL    HW135006   0.765   2.713   3.603  1.4460 -0.0049  1.1546
 7848SOL    HW235007   0.661   2.726   3.711  0.7732  0.2213  1.6928
 7849SOL     OW35008   0.571   2.910   1.334  0.6998  0.0615  0.5897
 7849SOL    HW135009   0.547   2.978   1.271  0.9140  1.8459  2.4578
 7849SOL    HW235010   0.656   2.944   1.361 -0.5416  0.3468  4.0529
 7850SOL     OW35011   1.455   0.922   8.554 -0.2332 -0.1869  0.0929
 7850SOL    HW135012   1.491   0.852   8.500 -1.7741 -2.8228  2.4438
 7850SOL    HW235013   1.505   0.993   8.516 -1.5643 -0.1479 -1.5701
 7851SOL     OW35014   2.032   4.266   6.098 -0.0660 -0.7406  0.6435
 7851SOL    HW135015   2.028   4.174   6.075 -0.5450  0.4049 -3.9202
 7851SOL    HW235016   1.955   4.301   6.052 -0.1142  0.4924  1.6438
 7852SOL     OW35017   4.411   1.163   9.659 -0.5598 -0.6244  0.1051
 7852SOL    HW135018   4.322   1.130   9.664  0.5280 -3.3150  1.9888
 7852SOL    HW235019   4.441   1.130   9.744 -1.9046 -1.5299  0.2237
 7853SOL     OW35020   2.594   4.515   5.335  0.1358  0.5424 -0.2409
 7853SOL    HW135021   2.659   4.450   5.359  1.9810  2.4029 -0.2582
 7853SOL    HW235022   2.614   4.592   5.387  1.1781  1.3666 -1.8803
 7854SOL     OW35023   2.388   2.208  14.963  0.0410  0.2324  0.5704
 7854SOL    HW135024   2.309   2.249  14.997 -1.9362 -0.6914 -2.9177
 7854SOL    HW235025   2.455   2.263  15.005  0.6950 -1.1947  1.3861
 7855SOL     OW35026   0.509   1.531  15.069  0.3583  0.1064 -0.2198
 7855SOL    HW135027   0.595   1.548  15.032  1.0268  0.1875  1.3389
 7855SOL    HW235028   0.471   1.467  15.010  1.7464 -0.0313 -0.9555
 7856SOL     OW35029   0.645   2.647  13.085  0.1798  0.0267  0.4411
 7856SOL    HW135030   0.730   2.686  13.064 -1.2503  3.0283  0.1051
 7856SOL    HW235031   0.668   2.590  13.158 -0.4489 -0.5753  0.1719
 7857SOL     OW35032   4.546   1.715   4.461  0.5567  0.0622 -0.3741
 7857SOL    HW135033   4.473   1.741   4.405  0.3472  0.3048  0.0049
 7857SOL    HW235034   4.620   1.730   4.403  1.5854 -0.8773  0.7048
 7858SOL     OW35035   0.318   2.440  15.673  0.0710  0.2812  0.3241
 7858SOL    HW135036   0.253   2.475  15.734 -0.3419 -0.0438  0.0764
 7858SOL    HW235037   0.354   2.358  15.707 -0.8119  0.0358  0.6724
 7859SOL     OW35038   1.692   0.724  10.368  0.0787 -0.1542  0.2187
 7859SOL    HW135039   1.744   0.748  10.445 -0.1112 -0.8482  0.5667
 7859SOL    HW235040   1.742   0.649  10.334  2.0817  0.6509  1.3907
 7860SOL     OW35041   3.922   0.357   8.754  0.4629 -0.2481  0.3231
 7860SOL    HW135042   3.920   0.435   8.698  0.3426  2.4237  4.0017
 7860SOL    HW235043   3.974   0.391   8.826  1.0632 -1.2515  0.3619
 7861SOL     OW35044   2.645   2.521   1.919  0.8397  0.3621  0.0297
 7861SOL    HW135045   2.666   2.600   1.968  1.0824 -0.1218  0.7083
 7861SOL    HW235046   2.628   2.562   1.834  1.7672  1.4337  0.3614
 7862SOL     OW35047   4.204   2.851   4.507  0.3302  0.9743 -0.2909
 7862SOL    HW135048   4.116   2.887   4.495 -0.5836 -1.2873 -0.2684
 7862SOL    HW235049   4.227   2.825   4.418 -2.3244  1.4049 -1.1059
 7863SOL     OW35050   2.694   3.816   2.870  0.2778 -0.1156 -0.0835
 7863SOL    HW135051   2.739   3.833   2.787  2.4749  3.5409  1.8818
 7863SOL    HW235052   2.744   3.742   2.902 -0.8830 -0.9213 -0.1271
 7864SOL     OW35053   2.689   0.750   6.212  0.2446 -0.0121 -0.2322
 7864SOL    HW135054   2.603   0.713   6.233 -0.0890  1.7997  1.6993
 7864SOL    HW235055   2.713   0.684   6.147 -0.1082  0.0212 -0.3966
 7865SOL     OW35056   4.429   2.815   7.718 -0.3273 -0.6407  0.1710
 7865SOL    HW135057   4.491   2.886   7.701 -1.8176  0.2669 -1.5217
 7865SOL    HW235058   4.460   2.773   7.638 -3.7891 -1.2159 -0.8556
 7866SOL     OW35059   2.612   3.038   5.053  0.3219  0.4084 -0.1229
 7866SOL    HW135060   2.556   2.961   5.042  0.3244  0.1958  1.2848
 7866SOL    HW235061   2.626   3.034   5.148  1.3945  0.6266 -0.2639
 7867SOL     OW35062   4.325   0.908  15.054  0.3111  0.3582  0.7423
 7867SOL    HW135063   4.403   0.919  15.108 -1.0756  0.7684  2.6606
 7867SOL    HW235064   4.267   0.897  15.130  0.6525  1.2498  1.1340
 7868SOL     OW35065   2.621   4.165   4.483  0.2744  1.0147 -0.2482
 7868SOL    HW135066   2.589   4.092   4.538 -0.7973  2.1825  0.6871
 7868SOL    HW235067   2.707   4.135   4.455  0.2820  0.1490  0.6812
 7869SOL     OW35068   0.562   2.587   2.207  0.5362  0.6006 -0.5338
 7869SOL    HW135069   0.483   2.588   2.260 -0.2729  1.9752 -1.7570
 7869SOL    HW235070   0.550   2.674   2.167  1.4657  0.9360 -0.0882
 7870SOL     OW35071   3.629   4.325   5.811 -0.3480 -0.1606  0.6541
 7870SOL    HW135072   3.586   4.347   5.894 -0.4851  0.0309  0.5306
 7870SOL    HW235073   3.620   4.408   5.765  2.0010 -0.2703  0.0124
 7871SOL     OW35074   0.417   1.780   0.458 -0.1648 -0.7906  0.7228
 7871SOL    HW135075   0.377   1.714   0.515  0.7055 -2.4642 -0.5841
 7871SOL    HW235076   0.498   1.731   0.440  0.1087  0.0731 -0.3652
 7872SOL     OW35077   0.491   0.372   3.989 -0.2855  0.2535  0.0518
 7872SOL    HW135078   0.437   0.334   3.919 -0.6019  2.5986 -0.9856
 7872SOL    HW235079   0.551   0.417   3.930  1.0009 -0.9340  0.4668
 7873SOL     OW35080   3.328   0.500   1.700  0.1768  0.2242  0.6928
 7873SOL    HW135081   3.259   0.473   1.761  0.8970  0.1634  1.4845
 7873SOL    HW235082   3.332   0.596   1.706  0.6208  0.2651 -0.2703
 7874SOL     OW35083   2.116   1.451   5.144  0.0280  0.2141  0.0705
 7874SOL    HW135084   2.204   1.471   5.112 -1.6806  0.1256 -4.7258
 7874SOL    HW235085   2.059   1.495   5.082 -0.9057 -1.6701 -0.3956
 7875SOL     OW35086   2.379   4.213   4.336  0.1959 -0.6683  0.1316
 7875SOL    HW135087   2.459   4.200   4.387  0.8322  0.3463 -0.6120
 7875SOL    HW235088   2.380   4.127   4.294  3.7975 -1.3707  1.6424
 7876SOL     OW35089   0.761   4.072   3.945  0.7148  0.0025 -0.7435
 7876SOL    HW135090   0.847   4.092   3.908  0.6613 -0.0946 -0.9190
 7876SOL    HW235091   0.702   4.140   3.912 -0.7362 -1.1312 -0.4569
 7877SOL     OW35092   3.227   1.133  17.570 -0.1190 -0.2439  0.1370
 7877SOL    HW135093   3.270   1.219  17.575  0.2791 -0.4502  0.3068
 7877SOL    HW235094   3.162   1.133  17.640 -0.4091  0.3190 -0.1363
 7878SOL     OW35095   4.655   3.752   3.212 -0.0367  0.1288  0.6683
 7878SOL    HW135096   4.681   3.772   3.302  0.9855 -1.3780  0.7041
 7878SOL    HW235097   4.656   3.839   3.172  2.6128 -0.1323  0.1761
 7879SOL     OW35098   0.966   2.296   5.119  0.0535  0.1307 -0.1132
 7879SOL    HW135099   0.981   2.201   5.113 -2.6429 -0.2341 -0.8348
 7879SOL    HW235100   0.878   2.308   5.083 -0.2799  0.0734  0.6891
 7880SOL     OW35101   0.321   1.694   0.220 -0.1055 -0.4177 -0.0086
 7880SOL    HW135102   0.349   1.733   0.302 -0.4807  0.9163 -0.5186
 7880SOL    HW235103   0.368   1.764   0.175  0.6806 -0.5070  0.6687
 7881SOL     OW35104   1.565   1.955   8.202  0.1375  0.6113  0.1368
 7881SOL    HW135105   1.527   1.918   8.282  2.3134 -2.6503 -0.3632
 7881SOL    HW235106   1.489   1.974   8.147 -1.7121 -0.3674  2.3531
 7882SOL     OW35107   0.513   4.225   7.930 -0.4084 -0.1452 -0.1266
 7882SOL    HW135108   0.474   4.155   7.877  1.8599 -2.4798  1.3046
 7882SOL    HW235109   0.540   4.283   7.859 -0.6786 -2.5918 -2.2775
 7883SOL     OW35110   0.347   1.503   1.161 -0.3033 -0.1525 -0.5913
 7883SOL    HW135111   0.305   1.535   1.241 -0.8250 -0.0653 -0.8973
 7883SOL    HW235112   0.358   1.411   1.187  0.1229  0.4032  1.1691
 7884SOL     OW35113   2.576   0.947   4.764  0.2226  0.6664  0.5715
 7884SOL    HW135114   2.491   0.957   4.807 -0.1779 -1.0721  0.1935
 7884SOL    HW235115   2.558   0.973   4.674 -2.5540 -0.7656  0.7239
 7885SOL     OW35116   4.502   3.546   3.112  0.1648  0.3103  0.1500
 7885SOL    HW135117   4.518   3.564   3.019 -1.2176 -1.0048 -0.3522
 7885SOL    HW235118   4.554   3.620   3.145  0.6214  0.0872 -0.0766
 7886SOL     OW35119   3.599   3.002  13.051 -0.3815 -0.5029  0.1850
 7886SOL    HW135120   3.513   2.966  13.029 -0.1895 -0.6463 -0.3148
 7886SOL    HW235121   3.623   2.957  13.132  0.3215  2.9497  1.8912
 7887SOL     OW35122   0.336   2.768  13.834  0.4871  0.2761 -0.1207
 7887SOL    HW135123   0.258   2.816  13.807 -0.9126 -2.0154 -0.0727
 7887SOL    HW235124   0.382   2.844  13.870 -0.7508  0.8323  0.2820
 7888SOL     OW35125   3.106   2.240  15.220  0.1257 -0.4742  0.2695
 7888SOL    HW135126   3.022   2.286  15.222 -0.2726 -1.0938 -1.7757
 7888SOL    HW235127   3.136   2.262  15.132  0.8885 -0.4847  0.5289
 7889SOL     OW35128   3.531   0.423   3.943  0.0097 -0.3964  0.0386
 7889SOL    HW135129   3.483   0.348   3.976  0.3071 -2.1386 -3.5223
 7889SOL    HW235130   3.463   0.490   3.938 -0.1814 -0.5745  0.2801
 7890SOL     OW35131   2.938   2.447  15.157  0.7538 -0.2041 -0.0335
 7890SOL    HW135132   2.975   2.454  15.069 -1.7242  1.0347 -0.9788
 7890SOL    HW235133   2.846   2.444  15.129  0.3990  1.7727  0.8801
 7891SOL     OW35134   0.970   4.264  14.842  0.1190 -0.3678 -0.1344
 7891SOL    HW135135   0.976   4.174  14.811 -0.4419  0.1010 -1.5825
 7891SOL    HW235136   0.898   4.299  14.790 -0.3284  0.1039  0.8012
 7892SOL     OW35137   3.716   1.352   9.311 -0.9053 -0.1608 -0.1706
 7892SOL    HW135138   3.711   1.397   9.395 -0.5500  1.0893 -0.8215
 7892SOL    HW235139   3.759   1.425   9.267  2.3192 -0.8693  1.8252
 7893SOL     OW35140   4.162   0.298   0.675 -0.5459  0.2606 -0.1541
 7893SOL    HW135141   4.198   0.360   0.611  0.2095 -1.8070 -1.7104
 7893SOL    HW235142   4.100   0.263   0.612 -0.1102  1.4602 -1.2453
 7894SOL     OW35143   2.669   1.768   0.588  0.0212  0.3613 -0.3082
 7894SOL    HW135144   2.716   1.703   0.639  0.3243  3.2473  3.1126
 7894SOL    HW235145   2.631   1.820   0.659  0.6242  1.5090 -0.8266
 7895SOL     OW35146   4.626   3.021   2.906 -0.0531  0.1325  0.3279
 7895SOL    HW135147   4.589   2.933   2.895  0.1189 -0.2240  2.5084
 7895SOL    HW235148   4.719   3.000   2.907  0.0238  0.4699  0.2500
 7896SOL     OW35149   2.871   0.949   6.465  0.2061  0.2196  0.2135
 7896SOL    HW135150   2.902   1.037   6.489 -0.5049  0.4946  0.1291
 7896SOL    HW235151   2.837   0.924   6.551 -3.4144 -0.5032 -1.4441
 7897SOL     OW35152   0.456   3.331  17.513 -0.3171  0.0214  0.0206
 7897SOL    HW135153   0.511   3.261  17.549 -2.4613 -2.1283 -0.9051
 7897SOL    HW235154   0.515   3.351  17.440  0.0231 -1.1860 -0.0424
 7898SOL     OW35155   0.765   0.132   3.782  0.1099 -0.3418  0.5506
 7898SOL    HW135156   0.710   0.060   3.754 -0.2402 -0.0008  0.3644
 7898SOL    HW235157   0.751   0.195   3.711  0.3285 -2.2087 -1.1360
 7899SOL     OW35158   2.091   2.580   6.568 -0.2039 -0.0042 -0.6148
 7899SOL    HW135159   2.056   2.650   6.512 -0.3065  0.5832  0.1920
 7899SOL    HW235160   2.179   2.567   6.533 -0.7815 -2.2177 -1.2836
 7900SOL     OW35161   2.362   1.764   5.436 -0.1620  0.2087  0.5230
 7900SOL    HW135162   2.439   1.819   5.448 -0.5331  0.8849 -0.1652
 7900SOL    HW235163   2.293   1.824   5.464 -0.6938 -0.1615 -0.0026
 7901SOL     OW35164   4.161   3.070   4.831 -0.0200 -0.2500  0.1713
 7901SOL    HW135165   4.119   3.097   4.749 -1.6694 -1.6883  0.5339
 7901SOL    HW235166   4.239   3.124   4.823 -0.0974 -0.1732 -0.0621
 7902SOL     OW35167   1.237   1.705   5.268  0.2429  0.0832  0.4070
 7902SOL    HW135168   1.221   1.800   5.264  1.0439  0.1366 -1.3324
 7902SOL    HW235169   1.321   1.686   5.227  0.9096  1.9566  0.8738
 7903SOL     OW35170   2.117   0.303   3.823  0.0301  0.0816  0.5331
 7903SOL    HW135171   2.159   0.261   3.748 -0.7448 -0.5777  0.4660
 7903SOL    HW235172   2.073   0.381   3.789  2.2646  0.6711 -0.9862
 7904SOL     OW35173   4.214   2.116   5.552 -0.2841 -0.7276  0.0212
 7904SOL    HW135174   4.168   2.157   5.478 -1.0943  0.2543  1.0750
 7904SOL    HW235175   4.296   2.096   5.507 -0.6879 -0.2688 -0.9201
 7905SOL     OW35176   2.745   0.459  11.696  0.8698 -0.5614 -0.1097
 7905SOL    HW135177   2.708   0.416  11.774 -0.4769 -1.0054 -0.9890
 7905SOL    HW235178   2.715   0.550  11.705  0.7878 -0.5241 -0.7469
 7906SOL     OW35179   4.625   3.615   2.575  0.0460 -0.1335  0.3843
 7906SOL    HW135180   4.608   3.675   2.502  0.7870 -0.8948 -0.4202
 7906SOL    HW235181   4.555   3.552   2.558 -0.6334  0.3953  1.2359
 7907SOL     OW35182   0.102   3.357   4.369  0.0083  0.0192  0.0237
 7907SOL    HW135183   0.102   3.304   4.448  1.1628 -0.1049 -0.0518
 7907SOL    HW235184   0.034   3.307   4.324  1.5714 -1.8997 -0.2032
 7908SOL     OW35185   3.916   0.739   3.401  0.4955  0.2331  0.4864
 7908SOL    HW135186   3.897   0.665   3.343 -1.6007  1.3446 -0.2476
 7908SOL    HW235187   4.010   0.742   3.384  0.4913  0.0072  0.4311
 7909SOL     OW35188   3.594   1.691   5.648  0.1863  0.2848 -0.4899
 7909SOL    HW135189   3.536   1.742   5.591  1.8950  1.9492 -0.7565
 7909SOL    HW235190   3.531   1.625   5.678  1.3691 -1.3132 -1.5597
 7910SOL     OW35191   4.260   0.145  13.399  0.4477  0.3131  0.5668
 7910SOL    HW135192   4.174   0.186  13.389  1.4798  2.2725 -0.4655
 7910SOL    HW235193   4.247   0.107  13.486  0.7601 -1.1263 -0.0186
 7911SOL     OW35194   3.816   4.567   8.547 -0.6426 -0.2455  0.0270
 7911SOL    HW135195   3.805   4.647   8.599  0.3545  0.7253 -1.2432
 7911SOL    HW235196   3.832   4.503   8.616  1.9534  1.4590  0.9966
 7912SOL     OW35197   0.688   2.131  10.046  0.1724 -0.6365  0.5581
 7912SOL    HW135198   0.641   2.160   9.968 -0.2681 -0.1515  1.0003
 7912SOL    HW235199   0.722   2.056   9.997  0.7675 -1.1496  1.7555
 7913SOL     OW35200   0.721   0.904   4.813  0.4034 -0.1733  0.2137
 7913SOL    HW135201   0.782   0.956   4.866 -0.7454  0.2720  1.0832
 7913SOL    HW235202   0.713   0.830   4.873  2.0118 -2.1967 -2.0718
 7914SOL     OW35203   0.662   2.265   9.767  0.4260 -0.4537  0.2125
 7914SOL    HW135204   0.591   2.213   9.728  0.1328 -0.4716  0.7738
 7914SOL    HW235205   0.738   2.226   9.723  0.8010  0.4045  0.1055
 7915SOL     OW35206   3.295   1.573   9.386 -0.1231 -0.1230  0.2533
 7915SOL    HW135207   3.262   1.484   9.400  2.6517 -0.9763  1.3802
 7915SOL    HW235208   3.252   1.598   9.304  0.2590 -0.2824  0.0031
 7916SOL     OW35209   3.245   3.822   4.533 -0.3776  0.4417 -0.7936
 7916SOL    HW135210   3.192   3.821   4.613  0.6864  0.8631 -0.0859
 7916SOL    HW235211   3.294   3.904   4.536  0.5949 -0.1852  0.8623
 7917SOL     OW35212   3.602   4.562   9.886  0.5953  0.1125  0.1032
 7917SOL    HW135213   3.527   4.504   9.872  0.9470 -0.4082  0.3868
 7917SOL    HW235214   3.637   4.523   9.966 -0.6845 -1.4449 -0.1024
 7918SOL     OW35215   1.225   4.215  12.319  0.6898  0.3695  0.1097
 7918SOL    HW135216   1.266   4.296  12.290 -0.7035  2.0814  3.0029
 7918SOL    HW235217   1.193   4.226  12.408  2.9868  1.2758  0.8263
 7919SOL     OW35218   3.558   4.412   8.241  0.3659  0.1201  0.2927
 7919SOL    HW135219   3.513   4.346   8.293 -2.0913 -0.2932 -2.3574
 7919SOL    HW235220   3.543   4.494   8.289 -1.2175 -0.6861  1.1708
 7920SOL     OW35221   4.490   1.303   8.901  0.4671  0.2910  0.0610
 7920SOL    HW135222   4.562   1.288   8.840 -0.8760 -0.5259 -1.3164
 7920SOL    HW235223   4.481   1.399   8.897  1.6983  0.4721  1.2495
 7921SOL     OW35224   2.653   1.233   8.597 -0.3158  0.6813 -0.6222
 7921SOL    HW135225   2.577   1.187   8.634  1.0622  0.3616  1.8621
 7921SOL    HW235226   2.725   1.191   8.645 -1.2435  1.2083  1.2176
 7922SOL     OW35227   4.159   0.554   4.549 -0.3956  0.3976 -0.8587
 7922SOL    HW135228   4.219   0.479   4.540  1.0696  0.9795  3.9723
 7922SOL    HW235229   4.222   0.611   4.592  0.8805 -0.6545 -1.3108
 7923SOL     OW35230   4.178   1.525  12.980  0.0766 -0.5123  0.0747
 7923SOL    HW135231   4.109   1.465  12.952 -0.1936  0.4849 -1.4342
 7923SOL    HW235232   4.124   1.573  13.043 -1.5704 -0.8809 -1.0381
 7924SOL     OW35233   1.625   4.610   7.577  0.4458 -0.6730 -0.0289
 7924SOL    HW135234   1.706   4.584   7.532  1.8238  3.0308  0.3003
 7924SOL    HW235235   1.583   4.532   7.614 -0.1140 -0.4656 -0.2300
 7925SOL     OW35236   2.253   0.675   2.092 -0.1596 -0.8845 -0.4808
 7925SOL    HW135237   2.248   0.602   2.030  0.1148  0.2580 -1.8443
 7925SOL    HW235238   2.244   0.632   2.177 -0.3535 -1.3621 -0.7406
 7926SOL     OW35239   3.067   2.889  14.715 -0.1438 -0.0505  0.3110
 7926SOL    HW135240   3.055   2.907  14.808 -0.1871  2.2227 -0.1331
 7926SOL    HW235241   3.141   2.830  14.728 -0.6115 -0.6865  0.0996
 7927SOL     OW35242   2.608   0.682   7.022  0.7237  0.1592 -0.2365
 7927SOL    HW135243   2.585   0.689   7.115 -2.3565 -1.2834 -0.8775
 7927SOL    HW235244   2.528   0.644   6.985  0.8183  0.8671 -1.1470
 7928SOL     OW35245   1.647   4.662   8.954 -0.0200 -0.3801  0.5376
 7928SOL    HW135246   1.616   4.708   9.032 -1.3492 -1.2090  0.4934
 7928SOL    HW235247   1.602   4.578   8.962 -0.8839 -0.0953 -1.1657
 7929SOL     OW35248   2.468   3.445   7.295  0.0059  0.3695 -0.5347
 7929SOL    HW135249   2.508   3.523   7.334  0.1578  0.4601 -0.8734
 7929SOL    HW235250   2.393   3.442   7.355  1.1257  0.1593  0.8574
 7930SOL     OW35251   0.912   2.857   5.475  0.3429  0.1324 -0.1261
 7930SOL    HW135252   0.953   2.850   5.562 -1.2881  1.1178  0.7268
 7930SOL    HW235253   0.922   2.949   5.452 -0.6673  0.1452 -0.5048
 7931SOL     OW35254   2.060   0.218   5.679  0.3794  0.1935  0.1831
 7931SOL    HW135255   2.070   0.277   5.605  0.0764 -0.4712 -0.3842
 7931SOL    HW235256   2.036   0.146   5.622 -4.0814  0.4359  1.7669
 7932SOL     OW35257   2.905   4.331   2.217  0.2352 -0.0961  0.0024
 7932SOL    HW135258   2.821   4.358   2.181  0.1253 -2.0672 -1.2268
 7932SOL    HW235259   2.934   4.415   2.253  1.8307 -1.1556  1.1830
 7933SOL     OW35260   4.278   4.311  11.758  0.1737 -0.5140  0.1059
 7933SOL    HW135261   4.331   4.314  11.678  0.2823  2.3438  0.2697
 7933SOL    HW235262   4.339   4.296  11.830 -0.2239 -4.0785 -0.3153
 7934SOL     OW35263   1.298   2.793  12.692  0.6209  0.1986 -0.3642
 7934SOL    HW135264   1.231   2.725  12.697 -0.1888  1.1079  1.3649
 7934SOL    HW235265   1.252   2.868  12.654 -0.2333  0.0335  0.3534
 7935SOL     OW35266   3.787   4.437   8.104 -0.1899  0.3105  0.2971
 7935SOL    HW135267   3.851   4.378   8.142 -2.6019 -2.7151 -0.3594
 7935SOL    HW235268   3.714   4.408   8.158 -0.6755  1.1612  0.1029
 7936SOL     OW35269   4.289   1.474   6.843  0.2980  0.5672  0.4023
 7936SOL    HW135270   4.213   1.532   6.836 -1.7108 -1.9937  1.0529
 7936SOL    HW235271   4.346   1.523   6.784 -0.8585 -0.9012 -1.9539
 7937SOL     OW35272   1.265   3.672   2.823 -0.5688 -1.1039 -0.2888
 7937SOL    HW135273   1.217   3.638   2.899  0.2295 -1.3371  0.1109
 7937SOL    HW235274   1.260   3.763   2.850  1.8584 -1.2912  0.8032
 7938SOL     OW35275   3.842   3.266   6.904 -0.0521  0.3747 -0.3739
 7938SOL    HW135276   3.842   3.280   6.809 -1.0023  2.4370 -0.0635
 7938SOL    HW235277   3.771   3.324   6.930 -1.9812 -0.5898 -3.4553
 7939SOL     OW35278   2.610   3.553   9.632  0.7848 -0.4528  0.2874
 7939SOL    HW135279   2.656   3.568   9.714  2.6583  0.6218 -0.9709
 7939SOL    HW235280   2.677   3.577   9.569  0.7863 -1.9626 -0.2915
 7940SOL     OW35281   3.326   0.626   1.067  0.1964  0.0844  0.5585
 7940SOL    HW135282   3.261   0.559   1.047  1.0632 -0.9615  1.2512
 7940SOL    HW235283   3.388   0.618   0.994 -1.0426  0.2744 -0.5246
 7941SOL     OW35284   3.430   1.668   6.580  0.0285 -0.5101 -0.1711
 7941SOL    HW135285   3.517   1.664   6.619  0.3237  1.0278 -0.6943
 7941SOL    HW235286   3.428   1.594   6.519 -0.8867  0.0929 -0.8663
 7942SOL     OW35287   1.303   1.282   0.519  0.0162 -0.2524 -0.1370
 7942SOL    HW135288   1.393   1.253   0.538  0.7306  0.4505 -2.4187
 7942SOL    HW235289   1.256   1.237   0.588  1.6990 -0.5136  0.8487
 7943SOL     OW35290   2.141   1.029   7.060 -0.0719 -0.1817 -0.5372
 7943SOL    HW135291   2.103   1.098   7.114  0.2749 -0.2102 -0.2588
 7943SOL    HW235292   2.061   1.004   7.013 -0.9689 -1.8916  1.8994
 7944SOL     OW35293   1.938   1.831  13.009 -0.2282 -0.0080 -0.0379
 7944SOL    HW135294   1.927   1.770  12.936  0.3887 -1.3340  0.9853
 7944SOL    HW235295   1.914   1.913  12.966  1.5659  0.2284 -0.6195
 7945SOL     OW35296   2.019   2.082  12.891  0.2503  0.7033  0.0969
 7945SOL    HW135297   2.096   2.133  12.867  1.4621 -0.8824  0.6706
 7945SOL    HW235298   1.992   2.034  12.813 -2.6688  0.8846  0.9723
 7946SOL     OW35299   3.775   0.534   7.996  0.5692  0.1241  0.2874
 7946SOL    HW135300   3.796   0.554   8.087 -2.3911  1.4238  0.6734
 7946SOL    HW235301   3.702   0.589   7.966  1.0882 -0.1927 -1.6027
 7947SOL     OW35302   1.322   0.360   2.485 -0.6352  0.5310 -0.0770
 7947SOL    HW135303   1.375   0.396   2.415 -0.4639 -3.4774 -2.0489
 7947SOL    HW235304   1.294   0.432   2.541  2.8090  2.6521 -1.1086
 7948SOL     OW35305   4.271   4.117   7.207  0.1930  0.1925  0.1812
 7948SOL    HW135306   4.227   4.139   7.126 -0.7274 -0.4301  0.5156
 7948SOL    HW235307   4.193   4.106   7.261 -0.4983  0.6212 -0.7518
 7949SOL     OW35308   4.708   3.129   7.397  0.1659 -0.1713 -0.3336
 7949SOL    HW135309   4.640   3.139   7.331 -0.8881 -1.4161  0.5628
 7949SOL    HW235310   0.026   3.217   7.394 -0.2443  0.1198  2.9647
 7950SOL     OW35311   1.614   0.841   8.097  0.1859  0.2547  0.2356
 7950SOL    HW135312   1.645   0.756   8.066 -1.7418 -0.1356 -0.6357
 7950SOL    HW235313   1.595   0.834   8.190  2.5216  0.6168  0.7417
 7951SOL     OW35314   0.285   1.102  11.542  0.7546 -0.6441 -0.3441
 7951SOL    HW135315   0.309   1.031  11.483 -0.9189 -1.8264  0.4035
 7951SOL    HW235316   0.354   1.166  11.527  0.9338 -1.2259 -1.9963
 7952SOL     OW35317   3.750   3.887  15.249  0.1166  0.2467  0.3131
 7952SOL    HW135318   3.801   3.967  15.263 -1.1039  1.0323  0.2285
 7952SOL    HW235319   3.779   3.825  15.315  1.4342  2.3105  1.6863
 7953SOL     OW35320   4.694   2.112   3.645 -0.2513  0.3692  0.0383
 7953SOL    HW135321   0.036   2.149   3.583  0.2886 -2.1447 -0.9279
 7953SOL    HW235322   4.661   2.040   3.592 -1.1389  0.8991 -0.1298
 7954SOL     OW35323   2.427   3.026   8.671  0.6102 -0.0843  0.9227
 7954SOL    HW135324   2.372   2.948   8.678  0.7092 -0.1909  0.4838
 7954SOL    HW235325   2.440   3.027   8.577  0.1344 -2.7565  0.8409
 7955SOL     OW35326   2.256   2.128   1.260 -0.3532  0.0958  0.2339
 7955SOL    HW135327   2.352   2.128   1.263 -0.3059  0.6625 -1.2496
 7955SOL    HW235328   2.228   2.046   1.301  0.6769  0.9699  2.6755
 7956SOL     OW35329   1.449   0.535  12.222  0.4232 -0.3581  0.2739
 7956SOL    HW135330   1.484   0.468  12.281 -0.5175 -0.7037  0.4401
 7956SOL    HW235331   1.356   0.536  12.246  0.9165 -0.6499  2.1976
 7957SOL     OW35332   2.757   1.361   9.001 -0.0383  0.1029 -0.2457
 7957SOL    HW135333   2.724   1.271   9.002  2.1177 -0.6417  2.4202
 7957SOL    HW235334   2.689   1.406   9.052  0.8118  2.1198 -0.8667
 7958SOL     OW35335   3.621   3.596   2.748  0.2712 -0.5898  0.6331
 7958SOL    HW135336   3.695   3.652   2.722 -1.4878  0.7350 -1.4710
 7958SOL    HW235337   3.640   3.508   2.714  3.9308 -0.1915  1.6406
 7959SOL     OW35338   2.453   1.004   7.330 -0.2094  0.2730  0.4120
 7959SOL    HW135339   2.402   1.044   7.260 -0.7066 -0.6855  0.2372
 7959SOL    HW235340   2.384   0.995   7.396 -0.7349  1.8702  0.0946
 7960SOL     OW35341   0.915   3.707   6.305  0.1848  0.2536  0.7478
 7960SOL    HW135342   0.884   3.793   6.276  1.2969  1.2505  2.5586
 7960SOL    HW235343   0.872   3.686   6.387 -2.2798 -0.5853 -0.7700
 7961SOL     OW35344   3.400   4.580   8.839  0.0561 -0.4085 -0.0539
 7961SOL    HW135345   3.464   4.513   8.817  1.0679  1.1254 -1.8036
 7961SOL    HW235346   3.449   4.631   8.905 -0.3958 -0.2682  0.1767
 7962SOL     OW35347   3.887   4.185   6.394 -0.2945  0.2290  0.3390
 7962SOL    HW135348   3.965   4.207   6.445  0.4299 -0.0139 -0.6698
 7962SOL    HW235349   3.899   4.240   6.317 -0.6798 -2.2782 -1.4963
 7963SOL     OW35350   0.846   2.403   2.758 -0.1642  0.4943 -0.0603
 7963SOL    HW135351   0.815   2.423   2.670 -0.9744  3.9022  0.9740
 7963SOL    HW235352   0.928   2.452   2.770  0.6093 -0.6163 -0.7857
 7964SOL     OW35353   1.015   3.943   1.858  0.5538  0.1640  0.1280
 7964SOL    HW135354   1.065   3.985   1.928 -0.5670 -0.1097  1.1040
 7964SOL    HW235355   0.991   3.859   1.899  0.3108  0.4146  0.5045
 7965SOL     OW35356   0.906   4.254   1.387 -0.3597  0.2585  0.1439
 7965SOL    HW135357   0.947   4.228   1.469  2.7881 -0.8699 -1.8141
 7965SOL    HW235358   0.817   4.228   1.413 -0.0695  0.7063  1.5894
 7966SOL     OW35359   4.703   4.312   7.764 -0.4119  0.6095 -0.5027
 7966SOL    HW135360   4.710   4.227   7.720 -2.0182 -1.1937  2.7083
 7966SOL    HW235361   0.020   4.292   7.850 -1.5495  1.2275  0.1324
 7967SOL     OW35362   0.418   3.123   1.156 -0.5413  0.4548 -0.1447
 7967SOL    HW135363   0.404   3.186   1.085 -0.5492 -2.1119 -2.4333
 7967SOL    HW235364   0.388   3.178   1.228  0.3390 -1.0943  1.3981
 7968SOL     OW35365   1.574   4.685  13.748  0.1197  0.1924 -0.3029
 7968SOL    HW135366   1.656   4.680  13.796  0.6478 -2.1573 -1.4647
 7968SOL    HW235367   1.519   4.693  13.825  1.0295 -1.6995  0.5473
 7969SOL     OW35368   2.595   2.684   2.537  0.7454 -0.4415 -0.0088
 7969SOL    HW135369   2.686   2.655   2.544  1.3448  2.2521  3.0509
 7969SOL    HW235370   2.599   2.780   2.532  0.4475 -0.3891  0.7664
 7970SOL     OW35371   3.917   1.395   0.325 -0.1841 -0.3474  0.2960
 7970SOL    HW135372   3.898   1.381   0.232 -0.5235  0.3453  0.2678
 7970SOL    HW235373   3.861   1.468   0.351 -0.8882 -0.2525 -1.5005
 7971SOL     OW35374   1.266   0.558   5.733  0.2619  0.1524  0.0251
 7971SOL    HW135375   1.229   0.564   5.821 -2.1088 -0.2549 -0.9453
 7971SOL    HW235376   1.330   0.487   5.737 -0.1260 -0.1261  1.3076
 7972SOL     OW35377   0.037   3.816  12.517  0.2206 -0.0608 -0.1083
 7972SOL    HW135378   0.083   3.863  12.447  2.3339 -0.8565  0.7296
 7972SOL    HW235379   0.001   3.892  12.563 -1.0228 -0.3449 -0.6238
 7973SOL     OW35380   1.266   2.787  14.877  0.3692 -0.1750  0.2188
 7973SOL    HW135381   1.309   2.704  14.899 -1.3288 -1.1691 -0.1800
 7973SOL    HW235382   1.201   2.761  14.812  0.8807 -0.2110 -0.2805
 7974SOL     OW35383   0.683   0.717   5.350  0.3173  0.0953 -0.4508
 7974SOL    HW135384   0.758   0.774   5.332  0.4328 -0.3471 -1.3356
 7974SOL    HW235385   0.716   0.641   5.302  0.8420  0.2493 -0.3340
 7975SOL     OW35386   3.061   1.054   5.931  0.7234 -0.0046 -0.2911
 7975SOL    HW135387   2.986   1.080   5.984 -0.0945  1.4373 -2.1355
 7975SOL    HW235388   3.116   1.132   5.931 -1.1667  1.3230  0.1742
 7976SOL     OW35389   2.659   0.293   1.333 -0.4470  0.0517  0.1590
 7976SOL    HW135390   2.735   0.293   1.275  0.0063  3.2282  0.7708
 7976SOL    HW235391   2.695   0.293   1.421  2.4603 -1.5515 -1.0200
 7977SOL     OW35392   2.626   4.134   6.922 -0.2579  0.4803  0.0334
 7977SOL    HW135393   2.653   4.128   7.014  1.4451  0.6943 -0.4595
 7977SOL    HW235394   2.669   4.060   6.879 -1.3721 -0.0687 -0.1294
 7978SOL     OW35395   3.803   4.400  13.704  0.4438  0.4417  0.1111
 7978SOL    HW135396   3.720   4.409  13.750  1.0869  0.7031  1.2380
 7978SOL    HW235397   3.833   4.317  13.739 -1.6103  0.3116  1.5718
 7979SOL     OW35398   0.270   1.653   2.680 -0.4034  0.5720  0.0635
 7979SOL    HW135399   0.217   1.728   2.707  1.6121  1.1179  2.4928
 7979SOL    HW235400   0.349   1.707   2.678  0.3671 -0.5404  0.5584
 7980SOL     OW35401   2.766   1.627   4.175 -0.1684 -0.6043 -0.0445
 7980SOL    HW135402   2.737   1.670   4.094 -0.0370 -0.2013  0.1279
 7980SOL    HW235403   2.853   1.591   4.157  1.3101  2.5554  0.8450
 7981SOL     OW35404   0.523   1.136  16.949 -0.2660 -0.3351  0.4934
 7981SOL    HW135405   0.478   1.057  16.977  0.9319 -1.4504 -0.7381
 7981SOL    HW235406   0.488   1.202  17.009 -1.0120 -1.2257  1.0260
 7982SOL     OW35407   2.991   0.232   2.338 -0.6590 -0.0776 -0.2046
 7982SOL    HW135408   2.967   0.325   2.336 -1.5389 -0.3632 -3.3371
 7982SOL    HW235409   2.994   0.200   2.248 -0.5416 -0.4460 -0.0716
 7983SOL     OW35410   3.142   2.489   3.715 -0.0958 -0.4054  0.3755
 7983SOL    HW135411   3.081   2.562   3.721 -1.3664 -1.4272 -0.0810
 7983SOL    HW235412   3.116   2.459   3.628  0.8269  0.9411 -0.3608
 7984SOL     OW35413   0.283   4.132  16.633  0.1601 -0.6754 -0.4401
 7984SOL    HW135414   0.219   4.153  16.564 -0.1200  0.0284  0.0274
 7984SOL    HW235415   0.323   4.213  16.666  1.3363 -1.1957 -0.6050
 7985SOL     OW35416   0.172   0.291   6.214 -0.0633 -0.9774  0.0888
 7985SOL    HW135417   0.195   0.236   6.289  0.0896 -0.5692  0.3404
 7985SOL    HW235418   0.189   0.232   6.141 -0.7299  0.2960 -1.0867
 7986SOL     OW35419   3.960   3.227   3.124 -0.1330  0.1491 -0.3280
 7986SOL    HW135420   4.001   3.313   3.112 -1.0959  0.6595 -0.0648
 7986SOL    HW235421   4.031   3.180   3.166 -0.3900 -0.8431 -0.9964
 7987SOL     OW35422   3.679   1.347   4.070 -0.0088 -0.7426 -0.1239
 7987SOL    HW135423   3.636   1.398   4.002  1.0818  1.0600  0.5299
 7987SOL    HW235424   3.626   1.268   4.069 -0.8869 -0.1267 -2.8047
 7988SOL     OW35425   1.602   2.959  15.099 -0.1444  0.1497  0.6728
 7988SOL    HW135426   1.587   2.909  15.019  3.5729 -1.4183  0.9814
 7988SOL    HW235427   1.520   2.948  15.147  0.6650  0.7763  2.2108
 7989SOL     OW35428   0.496   1.998   4.634  0.0646  0.4926 -0.1652
 7989SOL    HW135429   0.515   1.969   4.723  1.0083  2.4351  0.2739
 7989SOL    HW235430   0.524   2.090   4.634 -0.5191  0.6753  0.5585
 7990SOL     OW35431   1.237   1.678  15.961  0.1817  0.4491 -0.0442
 7990SOL    HW135432   1.254   1.677  16.056  0.8616 -0.6367 -0.1809
 7990SOL    HW235433   1.324   1.706  15.931 -0.9965  4.4792  0.2468
 7991SOL     OW35434   2.741   2.357   3.918  0.3590 -0.1440  0.3681
 7991SOL    HW135435   2.697   2.307   3.849 -3.0340  2.5634  0.5592
 7991SOL    HW235436   2.819   2.303   3.931 -0.0365 -1.2315 -1.7606
 7992SOL     OW35437   2.942   2.798  14.400 -0.1520  0.4741  0.0181
 7992SOL    HW135438   2.884   2.843  14.462 -1.0460 -1.5507  0.6610
 7992SOL    HW235439   3.026   2.842  14.392  0.4710 -0.5484  0.9856
 7993SOL     OW35440   2.577   2.743  15.733  0.0503 -0.1168  0.5549
 7993SOL    HW135441   2.671   2.742  15.716  0.0618  0.7547  0.5440
 7993SOL    HW235442   2.578   2.757  15.827  1.3693  1.4364  0.3020
 7994SOL     OW35443   2.433   2.721   7.431 -0.4464  0.1445 -0.5840
 7994SOL    HW135444   2.396   2.740   7.344  1.2693 -0.0713 -1.3578
 7994SOL    HW235445   2.357   2.697   7.484  0.4498  0.0466  0.6560
 7995SOL     OW35446   0.799   1.329   9.042  0.6519 -0.3934  0.0826
 7995SOL    HW135447   0.777   1.422   9.052  0.2160 -0.4726 -0.1522
 7995SOL    HW235448   0.884   1.334   9.085 -0.7196  0.7176  2.6755
 7996SOL     OW35449   4.290   1.677   7.086 -0.3803  0.2315  0.6928
 7996SOL    HW135450   4.338   1.728   7.020  0.8468 -2.5571 -0.5958
 7996SOL    HW235451   4.215   1.737   7.089 -0.1045  0.5657  0.9299
 7997SOL     OW35452   0.069   2.852   4.881  0.3494  0.0029 -0.7672
 7997SOL    HW135453   0.035   2.763   4.891  1.2556 -0.3448 -0.8220
 7997SOL    HW235454   0.154   2.815   4.860 -0.2783 -1.7461 -0.1975
 7998SOL     OW35455   0.430   4.047   2.521  0.1881 -0.0922  0.0813
 7998SOL    HW135456   0.403   4.135   2.494 -3.3760 -2.2114 -3.1151
 7998SOL    HW235457   0.435   4.047   2.617 -1.3491  0.0590  0.1534
 7999SOL     OW35458   0.300   1.503   9.979 -0.3849  0.2037  0.4063
 7999SOL    HW135459   0.354   1.506   9.900  0.6288 -1.7357  1.0312
 7999SOL    HW235460   0.359   1.460  10.041 -0.1617  0.9383  0.7034
 8000SOL     OW35461   0.086   1.584  17.433 -0.4543 -0.5532 -0.3910
 8000SOL    HW135462   0.044   1.668  17.411 -0.6858  0.3359  3.5290
 8000SOL    HW235463   0.140   1.613  17.506 -0.2091 -1.7994 -0.0910
 8001SOL     OW35464   1.122   1.587   6.142 -0.4124  0.1001  0.2064
 8001SOL    HW135465   1.118   1.637   6.223  0.5876 -0.5726  0.6681
 8001SOL    HW235466   1.188   1.521   6.165  2.5730  2.9818 -0.0322
 8002SOL     OW35467   2.342   2.066   4.157 -0.0511  0.0681  0.4663
 8002SOL    HW135468   2.334   2.117   4.076 -0.3853 -1.0580 -0.1977
 8002SOL    HW235469   2.433   2.045   4.139 -0.6960 -0.8495 -1.6885
 8003SOL     OW35470   3.709   0.694  15.513  0.2825  0.9589 -0.1739
 8003SOL    HW135471   3.765   0.718  15.586  2.2865 -2.1915 -0.6853
 8003SOL    HW235472   3.716   0.598  15.521 -0.1258  0.8383 -1.2319
 8004SOL     OW35473   4.472   3.558   1.972 -0.6655  0.3675 -0.1806
 8004SOL    HW135474   4.461   3.494   2.042 -0.9464  2.9001  2.1044
 8004SOL    HW235475   4.444   3.638   2.016  2.1900  1.3458 -0.1353
 8005SOL     OW35476   2.367   3.662   9.648 -0.5233  0.5933 -0.3380
 8005SOL    HW135477   2.437   3.598   9.662 -0.8598 -0.2238 -2.4748
 8005SOL    HW235478   2.352   3.661   9.554  3.1907  0.8252 -0.9254
 8006SOL     OW35479   1.522   0.396   6.079 -0.5030 -0.3835  0.0060
 8006SOL    HW135480   1.514   0.387   5.984  2.3857 -4.2942  0.1290
 8006SOL    HW235481   1.512   0.308   6.114  0.2591 -0.2535  0.5456
 8007SOL     OW35482   2.442   2.534   2.979 -0.5950  1.0224 -0.0782
 8007SOL    HW135483   2.396   2.595   2.922  0.0044 -1.4567 -3.2329
 8007SOL    HW235484   2.416   2.573   3.063  1.6940  1.6426  0.3477
 8008SOL     OW35485   0.978   1.918   3.316  0.4538  0.3442  0.0484
 8008SOL    HW135486   0.992   1.887   3.227 -2.1660 -1.5418  0.3109
 8008SOL    HW235487   0.891   1.883   3.333  0.1864  1.4424  0.9671
 8009SOL     OW35488   4.000   2.178   5.713 -0.3197 -0.4411  0.1651
 8009SOL    HW135489   4.069   2.157   5.651  0.1073  1.2787  0.0459
 8009SOL    HW235490   4.005   2.094   5.758  0.4013  0.3618  1.6136
 8010SOL     OW35491   1.853   4.079   0.342 -0.5559 -0.1746  0.3500
 8010SOL    HW135492   1.840   4.110   0.431 -0.8740  0.3958  0.1052
 8010SOL    HW235493   1.947   4.086   0.327 -0.8202 -0.5997 -1.5406
 8011SOL     OW35494   0.973   1.260  10.574 -0.6032  0.3679 -0.0560
 8011SOL    HW135495   0.949   1.234  10.485 -1.1320 -1.6381  0.6695
 8011SOL    HW235496   0.886   1.285  10.606 -0.7431  0.6988 -0.7050
 8012SOL     OW35497   0.245   2.792   2.325  0.1502  0.5844  0.4497
 8012SOL    HW135498   0.257   2.710   2.277 -0.1097  1.8018 -1.7203
 8012SOL    HW235499   0.155   2.819   2.304  0.4539  0.5875 -0.8767
 8013SOL     OW35500   3.353   2.728   8.689 -0.1661  0.9209 -0.5256
 8013SOL    HW135501   3.267   2.690   8.711  0.4345 -0.2819 -0.2491
 8013SOL    HW235502   3.358   2.795   8.757  1.6006  0.4604 -0.2163
 8014SOL     OW35503   0.420   4.249  11.992  0.0976  0.1858  0.4322
 8014SOL    HW135504   0.474   4.192  11.938 -1.5536 -2.0025  1.0729
 8014SOL    HW235505   0.331   4.231  11.962 -0.4469 -1.0091  2.6925
 8015SOL     OW35506   4.231   1.270   9.438 -0.3022 -0.4344  0.1942
 8015SOL    HW135507   4.306   1.261   9.498 -0.3480  0.5420  0.3867
 8015SOL    HW235508   4.242   1.194   9.380  1.6624 -0.3631  0.4715
 8016SOL     OW35509   1.859   1.721   8.663  0.5096 -0.7755 -0.7272
 8016SOL    HW135510   1.787   1.779   8.690  1.5273  0.1860 -0.0922
 8016SOL    HW235511   1.812   1.650   8.619  1.1218 -1.7323  0.1572
 8017SOL     OW35512   0.810   0.278   2.956  0.5141  0.4271  0.5153
 8017SOL    HW135513   0.900   0.264   2.927  0.2263 -1.0423  0.3303
 8017SOL    HW235514   0.788   0.361   2.914 -0.9288 -0.1463  0.1208
 8018SOL     OW35515   0.114   1.753   8.070 -0.6560 -0.2241  0.2063
 8018SOL    HW135516   0.190   1.737   8.014 -1.2482  1.3349 -1.0437
 8018SOL    HW235517   0.054   1.798   8.010  1.0401  1.6918 -0.0506
 8019SOL     OW35518   3.530   1.749   6.187  0.6027  0.2765  0.5379
 8019SOL    HW135519   3.506   1.676   6.129 -2.9569  0.1266  2.2130
 8019SOL    HW235520   3.569   1.704   6.262  0.8860 -0.5633 -0.1203
 8020SOL     OW35521   3.160   2.526   6.484  0.3644  0.0222 -0.2178
 8020SOL    HW135522   3.183   2.518   6.576 -2.5179  0.7649  0.5784
 8020SOL    HW235523   3.145   2.435   6.454 -0.5556  0.4717 -1.1625
 8021SOL     OW35524   1.334   3.719   7.158 -0.4495 -0.0653 -0.2359
 8021SOL    HW135525   1.295   3.682   7.237  0.8101 -2.1444 -0.5687
 8021SOL    HW235526   1.316   3.657   7.086 -2.3487  0.8034 -0.5197
 8022SOL     OW35527   3.833   1.903   1.884 -0.2602  0.6201  0.1895
 8022SOL    HW135528   3.853   1.940   1.798 -0.5889 -0.8359 -0.5175
 8022SOL    HW235529   3.875   1.818   1.872  0.5847  1.3862 -2.1951
 8023SOL     OW35530   1.528   0.952   3.720  0.7973 -0.1228  0.5607
 8023SOL    HW135531   1.613   0.988   3.696  0.6620 -0.5578 -0.5665
 8023SOL    HW235532   1.467   0.971   3.648 -0.7833 -0.0566  1.9092
 8024SOL     OW35533   2.366   2.202   5.684  0.1298 -0.0212 -0.4061
 8024SOL    HW135534   2.421   2.152   5.745 -1.2423 -2.5913 -1.2710
 8024SOL    HW235535   2.429   2.255   5.636  1.5694 -0.0948  1.3952
 8025SOL     OW35536   0.752   4.244   5.468 -0.1740 -0.1143  0.5504
 8025SOL    HW135537   0.674   4.206   5.508 -1.0811  0.9946 -0.1891
 8025SOL    HW235538   0.762   4.190   5.390 -0.8482  0.4994  0.0447
 8026SOL     OW35539   4.535   1.598   5.488  0.0924  0.6724  0.1497
 8026SOL    HW135540   4.506   1.689   5.478  0.5310  0.6260 -1.6847
 8026SOL    HW235541   4.453   1.564   5.522 -2.2404  2.5994 -3.5813
 8027SOL     OW35542   2.567   3.679   3.707 -0.8074  0.2705 -0.2488
 8027SOL    HW135543   2.632   3.609   3.711 -1.7614 -0.3807  4.0651
 8027SOL    HW235544   2.625   3.750   3.677  0.0131 -0.6662 -0.8744
 8028SOL     OW35545   3.780   2.324  10.593 -0.1355  0.4490 -0.2235
 8028SOL    HW135546   3.712   2.391  10.597  1.6771  2.2024  1.3345
 8028SOL    HW235547   3.836   2.363  10.526 -1.1829 -0.4208 -1.6068
 8029SOL     OW35548   4.463   1.345   3.453 -0.4705  0.2704  0.2985
 8029SOL    HW135549   4.534   1.302   3.406 -0.9508  2.6663 -2.5930
 8029SOL    HW235550   4.409   1.378   3.382 -1.1706  0.7802  1.0645
 8030SOL     OW35551   4.702   4.656  10.990  0.8895  0.0370 -0.0447
 8030SOL    HW135552   0.076   4.649  10.980  0.9540  0.3951  0.3040
 8030SOL    HW235553   4.679   4.585  11.050 -2.1611  1.5482  0.5758
 8031SOL     OW35554   1.938   1.933   5.785  0.6342 -0.1373 -0.6976
 8031SOL    HW135555   2.021   1.938   5.737  2.0475  1.4789  1.9247
 8031SOL    HW235556   1.973   1.924   5.874 -1.8009 -3.0394 -0.0468
 8032SOL     OW35557   4.686   1.106   3.802 -0.0302 -0.2974  0.3648
 8032SOL    HW135558   4.646   1.192   3.791  0.6517  0.0845  0.8359
 8032SOL    HW235559   0.044   1.133   3.850  0.9536 -0.2101 -1.2906
 8033SOL     OW35560   0.856   3.899   5.115  0.1416  0.0590  0.6229
 8033SOL    HW135561   0.833   3.919   5.024  0.9513  0.9713  0.6286
 8033SOL    HW235562   0.871   3.805   5.109  3.0907  0.5139  1.0344
 8034SOL     OW35563   3.121   3.430  11.394 -0.3831 -0.3739  0.1898
 8034SOL    HW135564   3.077   3.445  11.311  1.5526 -0.6713 -0.9110
 8034SOL    HW235565   3.191   3.495  11.402  0.3392 -1.1911  0.5284
 8035SOL     OW35566   1.082   1.953   1.405  0.0938  0.9762  0.1120
 8035SOL    HW135567   1.143   1.902   1.352 -0.0256  0.3789  0.5481
 8035SOL    HW235568   1.057   2.023   1.345  1.1105  1.0722 -0.2012
 8036SOL     OW35569   0.233   0.728  14.593 -0.2836  0.1614 -0.2277
 8036SOL    HW135570   0.200   0.642  14.568 -0.3214 -0.3325  1.4943
 8036SOL    HW235571   0.174   0.793  14.554 -0.5688 -0.2376 -0.4574
 8037SOL     OW35572   2.116   3.442   6.315  0.0750  0.0323  0.0100
 8037SOL    HW135573   2.109   3.537   6.324 -2.2209 -0.0694 -0.7845
 8037SOL    HW235574   2.044   3.416   6.257 -0.6092  1.0581  0.3951
 8038SOL     OW35575   1.825   0.443   3.380 -0.2760 -0.3908  0.3499
 8038SOL    HW135576   1.766   0.518   3.391 -1.9776 -1.3219 -2.5335
 8038SOL    HW235577   1.769   0.370   3.354  0.0867 -0.2966 -0.6998
 8039SOL     OW35578   4.719   0.935   4.826  1.0297 -0.0989 -0.0848
 8039SOL    HW135579   4.637   0.954   4.779  0.2886 -0.8273  0.9237
 8039SOL    HW235580   4.717   0.843   4.801 -0.4118  0.0445 -0.5488
 8040SOL     OW35581   0.904   0.654   5.983 -0.2227 -0.1072 -0.1775
 8040SOL    HW135582   0.866   0.729   5.937  1.7417  0.9759 -0.0655
 8040SOL    HW235583   0.840   0.590   5.954 -0.7051  0.0164  0.6139
 8041SOL     OW35584   3.654   4.514   2.907 -0.0341 -0.2934  0.0117
 8041SOL    HW135585   3.682   4.489   2.995 -1.1455  0.3311  0.5450
 8041SOL    HW235586   3.712   4.467   2.847  0.7378  0.8412 -0.1374
 8042SOL     OW35587   3.916   3.846   3.527 -0.5561  0.3823  0.8024
 8042SOL    HW135588   3.822   3.861   3.535 -0.7224  0.4983 -1.4459
 8042SOL    HW235589   3.944   3.920   3.581 -0.1422  0.2056  0.8325
 8043SOL     OW35590   2.207   2.302   0.647  0.7349 -0.4665 -0.1685
 8043SOL    HW135591   2.186   2.257   0.729  0.1776  0.4016  0.1587
 8043SOL    HW235592   2.118   2.312   0.613  1.2203 -0.6040 -1.5081
 8044SOL     OW35593   0.177   0.432   7.661 -0.0843 -0.2640  0.6033
 8044SOL    HW135594   0.270   0.413   7.674 -0.0420  0.7924  1.8600
 8044SOL    HW235595   0.140   0.350   7.694  0.7195 -2.0249 -2.8485
 8045SOL     OW35596   0.928   1.371   1.990  0.1428 -0.5399 -0.3562
 8045SOL    HW135597   0.903   1.408   1.905 -0.9305  0.2668  0.3063
 8045SOL    HW235598   1.021   1.384   1.971 -0.5438  1.5428 -2.3560
 8046SOL     OW35599   1.184   3.518   1.328 -0.4523  0.3208 -0.5044
 8046SOL    HW135600   1.197   3.595   1.384  2.7044  0.2107 -1.0999
 8046SOL    HW235601   1.216   3.444   1.380 -0.5946  1.2979  0.9676
 8047SOL     OW35602   3.893   1.151   9.506  0.1167 -0.1453 -0.0845
 8047SOL    HW135603   3.972   1.103   9.481 -0.4921 -1.4253  0.4822
 8047SOL    HW235604   3.897   1.234   9.458  2.4767 -0.5321 -0.5435
 8048SOL     OW35605   0.740   0.095   7.831 -0.1450 -0.0454  0.1222
 8048SOL    HW135606   0.648   0.074   7.818  0.1878 -1.6948  0.3486
 8048SOL    HW235607   0.779   0.082   7.745 -2.6380 -0.3059 -0.9643
 8049SOL     OW35608   1.414   3.791   0.919 -0.8430  0.4226  0.0138
 8049SOL    HW135609   1.408   3.699   0.945 -0.8232  0.2133 -0.7258
 8049SOL    HW235610   1.509   3.803   0.919 -0.8947  0.8469 -0.2189
 8050SOL     OW35611   0.429   0.471   5.052 -0.5483 -0.1173 -0.1496
 8050SOL    HW135612   0.457   0.398   4.997 -0.1981 -0.1909  0.1248
 8050SOL    HW235613   0.339   0.441   5.067 -0.5529 -0.9876 -1.9227
 8051SOL     OW35614   3.057   0.625  12.808 -0.1323  0.1111 -0.1174
 8051SOL    HW135615   3.049   0.603  12.715 -1.0854 -0.8061  0.1839
 8051SOL    HW235616   3.025   0.715  12.793 -0.2470 -0.1406 -1.4346
 8052SOL     OW35617   1.181   0.958   6.966  0.1450 -0.0165 -0.3647
 8052SOL    HW135618   1.164   0.921   7.053  0.5530  0.4199 -0.1018
 8052SOL    HW235619   1.125   0.899   6.915  0.3643 -0.1680 -0.4284
 8053SOL     OW35620   4.432   2.386   3.553  0.0302  0.0826 -0.1568
 8053SOL    HW135621   4.489   2.371   3.628 -1.0065 -1.1014  0.3780
 8053SOL    HW235622   4.391   2.306   3.521  1.3333  0.5480 -3.0431
 8054SOL     OW35623   0.673   4.301  14.452 -0.0648  0.0732  0.0981
 8054SOL    HW135624   0.650   4.214  14.485  0.1414  0.4471  1.2485
 8054SOL    HW235625   0.763   4.295  14.422 -0.9054  2.7312 -3.0086
 8055SOL     OW35626   2.296   1.154   5.744 -0.0748 -0.3715  0.7307
 8055SOL    HW135627   2.389   1.133   5.737 -0.4930 -2.1971  0.5893
 8055SOL    HW235628   2.282   1.122   5.834 -0.6469 -4.6137 -0.8496
 8056SOL     OW35629   4.246   1.177   3.129  1.1186 -0.6087  0.8382
 8056SOL    HW135630   4.219   1.099   3.080 -1.4417  0.5595  0.3767
 8056SOL    HW235631   4.215   1.151   3.216 -1.5252 -1.8206 -0.4699
 8057SOL     OW35632   0.343   4.565   7.189 -0.0099 -0.1830 -0.5096
 8057SOL    HW135633   0.351   4.620   7.111  1.3583  0.3988  0.0574
 8057SOL    HW235634   0.263   4.603   7.225 -1.0646 -0.8484 -2.1187
 8058SOL     OW35635   1.917   1.826  11.069  0.1233  0.7861  0.1811
 8058SOL    HW135636   2.005   1.812  11.037 -0.0788  1.9261 -0.8579
 8058SOL    HW235637   1.917   1.922  11.071 -1.2081  0.7588  1.8282
 8059SOL     OW35638   1.109   0.982   6.318 -0.1786 -0.2751  0.3364
 8059SOL    HW135639   1.155   1.030   6.249 -0.5450  0.2278  0.4449
 8059SOL    HW235640   1.072   0.910   6.268  1.1969 -2.1525  2.0200
 8060SOL     OW35641   0.213   1.367  12.634 -0.4332  0.6193 -0.0656
 8060SOL    HW135642   0.277   1.347  12.567 -1.8519 -0.5597 -1.0740
 8060SOL    HW235643   0.244   1.453  12.661  0.2183  0.9235 -1.7824
 8061SOL     OW35644   2.309   4.369  14.495 -0.2696 -0.0886  0.0768
 8061SOL    HW135645   2.284   4.280  14.469 -2.2130  0.9283 -1.5369
 8061SOL    HW235646   2.309   4.360  14.590  2.5984  2.1946  0.2606
 8062SOL     OW35647   3.732   2.238   2.858 -0.1058  0.0881  0.1201
 8062SOL    HW135648   3.783   2.179   2.802 -0.3937  2.0458 -2.1862
 8062SOL    HW235649   3.710   2.305   2.794  2.0707  0.7466  0.0533
 8063SOL     OW35650   4.630   4.341   5.879 -0.2310  0.0171 -0.4125
 8063SOL    HW135651   4.668   4.384   5.802 -0.5626  2.9971  1.0900
 8063SOL    HW235652   4.694   4.359   5.948  0.9049  0.1333 -1.4918
 8064SOL     OW35653   4.457   3.486   3.396  0.3423 -0.5363 -0.1385
 8064SOL    HW135654   4.542   3.449   3.374  1.1693  0.7334  0.9577
 8064SOL    HW235655   4.454   3.455   3.487 -0.9362 -1.9158 -0.6431
 8065SOL     OW35656   3.099   0.306   9.196  0.3452 -0.2096 -0.1596
 8065SOL    HW135657   3.135   0.313   9.284  1.3706 -2.2965 -0.3875
 8065SOL    HW235658   3.052   0.389   9.194  1.2932  0.3199 -0.4461
 8066SOL     OW35659   0.071   0.455   8.565  0.1099 -0.7278  0.2131
 8066SOL    HW135660   0.054   0.462   8.471  0.0009  0.2667  0.3040
 8066SOL    HW235661   4.701   0.457   8.597  0.7383 -1.3534  2.0666
 8067SOL     OW35662   4.158   1.449  17.354  0.2508  0.4789  0.0267
 8067SOL    HW135663   4.113   1.429  17.436  0.4987  0.2682  0.1093
 8067SOL    HW235664   4.166   1.544  17.358  1.7673  0.4869 -3.3288
 8068SOL     OW35665   0.350   3.417  15.314  0.4831 -0.2508 -0.4514
 8068SOL    HW135666   0.286   3.487  15.310  1.0489  0.2685 -0.4765
 8068SOL    HW235667   0.367   3.427  15.220  0.3194 -1.0588 -0.5714
 8069SOL     OW35668   2.542   4.390  15.475  0.0677  0.0590  0.1395
 8069SOL    HW135669   2.502   4.439  15.547  1.9214  1.1138  0.4459
 8069SOL    HW235670   2.635   4.407  15.486  0.3617 -0.4257 -1.5626
 8070SOL     OW35671   1.445   1.134   1.028 -0.2257  0.1436 -0.0625
 8070SOL    HW135672   1.517   1.093   0.981 -1.2610 -0.0633 -1.4822
 8070SOL    HW235673   1.374   1.092   0.979 -1.3445 -0.2079  1.8564
 8071SOL     OW35674   0.869   4.311   7.872 -0.5479  0.5171  0.1018
 8071SOL    HW135675   0.858   4.228   7.918  0.3279  0.3504  0.0153
 8071SOL    HW235676   0.956   4.333   7.905 -0.5716  0.4793  0.1876
 8072SOL     OW35677   2.752   1.323   5.926  0.0457  0.2416  0.0587
 8072SOL    HW135678   2.751   1.304   6.019 -0.6769 -1.0309 -0.2075
 8072SOL    HW235679   2.771   1.248   5.868 -0.8212  0.0596 -0.0067
 8073SOL     OW35680   3.028   0.291   4.830 -0.5326  0.1717  0.3874
 8073SOL    HW135681   3.049   0.290   4.923 -0.2796  0.6019  0.3319
 8073SOL    HW235682   2.932   0.281   4.831 -0.4904 -0.2990 -0.0024
 8074SOL     OW35683   0.602   2.377  14.919 -0.1885  0.7112 -0.2324
 8074SOL    HW135684   0.575   2.371  14.827  0.9418 -0.5191 -0.4962
 8074SOL    HW235685   0.606   2.286  14.948  0.2618 -1.0012 -5.6470
 8075SOL     OW35686   4.081   1.972   8.462  0.3556  0.3881 -0.0926
 8075SOL    HW135687   4.084   1.882   8.431 -2.5457  0.1133  0.4609
 8075SOL    HW235688   4.100   2.017   8.380  0.5049 -0.8519 -0.7256
 8076SOL     OW35689   4.003   2.075   6.871 -0.1099  0.1501  0.5119
 8076SOL    HW135690   3.962   2.088   6.957 -1.6018 -1.9007  0.1151
 8076SOL    HW235691   4.093   2.054   6.895  0.0796  0.4448  0.0509
 8077SOL     OW35692   4.130   4.466   6.261 -0.2047  0.3473  0.2770
 8077SOL    HW135693   4.212   4.468   6.310 -0.4894 -0.4980  0.7660
 8077SOL    HW235694   4.147   4.414   6.182 -2.2392  1.2789 -0.7898
 8078SOL     OW35695   3.551   1.242   2.878 -0.8713 -0.3506 -0.7805
 8078SOL    HW135696   3.638   1.281   2.882 -0.2023 -1.9340  0.1438
 8078SOL    HW235697   3.552   1.230   2.783  0.3707  0.0745 -0.8185
 8079SOL     OW35698   0.628   2.433  10.121 -0.1421  0.3095 -0.0131
 8079SOL    HW135699   0.643   2.503  10.186  0.3185  1.7028 -1.6012
 8079SOL    HW235700   0.676   2.356  10.149  2.5552  2.7514  2.1650
 8080SOL     OW35701   1.374   4.171   5.743  0.0343  0.0453  0.2449
 8080SOL    HW135702   1.289   4.186   5.702  1.7063  2.9605 -2.1704
 8080SOL    HW235703   1.411   4.143   5.659 -0.0725 -1.4668  0.7211
 8081SOL     OW35704   1.798   0.190   5.100 -0.2688 -0.6403 -0.8722
 8081SOL    HW135705   1.877   0.216   5.052 -0.6322  0.9475 -0.6111
 8081SOL    HW235706   1.761   0.277   5.084 -0.2421 -0.2604  1.2084
 8082SOL     OW35707   0.125   2.408   4.623  0.4443 -0.3557  0.1827
 8082SOL    HW135708   0.213   2.441   4.640 -0.1758  2.0828 -1.3531
 8082SOL    HW235709   0.089   2.413   4.711  2.1854  1.2636  0.8048
 8083SOL     OW35710   2.417   1.351   8.111 -0.6229 -0.1241  0.0800
 8083SOL    HW135711   2.433   1.306   8.029 -1.1718 -1.4601  0.7145
 8083SOL    HW235712   2.504   1.390   8.121  0.5444 -2.6685 -0.1513
 8084SOL     OW35713   4.099   3.669   3.954  0.2926  1.0721 -0.0035
 8084SOL    HW135714   4.127   3.761   3.957 -0.5806  1.3200  0.6623
 8084SOL    HW235715   4.028   3.673   3.891 -0.7182  0.8475  1.1079
 8085SOL     OW35716   3.637   3.977  14.382 -0.0347  0.2303 -0.0472
 8085SOL    HW135717   3.656   3.985  14.289  3.5497 -0.4220  0.5999
 8085SOL    HW235718   3.559   3.921  14.376 -0.4183  1.0084 -2.0857
 8086SOL     OW35719   1.203   0.508   4.521 -0.1165 -0.2369  0.3968
 8086SOL    HW135720   1.264   0.481   4.452  0.2372  1.2853  0.1096
 8086SOL    HW235721   1.121   0.490   4.476 -1.3262  3.3259  1.2214
 8087SOL     OW35722   4.599   3.315   5.323  0.3008 -0.2620  0.2317
 8087SOL    HW135723   4.557   3.229   5.321 -1.9371  0.8745 -1.3274
 8087SOL    HW235724   4.574   3.361   5.403 -1.8794 -0.7875 -0.1677
 8088SOL     OW35725   0.567   4.378   5.036  0.6209  0.4491 -0.2336
 8088SOL    HW135726   0.545   4.471   5.034 -0.0062  0.3550  2.4334
 8088SOL    HW235727   0.654   4.378   4.997 -0.0309  1.8287 -1.6855
 8089SOL     OW35728   3.640   2.409   9.539 -0.5097  0.4160 -0.3530
 8089SOL    HW135729   3.683   2.331   9.573 -1.1584  0.0615 -0.3322
 8089SOL    HW235730   3.588   2.375   9.466  1.4999 -2.1161 -0.5760
 8090SOL     OW35731   2.132   2.866   1.137  0.0945 -0.3976 -0.0674
 8090SOL    HW135732   2.182   2.838   1.060  1.2743 -0.6146  0.7769
 8090SOL    HW235733   2.117   2.784   1.184  2.5837  0.1760  1.6816
 8091SOL     OW35734   2.716   2.660   7.179 -0.0444 -0.1144  0.4494
 8091SOL    HW135735   2.697   2.743   7.223  1.5005 -0.5451  1.9171
 8091SOL    HW235736   2.795   2.621   7.216 -1.4830 -1.8149  1.7029
 8092SOL     OW35737   2.744   0.044  11.498 -0.1627 -0.1562  0.1987
 8092SOL    HW135738   2.761   0.136  11.479 -1.1984 -0.0771 -0.4099
 8092SOL    HW235739   2.789   0.035  11.582 -0.6248 -0.4414  0.4194
 8093SOL     OW35740   2.967   1.995  16.084  0.1470 -0.3993  0.3909
 8093SOL    HW135741   2.977   1.950  16.168 -1.4388  1.2914  1.5159
 8093SOL    HW235742   3.035   1.958  16.028  1.0415  2.2412 -0.2907
 8094SOL     OW35743   0.929   3.974   5.833 -0.7046 -0.0441  0.1788
 8094SOL    HW135744   0.930   3.902   5.896 -2.1709 -1.5577 -1.5253
 8094SOL    HW235745   0.938   4.049   5.892 -0.1989 -0.4073  0.5658
 8095SOL     OW35746   1.892   2.779  16.440  0.5807 -0.1064 -0.4256
 8095SOL    HW135747   1.799   2.794  16.455  0.8917  1.1536  0.2704
 8095SOL    HW235748   1.900   2.692  16.479  0.6530  0.1938  0.2266
 8096SOL     OW35749   0.432   1.948   4.914 -0.4369  0.2002  0.2940
 8096SOL    HW135750   0.373   1.883   4.876  0.9131 -1.3485  0.8414
 8096SOL    HW235751   0.404   1.965   5.004 -2.3443 -2.6779  0.2399
 8097SOL     OW35752   2.371   0.746   4.496  0.1344 -0.5305  0.5537
 8097SOL    HW135753   2.427   0.707   4.563  0.4282 -2.3785 -0.7481
 8097SOL    HW235754   2.421   0.819   4.460 -3.3869  1.6199  0.0060
 8098SOL     OW35755   4.461   3.837  10.151  0.0608 -0.1096 -0.0720
 8098SOL    HW135756   4.389   3.897  10.171 -1.7036 -2.3001  0.1545
 8098SOL    HW235757   4.508   3.878  10.079 -1.4791  0.6360 -0.6548
 8099SOL     OW35758   3.090   2.999  10.708 -0.2479  0.4737  0.0751
 8099SOL    HW135759   3.044   3.059  10.766 -2.2247  1.0754 -2.1193
 8099SOL    HW235760   3.025   2.961  10.649  0.2892 -1.8343  0.9801
 8100SOL     OW35761   3.194   0.813   9.472  0.0003 -0.0106  0.0621
 8100SOL    HW135762   3.101   0.793   9.485  0.1643 -0.0099  1.2681
 8100SOL    HW235763   3.196   0.770   9.387  1.0023 -1.4077  0.7747
 8101SOL     OW35764   3.646   0.515   1.693 -0.2536  0.8735  0.1405
 8101SOL    HW135765   3.627   0.562   1.775 -0.9963  0.3468  0.2677
 8101SOL    HW235766   3.691   0.575   1.634  0.0220  0.5788  0.0481
 8102SOL     OW35767   0.332   3.058   6.881 -0.1038  0.3309 -0.3477
 8102SOL    HW135768   0.280   3.093   6.809 -0.8280 -2.3652 -1.1317
 8102SOL    HW235769   0.293   3.111   6.950  1.3802  1.8586 -0.6772
 8103SOL     OW35770   0.038   0.659   4.780 -0.1647  0.4829  0.1020
 8103SOL    HW135771   0.022   0.565   4.791 -3.1785  0.8021 -1.5511
 8103SOL    HW235772   0.083   0.660   4.695 -0.2170  0.2760  0.0702
 8104SOL     OW35773   0.945   3.766   4.276 -0.1793 -0.1240  0.4606
 8104SOL    HW135774   0.990   3.735   4.198  1.0887  1.0681  0.7326
 8104SOL    HW235775   0.879   3.824   4.238 -1.9314 -2.5029 -0.0997
 8105SOL     OW35776   2.859   4.187   8.427 -0.0897 -0.3004 -0.5548
 8105SOL    HW135777   2.851   4.280   8.405  1.7319 -0.3605 -1.5157
 8105SOL    HW235778   2.781   4.155   8.382 -0.0329 -3.1209  1.3588
 8106SOL     OW35779   3.893   1.779   7.505 -0.2888  0.8293  0.3714
 8106SOL    HW135780   3.894   1.813   7.594 -1.6032 -1.1948  1.1457
 8106SOL    HW235781   3.801   1.783   7.478 -0.9445 -1.9072  2.3072
 8107SOL     OW35782   1.792   0.962   8.916 -0.2382  0.4575  0.4315
 8107SOL    HW135783   1.744   0.898   8.865  0.3653  0.6044 -0.3237
 8107SOL    HW235784   1.797   0.920   9.002 -0.4653 -0.3907  0.0346
 8108SOL     OW35785   0.176   1.199   3.958 -0.2205 -0.2852 -0.4011
 8108SOL    HW135786   0.256   1.147   3.962  1.1812  1.9534  1.2640
 8108SOL    HW235787   0.220   1.284   3.948  1.2801 -0.8613  1.3024
 8109SOL     OW35788   2.269   0.001   6.943 -0.5094  0.0436  0.1206
 8109SOL    HW135789   2.288   4.702   6.852  1.3870 -1.3794  0.8499
 8109SOL    HW235790   2.353   4.700   6.984 -0.8675  0.0738  0.8807
 8110SOL     OW35791   0.838   4.306   4.988  0.2345  0.6143 -0.4117
 8110SOL    HW135792   0.924   4.349   4.991 -0.4284  1.9588 -0.6471
 8110SOL    HW235793   0.838   4.272   4.898 -0.0768 -0.8776  0.1558
 8111SOL     OW35794   2.472   3.144   7.551 -0.3712 -0.2819  0.3103
 8111SOL    HW135795   2.508   3.077   7.609  1.5982 -0.4091 -1.0768
 8111SOL    HW235796   2.400   3.102   7.503  0.0298 -0.0402 -0.5010
 8112SOL     OW35797   1.191   0.501   3.275  0.7752  0.0019  0.8327
 8112SOL    HW135798   1.132   0.511   3.199  1.4121  0.0179  0.3391
 8112SOL    HW235799   1.186   0.585   3.320  0.0656  1.8953 -2.7098
 8113SOL     OW35800   0.063   3.284   0.834 -0.1533 -0.0538 -0.0423
 8113SOL    HW135801   0.000   3.330   0.778 -0.9228 -1.0334  0.0162
 8113SOL    HW235802   0.009   3.205   0.835  0.9477 -0.7935 -0.4132
 8114SOL     OW35803   0.642   1.677  10.026 -0.8670  0.1099  0.0891
 8114SOL    HW135804   0.613   1.706   9.940  0.4004 -2.1729 -1.0907
 8114SOL    HW235805   0.609   1.588  10.034  1.0099 -0.8060 -2.5488
 8115SOL     OW35806   4.446   2.270  16.546 -0.0929 -0.1262 -0.0476
 8115SOL    HW135807   4.464   2.185  16.587  1.3850  0.6667  0.9780
 8115SOL    HW235808   4.442   2.231  16.459 -2.9244 -1.6945  0.7942
 8116SOL     OW35809   0.418   2.183   1.953 -0.0293  0.1280 -0.5408
 8116SOL    HW135810   0.341   2.193   2.010 -1.1991 -0.0842 -2.0777
 8116SOL    HW235811   0.418   2.271   1.915 -0.9213 -0.1920 -1.2747
 8117SOL     OW35812   1.466   2.036   7.884  0.1239  0.1971 -0.6008
 8117SOL    HW135813   1.546   2.052   7.834  0.8890  0.9975  0.8896
 8117SOL    HW235814   1.462   2.100   7.955 -0.8477  1.0662 -1.4250
 8118SOL     OW35815   2.052   0.373   4.389 -0.2809 -0.7156 -0.7168
 8118SOL    HW135816   2.111   0.298   4.387 -1.9054 -1.9948 -0.5119
 8118SOL    HW235817   2.114   0.436   4.425  0.0667 -1.1862 -0.4917
 8119SOL     OW35818   3.688   0.074   1.026 -0.0514  0.1375 -0.3805
 8119SOL    HW135819   3.671   0.130   1.101  0.4325  1.5038 -1.2955
 8119SOL    HW235820   3.784   0.077   1.028  0.0008 -2.0406  0.4036
 8120SOL     OW35821   4.641   3.352   6.553  0.0798 -0.2399 -0.1134
 8120SOL    HW135822   4.645   3.334   6.647 -0.0575 -0.0174 -0.0656
 8120SOL    HW235823   4.660   3.265   6.517 -1.5030 -0.0902 -1.3639
 8121SOL     OW35824   0.565   1.638  17.609  0.3538 -0.0095  0.0981
 8121SOL    HW135825   0.557   1.547  17.578  1.9425  0.2657 -1.1371
 8121SOL    HW235826   0.564   1.629   0.018  1.4518  1.6020  0.2680
 8122SOL     OW35827   0.071   2.817   6.602  0.1255  0.2539  0.1174
 8122SOL    HW135828   4.701   2.788   6.589  0.3543  0.4579 -1.8179
 8122SOL    HW235829   0.114   2.737   6.633  0.7253  0.0204 -1.3644
 8123SOL     OW35830   1.775   4.718   4.676 -0.8417  0.5979 -0.1149
 8123SOL    HW135831   1.860   4.674   4.672 -1.3266 -0.4824  1.5238
 8123SOL    HW235832   1.709   4.662   4.635 -1.2589  1.0329 -0.0404
 8124SOL     OW35833   2.915   3.654   6.699 -0.1729 -0.1015  0.5472
 8124SOL    HW135834   2.945   3.575   6.655 -0.5692 -0.2959  0.6249
 8124SOL    HW235835   2.907   3.613   6.786 -1.0117 -0.5038  0.2864
 8125SOL     OW35836   3.069   1.254  17.179 -0.4620 -0.3041  0.6040
 8125SOL    HW135837   2.977   1.268  17.156 -0.3810 -0.0541  0.4226
 8125SOL    HW235838   3.075   1.174  17.231  1.1429 -0.7119 -0.2251
 8126SOL     OW35839   4.039   4.124   1.909  0.0117  0.3865  0.2233
 8126SOL    HW135840   4.093   4.090   1.979  2.1051  1.3242 -0.9176
 8126SOL    HW235841   4.018   4.042   1.865  1.0177 -0.9347  2.2438
 8127SOL     OW35842   3.871   0.586   8.648 -0.2320 -0.3904  0.3147
 8127SOL    HW135843   3.926   0.660   8.625 -1.9754  0.1882 -1.9169
 8127SOL    HW235844   3.798   0.626   8.696  1.1563  1.0976  1.1862
 8128SOL     OW35845   0.573   3.018   5.499  0.0820 -0.0725  0.4038
 8128SOL    HW135846   0.597   3.111   5.505 -0.8366  0.1428  0.7508
 8128SOL    HW235847   0.526   3.009   5.582  1.3345 -0.8489  1.0123
 8129SOL     OW35848   3.307   3.830   6.137  0.6730  0.0322 -0.5850
 8129SOL    HW135849   3.344   3.745   6.113  1.1139  0.1520 -0.3360
 8129SOL    HW235850   3.326   3.873   6.054 -0.7706  1.2056 -0.3139
 8130SOL     OW35851   3.506   1.365   7.790  0.1468 -0.1009  0.4375
 8130SOL    HW135852   3.559   1.348   7.868  2.0137 -2.6055 -1.3582
 8130SOL    HW235853   3.571   1.334   7.728  1.4846  1.0785  1.2487
 8131SOL     OW35854   1.738   3.465   5.904 -0.0783  0.4898 -0.2953
 8131SOL    HW135855   1.797   3.475   5.979  0.8710  1.7681 -1.2292
 8131SOL    HW235856   1.674   3.524   5.943  0.7250  1.7166 -0.8654
 8132SOL     OW35857   0.693   1.567   7.551 -0.6183 -0.7310  0.3404
 8132SOL    HW135858   0.746   1.628   7.500  2.1726 -1.4064  2.4399
 8132SOL    HW235859   0.762   1.543   7.613  0.5087 -1.5600 -1.2170
 8133SOL     OW35860   4.283   0.448   9.256 -0.8058  0.0961 -0.0734
 8133SOL    HW135861   4.272   0.541   9.272  0.5609  0.3167 -0.3616
 8133SOL    HW235862   4.375   0.434   9.281 -0.4738  0.5506 -1.0299
 8134SOL     OW35863   1.564   3.809   4.095  0.1904 -0.3199 -0.0868
 8134SOL    HW135864   1.538   3.824   4.004  4.1224 -2.2182 -1.4976
 8134SOL    HW235865   1.606   3.893   4.115  1.3727 -1.3546  1.6891
 8135SOL     OW35866   0.967   2.214  17.539 -0.8135 -0.3279  0.5682
 8135SOL    HW135867   0.886   2.239  17.583 -1.3894 -2.1176  0.5066
 8135SOL    HW235868   1.034   2.240  17.603  1.0263 -0.2659 -1.3879
 8136SOL     OW35869   1.892   3.585   4.449 -0.3761  0.0760  0.2659
 8136SOL    HW135870   1.885   3.680   4.442  2.6849  0.3624  0.8951
 8136SOL    HW235871   1.823   3.566   4.386 -0.9816  1.4596  0.5042
 8137SOL     OW35872   0.458   0.263   7.448 -0.1322  0.1487 -0.0020
 8137SOL    HW135873   0.553   0.264   7.457 -0.4215 -0.2138  3.3461
 8137SOL    HW235874   0.437   0.187   7.395  0.0441 -0.4855  0.8358
 8138SOL     OW35875   0.650   3.500   1.707  0.0748 -0.0031 -0.2464
 8138SOL    HW135876   0.656   3.479   1.614 -1.5474  4.3874 -1.3261
 8138SOL    HW235877   0.680   3.590   1.705  2.6369 -0.8688 -0.3279
 8139SOL     OW35878   4.471   2.769   4.316  0.6044  0.2324 -0.3055
 8139SOL    HW135879   4.545   2.829   4.321  0.1273  0.7329  0.8260
 8139SOL    HW235880   4.505   2.695   4.366 -2.3798 -0.1077  1.2012
 8140SOL     OW35881   1.436   0.604   3.558  0.0761 -0.1104 -0.6068
 8140SOL    HW135882   1.370   0.648   3.505 -0.8005  0.3573  0.8704
 8140SOL    HW235883   1.417   0.512   3.540 -1.0287 -0.2327  1.1964
 8141SOL     OW35884   4.110   4.087   6.632 -0.0177  0.0387 -0.0534
 8141SOL    HW135885   4.112   4.040   6.549 -0.1867  1.5479 -0.9007
 8141SOL    HW235886   4.125   4.016   6.695 -0.9573  0.0552  0.1950
 8142SOL     OW35887   2.298   1.883  10.909  0.0585  0.3483  0.7392
 8142SOL    HW135888   2.384   1.906  10.943  0.5745  1.0716 -1.0536
 8142SOL    HW235889   2.286   1.805  10.964  1.0398 -1.2307 -1.2603
 8143SOL     OW35890   2.177   4.088  10.402 -0.2482  0.1083  0.4421
 8143SOL    HW135891   2.197   4.182  10.410  1.5973 -0.2198 -0.3813
 8143SOL    HW235892   2.088   4.082  10.437 -0.8554 -2.1919 -1.5793
 8144SOL     OW35893   4.238   2.536   7.802 -0.1505  0.1314 -0.3408
 8144SOL    HW135894   4.324   2.564   7.831  0.3195  0.6640 -2.2553
 8144SOL    HW235895   4.218   2.615   7.751 -4.8350 -0.6340  0.2502
 8145SOL     OW35896   3.138   1.791  13.043  0.1547 -0.4544  0.1950
 8145SOL    HW135897   3.067   1.815  13.103 -0.2765 -1.1988 -0.0211
 8145SOL    HW235898   3.163   1.881  13.021  0.1531 -0.3533  0.5933
 8146SOL     OW35899   4.570   1.188   5.190 -0.0918 -0.0628 -0.0260
 8146SOL    HW135900   4.631   1.259   5.210  0.9254 -1.3194  1.2982
 8146SOL    HW235901   4.518   1.183   5.270  1.1820  1.5719  0.8884
 8147SOL     OW35902   3.130   0.435   1.119 -0.2683 -0.2717 -0.0228
 8147SOL    HW135903   3.115   0.429   1.213  1.0774  1.5402  0.2978
 8147SOL    HW235904   3.091   0.354   1.086 -1.2376  1.0910 -2.2303
 8148SOL     OW35905   4.420   4.226  12.925  0.3527  0.5125 -0.6229
 8148SOL    HW135906   4.384   4.310  12.953 -1.1723 -0.2518 -0.2838
 8148SOL    HW235907   4.483   4.201  12.993 -0.0921 -1.1330 -0.8056
 8149SOL     OW35908   1.092   3.019  11.073  0.2484 -0.6343  0.3390
 8149SOL    HW135909   1.164   3.070  11.108 -0.3802 -0.4505  1.3412
 8149SOL    HW235910   1.131   2.947  11.022 -0.3385  1.0664 -2.5390
 8150SOL     OW35911   1.136   3.743   3.559  0.6327  0.0455  0.2159
 8150SOL    HW135912   1.189   3.708   3.630  1.5615  0.5935 -0.2144
 8150SOL    HW235913   1.201   3.778   3.499  0.4198  2.5374  1.4335
 8151SOL     OW35914   0.094   3.176  13.882 -0.1335  0.4883 -0.3839
 8151SOL    HW135915   0.053   3.258  13.856 -3.2814 -0.9429  0.0852
 8151SOL    HW235916   0.165   3.209  13.937  1.0246  0.2094 -1.6995
 8152SOL     OW35917   0.005   1.477  13.057 -0.1753 -0.0017  0.2411
 8152SOL    HW135918   0.074   1.538  13.080 -0.4155  0.4146 -0.1668
 8152SOL    HW235919   4.659   1.507  13.119 -1.3329 -0.3877 -0.8135
 8153SOL     OW35920   0.738   3.096   8.767 -0.5970 -0.4972 -0.5802
 8153SOL    HW135921   0.775   3.155   8.832  0.1342  0.4682 -1.8711
 8153SOL    HW235922   0.668   3.054   8.817  2.2544 -2.4634  1.7762
 8154SOL     OW35923   3.626   0.500   3.418 -0.4055  0.3370 -0.0585
 8154SOL    HW135924   3.720   0.482   3.424 -0.6286  0.1017  2.9458
 8154SOL    HW235925   3.598   0.409   3.426  0.4441 -0.2028 -3.2171
 8155SOL     OW35926   2.476   1.309  13.966 -0.0818  0.3376 -0.1167
 8155SOL    HW135927   2.560   1.354  13.963  0.0264  0.2901  1.8499
 8155SOL    HW235928   2.504   1.239  14.024 -1.6594 -0.7575 -0.6645
 8156SOL     OW35929   0.467   2.742   5.611 -0.2926  0.3598  0.1648
 8156SOL    HW135930   0.522   2.676   5.652  0.2657 -0.6323 -2.1892
 8156SOL    HW235931   0.481   2.807   5.680  1.2311  0.9616 -0.6970
 8157SOL     OW35932   0.597   3.609   2.958 -0.4213 -0.1576 -0.3596
 8157SOL    HW135933   0.683   3.569   2.952  0.2293  1.5971 -2.7516
 8157SOL    HW235934   0.564   3.560   3.034 -0.5585 -0.8176 -0.8375
 8158SOL     OW35935   2.844   0.888   9.363 -0.4349  0.2019 -0.0918
 8158SOL    HW135936   2.833   0.943   9.286 -0.2481  1.5117  0.8146
 8158SOL    HW235937   2.839   0.959   9.428 -1.2342  0.0470  0.0176
 8159SOL     OW35938   1.412   1.737   0.025 -0.3334  0.0196  0.2021
 8159SOL    HW135939   1.406   1.761  17.618  1.3486 -1.1528 -0.2161
 8159SOL    HW235940   1.355   1.660   0.025  0.8954 -0.8829 -0.2914
 8160SOL     OW35941   3.727   2.308  12.575  0.4859  0.3731 -0.1470
 8160SOL    HW135942   3.771   2.239  12.625  4.1577  4.1774  1.7510
 8160SOL    HW235943   3.641   2.265  12.574 -0.0083  1.3120  1.4466
 8161SOL     OW35944   3.183   3.716   5.219  0.4246 -0.0605  0.4692
 8161SOL    HW135945   3.210   3.805   5.195  1.3683 -0.8320 -1.3434
 8161SOL    HW235946   3.259   3.673   5.257  0.2721 -0.7748 -0.0426
 8162SOL     OW35947   1.163   2.634   0.314 -0.1232  0.0328  0.0463
 8162SOL    HW135948   1.248   2.624   0.271  0.4494 -2.7589  1.8526
 8162SOL    HW235949   1.103   2.624   0.240  0.5336  0.6606 -0.5683
 8163SOL     OW35950   1.705   4.130   8.930 -0.1503  0.0816  0.0307
 8163SOL    HW135951   1.711   4.095   8.841 -0.5723 -0.3438  0.1711
 8163SOL    HW235952   1.766   4.065   8.966 -0.4463 -0.1531  0.1028
 8164SOL     OW35953   0.161   1.883   4.643 -0.4392 -0.4639  0.3405
 8164SOL    HW135954   0.219   1.818   4.682 -0.6818 -0.1175  1.2720
 8164SOL    HW235955   0.087   1.823   4.639  0.1434 -1.1321 -0.5306
 8165SOL     OW35956   1.568   2.082  12.172 -0.4074 -0.2200  0.6755
 8165SOL    HW135957   1.580   2.119  12.259  0.6019 -0.8017  0.7743
 8165SOL    HW235958   1.475   2.086  12.151 -0.1579  1.4320 -0.1341
 8166SOL     OW35959   1.108   1.579   3.786  0.5216 -0.0572  0.1371
 8166SOL    HW135960   1.077   1.666   3.809  2.0842  0.4857  0.1878
 8166SOL    HW235961   1.203   1.587   3.800  0.6308 -2.3743  0.7420
 8167SOL     OW35962   3.031   4.260   6.586 -0.2500 -0.2201 -0.3352
 8167SOL    HW135963   3.012   4.195   6.518  0.0819  1.5108 -2.0848
 8167SOL    HW235964   3.126   4.267   6.584 -0.2508 -0.1197 -0.0156
 8168SOL     OW35965   1.481   3.979   3.857 -0.1899 -0.9710 -0.0957
 8168SOL    HW135966   1.463   3.897   3.811 -2.5218  0.2955 -1.4884
 8168SOL    HW235967   1.451   4.039   3.788 -1.3681 -1.3125  0.1305
 8169SOL     OW35968   4.018   2.219  14.032  0.0841 -0.6350  0.1031
 8169SOL    HW135969   4.079   2.285  13.999 -0.9535  0.1787 -0.1621
 8169SOL    HW235970   4.072   2.141  14.023  1.4787  0.5246 -1.5518
 8170SOL     OW35971   4.206   1.587  10.731  0.4004  0.2942 -0.3004
 8170SOL    HW135972   4.216   1.570  10.825 -1.3371  0.4572 -0.0722
 8170SOL    HW235973   4.117   1.621  10.719 -0.8098 -2.6537  0.4291
 8171SOL     OW35974   4.291   2.252   8.394  0.2413 -0.6945  0.0753
 8171SOL    HW135975   4.340   2.181   8.354  2.3104  0.9376 -0.2873
 8171SOL    HW235976   4.216   2.263   8.335  0.3869  0.9692  0.2100
 8172SOL     OW35977   0.463   1.523   6.674  0.2555  0.6055 -0.4289
 8172SOL    HW135978   0.387   1.558   6.722 -0.6778 -0.6347 -1.0104
 8172SOL    HW235979   0.526   1.548   6.741 -0.7428  1.7332  0.0928
 8173SOL     OW35980   2.294   3.105   9.290 -0.3247  0.2066 -0.2957
 8173SOL    HW135981   2.202   3.118   9.312 -0.2785  0.5345 -0.2936
 8173SOL    HW235982   2.326   3.091   9.379 -1.4213  2.2863  0.4387
 8174SOL     OW35983   1.920   4.564   6.632 -0.0372 -0.2515 -0.5523
 8174SOL    HW135984   1.975   4.536   6.706  0.7706  1.6127 -0.4582
 8174SOL    HW235985   1.852   4.601   6.688  0.4677 -1.1197  0.6426
 8175SOL     OW35986   0.439   0.034  17.560  0.2790  0.6080  0.3685
 8175SOL    HW135987   0.354   0.079  17.555  0.6414  1.3496  0.9769
 8175SOL    HW235988   0.410   4.688  17.622  1.2032  0.5384  0.7210
 8176SOL     OW35989   3.699   4.507  11.013 -0.1684  0.0260  0.9021
 8176SOL    HW135990   3.735   4.573  11.072 -0.3355  1.7584 -0.9331
 8176SOL    HW235991   3.768   4.503  10.946  1.6973 -1.1787  2.9144
 8177SOL     OW35992   1.872   0.428   1.700  0.1068 -0.0033  0.2817
 8177SOL    HW135993   1.958   0.469   1.712  0.7671 -1.9839  2.3218
 8177SOL    HW235994   1.851   0.456   1.611 -1.4078  2.9533  1.5732
 8178SOL     OW35995   1.559   4.515   6.608  0.4312  0.4778  0.1751
 8178SOL    HW135996   1.470   4.511   6.644 -0.0665 -1.2837 -1.2889
 8178SOL    HW235997   1.606   4.535   6.689 -1.8727  4.5452  0.5151
 8179SOL     OW35998   3.450   0.284   1.873 -0.2389  0.4683  0.2936
 8179SOL    HW135999   3.434   0.334   1.952  0.6673  0.6806  0.3412
 8179SOL    HW236000   3.472   0.357   1.816  3.1026  0.5948  1.7976
 8180SOL     OW36001   3.223   3.684   7.876  0.4524  0.0159  0.5971
 8180SOL    HW136002   3.245   3.669   7.967  1.3031  0.0387  0.3924
 8180SOL    HW236003   3.282   3.752   7.846 -1.1482  1.3395  0.4201
 8181SOL     OW36004   0.702   4.599   3.172  0.4220  0.1548  0.2594
 8181SOL    HW136005   0.684   4.670   3.234  0.5691  0.9607 -0.6028
 8181SOL    HW236006   0.654   4.632   3.095  1.2361  0.7640  0.0143
 8182SOL     OW36007   3.074   4.548   7.001 -0.2612 -0.2544 -0.0346
 8182SOL    HW136008   3.058   4.627   6.948 -1.9866  1.5186  3.1432
 8182SOL    HW236009   3.019   4.492   6.946  2.2144 -1.2801 -1.4424
 8183SOL     OW36010   3.746   1.680   9.322  0.5959 -0.3325  0.0804
 8183SOL    HW136011   3.683   1.642   9.383  1.0461 -1.5520 -0.2079
 8183SOL    HW236012   3.794   1.748   9.368 -0.7804  0.9583 -0.4041
 8184SOL     OW36013   4.326   2.669   2.971 -0.0847 -0.1598 -0.9285
 8184SOL    HW136014   4.243   2.710   2.994 -0.7523 -2.1672  0.2487
 8184SOL    HW236015   4.358   2.727   2.901 -0.3719  1.5150  0.3400
 8185SOL     OW36016   0.519   1.634   3.869 -0.3597  0.0179 -0.4490
 8185SOL    HW136017   0.428   1.663   3.874 -0.8485 -1.4866 -0.5752
 8185SOL    HW236018   0.508   1.549   3.910  1.8477  0.8228  1.8306
 8186SOL     OW36019   0.916   2.016   6.738  0.4605 -0.2109  0.3950
 8186SOL    HW136020   0.905   2.105   6.704  0.8633 -0.1050  0.5413
 8186SOL    HW236021   1.005   2.026   6.771  0.0781 -2.8491  2.1855
 8187SOL     OW36022   2.973   4.213   1.862  0.5926 -0.0951  0.3194
 8187SOL    HW136023   2.923   4.247   1.788 -0.4701 -1.7915  0.2491
 8187SOL    HW236024   2.964   4.118   1.851 -1.8271  0.3004 -1.1458
 8188SOL     OW36025   0.225   4.593   0.600  0.0278 -0.7418  0.4095
 8188SOL    HW136026   0.150   4.554   0.555 -0.7184 -1.6629  2.4522
 8188SOL    HW236027   0.254   4.664   0.542 -0.6439 -1.4605 -0.8153
 8189SOL     OW36028   3.448   2.440   8.544 -0.2291  0.0029  0.2649
 8189SOL    HW136029   3.355   2.432   8.568 -0.3484  0.5681 -0.0040
 8189SOL    HW236030   3.487   2.421   8.629 -0.0119  0.7201  0.3275
 8190SOL     OW36031   0.621   2.699  16.996 -0.4396 -0.8502 -0.1365
 8190SOL    HW136032   0.684   2.645  17.044 -1.7195 -2.8442 -0.7079
 8190SOL    HW236033   0.668   2.695  16.913  1.3138 -0.5871  0.8248
 8191SOL     OW36034   3.861   4.592  10.282 -0.0017 -0.5563 -0.2513
 8191SOL    HW136035   3.861   4.666  10.343  1.6773  0.7720 -1.8841
 8191SOL    HW236036   3.941   4.611  10.233 -0.4472  0.8833 -0.4214
 8192SOL     OW36037   1.597   4.208   6.561 -0.3655 -0.1899 -0.2552
 8192SOL    HW136038   1.655   4.137   6.589 -1.2558 -0.9493 -0.3693
 8192SOL    HW236039   1.608   4.274   6.629  0.6270  2.3973 -2.8902
 8193SOL     OW36040   2.874   1.858  12.478  0.2389  0.0613 -0.3071
 8193SOL    HW136041   2.903   1.936  12.431  2.1843  1.5174  3.2466
 8193SOL    HW236042   2.856   1.901  12.562 -2.1967 -2.9885  0.7182
 8194SOL     OW36043   2.033   2.420   1.028  0.1617  0.0473 -0.8376
 8194SOL    HW136044   2.088   2.495   1.053  0.6237 -0.4595 -0.3497
 8194SOL    HW236045   2.098   2.351   1.016  1.8126  1.2832  0.9895
 8195SOL     OW36046   4.594   3.723   3.672 -0.0896 -0.1813  1.1439
 8195SOL    HW136047   4.581   3.720   3.767 -0.1111  2.3159  1.2352
 8195SOL    HW236048   4.600   3.636   3.632  0.5853  0.9069 -1.1324
 8196SOL     OW36049   1.704   0.628  16.616  0.1028 -0.2760  0.5541
 8196SOL    HW136050   1.717   0.582  16.699  0.7114 -1.2243 -0.0691
 8196SOL    HW236051   1.665   0.561  16.560  0.5530  0.4115 -0.5678
 8197SOL     OW36052   1.578   2.430   3.690  0.5442 -0.2388  0.1782
 8197SOL    HW136053   1.497   2.416   3.642 -0.1277 -0.5576  1.3846
 8197SOL    HW236054   1.587   2.346   3.737  0.5690  0.3438  1.2259
 8198SOL     OW36055   4.717   1.632   3.511 -0.5399 -0.1691 -0.0104
 8198SOL    HW136056   4.637   1.613   3.462  0.3787  1.5741 -2.2025
 8198SOL    HW236057   4.700   1.660   3.601 -1.0152 -0.5153  0.0093
 8199SOL     OW36058   2.680   4.482   1.799  0.0329  0.7150  0.0449
 8199SOL    HW136059   2.756   4.480   1.857 -0.1494 -2.3115  0.2162
 8199SOL    HW236060   2.677   4.390   1.771 -1.7626  1.5417 -2.4533
 8200SOL     OW36061   2.764   3.424   2.693 -0.3491  0.1945 -0.2200
 8200SOL    HW136062   2.830   3.444   2.626  1.1230  0.5521  1.3509
 8200SOL    HW236063   2.794   3.477   2.767  0.0109 -1.3036  0.6974
 8201SOL     OW36064   4.523   2.684   3.580 -0.1872 -0.4864  0.5609
 8201SOL    HW136065   4.608   2.657   3.547  0.0563 -2.3787  2.6864
 8201SOL    HW236066   4.490   2.597   3.605 -0.7409 -0.3687  0.2286
 8202SOL     OW36067   0.662   3.439   7.249  0.6864 -0.1721  0.0196
 8202SOL    HW136068   0.730   3.372   7.256  0.9488  0.1535  0.5543
 8202SOL    HW236069   0.718   3.517   7.255  1.2412 -0.3483 -2.6012
 8203SOL     OW36070   2.659   3.314   6.973 -0.3275  0.2401 -0.1381
 8203SOL    HW136071   2.591   3.379   6.985 -0.5662  0.0373 -0.4044
 8203SOL    HW236072   2.659   3.284   7.064  0.8078 -1.3841 -0.6644
 8204SOL     OW36073   4.541   4.194   5.629  0.1563  0.1311  0.3864
 8204SOL    HW136074   4.609   4.128   5.638  0.1322 -0.0557 -0.8175
 8204SOL    HW236075   4.542   4.234   5.716 -0.0454 -2.8171  1.7409
 8205SOL     OW36076   0.261   1.386   7.017  0.2168  0.2712 -0.2295
 8205SOL    HW136077   0.165   1.383   7.013  0.0903 -0.7266  3.6675
 8205SOL    HW236078   0.287   1.469   7.056 -0.9747  0.9439 -0.8739
 8206SOL     OW36079   3.226   0.921   7.422 -0.6454 -0.0241 -0.1936
 8206SOL    HW136080   3.288   0.987   7.450  0.4131 -1.1686  0.1742
 8206SOL    HW236081   3.153   0.939   7.482  1.0829  0.8230  1.6503
 8207SOL     OW36082   1.627   0.414  10.662  0.3678 -0.8855 -0.8031
 8207SOL    HW136083   1.663   0.328  10.685  1.2179  0.1740  1.8825
 8207SOL    HW236084   1.553   0.388  10.607  0.1130  0.2460 -0.9961
 8208SOL     OW36085   0.516   2.545   8.929  0.6777 -0.2193  0.3269
 8208SOL    HW136086   0.459   2.478   8.893  2.3217 -0.2964 -2.1700
 8208SOL    HW236087   0.494   2.521   9.019 -1.2659  1.7656  0.3733
 8209SOL     OW36088   1.445   3.750   5.872 -0.1085  0.5903 -0.5435
 8209SOL    HW136089   1.436   3.752   5.777  0.7061 -0.6488 -0.6433
 8209SOL    HW236090   1.368   3.802   5.896 -1.0069  0.0668 -2.3389
 8210SOL     OW36091   1.664   3.766   7.590 -0.1065  0.4298  0.2670
 8210SOL    HW136092   1.612   3.837   7.554 -0.8222 -0.8661 -1.2340
 8210SOL    HW236093   1.737   3.821   7.621  0.6990  0.2468 -1.3050
 8211SOL     OW36094   4.189   2.286  11.895  0.1509  0.2445  0.5084
 8211SOL    HW136095   4.284   2.294  11.907  0.0366  1.3242  0.6151
 8211SOL    HW236096   4.161   2.231  11.969  1.6197 -3.3330 -1.5632
 8212SOL     OW36097   2.496   3.925   8.865 -0.4092  0.0773 -0.6210
 8212SOL    HW136098   2.519   4.008   8.822  2.0835  1.0518  2.6266
 8212SOL    HW236099   2.439   3.883   8.800 -0.7880 -1.9755  1.0394
 8213SOL     OW36100   4.262   0.801   0.668  0.4837  0.0767  0.2268
 8213SOL    HW136101   4.183   0.790   0.720  1.6550 -0.2759  1.9355
 8213SOL    HW236102   4.249   0.877   0.611  1.2855  0.6683  0.8259
 8214SOL     OW36103   0.383   2.307  12.683  0.3109 -0.2352 -0.2301
 8214SOL    HW136104   0.450   2.361  12.641 -0.7059  1.8014  0.7643
 8214SOL    HW236105   0.365   2.234  12.623  3.1749 -1.0024 -0.1568
 8215SOL     OW36106   0.756   3.908   6.673 -0.1500 -0.1582 -0.2070
 8215SOL    HW136107   0.696   3.983   6.665  0.1572 -0.2681 -3.5770
 8215SOL    HW236108   0.692   3.839   6.688 -0.6324  0.4119  0.3425
 8216SOL     OW36109   0.914   3.792   3.058 -0.0465  0.2123 -0.5533
 8216SOL    HW136110   0.824   3.800   3.028 -0.6802 -0.1988  1.2787
 8216SOL    HW236111   0.905   3.834   3.143 -0.0104 -2.8554  0.9737
 8217SOL     OW36112   4.408   3.081   6.970  0.3194 -0.4126 -0.2317
 8217SOL    HW136113   4.312   3.080   6.974  0.3202  1.3803  0.0668
 8217SOL    HW236114   4.427   2.989   6.951  3.8567  0.1787  0.5348
 8218SOL     OW36115   3.291   0.015   3.105 -0.7547 -0.5609  0.4360
 8218SOL    HW136116   3.279   4.643   3.128 -0.8784 -1.0352 -1.5626
 8218SOL    HW236117   3.364   0.009   3.043 -0.2969  0.9637  0.8323
 8219SOL     OW36118   1.054   2.859   5.146 -0.2787  0.2540  0.1404
 8219SOL    HW136119   1.061   2.822   5.234  2.0430 -2.0531 -1.0099
 8219SOL    HW236120   1.091   2.943   5.175 -0.1401 -0.4285  1.9476
 8220SOL     OW36121   3.908   2.246   8.688  0.1205  0.0923  0.1249
 8220SOL    HW136122   3.991   2.204   8.710  0.4896  0.1317 -1.1519
 8220SOL    HW236123   3.949   2.317   8.637  0.1732  0.6933  1.0149
 8221SOL     OW36124   3.939   3.952   4.582 -0.0634 -0.2849  0.2188
 8221SOL    HW136125   3.957   3.873   4.632 -2.1820 -1.2767 -0.5700
 8221SOL    HW236126   3.869   3.930   4.519  2.0528  0.1630 -2.2940
 8222SOL     OW36127   3.453   4.023  13.288  0.0456 -0.7415  0.0777
 8222SOL    HW136128   3.548   4.023  13.275 -0.0096 -0.2111 -0.3398
 8222SOL    HW236129   3.437   3.997  13.378  1.2884  1.0976  0.8178
 8223SOL     OW36130   3.229   0.788  15.324 -0.1620  0.1442 -0.8131
 8223SOL    HW136131   3.163   0.812  15.259  0.3065  0.8093 -1.0459
 8223SOL    HW236132   3.229   0.868  15.378  0.2413  0.3963 -1.1836
 8224SOL     OW36133   1.942   3.149  17.190  0.0267  0.3758 -0.4676
 8224SOL    HW136134   1.903   3.079  17.243  0.2980 -0.5571 -1.5003
 8224SOL    HW236135   1.869   3.162  17.130  0.7802  0.7491 -1.3031
 8225SOL     OW36136   1.998   1.833  12.290 -0.2766 -0.1719  0.1183
 8225SOL    HW136137   1.932   1.823  12.220 -1.4212  1.3327  0.9868
 8225SOL    HW236138   2.005   1.928  12.300 -0.9338 -0.3285  1.9772
 8226SOL     OW36139   0.257   3.325   1.648 -0.1595  0.0193  0.3975
 8226SOL    HW136140   0.287   3.408   1.685 -0.1606  0.8170 -1.3709
 8226SOL    HW236141   0.196   3.362   1.584  1.8682  0.9632 -0.9860
 8227SOL     OW36142   2.160   2.303   5.355 -0.2177  0.1312 -0.0880
 8227SOL    HW136143   2.228   2.347   5.405  0.4885  1.2024 -1.9699
 8227SOL    HW236144   2.083   2.350   5.388  0.9668  1.8280  0.2420
 8228SOL     OW36145   3.332   1.832   7.992  0.2203 -0.0129 -0.5219
 8228SOL    HW136146   3.315   1.924   7.972  0.4160 -0.4873 -2.8135
 8228SOL    HW236147   3.340   1.832   8.088  1.5104  2.1898 -0.6488
 8229SOL     OW36148   4.418   0.743   7.222  0.5452 -0.0295 -0.1706
 8229SOL    HW136149   4.324   0.757   7.206  0.7027  0.0079 -1.0285
 8229SOL    HW236150   4.427   0.745   7.317 -0.4484  3.3564 -0.1148
 8230SOL     OW36151   3.651   4.530  11.783  0.0858 -0.7776 -0.1528
 8230SOL    HW136152   3.581   4.509  11.721 -0.3727 -0.1738  0.1646
 8230SOL    HW236153   3.725   4.555  11.728  1.6630  0.3533  2.4622
 8231SOL     OW36154   2.030   3.305   7.900  0.1250  0.1593  0.7752
 8231SOL    HW136155   1.979   3.226   7.886  1.4275 -0.4339 -0.6206
 8231SOL    HW236156   2.049   3.326   7.808  2.5881 -0.0507  1.2409
 8232SOL     OW36157   0.984   0.778   2.479  0.1648 -0.2930 -0.0869
 8232SOL    HW136158   0.920   0.837   2.440 -0.4930 -0.5176  0.6524
 8232SOL    HW236159   1.063   0.823   2.447 -0.3840 -0.6082 -1.8795
 8233SOL     OW36160   4.408   3.732   5.609 -0.0116 -0.8811 -0.2857
 8233SOL    HW136161   4.378   3.818   5.639  0.2271 -0.9421  0.1281
 8233SOL    HW236162   4.351   3.674   5.660  1.5177 -0.7832  1.5353
 8234SOL     OW36163   2.689   2.024   1.579  0.1647 -0.7003  0.5784
 8234SOL    HW136164   2.771   2.069   1.559 -0.7531  0.9000  0.4585
 8234SOL    HW236165   2.640   2.055   1.504  1.9510 -1.8757 -1.0743
 8235SOL     OW36166   0.305   0.707   0.446  0.5230  0.1735 -0.8214
 8235SOL    HW136167   0.244   0.766   0.490  0.0808  0.3326 -1.6434
 8235SOL    HW236168   0.351   0.774   0.393  0.3699 -1.9673 -3.6818
 8236SOL     OW36169   0.149   2.094  11.408  0.5151 -0.0326  0.3794
 8236SOL    HW136170   0.217   2.096  11.476  0.6555  0.5146  0.2299
 8236SOL    HW236171   0.202   2.079  11.330 -1.2687 -0.8740 -0.6617
 8237SOL     OW36172   2.954   1.003   4.203 -0.1773  0.3509  0.0017
 8237SOL    HW136173   3.025   0.941   4.217  1.0898  1.6584 -0.6616
 8237SOL    HW236174   2.881   0.942   4.214  0.3546 -0.1079  0.9576
 8238SOL     OW36175   3.805   2.892  11.515  0.1357  0.5296  0.1058
 8238SOL    HW136176   3.796   2.796  11.509  0.1370  0.5459 -0.1385
 8238SOL    HW236177   3.873   2.911  11.579 -1.1878 -1.1110  2.0104
 8239SOL     OW36178   1.333   2.055   4.428  0.0063 -0.1888 -0.1897
 8239SOL    HW136179   1.295   1.968   4.440  0.3231 -0.1382  1.1395
 8239SOL    HW236180   1.376   2.040   4.343  1.4292  3.1835 -0.0813
 8240SOL     OW36181   3.656   0.604   4.804 -0.0078 -0.4752 -0.4445
 8240SOL    HW136182   3.661   0.623   4.711 -1.8263 -0.2842 -0.5142
 8240SOL    HW236183   3.748   0.587   4.822 -0.1061  1.6838  2.2753
 8241SOL     OW36184   4.653   1.900   6.664  0.0350 -0.3546  0.0867
 8241SOL    HW136185   4.688   1.862   6.583  0.1103  0.5777 -0.3096
 8241SOL    HW236186   4.647   1.992   6.640 -0.9440 -0.1731  0.9984
 8242SOL     OW36187   0.885   2.052   5.366  0.2424  0.1245  0.1121
 8242SOL    HW136188   0.964   2.102   5.386 -0.1869  1.3930 -1.3376
 8242SOL    HW236189   0.818   2.116   5.387  0.4211  0.6869 -0.9881
 8243SOL     OW36190   4.167   0.804   7.180  0.6823 -0.4205  0.6063
 8243SOL    HW136191   4.106   0.856   7.232  0.7317  0.6768 -0.4336
 8243SOL    HW236192   4.208   0.867   7.121 -1.9412  3.0056  2.4367
 8244SOL     OW36193   1.140   1.976   7.183 -0.0739  0.0895  0.3333
 8244SOL    HW136194   1.233   1.983   7.159  0.6166  0.7123  3.1477
 8244SOL    HW236195   1.117   1.884   7.172 -1.3639  0.0913  2.8925
 8245SOL     OW36196   1.208   4.235   5.108  0.3032 -0.3069  0.1694
 8245SOL    HW136197   1.295   4.197   5.101  0.5392  0.3914 -0.7334
 8245SOL    HW236198   1.161   4.155   5.086  1.4015 -1.5728  2.5164
 8246SOL     OW36199   2.480   0.187   5.685  0.1222  0.5962  0.0441
 8246SOL    HW136200   2.425   0.240   5.743 -1.9745 -0.6335 -0.8180
 8246SOL    HW236201   2.408   0.135   5.650 -0.1216  1.0230 -0.0897
 8247SOL     OW36202   3.093   2.897   8.673  0.1823  0.0179 -0.1763
 8247SOL    HW136203   3.102   2.802   8.668 -2.4176 -0.1061 -2.0080
 8247SOL    HW236204   3.165   2.928   8.618  1.2877 -0.7977  0.7847
 8248SOL     OW36205   3.647   1.030   7.165 -0.0957 -0.2921  0.3973
 8248SOL    HW136206   3.662   0.944   7.203 -0.4276  0.3534  1.9575
 8248SOL    HW236207   3.669   1.078   7.245 -0.1522 -0.2551  0.3905
 8249SOL     OW36208   4.561   0.593  13.298 -0.4249  0.2798  0.1045
 8249SOL    HW136209   4.588   0.572  13.388  1.4720  0.2472 -0.4690
 8249SOL    HW236210   4.518   0.513  13.267  0.6542  0.0821 -0.8589
 8250SOL     OW36211   1.013   3.717  10.996  0.1013  0.1235 -0.4707
 8250SOL    HW136212   1.021   3.637  11.048 -0.6089 -0.2200 -0.8929
 8250SOL    HW236213   1.058   3.778  11.055  0.9383 -0.2248 -0.7457
 8251SOL     OW36214   0.561   3.881   4.359 -0.0851 -0.1020  0.2053
 8251SOL    HW136215   0.509   3.931   4.422  1.8945  2.9247 -0.5761
 8251SOL    HW236216   0.499   3.878   4.286  0.8255 -0.6282 -0.5471
 8252SOL     OW36217   1.123   2.079  14.839  0.3566 -0.4861  0.7372
 8252SOL    HW136218   1.068   2.051  14.766  0.1171 -2.7368  1.7746
 8252SOL    HW236219   1.151   1.993  14.872 -0.5519 -1.1114 -0.1376
 8253SOL     OW36220   0.041   4.009   8.366 -0.0856 -0.8612  0.2484
 8253SOL    HW136221   0.070   3.925   8.402  2.3893 -0.3387 -0.4936
 8253SOL    HW236222   4.692   4.037   8.425 -1.1493  0.9868 -1.9047
 8254SOL     OW36223   3.626   0.774   2.703  0.1883  0.0281 -0.5721
 8254SOL    HW136224   3.621   0.722   2.623 -2.9287 -2.0136  0.9201
 8254SOL    HW236225   3.673   0.852   2.673  0.1575 -0.5834 -2.1765
 8255SOL     OW36226   0.815   4.172   2.209 -0.4345 -0.4563 -0.5723
 8255SOL    HW136227   0.818   4.258   2.251 -0.4730 -1.0327  0.6209
 8255SOL    HW236228   0.724   4.141   2.214 -0.6864  0.4117  0.3923
 8256SOL     OW36229   1.418   4.618   7.870  0.1038  0.3484 -0.4582
 8256SOL    HW136230   1.341   4.578   7.830  0.7792 -0.4342 -0.9631
 8256SOL    HW236231   1.397   4.606   7.963 -1.7632  1.1489 -0.7804
 8257SOL     OW36232   3.144   1.782   7.419  0.1053 -0.0436  0.5549
 8257SOL    HW136233   3.202   1.756   7.491  0.6387 -3.2202 -1.0217
 8257SOL    HW236234   3.151   1.877   7.429  3.1042 -0.2768  0.7058
 8258SOL     OW36235   1.639   0.131   6.655  0.0066 -0.1217 -0.3203
 8258SOL    HW136236   1.564   0.073   6.637 -1.1291  1.1280  0.4076
 8258SOL    HW236237   1.678   0.151   6.570  0.5206 -0.6836 -0.2203
 8259SOL     OW36238   0.211   0.815  17.497 -0.3920  0.3135  0.2152
 8259SOL    HW136239   0.224   0.722  17.478 -0.2944 -0.3006  3.2806
 8259SOL    HW236240   0.142   0.822  17.562 -1.7389  3.2454 -1.5049
 8260SOL     OW36241   2.223   0.224   2.660 -0.0937 -0.3316 -0.1945
 8260SOL    HW136242   2.202   0.262   2.745  0.4073 -1.9938  0.6756
 8260SOL    HW236243   2.316   0.248   2.661  0.3705 -2.1840  2.2359
 8261SOL     OW36244   0.885   4.621  12.797  0.3129 -0.2435  0.2625
 8261SOL    HW136245   0.964   4.615  12.850  0.7369  2.6267 -0.0190
 8261SOL    HW236246   0.833   4.545  12.822 -1.7513  1.2651  0.5390
 8262SOL     OW36247   2.618   4.708   5.140 -0.1015  0.4399  0.2433
 8262SOL    HW136248   2.621   4.626   5.190  1.1600 -0.6970 -1.7264
 8262SOL    HW236249   2.711   4.717   5.119  0.0443  0.7287  1.0231
 8263SOL     OW36250   0.523   3.671   7.556 -0.1711  0.0423 -0.3736
 8263SOL    HW136251   0.581   3.639   7.625  0.3292  2.1542  0.1860
 8263SOL    HW236252   0.500   3.751   7.605 -0.4751  0.0316 -0.4993
 8264SOL     OW36253   3.356   4.428   8.604  0.3721 -0.4715 -0.1229
 8264SOL    HW136254   3.347   4.474   8.687 -0.4749  2.4742 -1.8526
 8264SOL    HW236255   3.262   4.438   8.588  1.0542  2.8218 -2.1808
 8265SOL     OW36256   3.233   2.731   0.551  0.1175  0.0270  0.6693
 8265SOL    HW136257   3.176   2.807   0.540 -1.4922 -1.5880 -2.1781
 8265SOL    HW236258   3.309   2.752   0.498  1.9403 -3.5544  1.8268
 8266SOL     OW36259   0.976   3.751   6.641 -0.3339 -0.1393  0.5619
 8266SOL    HW136260   0.903   3.812   6.632  0.2381  0.4943  0.2507
 8266SOL    HW236261   0.941   3.661   6.642 -0.4336 -0.1195 -0.8911
 8267SOL     OW36262   3.209   3.880   8.975 -0.1272  0.5204  0.2955
 8267SOL    HW136263   3.149   3.922   8.913 -1.5425 -0.9149  0.7027
 8267SOL    HW236264   3.170   3.909   9.057 -1.6268  1.4701 -0.7502
 8268SOL     OW36265   3.151   3.563   6.408  0.0382 -0.5714  0.3846
 8268SOL    HW136266   3.131   3.657   6.409 -0.6480 -0.6809 -2.1318
 8268SOL    HW236267   3.157   3.562   6.312 -0.2691 -3.1450  0.4000
 8269SOL     OW36268   1.960   0.680  17.532  0.2388 -0.5655 -0.4838
 8269SOL    HW136269   2.054   0.663  17.523  0.3379 -0.0102 -0.4693
 8269SOL    HW236270   1.952   0.766  17.491 -2.1160 -0.3954  0.3437
 8270SOL     OW36271   2.005   2.904   4.071 -0.1404  0.3592 -0.5455
 8270SOL    HW136272   1.942   2.871   4.008  1.4553  0.9319 -2.4454
 8270SOL    HW236273   1.966   2.854   4.142 -0.4431 -0.3856 -1.2429
 8271SOL     OW36274   4.163   3.152   9.818  0.0081  0.1898  0.0336
 8271SOL    HW136275   4.154   3.059   9.795 -1.1495 -0.2560  2.3320
 8271SOL    HW236276   4.094   3.184   9.761 -1.0232  1.8730  2.2246
 8272SOL     OW36277   3.595   4.715  10.204 -0.7988  0.0866 -0.2783
 8272SOL    HW136278   3.544   0.037  10.273  0.6343  0.2645  0.6709
 8272SOL    HW236279   3.672   4.694  10.257 -1.7237 -0.6512  0.7651
 8273SOL     OW36280   0.764   1.624   0.232 -0.2086  0.2508  0.5589
 8273SOL    HW136281   0.687   1.570   0.213  1.3292 -0.9890 -2.1307
 8273SOL    HW236282   0.744   1.673   0.312 -3.0082 -0.3837  0.2269
 8274SOL     OW36283   1.131   0.249   7.417  0.0154  0.3956  0.3505
 8274SOL    HW136284   1.206   0.190   7.420  0.4652  1.2692  5.4757
 8274SOL    HW236285   1.177   0.323   7.378  2.1315 -1.1253 -0.0445
 8275SOL     OW36286   4.172   0.176  12.861 -0.1132 -0.7256  0.1916
 8275SOL    HW136287   4.083   0.143  12.853 -0.1594 -1.2498  2.7411
 8275SOL    HW236288   4.221   0.111  12.810 -0.2693  0.4050 -1.4081
 8276SOL     OW36289   1.510   1.134   8.344 -0.6452  0.2060  0.2892
 8276SOL    HW136290   1.530   1.209   8.400 -2.2617  0.6799  0.2296
 8276SOL    HW236291   1.430   1.157   8.297 -0.1556 -2.2103 -1.7677
 8277SOL     OW36292   0.147   0.177  16.750  0.1223  0.0355 -0.3868
 8277SOL    HW136293   0.065   0.128  16.743  0.3106 -0.4416  0.6650
 8277SOL    HW236294   0.121   0.252  16.697  0.1375  1.2438  1.2896
 8278SOL     OW36295   4.074   3.497   1.914  0.1393 -0.1441 -0.0234
 8278SOL    HW136296   4.013   3.509   1.841 -1.2444 -0.1146  1.1329
 8278SOL    HW236297   4.148   3.545   1.876 -0.3532 -0.1506 -0.9967
 8279SOL     OW36298   0.602   0.521   2.601 -0.4269 -0.1473 -0.5796
 8279SOL    HW136299   0.631   0.575   2.527  1.8160 -1.4871 -0.6809
 8279SOL    HW236300   0.549   0.586   2.647  0.6139  1.6548 -1.9076
 8280SOL     OW36301   0.306   0.142   2.405 -0.5286 -0.4571 -0.0707
 8280SOL    HW136302   0.341   0.216   2.453 -0.0795 -2.2554  2.3506
 8280SOL    HW236303   0.383   0.101   2.366 -0.7134 -1.4939  0.6518
 8281SOL     OW36304   3.971   4.588   2.575 -0.5468 -0.5587  0.2536
 8281SOL    HW136305   3.896   4.644   2.553 -0.7804 -0.2289  1.8867
 8281SOL    HW236306   4.025   4.663   2.601  0.5593 -0.8238 -1.2964
 8282SOL     OW36307   2.503   0.060  13.375 -0.0331  0.0402 -0.6910
 8282SOL    HW136308   2.495   4.692  13.411  0.4312 -0.1416 -1.0468
 8282SOL    HW236309   2.492   0.110  13.455 -1.0881  1.5172 -1.7516
 8283SOL     OW36310   0.670   3.020   3.533 -0.2945  0.0695  0.1676
 8283SOL    HW136311   0.680   2.940   3.584 -2.3476  1.3959  2.5913
 8283SOL    HW236312   0.691   2.991   3.444 -0.2647 -3.2426  1.2638
 8284SOL     OW36313   3.121   4.658   8.849 -0.1261  0.0959  0.6479
 8284SOL    HW136314   3.212   4.660   8.820  0.0022 -2.7204  0.8551
 8284SOL    HW236315   3.127   4.661   8.944  1.0789 -3.1277  0.6658
 8285SOL     OW36316   0.998   0.619   0.140 -0.0620  0.1320  0.2535
 8285SOL    HW136317   1.090   0.639   0.155 -0.0343  0.0964  0.1308
 8285SOL    HW236318   0.996   0.531   0.177 -0.9756  0.2482  0.4857
 8286SOL     OW36319   0.561   4.057   8.749  0.4501  0.3278  0.6404
 8286SOL    HW136320   0.642   4.021   8.784  0.8521  0.6299  0.0277
 8286SOL    HW236321   0.574   4.031   8.657 -0.7280  2.2085 -0.0617
 8287SOL     OW36322   0.130   4.712   0.853 -0.3692  0.6438  0.0856
 8287SOL    HW136323   0.081   0.047   0.792 -1.0871  0.3519  0.3886
 8287SOL    HW236324   0.182   4.662   0.791 -1.0785  0.6361 -0.4961
 8288SOL     OW36325   4.377   0.990   6.778 -0.2289  0.5655 -0.2583
 8288SOL    HW136326   4.390   0.990   6.873  1.1637 -3.0028 -0.4718
 8288SOL    HW236327   4.461   1.021   6.744 -0.2955 -0.0659 -0.9949
 8289SOL     OW36328   0.145   3.122  14.832 -0.1927  0.2478  0.7031
 8289SOL    HW136329   0.052   3.128  14.853 -0.7578 -0.2072 -1.7404
 8289SOL    HW236330   0.181   3.068  14.902  1.2825  2.3595  1.5804
 8290SOL     OW36331   4.629   4.701   3.284 -0.6158  0.2126  0.4102
 8290SOL    HW136332   4.608   4.690   3.192 -0.0047  0.6905  0.2110
 8290SOL    HW236333   4.661   0.070   3.283 -0.4787  0.1802  2.0639
 8291SOL     OW36334   4.177   0.572  12.608  0.3331 -0.0469 -0.3038
 8291SOL    HW136335   4.212   0.530  12.529  0.3228 -0.8219  0.1014
 8291SOL    HW236336   4.257   0.562  12.660  0.0266 -3.0596 -0.4051
 8292SOL     OW36337   1.677   0.299  14.130  0.2057 -0.6877 -0.0049
 8292SOL    HW136338   1.598   0.326  14.084 -0.1353  0.6332  1.3198
 8292SOL    HW236339   1.660   0.329  14.220 -0.7823  2.4398 -1.2335
 8293SOL     OW36340   1.301   0.632   7.803 -0.1364 -0.2616 -0.3112
 8293SOL    HW136341   1.270   0.671   7.885  2.4068  0.6690  0.2118
 8293SOL    HW236342   1.229   0.578   7.771  0.5468 -0.5843 -1.3149
 8294SOL     OW36343   4.066   0.562   6.228 -0.1823 -0.1896  0.2761
 8294SOL    HW136344   4.105   0.605   6.305 -1.7984 -1.8154  2.0015
 8294SOL    HW236345   4.102   0.474   6.235  1.8637  0.5397 -1.2441
 8295SOL     OW36346   0.415   2.402   5.145  0.3046 -0.4435 -0.0340
 8295SOL    HW136347   0.466   2.321   5.142 -1.3152 -1.4017 -1.8655
 8295SOL    HW236348   0.472   2.457   5.090  0.0150  0.0615  0.1679
 8296SOL     OW36349   3.296   4.070   6.650  0.5861 -1.1037 -0.3782
 8296SOL    HW136350   3.328   4.048   6.562  0.2332  1.0350 -1.0479
 8296SOL    HW236351   3.220   4.013   6.650  0.5753 -1.0805  0.7456
 8297SOL     OW36352   1.841   4.204  13.220 -0.4081  0.0499 -0.3951
 8297SOL    HW136353   1.932   4.187  13.242  0.1679  0.0111 -2.8470
 8297SOL    HW236354   1.803   4.199  13.308  1.7854  0.5082  0.5679
 8298SOL     OW36355   2.253   3.148   3.897  0.3541 -0.2625  0.3049
 8298SOL    HW136356   2.257   3.142   3.993 -0.8479 -0.2079  0.3591
 8298SOL    HW236357   2.309   3.074   3.871 -1.3138 -1.1814 -0.6376
 8299SOL     OW36358   1.256   1.717   9.771 -0.3618 -0.1100 -0.3052
 8299SOL    HW136359   1.259   1.625   9.798 -0.1411  0.1391  0.5132
 8299SOL    HW236360   1.201   1.712   9.692 -0.2096  2.0050 -0.5339
 8300SOL     OW36361   2.817   4.532   3.514 -0.0512 -0.5735 -0.0107
 8300SOL    HW136362   2.730   4.526   3.473  0.0227 -0.3518 -0.2014
 8300SOL    HW236363   2.828   4.443   3.547 -2.7561 -0.8310  0.2441
 8301SOL     OW36364   2.509   2.645   3.672 -0.4370  0.0318  0.1630
 8301SOL    HW136365   2.556   2.638   3.756 -0.4331  3.0750  0.4093
 8301SOL    HW236366   2.547   2.721   3.630 -1.9282  1.0036  0.5429
 8302SOL     OW36367   1.503   2.321   7.196 -0.1201  0.3877 -0.2616
 8302SOL    HW136368   1.482   2.390   7.132  0.2458  0.5920 -0.1620
 8302SOL    HW236369   1.552   2.368   7.263 -0.7393  0.3455  0.2240
 8303SOL     OW36370   4.261   4.643   4.138  0.1502  0.0108 -0.5321
 8303SOL    HW136371   4.192   4.701   4.171  0.9093 -0.0184  1.1032
 8303SOL    HW236372   4.335   4.704   4.135  2.0303 -2.2318  1.2131
 8304SOL     OW36373   4.261   2.545   4.030  0.1848 -0.2233  0.2634
 8304SOL    HW136374   4.222   2.632   4.027 -2.8661 -1.4778  4.6391
 8304SOL    HW236375   4.233   2.526   3.940 -1.1521  0.3014  0.5785
 8305SOL     OW36376   4.307   1.953   3.581 -0.4987 -0.7072  0.0635
 8305SOL    HW136377   4.394   1.919   3.557  0.0352  0.1352  0.7945
 8305SOL    HW236378   4.263   1.971   3.498  0.0718  1.3992  0.2326
 8306SOL     OW36379   2.372   1.496  13.146  0.6920 -0.5926  0.6768
 8306SOL    HW136380   2.404   1.415  13.185  1.0889 -1.2402 -1.0008
 8306SOL    HW236381   2.314   1.536  13.210 -1.3579 -1.3647 -0.6904
 8307SOL     OW36382   2.246   1.812  11.625  0.3987  0.1458  0.5491
 8307SOL    HW136383   2.326   1.834  11.672  0.0207 -0.3910  1.4582
 8307SOL    HW236384   2.289   1.804  11.540  2.4559 -0.0004  1.6127
 8308SOL     OW36385   1.910   4.611   8.976  0.1352  0.5121 -0.7773
 8308SOL    HW136386   1.821   4.643   8.961  0.0242  0.2650 -0.6394
 8308SOL    HW236387   1.898   4.519   8.951  1.7027  0.0947 -0.0246
 8309SOL     OW36388   2.339   2.287   7.759  0.0277  0.4424  0.0426
 8309SOL    HW136389   2.290   2.368   7.774 -1.6134 -0.1476 -2.0791
 8309SOL    HW236390   2.258   2.239   7.743  1.1372 -0.9975 -1.1845
 8310SOL     OW36391   1.192   1.744  15.152 -0.6491 -0.4218 -0.1702
 8310SOL    HW136392   1.194   1.700  15.237 -0.9995 -1.9101 -0.9392
 8310SOL    HW236393   1.181   1.836  15.178  0.8012 -0.5007  0.7050
 8311SOL     OW36394   2.781   1.998  10.976  0.2520 -0.1216  0.1375
 8311SOL    HW136395   2.828   2.068  10.929  2.4330 -1.2017  0.7073
 8311SOL    HW236396   2.810   2.019  11.065 -0.3821 -2.5835  0.9163
 8312SOL     OW36397   2.203   4.003   4.527  0.2534 -0.0452 -0.2024
 8312SOL    HW136398   2.205   4.063   4.451  0.6389  2.0806  1.4816
 8312SOL    HW236399   2.113   4.003   4.558  0.6933 -0.2691  1.0799
 8313SOL     OW36400   3.010   0.758   2.111  0.1257  0.4371  0.7503
 8313SOL    HW136401   2.935   0.797   2.157  0.7639  0.1218  2.0552
 8313SOL    HW236402   3.036   0.833   2.056 -0.0838  0.1572  0.2684
 8314SOL     OW36403   2.524   0.930   3.643  0.4154  0.4310  0.0475
 8314SOL    HW136404   2.531   0.925   3.547  1.0312  1.0930  0.0537
 8314SOL    HW236405   2.605   0.980   3.656  1.1857 -1.2878  1.8769
 8315SOL     OW36406   3.563   3.338   4.304  0.6757 -0.5336 -0.2320
 8315SOL    HW136407   3.587   3.300   4.219  2.8794  1.5639 -0.5675
 8315SOL    HW236408   3.498   3.401   4.273  0.8394 -0.5255 -0.5589
 8316SOL     OW36409   2.095   0.232  12.556  0.5462  0.1750  0.2480
 8316SOL    HW136410   2.073   0.324  12.540 -1.9979 -0.5641 -0.4785
 8316SOL    HW236411   2.123   0.209  12.467 -0.7400 -1.8178  0.3741
 8317SOL     OW36412   1.909   2.457   2.014  0.1502  0.7923  0.3278
 8317SOL    HW136413   1.887   2.547   2.037  0.1163  1.2819 -1.6493
 8317SOL    HW236414   1.952   2.430   2.096  0.7413 -0.6720 -0.4650
 8318SOL     OW36415   2.629   3.858  10.188 -0.6784 -0.1681  0.5809
 8318SOL    HW136416   2.618   3.771  10.226 -0.3379  0.2358  1.6029
 8318SOL    HW236417   2.724   3.857  10.195 -0.7009 -0.6167  0.8110
 8319SOL     OW36418   0.492   1.726  13.513 -0.0367 -0.1497 -0.2023
 8319SOL    HW136419   0.546   1.730  13.434  0.9778  1.6337  0.5829
 8319SOL    HW236420   0.563   1.747  13.574 -0.2273 -0.7943  0.2377
 8320SOL     OW36421   3.872   0.607   8.253 -0.0444  0.3652 -0.3506
 8320SOL    HW136422   3.791   0.577   8.294  0.2993 -0.5796 -0.3832
 8320SOL    HW236423   3.893   0.686   8.304 -1.1607 -1.1744  2.4944
 8321SOL     OW36424   3.769   0.483  10.621 -0.0526  0.2390  0.0913
 8321SOL    HW136425   3.702   0.511  10.558 -1.7817  1.9073  2.6671
 8321SOL    HW236426   3.757   0.389  10.631 -3.3299  0.3747 -2.5952
 8322SOL     OW36427   0.965   3.231   1.937  0.1007  0.1684  0.3331
 8322SOL    HW136428   0.991   3.303   1.880 -1.0094  1.6616  1.7226
 8322SOL    HW236429   1.053   3.198   1.953  0.1432 -0.1564 -0.5595
 8323SOL     OW36430   2.475   1.580   3.976  0.7994  0.4487 -0.2415
 8323SOL    HW136431   2.421   1.627   3.913  0.3377  0.7764  0.3977
 8323SOL    HW236432   2.427   1.499   3.958 -0.1790  1.0359 -0.2303
 8324SOL     OW36433   2.719   2.529  13.060 -0.2340 -0.1434  0.1503
 8324SOL    HW136434   2.759   2.581  13.130  0.8457 -0.0520 -0.5395
 8324SOL    HW236435   2.793   2.476  13.030 -0.5910  0.3256 -1.5796
 8325SOL     OW36436   1.647   4.174   9.317 -0.4388  0.3685 -0.0628
 8325SOL    HW136437   1.707   4.116   9.269 -0.7609  0.4087 -0.5134
 8325SOL    HW236438   1.570   4.118   9.329 -0.3322  0.7062  2.1073
 8326SOL     OW36439   2.426   3.968  13.632 -0.2590 -0.1616 -0.2582
 8326SOL    HW136440   2.511   3.986  13.672  0.3212  0.0600 -1.5793
 8326SOL    HW236441   2.436   3.882  13.590  1.5626  0.2419 -0.6517
 8327SOL     OW36442   1.646   3.600  12.736  0.0865  0.3562 -0.4532
 8327SOL    HW136443   1.718   3.574  12.794  0.3620  1.3585 -0.3488
 8327SOL    HW236444   1.591   3.640  12.803 -0.8623  0.4997 -1.3322
 8328SOL     OW36445   0.129   3.202   5.378  0.9253 -0.1643  0.3529
 8328SOL    HW136446   0.037   3.204   5.352  0.7653  0.3231  0.9607
 8328SOL    HW236447   0.157   3.117   5.345  0.6294  0.4623 -1.4880
 8329SOL     OW36448   2.628   2.541  17.332  0.0972 -0.6434 -0.0802
 8329SOL    HW136449   2.623   2.491  17.413  1.1097 -0.5466  0.0420
 8329SOL    HW236450   2.654   2.472  17.271 -0.7574 -1.7377  0.7924
 8330SOL     OW36451   1.332   0.710   7.188  0.3747 -0.4072  0.4648
 8330SOL    HW136452   1.410   0.696   7.242 -0.2683 -0.3601  1.4036
 8330SOL    HW236453   1.365   0.730   7.100 -0.1107  2.0957  0.8589
 8331SOL     OW36454   3.494   3.310   7.981  0.4951 -0.1114  0.6331
 8331SOL    HW136455   3.488   3.341   8.071  0.5446  1.9529 -0.0756
 8331SOL    HW236456   3.587   3.319   7.959  1.2888 -1.8698  3.3007
 8332SOL     OW36457   2.924   0.578   2.844 -0.1280  0.2122 -0.0596
 8332SOL    HW136458   2.874   0.517   2.788 -1.4346  0.3665  0.9360
 8332SOL    HW236459   2.915   0.662   2.800  1.0587  0.9398  1.1223
 8333SOL     OW36460   1.771   3.033  14.691 -0.5955 -0.0071 -0.0589
 8333SOL    HW136461   1.760   3.071  14.778  1.8731  1.3043 -0.3355
 8333SOL    HW236462   1.704   2.964  14.687  1.1730 -1.7648  0.7472
 8334SOL     OW36463   3.644   4.155   9.419 -0.2069 -0.3064 -0.2884
 8334SOL    HW136464   3.627   4.077   9.471 -0.3027  0.2352  0.4957
 8334SOL    HW236465   3.625   4.135   9.328  0.6073 -1.9946 -0.0919
 8335SOL     OW36466   3.246   1.288  12.819 -0.3576 -0.0845 -0.0581
 8335SOL    HW136467   3.228   1.379  12.796 -0.5987  0.7996  3.6208
 8335SOL    HW236468   3.342   1.286  12.814 -0.4056  0.5506 -1.2773
 8336SOL     OW36469   2.771   0.158   5.412  0.3992 -0.1911  0.4506
 8336SOL    HW136470   2.850   0.124   5.370 -0.3076 -0.8015 -0.3996
 8336SOL    HW236471   2.714   0.081   5.406  0.8732 -0.5566  0.6669
 8337SOL     OW36472   3.455   3.298   6.525 -0.3215 -0.2205 -0.6162
 8337SOL    HW136473   3.367   3.261   6.515 -0.2473 -0.3822 -0.6669
 8337SOL    HW236474   3.432   3.385   6.492 -2.2981 -0.2895  0.5858
 8338SOL     OW36475   2.821   3.738   7.679 -0.4510  0.3880  0.3889
 8338SOL    HW136476   2.814   3.741   7.584  0.3979 -2.6947  0.2345
 8338SOL    HW236477   2.729   3.745   7.707 -1.2442 -2.7669 -1.3854
 8339SOL     OW36478   1.030   2.794   3.438  0.2875  0.0727  0.1480
 8339SOL    HW136479   1.057   2.751   3.519 -0.0557 -0.8777 -0.2404
 8339SOL    HW236480   0.963   2.734   3.408  2.3844 -2.0998 -0.1774
 8340SOL     OW36481   0.297   1.008  11.278 -0.2170 -0.3020 -0.3575
 8340SOL    HW136482   0.391   0.991  11.276 -0.4000 -1.5844  1.7789
 8340SOL    HW236483   0.258   0.921  11.273 -0.3524 -0.3399  1.1918
 8341SOL     OW36484   3.071   4.347   2.652  0.3124  0.4777  0.2970
 8341SOL    HW136485   3.003   4.415   2.648  0.7243  0.8482 -0.3444
 8341SOL    HW236486   3.126   4.367   2.576  3.6643  0.7962  2.8367
 8342SOL     OW36487   0.382   0.385   2.534 -0.6280  0.4374 -0.1790
 8342SOL    HW136488   0.467   0.403   2.575 -1.4213  1.5448  0.9357
 8342SOL    HW236489   0.327   0.402   2.610  0.0217  0.6208  0.2519
 8343SOL     OW36490   0.395   1.810  17.458 -0.0846 -0.1178 -0.1357
 8343SOL    HW136491   0.456   1.744  17.491 -0.5892 -0.7849 -0.5064
 8343SOL    HW236492   0.409   1.783  17.367  1.1099 -1.7592  0.5239
 8344SOL     OW36493   4.396   0.286   0.091  0.5383  0.1957  0.4133
 8344SOL    HW136494   4.443   0.239   0.160 -1.4761  0.7169  2.1675
 8344SOL    HW236495   4.431   0.256   0.008  1.1181 -0.8088  1.0236
 8345SOL     OW36496   4.283   1.809   2.743  0.3726  0.3204  0.4640
 8345SOL    HW136497   4.208   1.750   2.739  1.5844 -1.0929 -0.9455
 8345SOL    HW236498   4.267   1.868   2.669 -1.6840  0.8037  1.2861
 8346SOL     OW36499   3.728   0.639  12.395 -0.2142  0.2035 -0.5131
 8346SOL    HW136500   3.665   0.572  12.423 -0.1723  0.8163  1.0636
 8346SOL    HW236501   3.806   0.607  12.440 -0.9509 -1.9111 -0.7556
 8347SOL     OW36502   1.314   2.806   7.629 -0.3130 -0.0085  0.1955
 8347SOL    HW136503   1.267   2.772   7.553 -1.8146  1.1691  0.6058
 8347SOL    HW236504   1.328   2.727   7.681  2.5082  0.4802  0.1740
 8348SOL     OW36505   0.256   1.701   3.901 -0.0001  0.2771  0.5158
 8348SOL    HW136506   0.180   1.704   3.844  0.6564 -3.0227 -0.4790
 8348SOL    HW236507   0.294   1.785   3.875  1.4868 -0.4414  0.3849
 8349SOL     OW36508   3.364   3.732  13.167  0.2588 -0.2457  0.3418
 8349SOL    HW136509   3.439   3.777  13.127 -0.1708  0.8950  0.8262
 8349SOL    HW236510   3.309   3.811  13.165  0.1582 -0.2507  2.4878
 8350SOL     OW36511   3.138   4.096   8.131  0.1712  0.2383 -0.2616
 8350SOL    HW136512   3.212   4.036   8.122  1.0324  1.0193  1.6262
 8350SOL    HW236513   3.118   4.107   8.038 -1.0292  0.1149 -0.0075
 8351SOL     OW36514   0.296   0.896   2.476 -0.0300 -0.2910 -0.2408
 8351SOL    HW136515   0.275   0.985   2.505  0.2896 -0.4384  0.4526
 8351SOL    HW236516   0.245   0.901   2.395 -0.1922  1.2146 -0.0355
 8352SOL     OW36517   1.437   4.099   7.998  0.3108 -0.3961 -0.3066
 8352SOL    HW136518   1.432   4.165   7.929  0.9694  1.3630  1.3106
 8352SOL    HW236519   1.513   4.050   7.968  0.0432 -0.7736 -0.3631
 8353SOL     OW36520   4.141   1.679   2.202 -0.2248  0.0424  0.2318
 8353SOL    HW136521   4.195   1.618   2.252  0.5642  0.7213  0.2104
 8353SOL    HW236522   4.098   1.628   2.133  0.9188  0.4698 -0.8097
 8354SOL     OW36523   0.582   3.398   4.009 -0.3004  0.4380  0.1864
 8354SOL    HW136524   0.578   3.334   4.080 -0.9979  0.9719  0.6232
 8354SOL    HW236525   0.666   3.443   4.024 -0.5809  0.1414  2.6099
 8355SOL     OW36526   1.335   2.214   3.879  0.2333  0.0301 -0.5466
 8355SOL    HW136527   1.288   2.141   3.839  0.3658 -1.5829  2.2363
 8355SOL    HW236528   1.350   2.262   3.798  1.5331  1.8774  0.7895
 8356SOL     OW36529   4.553   0.716   7.802  0.1297  0.3460  0.3362
 8356SOL    HW136530   4.573   0.809   7.807  1.9731 -0.0364  0.0180
 8356SOL    HW236531   4.643   0.692   7.828 -0.0789 -1.4579 -0.6217
 8357SOL     OW36532   4.700   0.621   5.644  0.4955  0.1668  0.1141
 8357SOL    HW136533   0.052   0.647   5.587 -1.5254  0.2782 -2.3901
 8357SOL    HW236534   4.631   0.625   5.578  0.3620  0.4714  0.2697
 8358SOL     OW36535   0.706   2.455   3.795  0.8771 -0.2848  0.3278
 8358SOL    HW136536   0.693   2.438   3.888 -1.0465  0.4728  0.1998
 8358SOL    HW236537   0.797   2.430   3.781  1.1255  0.9788 -0.3665
 8359SOL     OW36538   3.839   0.239   9.261 -0.3101  0.3300  0.6490
 8359SOL    HW136539   3.928   0.208   9.242 -0.8735  0.1612 -1.7335
 8359SOL    HW236540   3.805   0.270   9.177 -0.5166  0.4095  0.7629
 8360SOL     OW36541   0.309   4.661  17.072  0.5505 -0.2641  0.0916
 8360SOL    HW136542   0.381   4.707  17.029  1.8928 -0.8506  1.7581
 8360SOL    HW236543   0.259   4.644  16.992 -0.9864  4.3187  0.0542
 8361SOL     OW36544   3.361   4.250  14.888 -0.2965 -0.3805  0.3187
 8361SOL    HW136545   3.351   4.214  14.800  0.1746 -3.2034  1.3887
 8361SOL    HW236546   3.307   4.328  14.887  0.4894  0.1327 -1.3624
 8362SOL     OW36547   2.556   2.360  13.339 -0.1355  0.1499  0.2563
 8362SOL    HW136548   2.644   2.366  13.377 -0.0330  0.9774 -0.1107
 8362SOL    HW236549   2.505   2.425  13.387 -1.5652  1.1927 -2.6360
 8363SOL     OW36550   0.606   2.465  13.319 -0.2178 -0.3560  0.3640
 8363SOL    HW136551   0.528   2.444  13.371  0.2521 -2.1924  0.3494
 8363SOL    HW236552   0.585   2.415  13.240 -0.5039 -0.0223  0.2289
 8364SOL     OW36553   0.688   0.751   5.628 -1.0154  0.1783  0.0350
 8364SOL    HW136554   0.688   0.731   5.534 -0.3940 -0.0669  0.0895
 8364SOL    HW236555   0.694   0.662   5.661 -3.3392 -0.3225 -0.8513
 8365SOL     OW36556   0.725   4.246   5.982 -0.3697 -0.4732  0.0343
 8365SOL    HW136557   0.682   4.330   5.969  2.2787  1.0282  1.0803
 8365SOL    HW236558   0.687   4.201   5.906 -0.4226 -0.6475  0.1639
 8366SOL     OW36559   2.401   2.392   3.747  0.0926  0.4592  0.1751
 8366SOL    HW136560   2.443   2.443   3.678  2.9760  0.9224  2.2514
 8366SOL    HW236561   2.310   2.405   3.720  0.4026  1.8865 -0.2259
 8367SOL     OW36562   4.449   1.507   9.646 -0.1189 -0.1260  0.0149
 8367SOL    HW136563   4.501   1.458   9.584  1.4692  1.7951 -0.1787
 8367SOL    HW236564   4.450   1.449   9.722 -2.5179  1.0489  0.9764
 8368SOL     OW36565   2.722   2.345  12.552  0.3655 -0.2424 -0.4909
 8368SOL    HW136566   2.720   2.433  12.514 -0.2745 -0.9205 -2.0395
 8368SOL    HW236567   2.781   2.295  12.495 -0.3043  1.1120 -2.4104
 8369SOL     OW36568   0.104   3.224   3.037  0.2204 -0.0986  0.6727
 8369SOL    HW136569   0.089   3.274   3.118  1.1811  0.2519  0.6361
 8369SOL    HW236570   0.045   3.273   2.979 -0.6632 -0.1565  1.5313
 8370SOL     OW36571   2.942   0.686   6.303 -0.2149 -0.4690 -0.3949
 8370SOL    HW136572   2.954   0.680   6.398  2.9915  1.1403 -0.6961
 8370SOL    HW236573   2.879   0.757   6.294  0.2003 -0.3751 -2.6204
 8371SOL     OW36574   4.634   4.719  15.211 -0.4799  0.3982  0.1648
 8371SOL    HW136575   4.572   0.006  15.284 -1.8072  0.3201 -0.9465
 8371SOL    HW236576   4.598   0.049  15.138 -2.0593 -1.3629 -0.2839
 8372SOL     OW36577   2.948   1.471   6.449 -0.2550  0.1176 -0.1933
 8372SOL    HW136578   3.043   1.458   6.446 -0.0352  1.3161  1.8036
 8372SOL    HW236579   2.916   1.381   6.450  0.8567 -0.2415  2.1471
 8373SOL     OW36580   2.512   0.990   5.631 -0.7052  0.1393 -0.2427
 8373SOL    HW136581   2.540   1.041   5.555 -2.2252  1.5846  0.1402
 8373SOL    HW236582   2.563   0.913   5.609  3.1423  2.3558  1.0241
 8374SOL     OW36583   1.844   3.303   9.832  0.1421 -0.5925 -0.0162
 8374SOL    HW136584   1.867   3.248   9.757 -0.9177  1.8412 -2.1230
 8374SOL    HW236585   1.749   3.297   9.823  0.1485  1.3526 -1.5217
 8375SOL     OW36586   3.536   2.863  13.282 -0.1057 -0.1171 -0.7203
 8375SOL    HW136587   3.567   2.773  13.279 -3.1551 -1.1530 -1.3965
 8375SOL    HW236588   3.456   2.849  13.332  0.2414  0.6380  0.0373
 8376SOL     OW36589   1.633   3.362   5.106  0.3521  0.4979  0.7734
 8376SOL    HW136590   1.564   3.320   5.054  0.9983  1.0380 -0.5055
 8376SOL    HW236591   1.679   3.413   5.040  0.8646 -0.9377  0.0274
 8377SOL     OW36592   2.734   3.810  12.075  0.1187  0.2562 -0.2704
 8377SOL    HW136593   2.772   3.730  12.039 -0.4962 -0.2315  0.1769
 8377SOL    HW236594   2.813   3.864  12.084  0.1304  0.4256 -1.3217
 8378SOL     OW36595   4.533   2.366   5.152  0.2149  0.0061  0.4451
 8378SOL    HW136596   4.540   2.454   5.188 -1.0631  0.3588 -0.1514
 8378SOL    HW236597   4.438   2.366   5.140  0.2115 -2.8181  0.4679
 8379SOL     OW36598   0.406   0.130   4.617 -0.0347 -0.5643  0.2064
 8379SOL    HW136599   0.458   0.197   4.573 -2.7620  1.6091  0.3019
 8379SOL    HW236600   0.423   0.043   4.580  1.1630 -0.7557  1.1800
 8380SOL     OW36601   0.597   1.646   8.103 -0.1539  0.2584 -0.1720
 8380SOL    HW136602   0.672   1.618   8.156 -0.4812 -1.6742 -0.7250
 8380SOL    HW236603   0.529   1.655   8.169  0.1394  0.1116  0.1499
 8381SOL     OW36604   1.420   1.649   7.363 -0.7741  0.4577 -0.1383
 8381SOL    HW136605   1.393   1.680   7.449 -1.0592 -0.6402  0.1653
 8381SOL    HW236606   1.509   1.682   7.352  0.0009 -0.7727  2.4182
 8382SOL     OW36607   3.461   0.592   0.813 -0.8051  0.4536 -0.2964
 8382SOL    HW136608   3.533   0.530   0.821  0.5572  2.1692  0.5860
 8382SOL    HW236609   3.490   0.637   0.735  0.8693  1.9167  1.1775
 8383SOL     OW36610   4.357   0.905  11.180 -0.0087  0.4051  0.7750
 8383SOL    HW136611   4.411   0.826  11.184  0.0377  0.2876 -2.4911
 8383SOL    HW236612   4.282   0.888  11.123  1.4837 -2.1843 -0.4073
 8384SOL     OW36613   0.999   0.796   5.115 -0.4728 -0.5714 -0.8721
 8384SOL    HW136614   0.970   0.706   5.124  2.1629 -1.4509 -0.9936
 8384SOL    HW236615   0.969   0.826   5.201  1.6687  2.4870 -1.1665
 8385SOL     OW36616   4.422   1.919   8.787  1.1000  0.1960 -0.1871
 8385SOL    HW136617   4.488   1.880   8.844 -0.4482  1.4661  2.4627
 8385SOL    HW236618   4.446   2.006   8.820 -0.6076  1.0019 -1.0924
 8386SOL     OW36619   0.862   1.184  12.869  0.2897  0.2132 -0.5655
 8386SOL    HW136620   0.872   1.100  12.914  0.6954  2.0625  2.7745
 8386SOL    HW236621   0.766   1.176  12.872  0.3245 -0.0974 -0.2616
 8387SOL     OW36622   0.508   1.527  11.652 -0.1300  0.0609 -0.2524
 8387SOL    HW136623   0.534   1.510  11.743  2.1907  1.7631 -0.5904
 8387SOL    HW236624   0.470   1.614  11.663  0.0230  0.4219 -2.7625
 8388SOL     OW36625   1.277   1.532  12.864 -0.4478  0.0582  0.0911
 8388SOL    HW136626   1.229   1.585  12.927 -0.1082  1.3731 -0.7376
 8388SOL    HW236627   1.314   1.605  12.814 -0.6980 -0.7171 -1.2204
 8389SOL     OW36628   4.113   1.599   9.159  0.5942  0.4091 -0.9071
 8389SOL    HW136629   4.047   1.636   9.100 -0.3823 -0.6818 -0.5013
 8389SOL    HW236630   4.063   1.544   9.219 -0.9651  2.5875 -0.2111
 8390SOL     OW36631   0.207   0.804   5.723  0.4074  0.1875 -0.0654
 8390SOL    HW136632   0.244   0.816   5.635 -0.9486  0.0599 -0.6588
 8390SOL    HW236633   0.125   0.854   5.722  0.2700 -0.0288  1.0963
 8391SOL     OW36634   2.437   0.034   4.036  0.0571 -0.6167 -0.1056
 8391SOL    HW136635   2.350   0.063   4.063  0.7916  0.5053  1.0085
 8391SOL    HW236636   2.490   0.110   4.057  1.8203 -1.7495 -0.4126
 8392SOL     OW36637   3.657   4.456   5.016 -0.1390 -0.3766 -0.3072
 8392SOL    HW136638   3.711   4.496   5.084 -0.4263  1.5385 -1.1834
 8392SOL    HW236639   3.731   4.437   4.958 -0.9095 -1.8334 -0.8137
 8393SOL     OW36640   0.264   3.973   3.880  0.6834 -0.1127  0.2211
 8393SOL    HW136641   0.197   3.936   3.937 -0.2692 -0.4280 -1.1052
 8393SOL    HW236642   0.196   4.023   3.833  1.5463  0.3951 -0.5021
 8394SOL     OW36643   2.941   0.018   5.984 -0.0784  0.1187 -0.3832
 8394SOL    HW136644   2.920   0.025   5.891  2.3681 -1.6726 -1.0796
 8394SOL    HW236645   3.023   4.689   5.979  0.6407  1.3119 -0.4721
 8395SOL     OW36646   3.298   0.142   0.218 -0.0230 -0.2618  0.2374
 8395SOL    HW136647   3.265   0.136   0.308  1.0953  0.6543  0.7115
 8395SOL    HW236648   3.257   0.222   0.185 -0.6981 -0.3460  0.8559
 8396SOL     OW36649   2.101   2.383   3.604  0.1033 -0.6065  0.6061
 8396SOL    HW136650   2.103   2.293   3.636  1.9433 -0.1209  1.8774
 8396SOL    HW236651   2.007   2.394   3.613 -0.1770 -0.9211 -1.7241
 8397SOL     OW36652   3.607   0.843  10.322  0.1086 -0.5343 -0.3508
 8397SOL    HW136653   3.517   0.872  10.309 -0.6616 -1.9054  1.9557
 8397SOL    HW236654   3.642   0.910  10.381 -1.5015 -0.0600  0.0507
 8398SOL     OW36655   1.209   3.947   0.048  0.2124 -0.3106  0.3210
 8398SOL    HW136656   1.259   4.024   0.076  1.3649 -0.1759 -2.1169
 8398SOL    HW236657   1.282   3.896   0.013 -0.4971 -0.4208 -0.9762
 8399SOL     OW36658   0.800   4.033   8.330 -0.3706 -0.3222  0.6093
 8399SOL    HW136659   0.787   4.100   8.263 -0.9906 -0.0784  0.9785
 8399SOL    HW236660   0.890   3.999   8.330 -1.1714 -2.4327 -1.4095
 8400SOL     OW36661   2.379   1.451  12.817  0.8150  0.3364 -0.1591
 8400SOL    HW136662   2.425   1.438  12.733  2.0410 -0.9996  0.7258
 8400SOL    HW236663   2.294   1.486  12.792  0.3326 -1.9655 -1.8028
 8401SOL     OW36664   2.141   0.222  12.293 -0.6269  0.1653 -0.5376
 8401SOL    HW136665   2.159   0.299  12.238  1.2766 -0.6677 -1.0945
 8401SOL    HW236666   2.132   0.147  12.235 -0.1745  0.4659 -1.0021
 8402SOL     OW36667   1.996   3.678   6.368  0.2843 -0.7109  0.2745
 8402SOL    HW136668   1.998   3.773   6.357  1.0015 -0.9657 -1.8154
 8402SOL    HW236669   1.914   3.659   6.413  0.2248 -2.9570 -0.7588
 8403SOL     OW36670   4.676   3.515  14.925 -0.2104  0.4721  0.1777
 8403SOL    HW136671   0.020   3.490  14.990 -0.7325 -2.1889 -0.3190
 8403SOL    HW236672   4.637   3.429  14.912  1.3492  0.0776 -1.8534
 8404SOL     OW36673   1.849   3.623  12.534  0.5862 -0.1212  0.1200
 8404SOL    HW136674   1.764   3.611  12.577 -0.1168 -0.9754 -1.4922
 8404SOL    HW236675   1.836   3.691  12.468  1.4671  0.7710  0.8612
 8405SOL     OW36676   1.705   0.831   4.598 -0.1349 -0.4479 -0.7033
 8405SOL    HW136677   1.618   0.868   4.609  0.7241  1.1520  0.7084
 8405SOL    HW236678   1.691   0.749   4.551  1.1344 -0.7648 -0.5328
 8406SOL     OW36679   2.579   3.242   0.561 -0.2818 -0.0059  0.0996
 8406SOL    HW136680   2.624   3.263   0.479 -0.6860  2.2679  0.4521
 8406SOL    HW236681   2.656   3.228   0.617  0.7868  4.3447 -0.2999
 8407SOL     OW36682   2.051   2.876   7.448  0.2081 -0.1297  0.3030
 8407SOL    HW136683   1.984   2.839   7.391 -1.0336  0.4826  1.3774
 8407SOL    HW236684   2.018   2.848   7.533  0.9966 -0.8096  0.3836
 8408SOL     OW36685   0.022   2.699  10.719  0.4063 -0.4970  0.9298
 8408SOL    HW136686   0.044   2.792  10.730  1.2268 -0.4732 -0.9447
 8408SOL    HW236687   0.098   2.649  10.751  0.2419 -2.7519 -2.2689
 8409SOL     OW36688   2.433   2.412  16.739  0.1229 -0.5405 -0.1575
 8409SOL    HW136689   2.528   2.409  16.732  0.0135 -1.4839 -1.3126
 8409SOL    HW236690   2.416   2.438  16.830 -2.3242 -0.6099 -0.5910
 8410SOL     OW36691   0.559   1.639   5.119 -0.0591 -0.2748 -0.0603
 8410SOL    HW136692   0.596   1.623   5.206 -1.5223  1.7728  0.9330
 8410SOL    HW236693   0.492   1.702   5.147  0.4056  0.4157 -0.4837
 8411SOL     OW36694   4.096   0.539  17.601  0.0202 -0.3238 -0.0403
 8411SOL    HW136695   4.150   0.492  17.664 -0.6492  1.8899  2.2046
 8411SOL    HW236696   4.018   0.555  17.655  0.7504 -0.8785  1.1665
 8412SOL     OW36697   2.536   2.767   6.580  0.1589  0.6057  0.1686
 8412SOL    HW136698   2.499   2.854   6.565  0.5408  0.5027 -1.3204
 8412SOL    HW236699   2.563   2.775   6.672  1.6227 -2.0014 -0.0356
 8413SOL     OW36700   2.302   4.270  15.406  0.3454  0.4485  0.3593
 8413SOL    HW136701   2.390   4.296  15.435  0.6135 -2.6155  2.3435
 8413SOL    HW236702   2.306   4.178  15.381  0.7547  0.7903 -0.8513
 8414SOL     OW36703   2.373   3.923  14.060  0.1678  0.5876  0.0424
 8414SOL    HW136704   2.287   3.882  14.067  0.5444 -0.8847 -4.0407
 8414SOL    HW236705   2.402   3.884  13.977 -0.4312  1.2774 -0.4881
 8415SOL     OW36706   2.320   2.116  11.149 -0.0383 -0.5711 -0.5150
 8415SOL    HW136707   2.350   2.181  11.085  1.2397 -1.9283 -1.3049
 8415SOL    HW236708   2.382   2.046  11.130  0.2083 -0.5461  0.1989
 8416SOL     OW36709   0.760   1.739   3.905 -0.3921 -0.3117  0.1499
 8416SOL    HW136710   0.726   1.801   3.971  0.3042  1.3103 -1.0120
 8416SOL    HW236711   0.684   1.684   3.885 -2.4608  2.8338 -0.6100
 8417SOL     OW36712   4.054   4.103   7.805  0.1136  0.2539 -0.0724
 8417SOL    HW136713   4.086   4.193   7.812 -0.9802  0.6789 -0.5269
 8417SOL    HW236714   3.963   4.114   7.777 -0.0419  0.8016  0.6156
 8418SOL     OW36715   3.764   3.462  11.247  0.6993 -0.1013  0.3440
 8418SOL    HW136716   3.829   3.533  11.239  1.0550 -0.5080 -0.3501
 8418SOL    HW236717   3.769   3.433  11.338 -0.4913 -2.6589 -0.4098
 8419SOL     OW36718   2.243   0.731   8.036 -0.1124  0.2740  0.0134
 8419SOL    HW136719   2.282   0.812   8.070  1.0222 -0.8988  1.4714
 8419SOL    HW236720   2.185   0.706   8.108 -0.5500 -1.1956 -0.8479
 8420SOL     OW36721   3.300   2.865   0.253  0.2049  0.0745  0.1503
 8420SOL    HW136722   3.372   2.856   0.314 -1.3181 -2.8428  1.5460
 8420SOL    HW236723   3.287   2.773   0.228 -2.6507  1.1206 -2.2343
 8421SOL     OW36724   1.406   4.215   7.056 -0.2406  0.2464 -0.5838
 8421SOL    HW136725   1.392   4.273   7.131 -0.9208  1.4501 -1.6455
 8421SOL    HW236726   1.361   4.137   7.088  2.7244 -0.4999  1.8234
 8422SOL     OW36727   4.486   1.845   9.533 -0.0073 -0.3383 -0.1275
 8422SOL    HW136728   4.553   1.830   9.467  1.6340  1.6349  1.0779
 8422SOL    HW236729   4.462   1.937   9.523  1.0407  0.0177  0.6442
 8423SOL     OW36730   4.189   1.174  13.249 -0.0563  0.5338 -0.2072
 8423SOL    HW136731   4.263   1.203  13.303  0.2194  0.5794 -0.6095
 8423SOL    HW236732   4.137   1.254  13.242 -1.0988 -0.2159 -1.0488
 8424SOL     OW36733   0.838   3.564   2.612 -0.7612 -0.2087  0.5125
 8424SOL    HW136734   0.836   3.595   2.702 -0.9054  0.6090  0.2250
 8424SOL    HW236735   0.772   3.496   2.619 -0.3479 -0.7130 -0.4256
 8425SOL     OW36736   3.449   2.662  11.447 -0.5026 -0.6252 -0.2016
 8425SOL    HW136737   3.407   2.695  11.368  1.5825 -0.2293 -1.1247
 8425SOL    HW236738   3.486   2.742  11.484 -0.0607  0.1696 -2.3663
 8426SOL     OW36739   1.365   2.255   4.584 -0.1585  0.0044  0.1698
 8426SOL    HW136740   1.357   2.173   4.536  0.3722  0.4394 -0.6563
 8426SOL    HW236741   1.448   2.237   4.629 -1.2100 -2.0446  1.3093
 8427SOL     OW36742   0.315   1.931  14.412  0.3344 -0.3417  0.0962
 8427SOL    HW136743   0.259   1.882  14.351 -0.8914 -0.5639  1.4115
 8427SOL    HW236744   0.288   1.898  14.498  2.4738 -1.0800  0.4852
 8428SOL     OW36745   1.243   3.740   5.163  0.4521  0.0259 -0.0796
 8428SOL    HW136746   1.332   3.707   5.152  0.5068 -0.0797  0.7019
 8428SOL    HW236747   1.236   3.743   5.259 -0.4047  1.5011 -0.1718
 8429SOL     OW36748   1.799   2.133   8.212  0.7242 -0.3027  0.1565
 8429SOL    HW136749   1.716   2.087   8.200  0.8523 -0.0743 -1.7456
 8429SOL    HW236750   1.850   2.095   8.283 -0.9259 -1.8388  0.5349
 8430SOL     OW36751   2.013   0.734   9.601  0.1989  0.6122  0.2384
 8430SOL    HW136752   2.089   0.782   9.634  0.9722 -1.7275  1.8414
 8430SOL    HW236753   1.940   0.753   9.659  0.4460  1.7998  0.1494
 8431SOL     OW36754   4.446   4.080  17.038  0.2231  0.0371 -0.2780
 8431SOL    HW136755   4.389   4.150  17.070  1.2724  0.8943 -0.2841
 8431SOL    HW236756   4.469   4.032  17.117  0.6240 -0.4826 -0.7171
 8432SOL     OW36757   1.817   2.576   1.051 -0.0741  0.2047 -0.3503
 8432SOL    HW136758   1.885   2.512   1.031 -0.8061 -0.7437  0.2140
 8432SOL    HW236759   1.821   2.637   0.977 -1.6781  1.4994  0.6205
 8433SOL     OW36760   0.749   2.773  11.125 -0.2182 -0.3603  0.3188
 8433SOL    HW136761   0.725   2.695  11.174  0.8890 -0.4205  0.7481
 8433SOL    HW236762   0.797   2.821  11.192  0.5666 -0.6793 -0.0135
 8434SOL     OW36763   1.617   4.601   7.063 -1.0986  0.8980  0.4933
 8434SOL    HW136764   1.642   4.693   7.066 -2.2908  1.2408 -0.4220
 8434SOL    HW236765   1.598   4.594   6.970  3.5988  0.7224 -0.4572
 8435SOL     OW36766   4.697   3.415  16.522  0.3439  0.4881  0.1855
 8435SOL    HW136767   0.009   3.346  16.463 -0.2914  0.6776 -0.3765
 8435SOL    HW236768   4.623   3.444  16.470  0.4871  4.9485  2.5104
 8436SOL     OW36769   1.394   1.422   3.453 -1.0008 -0.2235 -0.1748
 8436SOL    HW136770   1.404   1.347   3.394 -1.2661 -1.4003  1.2872
 8436SOL    HW236771   1.393   1.491   3.386 -1.1259  0.7431  0.8121
 8437SOL     OW36772   3.489   4.231   4.927  0.4542 -0.3297  0.1012
 8437SOL    HW136773   3.573   4.186   4.923 -0.2709 -1.9009  1.8167
 8437SOL    HW236774   3.507   4.319   4.957  0.2033  0.6405 -2.5921
 8438SOL     OW36775   4.660   1.125   5.740  0.0376  0.3601 -0.2237
 8438SOL    HW136776   4.644   1.064   5.812  0.5098  2.5599  1.7341
 8438SOL    HW236777   4.647   1.061   5.669  0.1055 -1.0735  1.0463
 8439SOL     OW36778   2.380   1.628   7.995  0.7205  0.3411 -0.3326
 8439SOL    HW136779   2.299   1.673   7.972  0.3043 -0.5930 -0.6765
 8439SOL    HW236780   2.352   1.548   8.040 -2.3150  0.3987 -2.1795
 8440SOL     OW36781   1.293   0.933   0.915 -0.0673 -0.1986 -0.1601
 8440SOL    HW136782   1.232   0.886   0.971 -0.7142 -0.2935 -0.9333
 8440SOL    HW236783   1.348   0.860   0.888 -0.7625  0.3100 -2.9589
 8441SOL     OW36784   2.191   3.551   4.895  0.5485 -0.1050  0.3735
 8441SOL    HW136785   2.126   3.609   4.935  1.4219 -0.1810  1.9013
 8441SOL    HW236786   2.165   3.462   4.920 -0.5618  0.1896  0.2433
 8442SOL     OW36787   0.981   4.405   7.071 -0.1235  0.3907  0.7375
 8442SOL    HW136788   0.893   4.412   7.108  0.0639 -1.3870  1.5532
 8442SOL    HW236789   0.959   4.379   6.981  0.4502  0.2003  0.6505
 8443SOL     OW36790   4.385   3.154   8.960 -0.0593 -0.2823 -0.1096
 8443SOL    HW136791   4.382   3.140   9.054 -2.8500 -0.6335 -0.2558
 8443SOL    HW236792   4.367   3.065   8.931  3.1887 -1.5750  1.8300
 8444SOL     OW36793   4.024   3.766   2.840 -0.1358 -0.1317 -0.4121
 8444SOL    HW136794   4.074   3.701   2.790  0.7323  0.1621  0.0646
 8444SOL    HW236795   4.051   3.755   2.931 -1.3147  1.0777  0.0926
 8445SOL     OW36796   3.197   3.211   6.454 -0.9276  0.0727  0.2079
 8445SOL    HW136797   3.104   3.188   6.451 -0.8562 -0.3957  1.4885
 8445SOL    HW236798   3.201   3.248   6.366 -2.3255  2.5127  1.1689
 8446SOL     OW36799   0.466   0.483   7.267  0.2164  0.5134 -0.1945
 8446SOL    HW136800   0.453   0.447   7.355  0.8725 -1.1324 -0.7670
 8446SOL    HW236801   0.380   0.479   7.227 -0.0674 -0.0742  0.4754
 8447SOL     OW36802   1.191   4.638  13.598  0.1848 -0.4965 -0.5301
 8447SOL    HW136803   1.122   4.668  13.657 -0.9256 -2.1318 -1.0082
 8447SOL    HW236804   1.131   4.610  13.529  0.8569 -2.0153 -0.4964
 8448SOL     OW36805   0.700   4.387   3.342  0.8000 -0.4719  0.4175
 8448SOL    HW136806   0.707   4.465   3.287 -1.6198  1.1056  2.3194
 8448SOL    HW236807   0.652   4.321   3.291  1.6534  0.0361 -1.0360
 8449SOL     OW36808   3.780   0.137  15.887  0.1995 -0.2916  0.3558
 8449SOL    HW136809   3.810   0.227  15.876  0.6675 -0.5186 -0.2342
 8449SOL    HW236810   3.689   0.143  15.860 -0.0069  0.2180  1.1554
 8450SOL     OW36811   2.933   2.486   4.522  0.5885  0.4776  0.0351
 8450SOL    HW136812   2.893   2.491   4.608  1.1650 -0.6565  0.3679
 8450SOL    HW236813   2.929   2.577   4.493 -2.4999  0.7685  1.3823
 8451SOL     OW36814   2.018   4.357   5.443 -0.4048 -0.2311  0.2930
 8451SOL    HW136815   2.015   4.369   5.538  1.0330 -2.3907  0.6418
 8451SOL    HW236816   2.106   4.391   5.427 -0.7037 -0.6494 -2.2692
 8452SOL     OW36817   4.092   0.378   8.344  0.0388  0.5643 -0.2114
 8452SOL    HW136818   4.111   0.400   8.252 -1.4380 -1.4593 -0.9868
 8452SOL    HW236819   4.095   0.283   8.351  0.2209  0.7437  1.9520
 8453SOL     OW36820   0.260   0.171   3.049 -0.0371  0.0624  0.4335
 8453SOL    HW136821   0.248   0.079   3.070 -0.3766  0.1895  0.8171
 8453SOL    HW236822   0.297   0.167   2.961 -0.6381 -2.0298  0.2854
 8454SOL     OW36823   4.251   4.021   5.981 -0.2595  0.4177 -0.7365
 8454SOL    HW136824   4.200   4.096   6.011 -0.3292 -0.1271  0.5090
 8454SOL    HW236825   4.332   4.072   5.972 -1.9947  2.9421 -2.0997
 8455SOL     OW36826   4.352   3.014  17.010  0.2049 -0.6074 -0.3113
 8455SOL    HW136827   4.262   2.999  16.982 -0.3131 -0.0962  1.0594
 8455SOL    HW236828   4.385   2.926  17.030 -0.7713 -0.2115  3.1486
 8456SOL     OW36829   0.193   3.199   0.012 -0.0443  0.2442 -0.6332
 8456SOL    HW136830   0.196   3.161   0.100 -0.4690  0.6161 -0.4578
 8456SOL    HW236831   0.277   3.163  17.670 -1.2020 -1.7909 -1.4975
 8457SOL     OW36832   3.428   4.279   1.128  0.6700  0.5647  0.1395
 8457SOL    HW136833   3.365   4.302   1.197 -0.0130 -1.4637  0.1963
 8457SOL    HW236834   3.502   4.334   1.155  0.8283  0.7336 -0.6612
 8458SOL     OW36835   0.884   4.381   0.060 -0.3100  0.0197 -0.2833
 8458SOL    HW136836   0.950   4.322   0.024 -2.9184 -2.1059 -1.5992
 8458SOL    HW236837   0.918   4.399   0.147 -1.2685  0.6381 -0.0298
 8459SOL     OW36838   0.480   3.026   7.168  0.0737 -0.6843  0.0296
 8459SOL    HW136839   0.412   2.959   7.165 -1.3820  0.7526  0.9075
 8459SOL    HW236840   0.425   3.100   7.144  1.3733  0.7785  1.5459
 8460SOL     OW36841   4.449   4.441  12.549 -0.3899 -0.6022 -0.4524
 8460SOL    HW136842   4.507   4.517  12.548 -0.2048 -0.7485 -0.8347
 8460SOL    HW236843   4.490   4.382  12.614  2.7207  1.7074 -0.3238
 8461SOL     OW36844   2.994   0.256  11.816 -0.7322  0.3687  0.4097
 8461SOL    HW136845   3.001   0.297  11.902 -1.7607  0.8973  0.2465
 8461SOL    HW236846   3.066   0.298  11.768 -2.2068  2.2604 -0.1279
 8462SOL     OW36847   0.790   1.618  10.782  0.1125 -0.1095 -0.0749
 8462SOL    HW136848   0.738   1.551  10.828 -2.2620  1.1342 -0.9088
 8462SOL    HW236849   0.867   1.629  10.837  0.4221 -0.1065 -0.5112
 8463SOL     OW36850   3.229   0.640   0.163  0.0034 -0.0468  0.8298
 8463SOL    HW136851   3.292   0.710   0.145 -0.2098 -0.1257 -0.2224
 8463SOL    HW236852   3.205   0.653   0.254 -2.6620 -0.0478  0.1450
 8464SOL     OW36853   3.037   1.619  12.785  0.3370  0.3544  0.2062
 8464SOL    HW136854   3.111   1.638  12.727 -1.8125  1.3519 -2.2236
 8464SOL    HW236855   3.057   1.672  12.862 -0.8118  1.3710 -0.1818
 8465SOL     OW36856   4.355   4.619   7.208 -0.0644  0.4880  0.7241
 8465SOL    HW136857   4.296   4.556   7.167  1.1956 -0.9415  1.1234
 8465SOL    HW236858   4.442   4.582   7.216  0.9647  2.9041  0.7465
 8466SOL     OW36859   1.788   3.495  13.609  0.1599  0.1643 -0.2155
 8466SOL    HW136860   1.699   3.462  13.596 -0.2566  1.1272  0.1576
 8466SOL    HW236861   1.769   3.558  13.680  0.8334 -0.6772  0.7119
 8467SOL     OW36862   3.193   1.570   7.079 -0.2485 -0.1773 -0.2151
 8467SOL    HW136863   3.101   1.549   7.091 -0.1315 -0.1766  0.7687
 8467SOL    HW236864   3.211   1.543   6.989 -0.4528  0.8016 -0.5448
 8468SOL     OW36865   2.839   0.465   0.871  0.2810  0.2991 -0.2459
 8468SOL    HW136866   2.785   0.390   0.845 -0.1540  0.1912  0.9426
 8468SOL    HW236867   2.927   0.440   0.845 -0.1086 -0.7340 -0.5636
 8469SOL     OW36868   2.064   4.559   8.061  0.0067  0.2162  0.4566
 8469SOL    HW136869   2.100   4.484   8.013 -0.8711 -1.4615  2.4362
 8469SOL    HW236870   1.995   4.517   8.112 -0.8222 -1.1023 -1.7427
 8470SOL     OW36871   1.020   0.899  14.099  0.0950 -0.0972 -0.0498
 8470SOL    HW136872   1.004   0.922  14.008 -5.0089 -0.3540  0.7813
 8470SOL    HW236873   0.935   0.861  14.123 -1.1559  1.0730 -2.6119
 8471SOL     OW36874   4.083   2.787   5.995 -0.1375 -0.1664 -0.1082
 8471SOL    HW136875   4.146   2.733   6.043 -0.3141 -0.2708  0.0063
 8471SOL    HW236876   4.004   2.733   5.995 -0.6868  0.6268 -0.9356
 8472SOL     OW36877   3.649   0.097   5.183  0.3845  0.0113 -0.5012
 8472SOL    HW136878   3.579   0.134   5.129 -0.4303 -0.0799  0.5021
 8472SOL    HW236879   3.709   0.172   5.181 -1.1545  1.2319 -0.6232
 8473SOL     OW36880   3.473   0.061   5.405 -0.8395 -0.1586 -1.0463
 8473SOL    HW136881   3.422   4.702   5.392 -1.0733  0.2845 -2.7481
 8473SOL    HW236882   3.529   0.059   5.328  1.2140 -1.0157  0.4763
 8474SOL     OW36883   2.648   3.631  10.306 -0.3133 -0.1964  0.1064
 8474SOL    HW136884   2.681   3.546  10.277 -0.6697 -0.1832 -0.3431
 8474SOL    HW236885   2.650   3.626  10.401 -1.7271 -1.4822  0.0705
 8475SOL     OW36886   1.061   0.735  10.193 -0.2188  0.8868  0.0015
 8475SOL    HW136887   1.105   0.811  10.155  0.7789  1.3796  2.1576
 8475SOL    HW236888   1.050   0.676  10.118 -2.0237  0.1643  0.8082
 8476SOL     OW36889   2.553   2.122   5.933  0.0844 -0.0795  0.2989
 8476SOL    HW136890   2.620   2.117   6.000 -0.1664  0.9508  0.6146
 8476SOL    HW236891   2.472   2.115   5.983  1.0024  1.1917  1.9431
 8477SOL     OW36892   2.183   1.321   4.275 -0.7369  0.2143 -0.2992
 8477SOL    HW136893   2.216   1.410   4.285 -1.1244  0.1907  1.1702
 8477SOL    HW236894   2.093   1.337   4.303 -0.7987  1.1286 -1.0309
 8478SOL     OW36895   4.663   3.165   6.928 -0.4114 -0.2776  0.3223
 8478SOL    HW136896   4.576   3.157   6.890  0.4863  0.4713 -1.8684
 8478SOL    HW236897   4.673   3.074   6.955 -0.9682 -0.4321 -0.0086
 8479SOL     OW36898   1.617   0.739   1.928 -0.1285  0.0647 -0.0267
 8479SOL    HW136899   1.701   0.749   1.884 -0.3018  1.2414 -0.0967
 8479SOL    HW236900   1.632   0.651   1.963  0.1982  0.2141  0.2122
 8480SOL     OW36901   2.105   1.551  12.765  0.0898 -0.0610  0.2537
 8480SOL    HW136902   2.015   1.546  12.796 -0.5294 -1.2491 -1.7054
 8480SOL    HW236903   2.108   1.527  12.672  0.1561  1.3154 -0.1045
 8481SOL     OW36904   2.738   3.214   4.490 -0.1374  0.3047 -0.4731
 8481SOL    HW136905   2.700   3.297   4.521  1.6537  0.1802  2.0335
 8481SOL    HW236906   2.750   3.237   4.397  0.8166  0.9731 -0.1848
 8482SOL     OW36907   3.786   4.267   2.749  0.5539  0.1624 -0.3787
 8482SOL    HW136908   3.809   4.305   2.664  3.0369  2.0285  1.1119
 8482SOL    HW236909   3.869   4.220   2.758  0.0126 -0.4875  1.2727
 8483SOL     OW36910   1.618   4.102   1.633 -0.0487 -0.3656  0.0122
 8483SOL    HW136911   1.700   4.147   1.613 -0.1124 -0.3385 -0.1990
 8483SOL    HW236912   1.560   4.141   1.567 -3.8431 -2.2419  2.2684
 8484SOL     OW36913   0.116   0.661   8.749  0.0527  0.1043  0.0421
 8484SOL    HW136914   0.112   0.599   8.821 -1.3079  0.3703  0.1935
 8484SOL    HW236915   0.108   0.607   8.671 -0.5758  2.1486 -1.3184
 8485SOL     OW36916   4.044   4.400   0.602 -0.2561  0.6406  0.1386
 8485SOL    HW136917   3.985   4.325   0.613 -0.0366  0.2779 -1.0447
 8485SOL    HW236918   4.055   4.393   0.507 -0.8915 -0.1163  0.1182
 8486SOL     OW36919   1.242   3.330   8.334  0.4861 -0.3173 -0.5187
 8486SOL    HW136920   1.306   3.298   8.397 -0.4522 -0.4917  0.3557
 8486SOL    HW236921   1.281   3.371   8.257 -0.3802 -2.2799 -1.9845
 8487SOL     OW36922   2.142   1.853   5.038  0.6079 -0.1369 -0.4963
 8487SOL    HW136923   2.151   1.943   5.007 -3.7163  0.8328  1.0103
 8487SOL    HW236924   2.231   1.823   5.021  0.0440 -2.4565  0.6123
 8488SOL     OW36925   4.127   3.213   4.340 -0.0338 -0.0339  0.4807
 8488SOL    HW136926   4.130   3.192   4.433 -0.8880  1.5742  0.8831
 8488SOL    HW236927   4.077   3.141   4.300 -2.0361  0.5358  1.9339
 8489SOL     OW36928   3.433   0.314   2.649  0.2464 -0.1384  0.6585
 8489SOL    HW136929   3.374   0.242   2.669 -1.9677  2.0708  2.1191
 8489SOL    HW236930   3.461   0.333   2.739  0.7941  0.9353  0.2668
 8490SOL     OW36931   2.953   2.626   8.129 -0.3072 -0.3858  0.2607
 8490SOL    HW136932   2.978   2.603   8.039 -0.1875 -1.1657  0.4861
 8490SOL    HW236933   3.009   2.561   8.172 -1.3310 -0.3652  1.6331
 8491SOL     OW36934   0.963   0.969   2.852 -0.7067 -0.6693  0.2040
 8491SOL    HW136935   0.896   1.021   2.897 -0.0990 -0.1979  0.5653
 8491SOL    HW236936   0.960   1.012   2.766 -0.9958 -0.2355  0.4284
 8492SOL     OW36937   0.083   0.569  16.862  0.0726 -0.1608 -0.3269
 8492SOL    HW136938   4.710   0.551  16.856 -0.1195  0.9512 -0.6996
 8492SOL    HW236939   0.099   0.597  16.772  0.1410 -1.0087 -0.5783
 8493SOL     OW36940   0.288   4.279   6.838  0.1310  0.3369  0.3228
 8493SOL    HW136941   0.234   4.358   6.835 -0.3041  0.0586  0.8668
 8493SOL    HW236942   0.311   4.271   6.930 -2.0702  2.1167  1.0005
 8494SOL     OW36943   3.020   0.746  17.132  0.0526 -0.3599 -0.2278
 8494SOL    HW136944   2.971   0.770  17.210  1.7606 -0.6835  0.9296
 8494SOL    HW236945   2.948   0.715  17.076  0.5001 -1.1841 -0.3374
 8495SOL     OW36946   4.251   2.287   6.800  0.1026 -0.1958 -0.6361
 8495SOL    HW136947   4.202   2.337   6.865  0.3633  2.5057 -2.5218
 8495SOL    HW236948   4.328   2.263   6.851 -1.7293 -3.7022  0.4870
 8496SOL     OW36949   1.823   3.100   6.258 -0.1507 -0.0482  0.1390
 8496SOL    HW136950   1.905   3.127   6.216  0.2192  0.1546  0.9736
 8496SOL    HW236951   1.825   3.166   6.327  0.3926  0.3989 -0.3097
 8497SOL     OW36952   0.283   2.569  11.435  0.0354  0.4455 -0.7959
 8497SOL    HW136953   0.329   2.488  11.455 -0.7439  0.2380  0.2110
 8497SOL    HW236954   0.356   2.629  11.419  1.4328 -0.6982  1.3109
 8498SOL     OW36955   3.226   1.600   1.825  0.5962 -0.2549 -0.1019
 8498SOL    HW136956   3.214   1.671   1.763 -0.6376 -1.6698 -1.4788
 8498SOL    HW236957   3.219   1.646   1.909  3.4329 -2.0466  1.1185
 8499SOL     OW36958   2.997   2.123   1.883 -0.2545  0.0630  0.0251
 8499SOL    HW136959   3.059   2.192   1.908 -1.3728  1.6564 -1.5383
 8499SOL    HW236960   2.952   2.167   1.810 -2.8445 -0.8302  1.0644
 8500SOL     OW36961   2.934   0.252  12.578  0.1950  0.5051  0.3042
 8500SOL    HW136962   2.971   0.299  12.504 -1.5817 -0.4033 -1.1594
 8500SOL    HW236963   2.925   0.160  12.552 -0.4075  0.2557  1.3684
 8501SOL     OW36964   4.508   2.297   8.636  0.5017  0.1792  0.6312
 8501SOL    HW136965   4.458   2.374   8.665  0.2232  0.4872 -0.6633
 8501SOL    HW236966   4.483   2.291   8.544 -1.1663  0.5065  1.0578
 8502SOL     OW36967   1.609   2.998   2.246 -0.2222  0.4285  0.4229
 8502SOL    HW136968   1.637   2.985   2.155  1.6146 -0.8178  1.1576
 8502SOL    HW236969   1.514   3.012   2.244 -0.0013  1.6544 -1.6428
 8503SOL     OW36970   3.096   4.365   6.021  0.3021  0.1553  0.1506
 8503SOL    HW136971   3.137   4.279   6.024  2.4533  1.2431  1.7940
 8503SOL    HW236972   3.084   4.381   6.115 -0.1734  1.7077 -0.1724
 8504SOL     OW36973   3.383   0.555   5.541  0.4771  0.0580  0.6584
 8504SOL    HW136974   3.454   0.580   5.483  1.0365 -1.5506  0.6603
 8504SOL    HW236975   3.377   0.460   5.538  1.3175  0.0424 -0.3865
 8505SOL     OW36976   0.849   1.789   6.270  0.0166 -0.1390 -0.1495
 8505SOL    HW136977   0.935   1.783   6.311 -0.8982 -1.9421  1.4942
 8505SOL    HW236978   0.873   1.799   6.178  0.6277  0.7071  0.1032
 8506SOL     OW36979   3.553   0.392   5.783 -0.4425 -0.6505  0.3117
 8506SOL    HW136980   3.642   0.400   5.748 -0.4451 -1.7965  0.0422
 8506SOL    HW236981   3.501   0.394   5.702 -0.1456 -0.1851  0.1280
 8507SOL     OW36982   1.179   3.954   2.625  0.0024 -0.1906  0.0715
 8507SOL    HW136983   1.119   3.911   2.686 -1.0328 -1.3867 -1.7992
 8507SOL    HW236984   1.265   3.945   2.667  0.7048  0.2256 -1.2923
 8508SOL     OW36985   3.456   3.130   1.829 -0.4737 -0.4688  0.0735
 8508SOL    HW136986   3.366   3.154   1.850 -1.0128 -0.7424 -1.8524
 8508SOL    HW236987   3.484   3.135   1.920  0.0607 -0.6365 -0.0836
 8509SOL     OW36988   1.120   2.915   6.580  0.0524 -0.4414  0.0907
 8509SOL    HW136989   1.094   2.859   6.507  1.0657 -0.6493 -0.1077
 8509SOL    HW236990   1.030   2.936   6.603 -0.1538 -1.3533  0.0856
 8510SOL     OW36991   4.216   0.040   0.819 -0.4221 -0.6378 -0.4979
 8510SOL    HW136992   4.216   0.129   0.784  2.0037  0.0046  1.2263
 8510SOL    HW236993   4.300   0.042   0.864 -0.5429 -0.1029 -0.2981
 8511SOL     OW36994   2.923   4.211   8.707  0.2027  0.2084 -0.4145
 8511SOL    HW136995   2.935   4.306   8.704  0.9562  0.0705 -2.1676
 8511SOL    HW236996   2.908   4.183   8.617 -0.3765  0.2457 -0.3266
 8512SOL     OW36997   2.067   4.128   7.082  0.2706 -0.5742 -0.6038
 8512SOL    HW136998   1.987   4.142   7.032 -1.6234 -0.2614  2.4840
 8512SOL    HW236999   2.045   4.037   7.101  0.7665 -1.1254 -2.7472
 8513SOL     OW37000   0.629   4.605   3.706 -0.4163  0.0059 -0.4004
 8513SOL    HW137001   0.554   4.607   3.647 -0.1620 -1.5146 -0.7981
 8513SOL    HW237002   0.586   4.542   3.763 -1.4383  0.4084 -0.7401
 8514SOL     OW37003   1.765   2.047  16.799  0.1505 -0.0535 -0.0453
 8514SOL    HW137004   1.706   2.111  16.758  1.8505  1.6128  0.1096
 8514SOL    HW237005   1.706   2.023  16.870  0.1882  0.3577  0.1270
 8515SOL     OW37006   0.196   1.544  12.009 -0.1067 -0.2691  0.2568
 8515SOL    HW137007   0.193   1.469  12.068 -3.2788  0.4419  0.9957
 8515SOL    HW237008   0.287   1.576  12.014  0.0310 -0.2124 -2.4915
 8516SOL     OW37009   3.194   3.538   6.844 -0.0729 -0.0461 -0.0673
 8516SOL    HW137010   3.145   3.509   6.767  1.9618  0.0819 -1.4040
 8516SOL    HW237011   3.257   3.467   6.856  0.0338  0.0931  0.1889
 8517SOL     OW37012   3.416   1.429   8.646  0.2164  0.2442 -0.0217
 8517SOL    HW137013   3.381   1.467   8.565  1.1355 -0.8706 -0.9402
 8517SOL    HW237014   3.334   1.423   8.695  1.1635 -1.7872  1.2956
 8518SOL     OW37015   1.923   2.770   1.934  0.2016 -0.3875  0.3184
 8518SOL    HW137016   1.986   2.728   1.877  0.0054 -0.0706 -0.1353
 8518SOL    HW237017   1.977   2.810   2.002  2.2624 -2.0045 -0.3995
 8519SOL     OW37018   0.741   3.456   9.440  0.5529 -0.3204 -0.3788
 8519SOL    HW137019   0.743   3.414   9.526 -0.1855 -1.4711 -0.9205
 8519SOL    HW237020   0.828   3.495   9.441  1.9042 -3.2696 -2.1728
 8520SOL     OW37021   0.552   1.881  15.151 -0.0077 -0.1642 -0.1015
 8520SOL    HW137022   0.641   1.911  15.136 -0.5808  1.6785  0.2044
 8520SOL    HW237023   0.527   1.822  15.079 -1.5324  1.3165 -0.7736
 8521SOL     OW37024   3.120   1.036  17.334  0.4104 -0.8029 -0.5213
 8521SOL    HW137025   3.053   0.970  17.349 -0.5217  0.3616  0.4214
 8521SOL    HW237026   3.146   1.065  17.422 -1.2289 -1.8059  0.2833
 8522SOL     OW37027   2.723   0.206   0.773  0.1607 -0.4607 -0.1984
 8522SOL    HW137028   2.639   0.179   0.811 -1.2409  2.4703 -1.1401
 8522SOL    HW237029   2.747   0.124   0.731 -2.0044 -0.0187 -2.2547
 8523SOL     OW37030   4.323   3.379   7.158 -0.0711 -0.2514  0.2668
 8523SOL    HW137031   4.278   3.375   7.242  0.1041 -0.7068  0.3393
 8523SOL    HW237032   4.331   3.473   7.145 -1.2014 -0.4002 -1.5684
 8524SOL     OW37033   4.572   3.517  10.531 -0.4961  0.3327 -0.6044
 8524SOL    HW137034   4.485   3.485  10.555 -0.3391  1.9223  2.1086
 8524SOL    HW237035   4.573   3.518  10.435 -3.7459 -1.3012 -0.6453
 8525SOL     OW37036   3.563   0.878   8.523  0.0909 -0.1674  0.0819
 8525SOL    HW137037   3.616   0.802   8.500 -2.1297 -2.1434  1.5695
 8525SOL    HW237038   3.558   0.867   8.618 -0.9929  0.3638  0.0820
 8526SOL     OW37039   3.276   2.817   3.778 -0.7044  0.0790 -0.7035
 8526SOL    HW137040   3.337   2.744   3.766 -0.1650  0.5418 -0.7587
 8526SOL    HW237041   3.311   2.871   3.707 -0.4598 -0.9875 -1.3955
 8527SOL     OW37042   0.215   2.344   1.474 -0.7993  0.0714 -0.2756
 8527SOL    HW137043   0.143   2.397   1.508 -2.6878 -1.2572 -2.1990
 8527SOL    HW237044   0.275   2.397   1.423 -1.4877  0.7376 -0.3839
 8528SOL     OW37045   0.129   3.582   0.668  0.4294 -0.5301  0.0726
 8528SOL    HW137046   0.042   3.541   0.673  0.1056  0.3158  1.3419
 8528SOL    HW237047   0.132   3.607   0.760  0.1392 -0.5691  0.0947
 8529SOL     OW37048   3.940   4.670   0.885  0.3495  0.0138  0.3730
 8529SOL    HW137049   4.026   4.650   0.848  1.0239 -0.2197  2.0351
 8529SOL    HW237050   3.915   4.589   0.930 -0.1789 -0.8198 -1.4289
 8530SOL     OW37051   2.336   3.043  17.428  0.5457  0.1803 -0.1087
 8530SOL    HW137052   2.308   3.013  17.515  0.2316  1.2934  0.1636
 8530SOL    HW237053   2.341   2.952  17.397  0.5443 -0.0601  0.6053
 8531SOL     OW37054   0.748   4.363   4.200  0.3332  0.1150  0.4105
 8531SOL    HW137055   0.680   4.419   4.162 -1.2057 -1.3012  1.0729
 8531SOL    HW237056   0.689   4.307   4.251 -0.2202  0.7261  0.4403
 8532SOL     OW37057   3.679   3.418   5.920  0.0892 -0.1268  0.0291
 8532SOL    HW137058   3.629   3.348   5.961 -2.7719  0.8782 -1.7570
 8532SOL    HW237059   3.764   3.380   5.941 -0.2199 -0.1855  1.2191
 8533SOL     OW37060   4.470   0.593   6.231 -0.7710  0.0300 -0.1638
 8533SOL    HW137061   4.561   0.579   6.255 -0.5750 -0.0868 -0.9725
 8533SOL    HW237062   4.420   0.534   6.288 -0.2531  0.3106  0.5881
 8534SOL     OW37063   4.348   4.613  11.752  0.2903 -0.1779  0.0739
 8534SOL    HW137064   4.389   4.587  11.835 -1.7981  1.5492  1.6702
 8534SOL    HW237065   4.316   4.528  11.723 -1.4657  0.4450  0.1786
 8535SOL     OW37066   1.017   4.083   4.760  0.4782 -0.5651 -0.3752
 8535SOL    HW137067   1.033   4.068   4.854  3.1553  0.1093 -0.7256
 8535SOL    HW237068   1.109   4.071   4.737  0.2095  0.4198 -1.9107
 8536SOL     OW37069   2.367   4.424   9.463 -0.2897  0.4361  0.1175
 8536SOL    HW137070   2.289   4.447   9.412 -1.2035 -1.1531  0.8013
 8536SOL    HW237071   2.434   4.460   9.405  0.3241 -1.3596 -0.2928
 8537SOL     OW37072   1.167   1.001   3.391 -0.2464 -0.1963  0.0759
 8537SOL    HW137073   1.152   1.047   3.308 -0.6051 -2.1646 -0.9539
 8537SOL    HW237074   1.106   1.039   3.454  0.3577  0.6613  0.1501
 8538SOL     OW37075   0.324   4.169   7.343 -0.3625 -0.9232  0.5514
 8538SOL    HW137076   0.282   4.100   7.393  0.4978 -2.3907 -0.7606
 8538SOL    HW237077   0.413   4.135   7.345 -0.0376 -0.1340 -0.3453
 8539SOL     OW37078   3.123   4.061  15.597  0.2807  0.5923  0.0453
 8539SOL    HW137079   3.098   4.031  15.684  0.7786  0.3716  0.1151
 8539SOL    HW237080   3.136   3.973  15.562 -2.9564 -0.5222  1.6827
 8540SOL     OW37081   0.814   2.659  16.077 -0.4288  0.3475 -0.1661
 8540SOL    HW137082   0.900   2.693  16.053 -0.4902 -0.8326 -2.0582
 8540SOL    HW237083   0.825   2.564  16.073 -1.2454  0.1609  2.0699
 8541SOL     OW37084   1.605   4.344   8.050 -0.6213 -0.4027 -0.1393
 8541SOL    HW137085   1.647   4.278   8.105 -0.7297 -0.1324  0.2632
 8541SOL    HW237086   1.522   4.357   8.095  1.3015 -0.0631  3.3078
 8542SOL     OW37087   2.481   4.659   5.928  0.1474  0.0419 -0.2110
 8542SOL    HW137088   2.471   4.606   6.007  1.6714  2.5007  1.6396
 8542SOL    HW237089   2.401   4.644   5.879 -1.6838  3.1542  1.8486
 8543SOL     OW37090   4.555   4.273  11.875  0.4650  0.1580  0.2535
 8543SOL    HW137091   4.594   4.200  11.923 -2.2138 -2.0138 -0.9068
 8543SOL    HW237092   4.630   4.290  11.819  0.5358 -1.1564 -0.0389
 8544SOL     OW37093   3.449   4.698   2.847  0.6508 -0.4695 -0.6730
 8544SOL    HW137094   3.373   4.639   2.845  0.6597 -0.3784 -2.9626
 8544SOL    HW237095   3.524   4.639   2.855  0.1360 -1.0575 -0.1596
 8545SOL     OW37096   0.642   0.464   3.776  0.1892  1.5120  0.6850
 8545SOL    HW137097   0.678   0.425   3.696 -1.4298 -0.4404  0.8777
 8545SOL    HW237098   0.557   0.484   3.736 -0.6786 -1.4144  0.9958
 8546SOL     OW37099   0.348   2.544  15.417  0.2787  0.0223 -0.4206
 8546SOL    HW137100   0.366   2.503  15.501  3.0095  0.2428 -0.9098
 8546SOL    HW237101   0.335   2.470  15.357 -0.0848 -1.6372  1.7029
 8547SOL     OW37102   0.383   3.720   8.229  0.6586  1.0693 -0.0221
 8547SOL    HW137103   0.331   3.710   8.309  2.3390  0.1140  0.9358
 8547SOL    HW237104   0.458   3.663   8.243 -1.4659 -1.1045  2.6265
 8548SOL     OW37105   1.336   2.287   9.489  0.5202 -0.0733  0.6360
 8548SOL    HW137106   1.344   2.210   9.546 -0.6748 -0.5442  0.1816
 8548SOL    HW237107   1.380   2.353   9.542 -0.0481  2.2381 -1.7955
 8549SOL     OW37108   2.849   0.614   5.688  0.0013  0.0169 -0.6598
 8549SOL    HW137109   2.851   0.592   5.595  3.7903 -1.3190 -0.2636
 8549SOL    HW237110   2.870   0.707   5.681 -1.5207  0.2413 -2.0378
 8550SOL     OW37111   2.845   0.573   1.150  0.0014  0.5508 -0.2067
 8550SOL    HW137112   2.837   0.522   1.070 -0.5598 -1.8547  1.3645
 8550SOL    HW237113   2.934   0.560   1.182 -1.1161  0.9858  3.1049
 8551SOL     OW37114   1.808   0.511   6.437 -0.2705 -0.1410 -0.5525
 8551SOL    HW137115   1.875   0.480   6.376 -1.5004  0.9028 -2.4291
 8551SOL    HW237116   1.767   0.426   6.452  0.4753 -0.1512  1.5269
 8552SOL     OW37117   3.509   1.342   2.281  0.0247  0.1024 -0.6546
 8552SOL    HW137118   3.418   1.371   2.283  0.7132  2.2915 -1.0781
 8552SOL    HW237119   3.528   1.303   2.195  0.6851 -0.8747 -0.0707
 8553SOL     OW37120   3.979   2.535  10.098 -0.0685 -0.1238  0.7284
 8553SOL    HW137121   4.048   2.491  10.048  0.3815 -1.1561  2.2526
 8553SOL    HW237122   4.028   2.570  10.173  0.0174  1.0345  0.1310
 8554SOL     OW37123   2.355   1.295   4.640  0.1116 -0.1660  0.2204
 8554SOL    HW137124   2.342   1.376   4.592  0.5592 -0.9299 -1.1963
 8554SOL    HW237125   2.319   1.229   4.580  0.3808 -0.9684  0.9401
 8555SOL     OW37126   1.466   3.671  12.355  0.0647  0.5357  0.0057
 8555SOL    HW137127   1.451   3.753  12.308  1.3769  1.8366  1.8785
 8555SOL    HW237128   1.450   3.706  12.442 -0.0248  1.3829 -0.3544
 8556SOL     OW37129   4.350   1.437   3.132  0.3739 -0.3973  0.3844
 8556SOL    HW137130   4.286   1.465   3.198  0.3866 -0.4781  0.4318
 8556SOL    HW237131   4.326   1.344   3.130  1.9959 -0.8551  1.7357
 8557SOL     OW37132   0.644   3.279   5.550  0.1627 -0.3206 -0.4746
 8557SOL    HW137133   0.722   3.289   5.604 -0.0911 -0.4205 -0.0836
 8557SOL    HW237134   0.598   3.356   5.582  1.2968 -0.2703  1.0201
 8558SOL     OW37135   1.076   0.724  12.368 -0.4460  0.4360 -0.5947
 8558SOL    HW137136   1.027   0.783  12.311  1.8270 -0.2879 -3.2927
 8558SOL    HW237137   1.027   0.734  12.450  0.5720 -1.9503  0.3095
 8559SOL     OW37138   3.007   2.794  10.129  0.0850  0.8247 -0.3010
 8559SOL    HW137139   2.922   2.815  10.168 -0.6362 -0.0998 -1.3696
 8559SOL    HW237140   3.050   2.776  10.213 -1.1127 -1.5538 -0.1777
 8560SOL     OW37141   0.180   0.747  13.537 -0.1592 -0.3543 -0.2425
 8560SOL    HW137142   0.220   0.773  13.455  0.4236 -0.6498 -0.0522
 8560SOL    HW237143   0.109   0.692  13.506 -0.2582  0.0554 -0.7298
 8561SOL     OW37144   2.727   1.475   2.100  0.2326  0.4132 -0.2811
 8561SOL    HW137145   2.780   1.434   2.032  2.0093  0.9721  0.7615
 8561SOL    HW237146   2.728   1.570   2.086  1.0053  0.3233 -0.8029
 8562SOL     OW37147   2.728   2.866  14.617 -0.2964  0.1097 -0.6877
 8562SOL    HW137148   2.682   2.792  14.577 -1.6216  0.4676  0.1590
 8562SOL    HW237149   2.672   2.934  14.580  0.2981  0.9935  0.0476
 8563SOL     OW37150   0.434   0.915   0.028  0.3408  0.3219  0.7567
 8563SOL    HW137151   0.376   0.898  17.639 -1.8490 -0.3502  2.6052
 8563SOL    HW237152   0.464   0.827   0.053  1.6831  0.3305 -0.8366
 8564SOL     OW37153   2.833   4.251   1.611  0.0935 -0.1768  0.1037
 8564SOL    HW137154   2.904   4.278   1.554  0.6724  0.1335  0.9815
 8564SOL    HW237155   2.764   4.220   1.552  1.4562  0.2274 -1.6892
 8565SOL     OW37156   1.456   1.741   3.501 -0.3302  0.4164 -0.5636
 8565SOL    HW137157   1.395   1.810   3.475  0.1280  1.7818  1.9842
 8565SOL    HW237158   1.496   1.714   3.419 -0.4044 -1.1285 -0.0906
 8566SOL     OW37159   0.788   0.674   7.866  0.0342  0.0193  0.4358
 8566SOL    HW137160   0.785   0.696   7.959 -1.2236  0.6917  0.2423
 8566SOL    HW237161   0.744   0.590   7.874 -0.1929 -0.0569 -1.6399
 8567SOL     OW37162   4.385   4.443   2.026 -0.5093 -0.1772 -0.5107
 8567SOL    HW137163   4.323   4.404   1.965 -1.2077  1.2679 -0.7345
 8567SOL    HW237164   4.354   4.533   2.020  0.7974  0.3184  0.0748
 8568SOL     OW37165   1.837   2.521   0.107  0.1221 -0.3961  0.4504
 8568SOL    HW137166   1.772   2.452   0.115  0.3731 -0.4384  2.2215
 8568SOL    HW237167   1.873   2.531   0.195  1.1989 -1.3615  0.1236
 8569SOL     OW37168   2.858   3.812   7.390  0.1654  0.4333  0.2525
 8569SOL    HW137169   2.877   3.847   7.303  0.3843 -2.1623 -0.7447
 8569SOL    HW237170   2.786   3.751   7.370  0.3501  0.5312 -0.7366
 8570SOL     OW37171   0.862   1.921  13.161  0.0095  0.7667  0.0174
 8570SOL    HW137172   0.829   1.859  13.226 -0.0013 -0.9273 -1.6094
 8570SOL    HW237173   0.783   1.968  13.134  0.4833  1.0032 -0.9416
 8571SOL     OW37174   4.177   4.644   7.829 -0.6668  0.3074  0.5446
 8571SOL    HW137175   4.198   4.561   7.873 -2.4726 -0.0695  0.6963
 8571SOL    HW237176   4.166   4.706   7.902 -1.0767 -0.8512  1.4728
 8572SOL     OW37177   2.863   3.551   2.923 -0.3424 -0.0216 -0.3502
 8572SOL    HW137178   2.934   3.615   2.932 -2.5914  1.9618  2.9179
 8572SOL    HW237179   2.917   3.474   2.908  1.6074  1.4580 -0.9434
 8573SOL     OW37180   3.043   0.357  12.927  0.1426 -0.5922  0.1757
 8573SOL    HW137181   3.036   0.452  12.920  0.4487 -0.4668  1.4875
 8573SOL    HW237182   2.964   0.344  12.874 -0.0549  0.5467  0.1994
 8574SOL     OW37183   0.200   0.605   2.023  0.0048 -0.0366  0.8398
 8574SOL    HW137184   0.257   0.542   1.979  0.0189  1.0602 -0.7133
 8574SOL    HW237185   0.257   0.678   2.049 -1.1057  0.8871  0.6704
 8575SOL     OW37186   1.270   2.309   9.222  0.1363 -0.6520 -0.0741
 8575SOL    HW137187   1.182   2.290   9.255 -0.4937  0.6595 -0.9933
 8575SOL    HW237188   1.322   2.289   9.300 -0.9012  1.3167  1.1395
 8576SOL     OW37189   0.555   1.223   8.410  0.3678  0.7423  0.2776
 8576SOL    HW137190   0.562   1.150   8.472 -2.0679  0.9349  0.7844
 8576SOL    HW237191   0.591   1.291   8.467  0.7494  0.9392 -0.2023
 8577SOL     OW37192   1.617   1.848  10.914  0.5967  0.1545 -0.1854
 8577SOL    HW137193   1.711   1.864  10.917  0.6977 -0.0409 -1.9159
 8577SOL    HW237194   1.606   1.805  10.829 -1.0385 -1.0853  0.6381
 8578SOL     OW37195   2.988   0.677   6.583  0.4039 -0.4002  0.0981
 8578SOL    HW137196   3.027   0.595   6.611 -0.1754 -0.3619  1.0185
 8578SOL    HW237197   3.012   0.739   6.652  1.7919  0.7515 -1.4184
 8579SOL     OW37198   1.129   4.294   7.962  0.1173 -0.4305  0.1164
 8579SOL    HW137199   1.177   4.295   8.044 -0.8522 -3.1373  0.7031
 8579SOL    HW237200   1.190   4.257   7.899  0.2444  1.3761 -0.8307
 8580SOL     OW37201   0.711   3.643   4.412 -0.5231 -0.2875 -0.0236
 8580SOL    HW137202   0.777   3.708   4.388 -0.7717 -0.6201 -1.5754
 8580SOL    HW237203   0.641   3.690   4.369 -0.4932 -1.1046 -0.9651
 8581SOL     OW37204   3.246   2.792   5.560 -0.2740 -0.5926  0.3811
 8581SOL    HW137205   3.324   2.746   5.528 -0.7762 -2.3446  1.6813
 8581SOL    HW237206   3.203   2.827   5.482 -2.8488 -0.7442  1.7190
 8582SOL     OW37207   1.976   3.256  14.349 -0.0304 -0.7681 -0.0754
 8582SOL    HW137208   2.015   3.308  14.279  1.8261 -3.3983 -0.9877
 8582SOL    HW237209   2.050   3.244  14.407 -0.5783 -4.0348 -0.0520
 8583SOL     OW37210   2.870   2.463   2.880  0.0508  0.3735 -0.1110
 8583SOL    HW137211   2.919   2.390   2.840 -3.3289 -1.1713 -1.4266
 8583SOL    HW237212   2.782   2.428   2.864  0.2743  0.2288 -1.0282
 8584SOL     OW37213   2.153   1.739   0.543 -0.3996 -0.0677  0.2238
 8584SOL    HW137214   2.224   1.727   0.479 -0.9453  0.7812 -0.5378
 8584SOL    HW237215   2.170   1.669   0.606 -0.1550  0.5620  0.8546
 8585SOL     OW37216   1.069   2.176   8.138 -0.7502 -0.2769 -0.5718
 8585SOL    HW137217   1.134   2.204   8.202 -1.5147  1.0027 -0.3465
 8585SOL    HW237218   1.036   2.091   8.167 -0.9394 -0.4076 -1.1627
 8586SOL     OW37219   2.195   0.500   8.286  0.4433  0.4809  0.4787
 8586SOL    HW137220   2.135   0.563   8.247  0.2609 -0.0207 -0.0468
 8586SOL    HW237221   2.237   0.550   8.357 -0.8359 -0.5998  1.9995
 8587SOL     OW37222   0.175   0.774   7.356 -0.0939 -0.4095  0.2135
 8587SOL    HW137223   0.193   0.818   7.439  0.1657 -3.1423  1.6198
 8587SOL    HW237224   0.199   0.847   7.298 -0.2986  0.6491  1.4542
 8588SOL     OW37225   2.846   2.479   6.065 -0.4318 -0.0070 -0.1524
 8588SOL    HW137226   2.777   2.535   6.102 -1.2288 -1.0194 -0.1074
 8588SOL    HW237227   2.918   2.505   6.123 -0.1979  1.3437 -1.0456
 8589SOL     OW37228   3.706   2.632   3.608  0.3061 -0.0951 -0.4269
 8589SOL    HW137229   3.749   2.661   3.528 -1.5110 -0.8952 -1.7036
 8589SOL    HW237230   3.669   2.548   3.579  0.5656 -0.5060  0.4237
 8590SOL     OW37231   2.797   4.601   1.408  0.4486 -0.1300  0.5150
 8590SOL    HW137232   2.851   4.572   1.482 -0.0680  0.2119  1.0322
 8590SOL    HW237233   2.852   4.568   1.338 -0.4535  0.4314 -0.4570
 8591SOL     OW37234   3.294   1.670   3.853 -0.1040 -0.4804 -0.1989
 8591SOL    HW137235   3.239   1.712   3.788  1.2111 -0.0300 -1.0284
 8591SOL    HW237236   3.318   1.601   3.791 -0.9837 -2.3313  1.4984
 8592SOL     OW37237   0.113   0.605   5.096 -0.3695  0.2169 -0.2534
 8592SOL    HW137238   0.141   0.695   5.115 -0.5260  0.1186  0.4204
 8592SOL    HW237239   0.040   0.619   5.035  0.2280 -1.7888 -1.4418
 8593SOL     OW37240   3.765   2.332  16.081 -0.2263  0.2471 -0.5407
 8593SOL    HW137241   3.787   2.422  16.057  1.4413 -0.4268 -1.5762
 8593SOL    HW237242   3.853   2.305  16.105 -0.1134  1.2881  0.2063
 8594SOL     OW37243   3.383   0.617   5.146 -0.4524  0.1524 -0.3535
 8594SOL    HW137244   3.392   0.563   5.068 -1.2531 -3.1312  1.8106
 8594SOL    HW237245   3.292   0.611   5.176 -1.0463  3.1010 -1.5642
 8595SOL     OW37246   0.946   1.966   8.250  0.5110 -0.2217 -0.0029
 8595SOL    HW137247   1.007   1.927   8.312  0.6756  0.4757  0.2719
 8595SOL    HW237248   0.859   1.954   8.289  1.0820  1.9822  1.9460
 8596SOL     OW37249   4.199   2.573   6.090 -0.1363 -0.3067 -0.4355
 8596SOL    HW137250   4.215   2.523   6.009 -0.1976  2.5292 -2.1750
 8596SOL    HW237251   4.240   2.512   6.152  0.7329  1.6130  0.8500
 8597SOL     OW37252   1.861   2.641   5.673  0.0035  0.2190 -0.2200
 8597SOL    HW137253   1.887   2.612   5.761  2.5856 -2.7928 -1.9537
 8597SOL    HW237254   1.780   2.688   5.691 -1.1622 -1.3369 -1.4503
 8598SOL     OW37255   3.869   0.271  11.594  0.1700 -0.1479  0.1568
 8598SOL    HW137256   3.813   0.346  11.575  1.5488  1.3002  1.7894
 8598SOL    HW237257   3.916   0.303  11.671 -1.1767 -1.9380  1.7190
 8599SOL     OW37258   1.267   0.617   5.172 -0.2721 -0.3795  0.1281
 8599SOL    HW137259   1.273   0.524   5.150 -2.8809 -0.2570 -1.1238
 8599SOL    HW237260   1.351   0.628   5.216  0.6898  0.2291 -1.8718
 8600SOL     OW37261   3.185   0.168   2.906 -0.7067 -0.5549  0.0354
 8600SOL    HW137262   3.130   0.224   2.961 -0.6214 -0.8796  0.4557
 8600SOL    HW237263   3.213   0.101   2.969 -1.6854  0.1804  1.2508
 8601SOL     OW37264   2.639   0.093   1.092  0.0418  0.0669  0.2806
 8601SOL    HW137265   2.589   0.020   1.128  0.4378  0.6587  2.0260
 8601SOL    HW237266   2.580   0.122   1.023 -0.2327 -0.2905  0.3634
 8602SOL     OW37267   4.440   2.793   0.304  0.4088  0.1560 -0.7310
 8602SOL    HW137268   4.427   2.699   0.291  0.2129  0.1604 -0.5799
 8602SOL    HW237269   4.362   2.810   0.358 -0.1936 -1.3419 -1.1313
 8603SOL     OW37270   2.316   4.065   2.743  0.3249  0.0937  0.2986
 8603SOL    HW137271   2.342   3.988   2.792 -1.0658 -0.1002  0.7241
 8603SOL    HW237272   2.222   4.062   2.757  0.2309 -0.6152 -0.5085
 8604SOL     OW37273   2.441   2.513   4.023  0.1338 -0.4944 -0.1727
 8604SOL    HW137274   2.436   2.478   3.934 -0.6157  0.3942 -0.4839
 8604SOL    HW237275   2.425   2.607   4.020 -0.7941 -0.7109 -1.7756
 8605SOL     OW37276   4.586   0.131   7.003 -0.2804  0.4693 -0.3259
 8605SOL    HW137277   4.508   0.151   6.951  0.6508  0.5735 -1.6803
 8605SOL    HW237278   4.648   0.123   6.931  1.0749  0.4977  0.8365
 8606SOL     OW37279   0.883   3.656   1.058 -0.0879 -0.0064  0.0216
 8606SOL    HW137280   0.923   3.706   0.987  1.2031  0.7003  1.2755
 8606SOL    HW237281   0.788   3.656   1.046 -0.2427  1.0158  1.2924
 8607SOL     OW37282   4.083   0.191  12.116 -0.0132  0.3913 -0.0262
 8607SOL    HW137283   4.126   0.148  12.191 -0.0307 -1.4430 -1.0747
 8607SOL    HW237284   4.000   0.214  12.159 -2.7500 -2.2030 -3.9672
 8608SOL     OW37285   0.290   2.042  12.843  0.3856 -0.4880  0.1806
 8608SOL    HW137286   0.202   2.032  12.878  0.4559 -0.2204  0.4342
 8608SOL    HW237287   0.277   2.004  12.756  0.3855  1.3114 -0.5937
 8609SOL     OW37288   0.411   4.176  12.279  0.0119  0.0793  0.1065
 8609SOL    HW137289   0.493   4.129  12.264 -0.0339  0.2974 -0.8219
 8609SOL    HW237290   0.392   4.224  12.199 -0.1813  2.0351  1.3271
 8610SOL     OW37291   2.643   0.648   5.891  0.2166 -1.0112  0.3318
 8610SOL    HW137292   2.577   0.692   5.838  1.7331  2.8737  1.5989
 8610SOL    HW237293   2.715   0.638   5.828 -0.7925 -2.2218 -0.6185
 8611SOL     OW37294   4.232   2.297   2.575 -0.3237  0.1486 -0.1450
 8611SOL    HW137295   4.326   2.309   2.587 -0.0571 -0.9478 -1.1161
 8611SOL    HW237296   4.209   2.322   2.664 -0.5817  0.4174 -0.2851
 8612SOL     OW37297   3.792   0.661   9.462  0.4440  0.8674 -0.0972
 8612SOL    HW137298   3.798   0.640   9.369 -0.9086 -1.8024  0.4276
 8612SOL    HW237299   3.884   0.671   9.485  0.2032  0.5752  0.9624
 8613SOL     OW37300   2.022   3.758  10.576 -0.1822  0.4866 -0.1114
 8613SOL    HW137301   1.937   3.774  10.536  0.6042  1.1776 -1.5187
 8613SOL    HW237302   2.007   3.668  10.606 -0.8418  0.6186 -0.0580
 8614SOL     OW37303   0.252   1.093  14.615 -0.3126 -0.0708 -0.2460
 8614SOL    HW137304   0.224   1.143  14.691  0.6146 -0.2025  0.1952
 8614SOL    HW237305   0.293   1.013  14.649  1.0159  0.3103 -0.9290
 8615SOL     OW37306   0.977   4.433  12.309 -0.3929  0.0997 -0.4052
 8615SOL    HW137307   0.967   4.475  12.394 -3.5768  0.7638 -1.1010
 8615SOL    HW237308   1.020   4.497  12.252 -1.7864  0.0726 -1.4898
 8616SOL     OW37309   1.551   0.723  15.386  0.1327  0.5571 -0.0402
 8616SOL    HW137310   1.611   0.794  15.413 -0.4557  0.8654  0.4528
 8616SOL    HW237311   1.601   0.674  15.321  3.2222 -1.1278  3.6219
 8617SOL     OW37312   2.499   0.868   5.325 -0.5461 -0.2528  1.0484
 8617SOL    HW137313   2.564   0.936   5.338  0.5594 -0.3303 -3.8673
 8617SOL    HW237314   2.486   0.826   5.410  1.2698 -1.8030  0.5556
 8618SOL     OW37315   2.714   3.322   6.450  0.7260 -0.1810  0.1685
 8618SOL    HW137316   2.687   3.407   6.415  1.7327  0.7598  1.6559
 8618SOL    HW237317   2.721   3.332   6.545  1.9982  1.0007 -0.0562
 8619SOL     OW37318   2.568   0.599  17.100 -0.0690  0.3182  0.1510
 8619SOL    HW137319   2.576   0.676  17.156  0.3638 -1.5067  2.6058
 8619SOL    HW237320   2.579   0.536  17.171 -1.2756  1.4842  1.3576
 8620SOL     OW37321   3.571   2.167  13.734  0.5604  0.0211 -0.5178
 8620SOL    HW137322   3.558   2.135  13.824  1.6862  2.0622  0.3951
 8620SOL    HW237323   3.508   2.109  13.693  1.3203 -1.1990  0.0493
 8621SOL     OW37324   1.692   3.915  13.696 -0.5548  0.1246  0.0133
 8621SOL    HW137325   1.774   3.953  13.728 -1.6175  2.3323  0.1085
 8621SOL    HW237326   1.628   3.977  13.730 -0.4363  0.4367 -0.3292
 8622SOL     OW37327   2.346   1.357   7.008  0.3019 -0.0856  0.2456
 8622SOL    HW137328   2.363   1.266   6.983  2.2537  0.3223  0.0805
 8622SOL    HW237329   2.264   1.371   6.962  0.2065  1.5682  0.9078
 8623SOL     OW37330   3.316   2.904  13.438  0.2727  0.7774  0.0733
 8623SOL    HW137331   3.345   2.995  13.449  0.2221  0.6703  1.1426
 8623SOL    HW237332   3.253   2.906  13.510 -1.2259  0.9283 -1.2316
 8624SOL     OW37333   3.706   2.192   9.810  0.2886 -0.3910 -0.5189
 8624SOL    HW137334   3.763   2.194   9.733  1.1423  1.2241  0.1436
 8624SOL    HW237335   3.754   2.131   9.866 -0.0670 -0.2342 -0.0482
 8625SOL     OW37336   0.116   3.048   9.661 -0.0238 -0.2512 -0.0503
 8625SOL    HW137337   0.078   2.987   9.598  0.8584 -0.9425  0.0982
 8625SOL    HW237338   0.069   3.020   9.740 -0.9005 -0.0909 -0.5114
 8626SOL     OW37339   4.041   3.345   8.287  0.2005 -0.3655  0.2549
 8626SOL    HW137340   3.994   3.263   8.302 -0.4587 -0.0768 -0.2280
 8626SOL    HW237341   4.105   3.341   8.359  1.7625  0.3885 -1.0716
 8627SOL     OW37342   0.890   0.568   5.192 -0.2148  0.3900 -0.3165
 8627SOL    HW137343   0.876   0.482   5.152  1.1155 -0.3634  0.8539
 8627SOL    HW237344   0.957   0.548   5.257 -0.1432  0.7150 -0.2879
 8628SOL     OW37345   4.299   0.224   2.178  0.8779  0.3477  0.2239
 8628SOL    HW137346   4.238   0.190   2.244  0.4973  1.8707  0.6704
 8628SOL    HW237347   4.378   0.239   2.230  2.2833  1.7228 -2.3378
 8629SOL     OW37348   4.558   3.661   7.149  0.1295  0.0968  0.6656
 8629SOL    HW137349   4.572   3.570   7.122 -2.1104  0.3043 -1.1849
 8629SOL    HW237350   4.464   3.668   7.131 -0.1892  0.6347  2.4748
 8630SOL     OW37351   2.222   0.576  12.517  0.2742 -0.1023 -0.0741
 8630SOL    HW137352   2.135   0.564  12.479  0.8343  0.0961 -1.4352
 8630SOL    HW237353   2.277   0.505  12.486  0.9102  1.0564 -1.6264
 8631SOL     OW37354   0.020   1.394   8.359 -0.0671  0.1632  0.2498
 8631SOL    HW137355   0.049   1.483   8.338 -3.3987  1.4149  0.9488
 8631SOL    HW237356   0.107   1.363   8.387  0.6126  1.1949 -0.7031
 8632SOL     OW37357   4.124   4.354   3.408  0.3739 -0.4168 -0.6187
 8632SOL    HW137358   4.163   4.439   3.390 -1.4336  0.6671  0.6435
 8632SOL    HW237359   4.096   4.365   3.498  1.2395 -1.5364 -0.2019
 8633SOL     OW37360   0.810   3.023   1.885 -0.1027  0.1059 -0.1885
 8633SOL    HW137361   0.865   3.100   1.899 -0.4328  0.0049  1.6799
 8633SOL    HW237362   0.870   2.991   1.818  1.4137 -1.4914  1.9301
 8634SOL     OW37363   4.091   2.841   2.965  0.7927  0.1486 -0.6030
 8634SOL    HW137364   4.032   2.766   2.951 -1.6565  1.4396  2.8876
 8634SOL    HW237365   4.037   2.916   2.940 -1.2487 -1.6213 -1.5496
 8635SOL     OW37366   3.514   1.809  12.673 -0.0105 -0.2686 -0.3074
 8635SOL    HW137367   3.443   1.866  12.642 -0.2270 -0.3563  0.0328
 8635SOL    HW237368   3.574   1.812  12.598 -0.0057 -3.4933 -0.4300
 8636SOL     OW37369   2.749   0.641   8.841  0.2011 -0.4170 -0.7768
 8636SOL    HW137370   2.662   0.666   8.871 -0.4488  0.2074 -3.1443
 8636SOL    HW237371   2.806   0.682   8.906 -1.3860 -0.2362  0.5090
 8637SOL     OW37372   3.224   0.074   5.027  0.3473  0.0016 -0.0523
 8637SOL    HW137373   3.195   0.161   5.053 -2.0693 -0.6927 -0.4035
 8637SOL    HW237374   3.316   0.079   5.054  0.6702  0.5547 -1.2776
 8638SOL     OW37375   2.757   1.739  15.171 -0.3487 -0.4627 -0.0365
 8638SOL    HW137376   2.709   1.818  15.148 -1.5092 -1.3381 -0.6618
 8638SOL    HW237377   2.685   1.676  15.167 -1.1476  0.5971 -2.5479
 8639SOL     OW37378   3.716   4.562   4.700 -0.0838 -0.2179  0.6623
 8639SOL    HW137379   3.774   4.638   4.691 -0.2084 -0.2079 -0.0392
 8639SOL    HW237380   3.776   4.502   4.744  2.5743  1.4582 -0.6137
 8640SOL     OW37381   3.916   0.411  15.826  0.1966  0.6381 -0.2397
 8640SOL    HW137382   3.866   0.437  15.749 -0.8218  0.8345  0.4807
 8640SOL    HW237383   3.921   0.491  15.878 -0.8499  0.6856 -0.2114
 8641SOL     OW37384   1.693   2.808   6.860  0.3636  0.2867  0.5359
 8641SOL    HW137385   1.647   2.884   6.895 -2.0278 -1.6249  1.5396
 8641SOL    HW237386   1.625   2.741   6.861  2.0754 -1.4656  0.7466
 8642SOL     OW37387   3.836   0.137   3.012  0.0875  0.2164 -0.3193
 8642SOL    HW137388   3.888   0.149   3.092 -1.1389  2.0104  0.2091
 8642SOL    HW237389   3.748   0.153   3.045 -0.0184  1.9179 -1.4041
 8643SOL     OW37390   1.532   2.837  12.598  0.7316 -0.2348  0.4915
 8643SOL    HW137391   1.443   2.838  12.632  0.5333 -1.1608 -0.0012
 8643SOL    HW237392   1.546   2.750  12.561  2.4793  1.2548 -2.3613
 8644SOL     OW37393   3.882   4.426   1.004  0.0073  0.3414 -0.7679
 8644SOL    HW137394   3.806   4.389   1.050 -0.1602  0.1069 -1.2382
 8644SOL    HW237395   3.922   4.343   0.977  0.4923 -0.5274  2.6190
 8645SOL     OW37396   3.057   3.805  10.832 -0.2944  0.1527 -0.4514
 8645SOL    HW137397   3.135   3.795  10.887 -0.4207 -0.4906 -0.3831
 8645SOL    HW237398   2.990   3.814  10.899  0.3618 -1.9368  0.5118
 8646SOL     OW37399   3.410   3.177   5.380 -0.0334  0.3437 -0.3074
 8646SOL    HW137400   3.354   3.149   5.308  1.5170 -1.8493 -0.6642
 8646SOL    HW237401   3.358   3.143   5.453 -0.2626 -0.3976 -0.8117
 8647SOL     OW37402   3.776   0.717   1.546 -0.0279  0.3552  0.0640
 8647SOL    HW137403   3.863   0.678   1.547 -0.7728 -1.3466 -2.7943
 8647SOL    HW237404   3.807   0.807   1.557  2.0130 -0.1009 -2.0895
 8648SOL     OW37405   3.564   1.568   5.965  0.2253 -0.0863 -0.1207
 8648SOL    HW137406   3.516   1.584   5.884  1.4078 -0.1713 -0.8439
 8648SOL    HW237407   3.553   1.473   5.975 -0.4538 -0.1851 -1.8227
 8649SOL     OW37408   1.548   3.217   0.819  0.1227  0.3533 -0.0936
 8649SOL    HW137409   1.547   3.132   0.863 -2.4067  0.0369 -0.7463
 8649SOL    HW237410   1.642   3.234   0.828  0.0238  0.8022  0.0754
 8650SOL     OW37411   0.122   2.549   5.164  0.0029 -0.1259  0.0483
 8650SOL    HW137412   0.043   2.573   5.212  1.6219  1.5114  1.8864
 8650SOL    HW237413   0.182   2.623   5.171  2.7730 -2.5358  1.7722
 8651SOL     OW37414   0.083   2.094   1.503  0.9406 -0.5612  0.6652
 8651SOL    HW137415   0.106   2.043   1.425  2.1791  3.5674 -1.6699
 8651SOL    HW237416   0.138   2.170   1.489  0.3604 -0.2546  0.0408
 8652SOL     OW37417   0.852   3.748   4.866 -0.4643 -0.2152 -0.5683
 8652SOL    HW137418   0.784   3.736   4.800 -0.6592 -0.6818 -0.2862
 8652SOL    HW237419   0.927   3.705   4.826 -0.0446 -0.1267  0.1136
 8653SOL     OW37420   4.679   3.242   9.484  0.2198 -0.0343  0.3463
 8653SOL    HW137421   0.001   3.185   9.548  0.6141  0.2143  0.3072
 8653SOL    HW237422   4.710   3.198   9.405  0.8371  2.6179 -0.8932
 8654SOL     OW37423   3.459   4.539   5.245  0.4287 -0.0495 -0.0868
 8654SOL    HW137424   3.509   4.564   5.167  0.3602 -1.5679 -0.6166
 8654SOL    HW237425   3.480   4.445   5.241 -0.1254 -0.0633 -2.4724
 8655SOL     OW37426   3.595   3.239  10.874 -0.1539 -0.3559 -0.4916
 8655SOL    HW137427   3.512   3.246  10.921  1.1273 -0.7359  1.7997
 8655SOL    HW237428   3.566   3.293  10.799  0.9372  0.8028 -0.0754
 8656SOL     OW37429   2.571   3.804   9.917  0.0657  0.7319  0.3321
 8656SOL    HW137430   2.629   3.729   9.903 -1.7987 -0.4101 -1.2816
 8656SOL    HW237431   2.583   3.807  10.012  0.8963 -0.8836  0.2696
 8657SOL     OW37432   3.505   0.741  11.368  0.2560 -0.5173  0.3488
 8657SOL    HW137433   3.438   0.799  11.404  0.1116 -0.5565  0.1391
 8657SOL    HW237434   3.583   0.796  11.359 -0.6292  0.6292 -0.2760
 8658SOL     OW37435   2.129   3.273   7.388  0.2105 -0.1725  0.1016
 8658SOL    HW137436   2.154   3.207   7.323 -1.4464  0.7700 -1.4786
 8658SOL    HW237437   2.053   3.301   7.337  0.6842  1.8901  0.5389
 8659SOL     OW37438   1.023   4.301   6.816 -0.3995  0.2848  0.3175
 8659SOL    HW137439   1.119   4.307   6.817 -0.2064 -2.4259 -0.8382
 8659SOL    HW237440   0.998   4.212   6.793 -2.3445  1.1641 -0.9136
 8660SOL     OW37441   0.767   1.949   9.862 -0.1162  0.0612  0.0451
 8660SOL    HW137442   0.808   1.953   9.776 -1.1633  0.2669 -0.4436
 8660SOL    HW237443   0.693   1.893   9.840 -0.1310 -0.0889  0.4824
 8661SOL     OW37444   0.085   0.321   0.026  0.5773  0.2641 -0.1750
 8661SOL    HW137445   0.097   0.407  17.673 -0.9225  1.2321  1.5334
 8661SOL    HW237446   0.137   0.266  17.652 -0.4648 -1.9939  0.9826
 8662SOL     OW37447   3.937   3.139   6.477 -0.7924  0.0770  0.1237
 8662SOL    HW137448   3.916   3.076   6.407 -2.3333 -1.3719  1.8699
 8662SOL    HW237449   3.858   3.192   6.485 -0.1276  0.9687  0.6838
 8663SOL     OW37450   2.184   3.397   5.495 -0.7957  0.2181 -0.0825
 8663SOL    HW137451   2.258   3.336   5.502 -2.5556 -1.7402  1.3524
 8663SOL    HW237452   2.223   3.453   5.428  1.0700 -0.8002  0.1525
 8664SOL     OW37453   2.036   3.816   9.247 -0.2570 -0.2943  0.3706
 8664SOL    HW137454   1.997   3.748   9.302  2.7063 -1.7772  0.6390
 8664SOL    HW237455   2.024   3.785   9.158  1.6068  1.5548 -0.5113
 8665SOL     OW37456   2.470   2.599   7.994 -0.3066  0.0108 -0.8325
 8665SOL    HW137457   2.392   2.589   7.938  0.6457  0.8751 -2.2978
 8665SOL    HW237458   2.442   2.575   8.082  3.2426  1.4509  0.6677
 8666SOL     OW37459   1.611   0.659   6.581  0.4596 -0.4754 -0.0275
 8666SOL    HW137460   1.546   0.717   6.543  0.9427  1.3624  1.9523
 8666SOL    HW237461   1.642   0.610   6.505 -0.0337 -0.4569 -0.2384
 8667SOL     OW37462   4.352   3.476   9.170  0.4948 -0.2942 -0.1571
 8667SOL    HW137463   4.366   3.382   9.168  0.8057 -0.2667  0.6974
 8667SOL    HW237464   4.325   3.471   9.262  0.1300  0.2489 -0.2348
 8668SOL     OW37465   0.518   0.845   3.862 -0.9213 -0.0316 -1.0124
 8668SOL    HW137466   0.469   0.775   3.905 -0.0326  0.2848  0.5281
 8668SOL    HW237467   0.512   0.917   3.924 -1.4901 -0.1007 -0.9836
 8669SOL     OW37468   4.550   1.059  11.330 -0.3895 -0.7957  0.4535
 8669SOL    HW137469   4.528   0.977  11.286 -1.1164 -0.4705  0.2088
 8669SOL    HW237470   4.588   1.104  11.255  1.7637 -0.6454  1.6290
 8670SOL     OW37471   2.995   4.605   7.779 -0.7786  0.1898 -0.0615
 8670SOL    HW137472   3.055   4.540   7.815  0.7014  1.0252 -1.0386
 8670SOL    HW237473   3.025   4.616   7.688 -3.5678 -0.4807 -1.0684
 8671SOL     OW37474   2.882   1.638   4.877  0.4874  0.3469  0.0993
 8671SOL    HW137475   2.846   1.566   4.824  0.1489 -1.0776  2.2847
 8671SOL    HW237476   2.802   1.646   4.928  0.2252 -1.1300 -0.0661
 8672SOL     OW37477   1.655   1.241   8.078 -0.3220  0.4677  0.0358
 8672SOL    HW137478   1.619   1.315   8.126 -0.3314 -0.0155  0.7782
 8672SOL    HW237479   1.704   1.194   8.145 -0.8402 -2.1208 -1.3901
 8673SOL     OW37480   0.634   1.933  16.345 -0.0628 -0.2330  0.5461
 8673SOL    HW137481   0.719   1.906  16.311 -0.8794 -0.8957 -0.9504
 8673SOL    HW237482   0.662   2.015  16.386 -2.5496  1.4964 -1.2200
 8674SOL     OW37483   3.849   2.867   9.635 -0.1003 -0.5367 -0.0157
 8674SOL    HW137484   3.786   2.905   9.573  2.3226  2.2954 -0.7297
 8674SOL    HW237485   3.834   2.773   9.646 -1.3626 -0.1223  1.8960
 8675SOL     OW37486   2.418   0.517   8.012  0.1875 -0.5700 -0.0356
 8675SOL    HW137487   2.447   0.517   8.103  1.2918  1.3849 -0.3953
 8675SOL    HW237488   2.381   0.605   8.010  0.3000 -0.5194  0.1803
 8676SOL     OW37489   1.505   0.346   2.946 -0.0103  0.3487 -0.5905
 8676SOL    HW137490   1.541   0.431   2.973  1.0698  0.4069 -2.1926
 8676SOL    HW237491   1.454   0.326   3.025  1.8950  0.7093  0.7416
 8677SOL     OW37492   4.540   3.512   8.670 -0.2024 -0.1140 -0.1532
 8677SOL    HW137493   4.573   3.425   8.693  0.3552  0.2228  0.3006
 8677SOL    HW237494   4.477   3.512   8.743 -2.0814 -0.4034 -1.7864
 8678SOL     OW37495   2.050   4.257   0.794 -0.0310  0.2181 -0.0558
 8678SOL    HW137496   2.025   4.177   0.748 -0.5871 -0.6618  1.7782
 8678SOL    HW237497   2.093   4.317   0.733  3.0187 -0.2249  1.6163
 8679SOL     OW37498   4.047   1.561   6.061 -0.3555  0.4013  0.1115
 8679SOL    HW137499   4.006   1.478   6.083 -1.6694  1.0969  0.2555
 8679SOL    HW237500   4.116   1.576   6.127 -1.8013 -3.1824  2.4316
 8680SOL     OW37501   0.369   3.396   3.527 -0.0100  0.1133  0.5535
 8680SOL    HW137502   0.384   3.334   3.456  1.5398 -0.5509  1.4603
 8680SOL    HW237503   0.304   3.460   3.497 -0.6908  0.3110  2.4351
 8681SOL     OW37504   3.702   2.731   0.616 -0.0771  1.0374 -0.5106
 8681SOL    HW137505   3.749   2.769   0.689 -2.3158  0.3030  1.3141
 8681SOL    HW237506   3.625   2.699   0.662 -0.9067  1.3559 -1.6562
 8682SOL     OW37507   2.781   0.605   5.427  0.9462  0.3103  0.3638
 8682SOL    HW137508   2.765   0.542   5.356 -0.6070  0.4297  0.6120
 8682SOL    HW237509   2.833   0.672   5.383  0.5622 -0.1335 -0.7775
 8683SOL     OW37510   0.693   2.685   2.664 -0.0919 -0.0073 -0.2252
 8683SOL    HW137511   0.760   2.681   2.596  1.1476  1.8039  0.8931
 8683SOL    HW237512   0.752   2.722   2.730  0.1934 -3.6025  1.5595
 8684SOL     OW37513   0.388   1.968  11.992 -0.1745 -0.3224 -0.2619
 8684SOL    HW137514   0.395   1.873  12.003  0.3571  0.0846  3.0775
 8684SOL    HW237515   0.338   1.971  11.910 -0.3939 -1.8420 -0.1847
 8685SOL     OW37516   2.737   2.177   6.148 -0.2471  0.5913  0.5054
 8685SOL    HW137517   2.830   2.152   6.144 -0.8971 -1.5455 -1.7775
 8685SOL    HW237518   2.707   2.113   6.213 -3.0168  0.8241 -0.5409
 8686SOL     OW37519   1.749   2.995  14.054  0.1767  0.5758 -0.8811
 8686SOL    HW137520   1.765   3.032  14.141 -1.7550 -0.4131 -0.0992
 8686SOL    HW237521   1.654   2.988  14.047  0.1876  0.1670 -0.6555
 8687SOL     OW37522   0.094   4.116   3.738 -0.1013 -0.1781 -0.0580
 8687SOL    HW137523   0.007   4.106   3.775 -0.9221  1.2325 -1.6245
 8687SOL    HW237524   0.088   4.195   3.684 -2.0858 -1.1011 -1.1689
 8688SOL     OW37525   3.694   1.331   7.614 -0.2479  0.1089  0.1143
 8688SOL    HW137526   3.734   1.262   7.561  1.2701  0.6505  0.5587
 8688SOL    HW237527   3.766   1.388   7.643  1.2846 -1.1108 -1.2919
 8689SOL     OW37528   2.313   3.574   3.125 -0.1756  0.3577 -0.3399
 8689SOL    HW137529   2.359   3.654   3.099  0.0382 -0.3600 -2.1563
 8689SOL    HW237530   2.315   3.580   3.221 -1.5229 -0.6792 -0.2398
 8690SOL     OW37531   3.479   1.938   2.771 -0.1056  0.5548 -0.6309
 8690SOL    HW137532   3.392   1.968   2.800 -0.3833 -0.8390  0.0031
 8690SOL    HW237533   3.475   1.957   2.678  0.9807  0.5153 -0.6778
 8691SOL     OW37534   0.730   1.262   7.991  0.3360  0.5040 -0.2168
 8691SOL    HW137535   0.686   1.325   7.934  1.4574  2.0303  0.5989
 8691SOL    HW237536   0.784   1.206   7.936  1.6127  0.0588  1.4907
 8692SOL     OW37537   1.239   0.694   4.031 -0.5097 -0.2217 -0.1635
 8692SOL    HW137538   1.280   0.662   3.951 -0.8771  0.0157 -0.4448
 8692SOL    HW237539   1.209   0.612   4.070 -1.4314  1.8290  3.4489
 8693SOL     OW37540   2.209   2.032   6.692  0.2475 -0.3471  0.3609
 8693SOL    HW137541   2.154   2.073   6.759 -0.2898  1.7675 -1.3682
 8693SOL    HW237542   2.227   2.105   6.633 -0.5776 -1.7147 -1.5718
 8694SOL     OW37543   3.941   2.738   4.217 -0.4223  0.5480 -0.7741
 8694SOL    HW137544   4.029   2.749   4.253 -1.6130  0.5873  2.1711
 8694SOL    HW237545   3.950   2.788   4.137 -2.4072 -0.8032 -1.8380
 8695SOL     OW37546   0.300   3.780  14.818  0.1528 -0.2347 -0.8043
 8695SOL    HW137547   0.256   3.860  14.847  1.8520  0.4005  0.0167
 8695SOL    HW237548   0.387   3.813  14.792  0.6634  0.1859  1.4886
 8696SOL     OW37549   2.861   3.474  15.988 -0.4631 -0.0310  0.2216
 8696SOL    HW137550   2.806   3.400  16.017  2.1878 -1.6518  1.1103
 8696SOL    HW237551   2.795   3.535  16.020 -0.6313  0.5840 -1.3282
 8697SOL     OW37552   0.673   2.669   4.270 -0.2597 -0.2135  0.6165
 8697SOL    HW137553   0.756   2.623   4.256 -0.3103 -0.9346  2.6733
 8697SOL    HW237554   0.662   2.665   4.365 -0.8536  0.9431  0.5961
 8698SOL     OW37555   1.273   2.263   0.195 -0.0047 -0.8466 -0.1240
 8698SOL    HW137556   1.196   2.321   0.192 -0.4878 -1.5174 -0.8452
 8698SOL    HW237557   1.229   2.184   0.163 -1.8923 -0.4926  1.6095
 8699SOL     OW37558   2.197   2.503   7.876 -0.0618  0.0983 -0.2124
 8699SOL    HW137559   2.145   2.455   7.941 -1.4651 -0.5498 -1.8205
 8699SOL    HW237560   2.156   2.589   7.867 -0.6587  0.0125  1.6479
 8700SOL     OW37561   2.464   3.710   5.888  0.4212 -0.0528 -0.3143
 8700SOL    HW137562   2.432   3.623   5.867  1.2583  0.8083 -5.1589
 8700SOL    HW237563   2.490   3.713   5.980 -0.3161 -0.5202 -0.0887
 8701SOL     OW37564   0.954   2.123  15.433  0.3582  0.2510 -0.0824
 8701SOL    HW137565   0.964   2.126  15.529  1.1946  1.0177 -0.1917
 8701SOL    HW237566   0.860   2.135  15.418  0.7424  1.2844 -1.5777
 8702SOL     OW37567   1.553   1.373  17.288  0.4470  0.2357 -0.0853
 8702SOL    HW137568   1.502   1.395  17.367  0.0469 -2.8696  0.5168
 8702SOL    HW237569   1.585   1.287  17.315  1.2421  1.4408  2.8423
 8703SOL     OW37570   2.366   4.619   8.320  0.5442  0.4888 -0.5840
 8703SOL    HW137571   2.341   4.669   8.398  0.7494 -0.8650  0.3556
 8703SOL    HW237572   2.314   4.665   8.254 -1.5534 -0.8932  0.1190
 8704SOL     OW37573   4.427   2.468   3.262 -0.0837  0.5173  0.2006
 8704SOL    HW137574   4.520   2.481   3.248 -0.1943  0.7791 -0.3122
 8704SOL    HW237575   4.425   2.440   3.353  0.2405 -0.5104 -0.1089
 8705SOL     OW37576   2.756   4.533  14.481 -0.1942  0.8086 -0.2267
 8705SOL    HW137577   2.708   4.611  14.510  0.4635  1.6611 -1.4147
 8705SOL    HW237578   2.777   4.557  14.391  1.7746  0.2955  0.1002
 8706SOL     OW37579   3.621   3.310   4.035 -0.2444  0.0350  0.1956
 8706SOL    HW137580   3.579   3.317   3.949 -1.9900 -1.9582  0.9066
 8706SOL    HW237581   3.708   3.344   4.013 -0.2439 -0.9539 -1.3698
 8707SOL     OW37582   1.256   0.619  17.433 -0.1668  0.5499 -0.4268
 8707SOL    HW137583   1.297   0.646  17.351  0.8385  2.7321  0.7986
 8707SOL    HW237584   1.333   0.578  17.473 -0.0199  0.2972 -0.9747
 8708SOL     OW37585   3.498   3.623   9.100  0.8571  0.5208 -0.2981
 8708SOL    HW137586   3.501   3.704   9.151  3.6502  1.2737 -1.7150
 8708SOL    HW237587   3.463   3.653   9.016  0.2679 -1.5837 -0.7973
 8709SOL     OW37588   2.389   2.231   0.301  0.0920 -0.4789 -0.1485
 8709SOL    HW137589   2.378   2.180   0.381 -0.4371  2.0711  1.4363
 8709SOL    HW237590   2.420   2.307   0.350 -2.2962  1.9418 -2.3517
 8710SOL     OW37591   3.520   1.676  16.491  0.4264 -0.3499 -0.3360
 8710SOL    HW137592   3.518   1.760  16.538 -0.6933 -0.1495 -0.7422
 8710SOL    HW237593   3.486   1.684  16.402  2.2577  0.6834 -0.9415
 8711SOL     OW37594   0.853   1.864   5.561 -0.6221  0.6203  0.0029
 8711SOL    HW137595   0.935   1.828   5.593 -1.4751 -0.0873  1.3904
 8711SOL    HW237596   0.885   1.934   5.504  0.4453 -1.6931 -2.2397
 8712SOL     OW37597   2.637   3.432   4.033 -0.4348 -0.0726  0.4754
 8712SOL    HW137598   2.657   3.370   3.963  1.0032  0.8718  0.0599
 8712SOL    HW237599   2.548   3.460   4.011  0.4196  1.4262 -0.9753
 8713SOL     OW37600   1.389   3.214   2.943 -0.2575 -0.3670 -0.4735
 8713SOL    HW137601   1.328   3.254   3.005  0.7318 -0.6394  0.6936
 8713SOL    HW237602   1.333   3.146   2.906  0.6985 -1.2730 -0.2551
 8714SOL     OW37603   0.162   1.634   8.304 -0.2650  0.0975  0.4014
 8714SOL    HW137604   0.101   1.694   8.348 -0.6804  0.7399 -1.0398
 8714SOL    HW237605   0.149   1.655   8.212 -0.1766  0.9147  0.5737
 8715SOL     OW37606   0.410   1.384   1.524  0.1103  0.6864 -0.1004
 8715SOL    HW137607   0.362   1.465   1.540 -1.1167 -0.3808  1.6780
 8715SOL    HW237608   0.499   1.415   1.541  0.0201 -0.3325  2.1695
 8716SOL     OW37609   0.919   1.037   8.837 -0.0522  0.2402  0.4035
 8716SOL    HW137610   0.995   1.007   8.886  0.7438  0.1423 -0.8924
 8716SOL    HW237611   0.855   1.026   8.907 -0.4210 -2.7087 -0.3923
 8717SOL     OW37612   1.736   3.021   5.878 -0.4706  0.1426 -0.2723
 8717SOL    HW137613   1.821   3.003   5.918  0.0736  2.1842 -0.4931
 8717SOL    HW237614   1.760   3.081   5.807  0.5842  0.1645  0.1059
 8718SOL     OW37615   1.039   4.206   2.008  0.1936 -0.3986  0.1420
 8718SOL    HW137616   0.950   4.188   2.039 -0.7664  0.3118 -2.1697
 8718SOL    HW237617   1.081   4.239   2.088 -1.5691  1.4097  0.3352
 8719SOL     OW37618   0.237   3.442   4.659  0.3541  0.2060 -0.1069
 8719SOL    HW137619   0.238   3.485   4.573 -0.1506 -0.0452 -0.2378
 8719SOL    HW237620   0.151   3.479   4.679  0.2767  0.0164 -0.0907
 8720SOL     OW37621   1.529   3.756   8.153  0.2458  0.3374 -0.1204
 8720SOL    HW137622   1.618   3.721   8.155  0.7961  1.8285  1.2014
 8720SOL    HW237623   1.543   3.834   8.206 -0.6205 -1.1713  2.3321
 8721SOL     OW37624   1.313   4.530   8.121 -0.2918 -0.1063  0.3707
 8721SOL    HW137625   1.336   4.442   8.152 -1.4977 -0.4094  0.4127
 8721SOL    HW237626   1.303   4.579   8.202 -1.1557  2.8570 -1.5405
 8722SOL     OW37627   1.470   3.544   5.247  0.1736 -0.4429 -0.0193
 8722SOL    HW137628   1.490   3.542   5.340  1.0464 -2.0028 -0.2418
 8722SOL    HW237629   1.553   3.514   5.210 -0.6918 -1.1578 -1.3872
 8723SOL     OW37630   2.038   0.207   7.866 -0.5342 -0.2469 -0.3991
 8723SOL    HW137631   2.107   0.167   7.813  0.4589 -0.2506  0.9307
 8723SOL    HW237632   2.052   0.301   7.850 -0.1149 -0.3316 -0.5306
 8724SOL     OW37633   3.782   3.710  12.101 -0.4963  0.0786  0.3088
 8724SOL    HW137634   3.767   3.715  12.195  0.5823 -0.0220  0.4838
 8724SOL    HW237635   3.873   3.738  12.102 -0.5125 -0.0265  3.5526
 8725SOL     OW37636   2.167   4.036  15.948 -0.0387  0.0800 -0.0150
 8725SOL    HW137637   2.187   3.968  16.012 -1.8784 -0.7360 -0.2887
 8725SOL    HW237638   2.074   4.041  15.973 -0.7336 -1.6186 -2.2579
 8726SOL     OW37639   2.369   0.479   5.064  0.0825  0.0060  0.2904
 8726SOL    HW137640   2.317   0.512   5.136 -1.2994  0.9297 -1.1288
 8726SOL    HW237641   2.422   0.405   5.094  1.5300  0.6997 -0.5145
 8727SOL     OW37642   3.179   2.742  10.651 -0.0559  0.0148  0.3745
 8727SOL    HW137643   3.124   2.814  10.682 -0.6901 -1.0782  1.7799
 8727SOL    HW237644   3.266   2.766  10.685  0.6593 -1.3127 -0.5034
 8728SOL     OW37645   1.819   2.265   7.178 -0.5522 -0.1431 -0.7076
 8728SOL    HW137646   1.768   2.188   7.151  0.8621 -1.7710  1.2519
 8728SOL    HW237647   1.822   2.317   7.098  0.5223  1.8680  0.6604
 8729SOL     OW37648   2.553   3.745   4.243  0.5026  0.4925 -0.1058
 8729SOL    HW137649   2.473   3.712   4.285  1.4639 -0.5074  0.9326
 8729SOL    HW237650   2.617   3.720   4.310  3.6156 -0.0799 -3.3484
 8730SOL     OW37651   0.178   1.942  16.323  0.1949  0.0685  0.3041
 8730SOL    HW137652   0.245   1.891  16.369  1.1373  1.0527  0.0221
 8730SOL    HW237653   0.118   1.869  16.309  0.9121 -0.1446 -1.7050
 8731SOL     OW37654   2.813   4.554   6.581 -0.3235 -0.2307  0.1242
 8731SOL    HW137655   2.762   4.486   6.535  1.0976 -2.1520  1.4036
 8731SOL    HW237656   2.737   4.597   6.620 -0.1376 -0.0885  0.3214
 8732SOL     OW37657   1.669   0.662  16.042  0.0436 -0.1983  0.5080
 8732SOL    HW137658   1.645   0.593  16.104 -1.2046 -0.5071 -0.3227
 8732SOL    HW237659   1.593   0.675  15.985  1.6690 -2.5415 -2.1767
 8733SOL     OW37660   0.848   1.831   8.757 -0.1131 -0.3826  0.0924
 8733SOL    HW137661   0.765   1.793   8.727 -0.2553 -0.7688  0.9776
 8733SOL    HW237662   0.901   1.756   8.730 -0.1151 -0.6553  0.8551
 8734SOL     OW37663   1.098   2.181   5.525  0.0034 -0.0878 -0.0771
 8734SOL    HW137664   1.104   2.137   5.610 -0.8672  0.0060  0.0387
 8734SOL    HW237665   1.152   2.260   5.537 -0.2615 -0.0530  0.9227
 8735SOL     OW37666   3.851   3.683   3.810  0.4941 -0.2856  0.0150
 8735SOL    HW137667   3.826   3.754   3.752 -1.5002  0.2218  1.5175
 8735SOL    HW237668   3.795   3.692   3.887  1.5436  0.5806  0.6906
 8736SOL     OW37669   3.176   3.166   1.120  0.0707  0.0927  0.3920
 8736SOL    HW137670   3.259   3.133   1.154 -0.5362 -0.2984  1.4902
 8736SOL    HW237671   3.111   3.139   1.185 -1.0912 -0.4627 -1.0183
 8737SOL     OW37672   4.682   3.285   8.252  0.5430  0.1648  0.4376
 8737SOL    HW137673   4.612   3.236   8.210 -1.0995  2.7073  0.2891
 8737SOL    HW237674   4.720   3.320   8.171 -0.8148 -3.5852 -1.8308
 8738SOL     OW37675   0.097   1.716  11.257 -0.1047  0.1689 -0.1361
 8738SOL    HW137676   0.108   1.780  11.327  0.9431 -0.7339  0.5114
 8738SOL    HW237677   0.094   1.638  11.312 -1.2058 -0.4842 -1.1056
 8739SOL     OW37678   2.850   0.435  17.090  0.0912 -0.2801 -0.0453
 8739SOL    HW137679   2.927   0.389  17.058 -0.9576 -2.7456  1.0278
 8739SOL    HW237680   2.863   0.444  17.184  0.5161 -0.1745 -0.1167
 8740SOL     OW37681   3.479   4.294   2.362  0.0899 -0.4263  0.3141
 8740SOL    HW137682   3.567   4.331   2.366 -0.6372  1.3714 -0.0751
 8740SOL    HW237683   3.483   4.277   2.268 -1.4774  0.0436  0.1537
 8741SOL     OW37684   2.982   2.776   7.011 -0.1540  0.3100 -0.0148
 8741SOL    HW137685   3.075   2.795   7.018  0.1650 -1.6679  1.3823
 8741SOL    HW237686   2.964   2.762   7.104  2.0742  0.8140  0.4990
 8742SOL     OW37687   2.726   0.262   2.127  0.0070 -0.2503  0.4243
 8742SOL    HW137688   2.660   0.308   2.076  0.2929  0.1837  0.4483
 8742SOL    HW237689   2.742   0.328   2.194  1.2833  0.4400 -0.5530
 8743SOL     OW37690   0.880   3.560   7.469 -0.3223 -0.1004  0.2445
 8743SOL    HW137691   0.964   3.597   7.440 -1.3842  2.6382  0.5946
 8743SOL    HW237692   0.907   3.471   7.492 -1.1730 -0.5367 -0.4560
 8744SOL     OW37693   4.184   1.084   9.998 -0.4774  0.4436  0.1460
 8744SOL    HW137694   4.141   1.000  10.011  0.5728 -0.3368 -1.3677
 8744SOL    HW237695   4.186   1.093   9.903 -1.9519 -0.7577 -0.0162
 8745SOL     OW37696   0.132   3.133   2.261  0.2594  0.0619 -0.6085
 8745SOL    HW137697   0.157   3.103   2.174  0.9182  0.1548 -0.4567
 8745SOL    HW237698   0.078   3.210   2.245 -0.6706  0.0335  2.4027
 8746SOL     OW37699   1.728   3.140   3.020  0.0493  0.1913  0.0721
 8746SOL    HW137700   1.792   3.197   2.975 -1.4761  0.7769 -1.3651
 8746SOL    HW237701   1.690   3.204   3.080 -0.8594 -2.3986  2.2176
 8747SOL     OW37702   2.156   2.006   7.250  0.4098  0.2785  0.2033
 8747SOL    HW137703   2.232   1.955   7.223  1.0587  1.0564  0.5630
 8747SOL    HW237704   2.100   1.929   7.261 -0.8787  0.8586 -2.1472
 8748SOL     OW37705   1.469   0.027   8.682  0.2250 -0.5558 -0.6080
 8748SOL    HW137706   1.380   0.020   8.714  0.2690 -0.5850 -0.4940
 8748SOL    HW237707   1.520   4.703   8.749 -1.0959  1.1907  1.5670
 8749SOL     OW37708   2.887   4.214   4.758 -0.2480 -0.1706  0.3266
 8749SOL    HW137709   2.809   4.255   4.795  0.5966  1.3712  0.3894
 8749SOL    HW237710   2.881   4.244   4.667  0.4253  1.5844  0.8505
 8750SOL     OW37711   1.531   0.346   6.527 -0.8016 -0.0950 -0.0231
 8750SOL    HW137712   1.510   0.340   6.621 -0.7389 -0.8122 -0.0529
 8750SOL    HW237713   1.516   0.435   6.497 -0.5223 -0.7896 -2.2460
 8751SOL     OW37714   1.341   2.514   2.112 -0.0030 -0.4314 -0.0200
 8751SOL    HW137715   1.417   2.462   2.140 -0.4639 -0.0504  1.9280
 8751SOL    HW237716   1.350   2.506   2.017 -0.6377 -0.7608 -0.0499
 8752SOL     OW37717   2.620   1.113   3.080  0.2561  0.4535 -0.5623
 8752SOL    HW137718   2.696   1.097   3.136 -1.1755 -0.6908  1.0834
 8752SOL    HW237719   2.548   1.133   3.140  1.2128  3.1673 -0.3062
 8753SOL     OW37720   0.406   1.087  14.847 -0.7641 -0.1045  0.3114
 8753SOL    HW137721   0.473   1.147  14.814 -2.5516  1.0792 -1.1526
 8753SOL    HW237722   0.396   1.112  14.939 -1.3338 -0.6529  0.4002
 8754SOL     OW37723   3.945   4.716   9.430  0.8808  0.1899  0.2043
 8754SOL    HW137724   3.997   0.005   9.510 -0.9353  1.4552  1.2415
 8754SOL    HW237725   3.857   0.017   9.459 -0.0721 -2.9049 -0.4174
 8755SOL     OW37726   2.713   2.188   5.176 -0.1394 -0.4999  0.4359
 8755SOL    HW137727   2.676   2.256   5.119  1.0181  0.7281  1.1484
 8755SOL    HW237728   2.804   2.218   5.168 -0.5355  0.6333  0.2105
 8756SOL     OW37729   4.168   2.138   9.618 -0.6331  0.6110  0.1546
 8756SOL    HW137730   4.249   2.101   9.583 -1.2329 -0.1071 -0.4558
 8756SOL    HW237731   4.131   2.065   9.668  0.2029  1.0263  1.3867
 8757SOL     OW37732   1.727   2.600   6.499  0.1312  0.2862 -0.0427
 8757SOL    HW137733   1.662   2.536   6.527 -0.8650  1.6568  0.8037
 8757SOL    HW237734   1.692   2.679   6.541 -0.7062 -0.6197  0.9859
 8758SOL     OW37735   1.857   1.551   0.165 -0.2996  0.4249  0.2371
 8758SOL    HW137736   1.872   1.585   0.253  0.5790  1.1123 -0.1820
 8758SOL    HW237737   1.788   1.602   0.124  1.4486  2.0774 -0.6444
 8759SOL     OW37738   1.982   1.990   2.774  0.2214 -0.3338  0.5916
 8759SOL    HW137739   1.986   2.081   2.744 -0.6675 -0.1974  0.9137
 8759SOL    HW237740   1.888   1.974   2.769  0.3582 -0.6918 -0.7715
 8760SOL     OW37741   0.153   0.484  14.517 -0.3186 -0.0351 -0.0330
 8760SOL    HW137742   0.221   0.436  14.469  1.9533  2.5492  0.6097
 8760SOL    HW237743   0.118   0.402  14.552 -1.6662  0.4633 -0.1928
 8761SOL     OW37744   2.696   2.691   7.928 -0.2419 -0.3568  0.5483
 8761SOL    HW137745   2.736   2.695   8.014  0.5039 -3.4439  0.3546
 8761SOL    HW237746   2.607   2.660   7.941 -0.2617 -0.6247 -0.2178
 8762SOL     OW37747   1.946   4.007   4.647 -0.5908  0.2702  0.1800
 8762SOL    HW137748   1.947   4.077   4.712  1.8158 -1.1920  1.7127
 8762SOL    HW237749   1.977   3.936   4.703  0.2043  0.2886 -0.2393
 8763SOL     OW37750   1.533   0.624   0.150  0.5344  0.5650  0.0997
 8763SOL    HW137751   1.564   0.706   0.111 -0.1970 -0.2259 -2.1379
 8763SOL    HW237752   1.515   0.576   0.069 -2.3330  0.0329  1.0590
 8764SOL     OW37753   1.552   3.458  12.530 -0.2823  0.4844  0.2740
 8764SOL    HW137754   1.485   3.496  12.474  0.3268  1.9316  0.5246
 8764SOL    HW237755   1.574   3.531  12.588  1.8454 -0.0375  0.0979
 8765SOL     OW37756   2.201   2.825   4.786  0.1886 -0.0374 -0.2249
 8765SOL    HW137757   2.240   2.742   4.758 -2.5089 -0.8236 -1.6383
 8765SOL    HW237758   2.175   2.863   4.702  2.2924 -0.8236 -1.2274
 8766SOL     OW37759   3.987   4.261  11.104 -0.3047  0.0088  0.3508
 8766SOL    HW137760   4.016   4.197  11.169 -0.6249  1.3132  1.7820
 8766SOL    HW237761   4.062   4.321  11.107 -0.0097 -0.4322  1.9976
 8767SOL     OW37762   4.216   1.247   4.756 -0.3153 -0.4361 -0.1804
 8767SOL    HW137763   4.283   1.237   4.824  0.1620 -0.0493 -0.5899
 8767SOL    HW237764   4.267   1.307   4.701  0.2530  1.3048  2.2194
 8768SOL     OW37765   1.093   3.514   8.588  0.7769 -0.0571  0.4759
 8768SOL    HW137766   1.018   3.486   8.536  1.2791 -1.1728  0.3509
 8768SOL    HW237767   1.147   3.542   8.515  0.6830 -1.3919 -0.1009
 8769SOL     OW37768   2.005   0.281  10.594 -0.1913 -0.0042 -0.0155
 8769SOL    HW137769   1.957   0.233  10.526 -0.3926  0.1930 -0.0097
 8769SOL    HW237770   1.990   0.368  10.558 -3.7884 -0.6611 -0.0758
 8770SOL     OW37771   3.434   2.003   5.126  0.0876  0.0571 -0.0241
 8770SOL    HW137772   3.464   1.912   5.113  3.0839  0.7590  2.0373
 8770SOL    HW237773   3.483   2.037   5.051  0.3369  2.0214  1.0432
 8771SOL     OW37774   0.693   3.307   3.341 -0.0897  0.2683 -0.4325
 8771SOL    HW137775   0.741   3.300   3.424 -1.4365 -0.4247  0.3037
 8771SOL    HW237776   0.616   3.252   3.356 -1.2145  1.9457  0.0181
 8772SOL     OW37777   2.402   1.078   2.254 -0.6029  0.6579 -0.0334
 8772SOL    HW137778   2.498   1.083   2.255 -0.6018  0.4433  1.9852
 8772SOL    HW237779   2.384   1.165   2.289 -0.4113  1.5577 -2.1766
 8773SOL     OW37780   0.063   1.159   9.820  0.1532 -0.1084  0.3410
 8773SOL    HW137781   0.037   1.144   9.730 -1.4662 -2.8916  1.2828
 8773SOL    HW237782   0.004   1.233   9.837  0.0007 -0.1670  0.0560
 8774SOL     OW37783   3.179   0.628   4.924 -0.4601  0.1508  0.2494
 8774SOL    HW137784   3.158   0.716   4.953  2.3730  0.8597  0.1834
 8774SOL    HW237785   3.252   0.657   4.869 -1.1312  2.2771  0.4923
 8775SOL     OW37786   4.485   2.396   2.648  0.1254 -0.0728 -0.0179
 8775SOL    HW137787   4.496   2.397   2.743 -0.8272  1.7621  0.0603
 8775SOL    HW237788   4.568   2.361   2.613  0.2238  0.5399 -0.4006
 8776SOL     OW37789   2.013   3.198   2.548  0.3518 -0.0073 -0.6504
 8776SOL    HW137790   2.065   3.279   2.548 -0.2144  0.3630  0.7833
 8776SOL    HW237791   1.924   3.232   2.558 -0.5476 -2.2005 -1.1974
 8777SOL     OW37792   3.064   0.096   0.665  0.0395  0.1967  0.8656
 8777SOL    HW137793   3.018   0.138   0.592  2.6893  1.5968  0.0221
 8777SOL    HW237794   3.009   0.017   0.665 -1.3525  1.1566  0.6461
 8778SOL     OW37795   1.295   4.374   7.282 -0.1135 -0.2703  0.3591
 8778SOL    HW137796   1.367   4.423   7.321 -0.7416  1.0776 -0.1451
 8778SOL    HW237797   1.237   4.451   7.275 -0.2165 -0.4333 -0.6435
 8779SOL     OW37798   2.618   1.726   9.300 -0.2545 -0.5337  0.0854
 8779SOL    HW137799   2.637   1.769   9.383  1.2246 -0.9147 -0.0562
 8779SOL    HW237800   2.635   1.632   9.307  1.9149 -0.1943 -0.6470
 8780SOL     OW37801   3.960   2.881   6.378  0.4923 -0.3302 -0.4337
 8780SOL    HW137802   3.948   2.892   6.473  1.7897  0.0867 -0.3070
 8780SOL    HW237803   3.954   2.787   6.366  1.8164 -0.2506 -1.7776
 8781SOL     OW37804   2.281   4.311  16.467  0.0301  0.3429 -0.0553
 8781SOL    HW137805   2.241   4.388  16.507  2.0775  1.5758 -0.3805
 8781SOL    HW237806   2.319   4.338  16.383 -1.1795 -1.6564 -1.2571
 8782SOL     OW37807   2.057   3.963  13.552 -0.2657 -0.1789  1.0489
 8782SOL    HW137808   1.996   4.003  13.615 -1.0631 -0.2595  0.3323
 8782SOL    HW237809   2.119   3.908  13.599 -1.1199 -1.6134  0.5082
 8783SOL     OW37810   2.379   0.618   2.447  0.1692  0.3152  0.2261
 8783SOL    HW137811   2.304   0.561   2.462 -1.5046  2.3936 -0.2776
 8783SOL    HW237812   2.374   0.687   2.512 -0.3726  0.3809  0.1096
 8784SOL     OW37813   3.886   1.161   3.213 -0.0831  0.1861 -0.1738
 8784SOL    HW137814   3.800   1.186   3.181 -1.1431 -0.4225  2.1630
 8784SOL    HW237815   3.860   1.097   3.280 -2.4116  2.8781  1.4976
 8785SOL     OW37816   2.634   3.400   6.081  0.3939 -0.4322  0.2042
 8785SOL    HW137817   2.545   3.373   6.108  0.4764 -0.9612 -0.0530
 8785SOL    HW237818   2.682   3.322   6.110  3.4862  1.7554  0.8998
 8786SOL     OW37819   4.074   3.715   7.268  0.3043 -0.2819  0.2631
 8786SOL    HW137820   3.985   3.694   7.242  0.4826 -1.3489  0.4895
 8786SOL    HW237821   4.074   3.794   7.322 -0.0067 -0.7915  1.0267
 8787SOL     OW37822   3.859   3.036   9.869  0.1217 -0.3148  0.0863
 8787SOL    HW137823   3.841   2.960   9.925  0.5309 -0.3742  0.1366
 8787SOL    HW237824   3.877   2.987   9.788  1.0223 -1.0324  0.7193
 8788SOL     OW37825   1.165   1.197  12.904  0.5381  0.0486  0.2535
 8788SOL    HW137826   1.175   1.103  12.891 -1.2968  0.1411 -1.8162
 8788SOL    HW237827   1.069   1.195  12.912  0.4678  3.5102  0.1774
 8789SOL     OW37828   1.373   0.104   7.185 -0.3224 -0.3355 -0.3224
 8789SOL    HW137829   1.459   0.064   7.192 -0.8993 -1.4500  0.3688
 8789SOL    HW237830   1.398   0.196   7.173 -0.3485 -0.3324 -0.3567
 8790SOL     OW37831   1.549   0.612   5.340  0.4616 -0.5210 -0.2079
 8790SOL    HW137832   1.596   0.677   5.288  2.2009 -2.7619 -1.4728
 8790SOL    HW237833   1.547   0.663   5.420 -0.7314 -0.1505 -0.4647
 8791SOL     OW37834   2.962   4.626   3.286 -0.3529  0.0667  0.7099
 8791SOL    HW137835   2.900   4.622   3.214  0.9452 -0.1296 -0.3949
 8791SOL    HW237836   2.970   4.539   3.326 -1.6571  0.2731  1.3956
 8792SOL     OW37837   4.536   4.402   9.985 -0.1681 -0.3943  0.5516
 8792SOL    HW137838   4.558   4.450  10.065 -0.5141 -0.0719  0.4490
 8792SOL    HW237839   4.537   4.462   9.911 -0.3105 -0.4419  0.5110
 8793SOL     OW37840   3.456   2.167  10.145  0.0700  0.1880  0.6213
 8793SOL    HW137841   3.431   2.075  10.155  1.3410 -0.1910  0.4280
 8793SOL    HW237842   3.445   2.205  10.058 -0.3530  1.2758  1.1415
 8794SOL     OW37843   0.185   0.789   6.778  0.3950  0.0785 -0.0637
 8794SOL    HW137844   0.156   0.707   6.737 -2.7819  0.1587  2.0339
 8794SOL    HW237845   0.137   0.798   6.860  0.5081  0.7922 -0.0754
 8795SOL     OW37846   0.256   2.923   5.555 -0.5361 -0.6546 -0.2837
 8795SOL    HW137847   0.335   2.871   5.537 -0.5767 -0.1712 -1.8693
 8795SOL    HW237848   0.199   2.896   5.484  0.3021  2.8019 -2.2882
 8796SOL     OW37849   0.500   3.574  16.849 -0.0776 -0.3784  0.3092
 8796SOL    HW137850   0.513   3.486  16.813  2.3352  0.1769 -0.1777
 8796SOL    HW237851   0.532   3.631  16.779  0.7216 -1.5937 -0.3106
 8797SOL     OW37852   4.570   1.765   0.249 -0.3620  0.1688 -0.2860
 8797SOL    HW137853   4.611   1.682   0.223  0.2242  0.6111 -0.7756
 8797SOL    HW237854   4.528   1.740   0.331  1.1710  0.7691  0.6938
 8798SOL     OW37855   0.911   3.620   5.138 -0.0122  0.3913  0.0256
 8798SOL    HW137856   0.857   3.616   5.059 -3.3797 -1.1495  2.4071
 8798SOL    HW237857   0.908   3.526   5.157 -3.3615  0.2402 -1.3147
 8799SOL     OW37858   2.263   2.419   2.249 -0.4997 -0.3465 -0.7080
 8799SOL    HW137859   2.313   2.407   2.168  1.0316 -1.8068  0.4387
 8799SOL    HW237860   2.319   2.486   2.287 -2.0524  0.1875  0.6447
 8800SOL     OW37861   2.620   4.620  13.181 -0.3579  0.3184 -0.0378
 8800SOL    HW137862   2.547   4.595  13.125 -2.4275  1.0408  2.3342
 8800SOL    HW237863   2.578   4.689  13.233 -0.3730  1.9898 -2.2733
 8801SOL     OW37864   3.822   4.507   8.834  0.1055  0.0987 -0.3662
 8801SOL    HW137865   3.809   4.597   8.865  1.3700  0.1783 -0.0527
 8801SOL    HW237866   3.900   4.494   8.888  0.5106  0.8767 -0.7577
 8802SOL     OW37867   1.266   3.830   6.231  0.5796  0.5727 -0.1997
 8802SOL    HW137868   1.244   3.780   6.310 -1.7513 -0.6014 -1.5974
 8802SOL    HW237869   1.238   3.915   6.264 -1.3043 -0.6374  1.2947
 8803SOL     OW37870   3.465   3.889   4.274  0.2992  0.1871  0.3000
 8803SOL    HW137871   3.371   3.885   4.291  0.2262 -0.3561 -0.2299
 8803SOL    HW237872   3.482   3.802   4.238 -0.7745 -0.0279  0.3150
 8804SOL     OW37873   2.750   4.317  10.401 -0.7182 -0.2559 -0.3495
 8804SOL    HW137874   2.663   4.358  10.401 -1.2188 -1.2724  2.5610
 8804SOL    HW237875   2.752   4.300  10.495 -1.6318  0.8734 -0.1162
 8805SOL     OW37876   2.558   1.272  16.625 -0.0327 -0.5108  0.7523
 8805SOL    HW137877   2.593   1.361  16.624  1.0026 -0.9448 -1.3606
 8805SOL    HW237878   2.502   1.272  16.548 -0.0725 -0.9529  0.7796
 8806SOL     OW37879   1.517   4.192   8.622 -0.5439 -0.1290  0.8770
 8806SOL    HW137880   1.493   4.284   8.610 -1.3897 -0.4018  0.4493
 8806SOL    HW237881   1.590   4.200   8.683  0.1260 -2.9827  0.4282
 8807SOL     OW37882   1.128   3.361   6.224 -0.2262 -0.3653  0.0700
 8807SOL    HW137883   1.117   3.299   6.296 -0.1936 -0.5418 -0.0771
 8807SOL    HW237884   1.221   3.366   6.202 -0.3440 -1.7226 -0.7495
 8808SOL     OW37885   3.980   0.719  11.170  0.3002 -0.0634  0.1717
 8808SOL    HW137886   4.045   0.761  11.113  1.0468  2.5312  2.9479
 8808SOL    HW237887   4.029   0.645  11.207 -0.1079 -0.1771  0.4776
 8809SOL     OW37888   3.910   2.995   7.586 -0.4839 -1.0500  0.1790
 8809SOL    HW137889   3.833   3.001   7.642 -1.1989 -0.0660 -0.9258
 8809SOL    HW237890   3.888   2.922   7.528  0.1271 -1.2329  0.1777
 8810SOL     OW37891   0.034   0.614   2.445 -0.1215 -0.2772 -0.1402
 8810SOL    HW137892   0.026   0.575   2.358  1.7086 -0.3086 -0.2955
 8810SOL    HW237893   0.062   0.703   2.426  1.1159 -0.1396  2.3128
 8811SOL     OW37894   2.198   1.823   4.146 -0.2585 -0.0279  0.2020
 8811SOL    HW137895   2.245   1.905   4.159  0.1957 -0.3329  0.4654
 8811SOL    HW237896   2.111   1.839   4.108  0.4213 -0.8213 -1.7028
 8812SOL     OW37897   2.930   2.531   6.329 -0.4147  0.2439 -0.0374
 8812SOL    HW137898   2.998   2.565   6.388  0.1388  0.5123 -0.8352
 8812SOL    HW237899   2.854   2.578   6.362 -1.9877 -0.5253 -2.5764
 8813SOL     OW37900   0.529   4.603   0.883  0.1176 -0.2465 -0.3016
 8813SOL    HW137901   0.461   4.540   0.907 -0.7271 -0.0369 -2.1898
 8813SOL    HW237902   0.604   4.559   0.924 -0.6650 -1.6957 -0.4288
 8814SOL     OW37903   1.307   2.805   1.795  0.5423  0.0228 -0.1732
 8814SOL    HW137904   1.303   2.787   1.701 -0.0262 -0.2743 -0.0903
 8814SOL    HW237905   1.234   2.866   1.808  0.1799 -0.4443 -0.0116
 8815SOL     OW37906   0.301   3.732   3.026  0.0165  0.6237 -0.3223
 8815SOL    HW137907   0.256   3.815   3.016  1.3610  1.2954 -0.8576
 8815SOL    HW237908   0.243   3.669   3.069  0.8634 -0.2684 -0.4896
 8816SOL     OW37909   3.096   2.857   5.753  0.3749  1.0805 -0.5163
 8816SOL    HW137910   3.157   2.824   5.687 -0.1911  0.3403 -0.6645
 8816SOL    HW237911   3.034   2.784   5.750  1.8894 -0.2319 -0.1055
 8817SOL     OW37912   4.144   2.630  10.302 -0.1637  0.4660 -0.0460
 8817SOL    HW137913   4.239   2.623  10.302 -0.1407  0.8018 -0.0538
 8817SOL    HW237914   4.136   2.594  10.391 -4.3386  0.4005 -0.4605
 8818SOL     OW37915   0.410   2.896   3.742  0.5374  0.3217 -0.1693
 8818SOL    HW137916   0.435   2.834   3.811 -1.8389 -1.6784 -1.1150
 8818SOL    HW237917   0.419   2.981   3.783 -1.1788  0.8974 -0.9945
 8819SOL     OW37918   4.535   1.073   7.236  0.0732  0.3407 -0.1488
 8819SOL    HW137919   4.523   0.993   7.185  1.0241 -0.1586  0.4131
 8819SOL    HW237920   4.583   1.042   7.313 -2.2395  0.7885  1.4546
 8820SOL     OW37921   3.130   3.188  15.178 -0.4403 -0.3429  0.2035
 8820SOL    HW137922   3.127   3.098  15.210  0.4303 -0.6824 -0.6891
 8820SOL    HW237923   3.191   3.222  15.243  0.6947 -1.1370 -0.4534
 8821SOL     OW37924   0.325   0.768   8.628 -0.2623 -0.1355  0.0961
 8821SOL    HW137925   0.281   0.755   8.544 -0.6794 -0.7787  0.4117
 8821SOL    HW237926   0.269   0.727   8.694  2.6428  0.4955  3.0204
 8822SOL     OW37927   3.156   0.283   8.144  0.0572  0.8012  0.5845
 8822SOL    HW137928   3.237   0.232   8.146 -0.8027 -0.5143  1.4047
 8822SOL    HW237929   3.103   0.253   8.070 -0.6462  1.6990  0.7216
 8823SOL     OW37930   2.061   3.924   0.032 -0.1569  0.3457  0.2238
 8823SOL    HW137931   2.085   3.985   0.101  1.0460  1.7448 -1.4225
 8823SOL    HW237932   1.969   3.952   0.039 -0.3753 -0.7692  1.6918
 8824SOL     OW37933   3.060   4.598   6.512  0.0436  1.3747  0.3325
 8824SOL    HW137934   2.969   4.582   6.538  0.5471  0.2939  1.4191
 8824SOL    HW237935   3.041   4.662   6.443 -1.9483 -1.5481 -1.8058
 8825SOL     OW37936   0.519   1.057   9.895  0.5418  0.2221 -0.3287
 8825SOL    HW137937   0.551   0.968   9.910 -0.7484 -0.1871  0.0199
 8825SOL    HW237938   0.547   1.107   9.971  0.6036  1.3434 -1.0853
 8826SOL     OW37939   0.124   1.218  13.090 -0.1337  0.1282  0.8536
 8826SOL    HW137940   0.052   1.279  13.106  1.2090  1.4134  1.9732
 8826SOL    HW237941   0.078   1.137  13.108 -2.8597  1.1242 -1.5329
 8827SOL     OW37942   4.410   4.418   6.099  0.1781 -0.5862 -0.5502
 8827SOL    HW137943   4.459   4.349   6.055  1.0890 -1.8472  2.4319
 8827SOL    HW237944   4.357   4.455   6.028 -0.1914  0.2179  0.1496
 8828SOL     OW37945   0.767   1.451   4.029  0.4819 -0.5174 -0.5035
 8828SOL    HW137946   0.734   1.526   3.980 -0.5953 -1.0428 -0.5999
 8828SOL    HW237947   0.856   1.440   3.996 -0.1211  0.8468 -2.5681
 8829SOL     OW37948   3.770   2.661   2.426 -0.0652 -0.3454 -0.2221
 8829SOL    HW137949   3.692   2.680   2.477 -1.7060 -0.6670 -2.5775
 8829SOL    HW237950   3.777   2.736   2.366 -2.0732  1.1617  1.4395
 8830SOL     OW37951   4.683   4.341   7.095  0.3729  0.1129  0.1335
 8830SOL    HW137952   4.718   4.313   7.011  1.0717  2.5047 -0.3771
 8830SOL    HW237953   4.680   4.435   7.080 -3.4651 -0.5149 -2.7682
 8831SOL     OW37954   2.848   0.381   4.562  0.2034  0.2543 -0.4158
 8831SOL    HW137955   2.899   0.446   4.610 -0.5038 -1.1932  2.2995
 8831SOL    HW237956   2.908   0.307   4.565  1.7791  1.6648  2.5583
 8832SOL     OW37957   1.582   1.480   8.164 -0.1510 -0.6999 -0.6986
 8832SOL    HW137958   1.624   1.557   8.126 -0.3185 -1.1655 -1.8339
 8832SOL    HW237959   1.488   1.498   8.161  0.2877  1.8091  0.8058
 8833SOL     OW37960   0.522   4.655   5.007 -0.0173  0.0916  0.0301
 8833SOL    HW137961   0.561   4.625   4.925  1.5575 -0.3781  0.9585
 8833SOL    HW237962   0.516   0.029   4.991 -0.0554  0.1155  0.1907
 8834SOL     OW37963   2.774   3.181  10.117 -0.4147 -0.4492 -0.4043
 8834SOL    HW137964   2.706   3.243  10.094 -0.6360 -0.9607 -1.1519
 8834SOL    HW237965   2.727   3.105  10.152  0.3831  0.2376  2.1565
 8835SOL     OW37966   0.319   4.477   0.989 -0.0325  0.1032 -0.7448
 8835SOL    HW137967   0.263   4.418   1.039  1.4102 -0.7159 -0.1068
 8835SOL    HW237968   0.309   4.558   1.039 -0.6985  0.8297 -2.0415
 8836SOL     OW37969   3.179   1.263   3.775  0.4478  0.5188  0.2334
 8836SOL    HW137970   3.226   1.288   3.855  0.1049 -0.4479  0.7392
 8836SOL    HW237971   3.211   1.174   3.766 -2.9840 -0.6157 -0.8138
 8837SOL     OW37972   4.433   0.841  13.307 -0.2885  0.0644  0.0873
 8837SOL    HW137973   4.492   0.888  13.248  0.2723 -1.6682 -0.7402
 8837SOL    HW237974   4.480   0.759  13.319 -0.8845 -0.5835 -1.8767
 8838SOL     OW37975   1.098   1.197  10.837  0.7795 -0.6272  0.3074
 8838SOL    HW137976   1.090   1.215  10.744 -0.6876  1.4243  0.8265
 8838SOL    HW237977   1.188   1.221  10.856  1.2180 -1.6116 -0.5205
 8839SOL     OW37978   0.260   1.002  14.320 -0.1465 -0.2078  0.5677
 8839SOL    HW137979   0.247   1.043  14.405 -0.0956  1.7038 -0.3615
 8839SOL    HW237980   0.342   1.034  14.284 -0.2455  0.1489  0.6591
 8840SOL     OW37981   3.075   1.004   2.055 -0.0446 -0.4650  0.0021
 8840SOL    HW137982   3.086   1.048   1.970  0.7515  1.6240  1.1968
 8840SOL    HW237983   3.168   0.989   2.072  0.0646  1.5366  1.1471
 8841SOL     OW37984   3.333   2.463   9.868 -0.7403  0.2455  0.3081
 8841SOL    HW137985   3.356   2.370   9.858  0.2523  0.7199 -1.7680
 8841SOL    HW237986   3.319   2.492   9.778  0.9748  0.6802  0.1770
 8842SOL     OW37987   3.069   2.904  17.399  0.1071  0.1470  0.5184
 8842SOL    HW137988   3.138   2.863  17.451 -0.5024  0.2977  1.4451
 8842SOL    HW237989   3.018   2.969  17.447  0.1018 -0.5731  1.5029
 8843SOL     OW37990   3.047   0.669   9.308 -1.0479 -0.0802 -0.1886
 8843SOL    HW137991   3.026   0.600   9.246  1.0228 -1.4346  0.6382
 8843SOL    HW237992   2.977   0.653   9.371 -0.4571 -0.9131  0.2519
 8844SOL     OW37993   1.012   4.644   8.731  0.0403 -0.0853  0.1941
 8844SOL    HW137994   0.937   4.584   8.727  0.1874 -0.3199  1.0099
 8844SOL    HW237995   1.003   4.700   8.654 -1.6793 -1.4195 -0.5920
 8845SOL     OW37996   3.753   2.004   8.284 -0.1811  0.0518  0.0482
 8845SOL    HW137997   3.776   2.072   8.348 -0.5172 -1.0561  1.3317
 8845SOL    HW237998   3.673   1.974   8.327  0.3349 -1.9598 -0.3953
 8846SOL     OW37999   1.455   0.568   1.735 -0.5793  0.6918 -0.1484
 8846SOL    HW138000   1.503   0.602   1.811  0.7436 -1.0717 -0.2070
 8846SOL    HW238001   1.362   0.588   1.750  0.0038  1.3612  2.6775
 8847SOL     OW38002   0.841   0.563   9.014 -0.3640 -0.0407 -0.0839
 8847SOL    HW138003   0.815   0.513   9.091 -0.1117  1.2962  0.8634
 8847SOL    HW238004   0.871   0.490   8.959  0.4119 -0.5273  0.9952
 8848SOL     OW38005   1.252   3.314  13.599 -0.2665  0.4275  1.1178
 8848SOL    HW138006   1.342   3.349  13.601 -0.9899  2.1868  2.7221
 8848SOL    HW238007   1.213   3.374  13.536 -0.4680  0.2868  1.1121
 8849SOL     OW38008   1.573   0.085  13.493 -0.5734  0.0185  0.5574
 8849SOL    HW138009   1.591   0.031  13.570 -1.5735  1.0997  1.5402
 8849SOL    HW238010   1.643   0.148  13.510 -0.0922 -0.6132  0.9194
 8850SOL     OW38011   1.628   2.622  17.452  0.2127  0.3662  0.4529
 8850SOL    HW138012   1.600   2.700  17.501 -0.3920  0.5122 -0.1414
 8850SOL    HW238013   1.717   2.608  17.486  0.2744 -0.4475 -0.0717
 8851SOL     OW38014   2.764   0.086   6.169 -0.1489 -0.0485  0.4118
 8851SOL    HW138015   2.754   0.172   6.129 -0.3598 -0.8722 -1.3077
 8851SOL    HW238016   2.831   0.048   6.113 -0.6973  1.8861 -1.5435
 8852SOL     OW38017   2.358   3.647   4.017  0.0182 -0.8533 -0.1050
 8852SOL    HW138018   2.337   3.637   4.110  2.0462  0.6186  0.5062
 8852SOL    HW238019   2.350   3.556   3.986  0.7232 -0.9504 -0.0112
 8853SOL     OW38020   1.571   1.864   7.127  0.3314 -0.1754 -0.0949
 8853SOL    HW138021   1.590   1.777   7.095 -1.2749 -0.7055  0.3728
 8853SOL    HW238022   1.651   1.870   7.180 -0.5615  0.9026  1.1371
 8854SOL     OW38023   3.948   4.154   4.281  0.6162 -0.0985  0.0584
 8854SOL    HW138024   3.962   4.059   4.289  0.7168  0.0472  1.4952
 8854SOL    HW238025   3.878   4.144   4.217 -0.5756 -0.9791  1.4941
 8855SOL     OW38026   4.146   2.348   2.095  0.0757  0.1466 -0.0672
 8855SOL    HW138027   4.128   2.328   2.187  0.1643  1.6180  0.2652
 8855SOL    HW238028   4.071   2.307   2.052  1.3728 -3.8685  1.5275
 8856SOL     OW38029   4.243   0.969   7.638 -0.3163 -0.0262  0.0976
 8856SOL    HW138030   4.229   0.892   7.583  0.5862 -0.2032  0.1083
 8856SOL    HW238031   4.215   1.036   7.576 -0.3453  0.0414  0.1843
 8857SOL     OW38032   3.504   2.186   7.906  0.2042 -0.5246 -0.0109
 8857SOL    HW138033   3.462   2.107   7.873  0.0379 -0.0470 -0.9799
 8857SOL    HW238034   3.536   2.214   7.820 -0.9738  2.5195  0.5239
 8858SOL     OW38035   3.045   3.625   3.883 -0.4866 -0.4641 -0.4403
 8858SOL    HW138036   3.102   3.619   3.806 -1.1035 -3.6906 -0.6599
 8858SOL    HW238037   3.012   3.535   3.881  0.0665 -0.6691 -0.2043
 8859SOL     OW38038   3.377   3.550  15.701 -0.7335 -0.0016  0.0393
 8859SOL    HW138039   3.369   3.613  15.630 -1.0341  0.0525  0.1200
 8859SOL    HW238040   3.294   3.578  15.740  0.3351  3.1773 -0.0139
 8860SOL     OW38041   4.161   0.805   8.736  0.3014  0.1751 -0.4268
 8860SOL    HW138042   4.094   0.831   8.673  1.6826 -0.1902 -2.0289
 8860SOL    HW238043   4.160   0.710   8.728  0.7875 -0.1057  2.5441
 8861SOL     OW38044   1.921   4.384   6.396 -0.3810 -0.1911  0.0017
 8861SOL    HW138045   1.930   4.452   6.463  2.3015 -1.6863  1.1479
 8861SOL    HW238046   1.923   4.439   6.317  0.7667 -2.9878 -1.9069
 8862SOL     OW38047   2.662   3.522   9.897  0.2494  0.1434  0.2391
 8862SOL    HW138048   2.704   3.449   9.943 -0.2995 -0.5863 -0.4245
 8862SOL    HW238049   2.578   3.481   9.879  1.0664 -1.3928 -0.1061
 8863SOL     OW38050   2.909   0.585  11.441 -0.4833  0.4316 -0.0800
 8863SOL    HW138051   2.818   0.606  11.463  0.2636  1.6220  1.8424
 8863SOL    HW238052   2.954   0.666  11.464  2.6034 -1.3864  0.3551
 8864SOL     OW38053   3.574   0.330   7.429 -0.5892  0.2187  0.1019
 8864SOL    HW138054   3.487   0.361   7.457 -0.2610  2.1761 -1.1076
 8864SOL    HW238055   3.574   0.244   7.472 -1.6077 -0.0105 -0.3434
 8865SOL     OW38056   0.521   0.123   5.990 -0.4502  1.1851  0.0640
 8865SOL    HW138057   0.511   0.219   5.985 -2.4614  1.0194  0.8276
 8865SOL    HW238058   0.613   0.112   5.966 -0.9838 -1.2184 -0.8591
 8866SOL     OW38059   3.811   2.602   3.843 -0.0658 -0.0558 -0.1649
 8866SOL    HW138060   3.769   2.668   3.899 -1.5117 -1.8564  0.8770
 8866SOL    HW238061   3.778   2.628   3.757  2.1937 -1.0926 -1.3232
 8867SOL     OW38062   4.594   1.861   4.050  0.5137 -0.5577 -0.3929
 8867SOL    HW138063   4.591   1.776   4.006  1.7628 -1.1239  0.6244
 8867SOL    HW238064   4.657   1.906   3.994 -0.3945 -1.2108 -1.9467
 8868SOL     OW38065   2.499   3.710   2.540 -0.2519  0.2021  0.0680
 8868SOL    HW138066   2.526   3.696   2.449  0.1098 -2.3402  0.5670
 8868SOL    HW238067   2.507   3.804   2.550  1.6146 -0.1023  1.3639
 8869SOL     OW38068   3.942   4.112  15.998 -0.4371 -0.0344  0.3304
 8869SOL    HW138069   3.992   4.043  16.041  0.1218  0.0593 -0.1790
 8869SOL    HW238070   3.943   4.083  15.907 -1.5446 -0.1995  0.3688
 8870SOL     OW38071   2.293   4.106   8.061 -0.4243  0.1942  0.0837
 8870SOL    HW138072   2.320   4.023   8.022  0.0886  0.1420  0.5593
 8870SOL    HW238073   2.379   4.119   8.100 -0.1505 -1.3510 -0.0064
 8871SOL     OW38074   3.900   4.601   6.305  0.0724  0.3642  0.3569
 8871SOL    HW138075   3.923   4.615   6.397  0.1938  2.1127  0.0724
 8871SOL    HW238076   3.960   4.534   6.274  0.5086  1.7293 -1.7538
 8872SOL     OW38077   4.013   3.145   7.354  0.1244 -0.1172 -0.0626
 8872SOL    HW138078   3.955   3.172   7.425 -1.4761  1.5742 -2.0104
 8872SOL    HW238079   3.954   3.127   7.280 -0.9980  0.0356  0.7885
 8873SOL     OW38080   4.409   0.835   8.689  0.0762  0.0064 -0.3511
 8873SOL    HW138081   4.417   0.778   8.766  1.5166 -1.0083 -1.2490
 8873SOL    HW238082   4.314   0.837   8.681  0.0921  1.3441 -0.1191
 8874SOL     OW38083   4.158   4.434   4.645 -0.4324 -0.0374 -0.6256
 8874SOL    HW138084   4.241   4.416   4.690  0.1120  1.0625 -1.1914
 8874SOL    HW238085   4.136   4.343   4.627  1.1049 -0.8496  1.5636
 8875SOL     OW38086   2.178   2.984   5.951  0.0254  0.1652  0.3760
 8875SOL    HW138087   2.223   3.014   6.029  0.8200  0.1359 -0.0684
 8875SOL    HW238088   2.177   3.070   5.908 -1.7402  0.5177  1.1197
 8876SOL     OW38089   4.032   3.172  13.087  0.5789 -0.0351 -0.6304
 8876SOL    HW138090   4.016   3.189  12.994 -1.8086  0.2842 -0.1508
 8876SOL    HW238091   4.041   3.077  13.083 -1.4833 -0.2307 -0.7380
 8877SOL     OW38092   2.492   1.222   4.330 -0.2510  0.0443 -0.9857
 8877SOL    HW138093   2.474   1.223   4.236  0.8381  2.1228 -1.1870
 8877SOL    HW238094   2.520   1.312   4.344 -0.2983  0.0346 -0.8307
 8878SOL     OW38095   2.694   3.372   7.561  0.3058 -0.0764 -0.6148
 8878SOL    HW138096   2.634   3.299   7.544 -0.0420  0.3778 -1.3293
 8878SOL    HW238097   2.639   3.425   7.619  0.0138  1.9226 -2.7077
 8879SOL     OW38098   1.731   1.338  13.815  0.2224  0.5552 -0.2243
 8879SOL    HW138099   1.748   1.269  13.879  0.8749  0.3217 -0.6505
 8879SOL    HW238100   1.821   1.364  13.795 -0.3333  2.6962  0.0897
 8880SOL     OW38101   0.227   3.182   4.574 -0.2724 -0.2185  0.7555
 8880SOL    HW138102   0.254   3.268   4.608 -1.0707  0.6445 -0.7994
 8880SOL    HW238103   0.143   3.169   4.618 -0.9524 -2.3976 -1.1791
 8881SOL     OW38104   0.126   2.871  10.416 -0.7398 -0.5654 -0.2112
 8881SOL    HW138105   0.051   2.908  10.464  1.5253  3.2226  0.3949
 8881SOL    HW238106   0.186   2.851  10.487 -2.6166 -1.7625  1.0204
 8882SOL     OW38107   0.858   0.820   3.475  0.3553  0.1020  0.7913
 8882SOL    HW138108   0.772   0.800   3.511  0.1412  1.2758  0.9294
 8882SOL    HW238109   0.918   0.784   3.540  2.8005  0.7241 -1.1163
 8883SOL     OW38110   2.519   0.211   2.683 -0.0872  0.0198  0.0832
 8883SOL    HW138111   2.552   0.146   2.745  1.0870  1.5530  1.0595
 8883SOL    HW238112   2.589   0.195   2.620  1.7907 -1.5475  2.6331
 8884SOL     OW38113   3.141   3.340   4.857  0.3827  0.3131 -0.4109
 8884SOL    HW138114   3.207   3.327   4.926 -0.7538  0.4560  0.7085
 8884SOL    HW238115   3.161   3.430   4.834 -1.5501  0.4531 -1.4773
 8885SOL     OW38116   0.349   2.515  15.055  0.3739  0.2715 -0.3300
 8885SOL    HW138117   0.428   2.494  15.007 -0.3058  0.6026 -1.5884
 8885SOL    HW238118   0.335   2.439  15.111  2.1105  0.1392 -0.0856
 8886SOL     OW38119   4.649   0.057  11.286  0.1804  0.3593  0.0549
 8886SOL    HW138120   0.005   0.039  11.232 -0.6146  0.0962 -0.9941
 8886SOL    HW238121   4.631   4.693  11.326 -0.9958 -0.6884 -2.6675
 8887SOL     OW38122   3.263   1.413   8.377 -0.5173  0.5083 -0.1137
 8887SOL    HW138123   3.330   1.468   8.337  1.3186 -2.7492 -1.5109
 8887SOL    HW238124   3.240   1.337   8.323  0.4890  0.2932 -0.2462
 8888SOL     OW38125   1.216   0.048   5.708 -0.6889  0.0260 -0.1882
 8888SOL    HW138126   1.225   4.673   5.709 -1.6539 -0.0395  1.2831
 8888SOL    HW238127   1.142   0.059   5.649  0.5411  0.4953 -1.6598
 8889SOL     OW38128   0.995   1.121   4.530  0.8668 -0.2207 -0.1911
 8889SOL    HW138129   0.997   1.031   4.496 -0.1433 -0.4154  0.2711
 8889SOL    HW238130   1.087   1.137   4.552  1.3548 -2.1471 -0.7813
 8890SOL     OW38131   1.439   0.601  15.891 -0.5439 -0.0493 -0.2927
 8890SOL    HW138132   1.353   0.568  15.865 -0.5268 -0.8145  0.6108
 8890SOL    HW238133   1.474   0.621  15.804  3.3708 -1.2085  1.0255
 8891SOL     OW38134   1.662   0.794   3.496  0.5511 -0.1848 -0.2612
 8891SOL    HW138135   1.720   0.725   3.531 -0.8049 -0.9945  0.3864
 8891SOL    HW238136   1.581   0.774   3.542  1.2436 -2.0467  0.1716
 8892SOL     OW38137   0.146   0.900  13.255 -0.9924  0.0126  0.3277
 8892SOL    HW138138   0.060   0.914  13.216 -0.7459 -1.8954 -0.8647
 8892SOL    HW238139   0.141   0.963  13.328  1.3843  0.5587  0.0170
 8893SOL     OW38140   3.140   3.352   8.418 -0.3962 -0.1015  0.4946
 8893SOL    HW138141   3.056   3.369   8.375 -0.8850 -0.9059  1.1177
 8893SOL    HW238142   3.130   3.416   8.489 -0.1476 -0.0064  0.4407
 8894SOL     OW38143   4.645   3.146   2.040 -0.6331  0.2877  0.0014
 8894SOL    HW138144   4.673   3.101   1.960  0.5718 -1.9142  1.6588
 8894SOL    HW238145   4.601   3.079   2.092  0.8421  0.1004  0.9941
 8895SOL     OW38146   1.882   3.082   5.664  0.0265  0.4196  0.0819
 8895SOL    HW138147   1.851   3.063   5.575 -0.5179  1.9138 -0.0628
 8895SOL    HW238148   1.870   3.175   5.641  1.3094  0.8858  1.2924
 8896SOL     OW38149   3.016   2.141   5.164  0.6955 -0.2860 -0.1893
 8896SOL    HW138150   3.100   2.127   5.208  1.4416  0.3796 -1.3946
 8896SOL    HW238151   2.997   2.048   5.151 -1.7127  0.2805 -0.6266
 8897SOL     OW38152   2.077   4.398   9.388 -0.3097 -0.5931 -0.5197
 8897SOL    HW138153   2.033   4.431   9.467  1.3324 -0.2859  0.2593
 8897SOL    HW238154   2.094   4.307   9.412  1.8087  0.0706  0.4526
 8898SOL     OW38155   1.238   1.920   6.027 -0.2822  0.4851 -0.6848
 8898SOL    HW138156   1.257   1.850   6.091 -0.4714  2.0852  1.1050
 8898SOL    HW238157   1.306   1.918   5.960  1.2859 -2.1085  0.9631
 8899SOL     OW38158   2.925   3.530   2.241  0.2224 -0.2259 -0.1735
 8899SOL    HW138159   2.908   3.482   2.159  1.8721 -2.3724  0.7471
 8899SOL    HW238160   3.016   3.506   2.257  0.2139 -0.4637 -0.4861
 8900SOL     OW38161   3.289   3.016  10.131 -0.3074 -0.2246 -0.2110
 8900SOL    HW138162   3.302   3.099  10.085  2.8772  0.6774  2.3394
 8900SOL    HW238163   3.357   3.027  10.197 -0.7118 -1.7754  0.4681
 8901SOL     OW38164   0.813   2.473  12.019 -0.3780 -0.0711  0.8732
 8901SOL    HW138165   0.721   2.474  12.042  0.6169  1.6473  4.7366
 8901SOL    HW238166   0.850   2.557  12.045 -0.5818  0.5581 -0.8797
 8902SOL     OW38167   0.770   4.153   5.199  0.0630 -0.5050  0.3178
 8902SOL    HW138168   0.806   4.070   5.168  0.8027  0.0425 -0.2960
 8902SOL    HW238169   0.802   4.212   5.131  0.5739 -1.6368 -0.4310
 8903SOL     OW38170   4.489   0.532  12.621  0.3769  0.2325 -0.5987
 8903SOL    HW138171   4.445   0.528  12.706 -0.8772  0.8332 -1.2188
 8903SOL    HW238172   4.512   0.625  12.623 -3.7913  1.2319  1.4615
 8904SOL     OW38173   0.772   0.553   0.550  0.0196 -0.7985  0.1845
 8904SOL    HW138174   0.735   0.465   0.542 -0.8574 -0.0628 -4.1076
 8904SOL    HW238175   0.863   0.543   0.520  0.1881 -2.6164  1.2882
 8905SOL     OW38176   1.501   1.549   1.611 -0.4306 -0.2364 -0.1208
 8905SOL    HW138177   1.445   1.473   1.623  1.3234 -1.3984  0.6620
 8905SOL    HW238178   1.515   1.544   1.517  1.6667  0.8403  0.1391
 8906SOL     OW38179   4.328   3.920   2.725 -0.4748 -0.1739  0.2652
 8906SOL    HW138180   4.419   3.906   2.750  0.0656  0.7550 -1.1564
 8906SOL    HW238181   4.308   3.830   2.702  0.7810 -0.4340  0.2258
 8907SOL     OW38182   4.002   1.481  17.585  0.6446  0.2101  0.4099
 8907SOL    HW138183   3.927   1.535  17.608 -0.4729 -0.7110 -1.0587
 8907SOL    HW238184   4.076   1.539  17.605 -0.6114  1.1906  2.1256
 8908SOL     OW38185   0.618   2.046   7.461  0.1657  0.1119 -0.6798
 8908SOL    HW138186   0.647   2.093   7.382  1.3333  0.0351 -0.2889
 8908SOL    HW238187   0.592   2.111   7.526  0.6079 -0.2792 -0.1091
 8909SOL     OW38188   4.158   4.323   7.953 -0.1227  0.0523 -0.4691
 8909SOL    HW138189   4.157   4.330   8.048  1.2035  0.3406 -0.4806
 8909SOL    HW238190   4.252   4.334   7.942 -0.3102  0.0043 -2.1342
 8910SOL     OW38191   4.298   3.249  14.829 -0.0233 -0.5564 -0.5423
 8910SOL    HW138192   4.259   3.334  14.808  1.3071  0.6069  1.5903
 8910SOL    HW238193   4.368   3.248  14.764 -0.7262 -0.1237 -1.3022
 8911SOL     OW38194   0.757   4.308  17.376 -0.0898  0.0734 -0.5291
 8911SOL    HW138195   0.749   4.361  17.456 -0.8827 -0.8925  0.0368
 8911SOL    HW238196   0.833   4.260  17.408  0.9534  1.4669 -0.9217
 8912SOL     OW38197   4.015   4.626   2.892 -0.5226 -0.2301 -0.1620
 8912SOL    HW138198   4.009   4.637   2.797 -0.6784 -0.2263 -0.1519
 8912SOL    HW238199   3.970   4.707   2.914  0.5853  0.2939  0.2116
 8913SOL     OW38200   3.383   0.439   2.387 -0.3376 -0.4575 -0.2613
 8913SOL    HW138201   3.390   0.533   2.403 -4.5462 -0.4135  1.3641
 8913SOL    HW238202   3.392   0.413   2.479  1.1373  0.9953  0.0005
 8914SOL     OW38203   0.407   3.554  14.966  0.1055 -0.3772 -0.1584
 8914SOL    HW138204   0.314   3.535  14.976  0.0408 -0.1987 -0.4309
 8914SOL    HW238205   0.415   3.649  14.964 -1.9622 -0.1589  2.1385
 8915SOL     OW38206   3.765   3.961   2.453  0.0472  0.0638 -0.2287
 8915SOL    HW138207   3.685   4.007   2.480 -1.5495 -1.4729 -2.2869
 8915SOL    HW238208   3.796   4.026   2.390  1.3905 -1.8724 -1.5487
 8916SOL     OW38209   3.048   3.818   8.182  0.1986 -0.0845  0.5298
 8916SOL    HW138210   2.991   3.752   8.222  1.4599  0.5467  3.3754
 8916SOL    HW238211   3.023   3.899   8.226 -0.1157 -0.5458  1.1997
 8917SOL     OW38212   1.131   2.636   4.133  0.2566  0.0692  0.3720
 8917SOL    HW138213   1.062   2.693   4.166 -0.7136 -1.2443  0.6132
 8917SOL    HW238214   1.141   2.574   4.205  0.3477  0.4838  0.7158
 8918SOL     OW38215   0.750   2.302   6.267  0.9874 -0.1684  0.2157
 8918SOL    HW138216   0.794   2.315   6.184 -0.8435  1.0042 -0.5847
 8918SOL    HW238217   0.737   2.208   6.259  1.8710 -0.1014 -1.7374
 8919SOL     OW38218   3.136   0.365   8.649  0.4355 -0.0932 -0.0284
 8919SOL    HW138219   3.095   0.285   8.682  0.4459 -0.9915 -2.1891
 8919SOL    HW238220   3.160   0.343   8.559 -2.3673  1.2571 -1.1253
 8920SOL     OW38221   4.280   1.027   5.732  0.4912  0.5489 -0.0434
 8920SOL    HW138222   4.237   0.974   5.799 -0.7983  0.6961 -0.7488
 8920SOL    HW238223   4.361   0.978   5.716 -0.4619 -1.4767  1.3391
 8921SOL     OW38224   2.265   1.624   6.021  0.0735 -0.4265 -0.2900
 8921SOL    HW138225   2.348   1.671   6.013 -0.0770 -0.2356 -0.7472
 8921SOL    HW238226   2.253   1.569   5.943  1.6255  0.5025 -1.2033
 8922SOL     OW38227   3.940   1.899   2.995 -0.2540 -0.2884 -0.5132
 8922SOL    HW138228   3.856   1.861   2.969 -2.0137  3.3859 -0.3311
 8922SOL    HW238229   3.998   1.823   2.992 -0.5515 -0.5061 -0.6578
 8923SOL     OW38230   2.043   1.994  13.365 -0.0387  0.1096 -0.0060
 8923SOL    HW138231   2.064   1.906  13.332  0.3497 -0.4394  1.7163
 8923SOL    HW238232   2.069   2.041  13.285  0.7013  1.1498  0.8494
 8924SOL     OW38233   3.771   4.317   7.633  0.0913 -0.2546 -0.0618
 8924SOL    HW138234   3.744   4.226   7.630 -4.2799  1.1112 -1.6506
 8924SOL    HW238235   3.819   4.318   7.716  1.6843  0.5387 -0.9812
 8925SOL     OW38236   3.771   0.012   2.760 -0.1611  0.3942  0.2124
 8925SOL    HW138237   3.783   0.066   2.839  1.5757 -0.2227  0.3884
 8925SOL    HW238238   3.717   4.663   2.796 -0.3391  0.9142  0.9611
 8926SOL     OW38239   4.248   2.852   3.517 -0.1471 -0.1527 -0.1863
 8926SOL    HW138240   4.247   2.786   3.447 -1.0549 -0.9043  0.5266
 8926SOL    HW238241   4.257   2.790   3.590 -1.1290 -2.5937 -2.1162
 8927SOL     OW38242   3.701   1.031  16.085 -0.2106 -0.1991  0.0344
 8927SOL    HW138243   3.722   0.990  16.169 -1.0392  3.2376  1.8983
 8927SOL    HW238244   3.686   0.953  16.032 -2.8324 -0.1471  0.7337
 8928SOL     OW38245   1.980   0.880   5.140 -0.1950  1.2457  0.4694
 8928SOL    HW138246   2.015   0.841   5.220 -2.3752  1.6970  1.6629
 8928SOL    HW238247   1.958   0.970   5.167  0.0603  1.6448 -0.6295
 8929SOL     OW38248   1.601   1.256   3.025 -0.6002  0.5525  0.0286
 8929SOL    HW138249   1.607   1.161   3.018 -0.7713  0.6190 -1.0552
 8929SOL    HW238250   1.616   1.275   2.932 -0.0605  1.7649  0.3632
 8930SOL     OW38251   1.798   3.325   8.457 -0.3397 -0.1032 -0.0215
 8930SOL    HW138252   1.821   3.418   8.458  2.3014 -0.7242 -1.8351
 8930SOL    HW238253   1.861   3.286   8.517 -1.2358 -1.5816 -0.0402
 8931SOL     OW38254   0.394   3.821  11.592 -0.4156 -0.1006 -0.0214
 8931SOL    HW138255   0.462   3.846  11.529 -1.3067 -1.1702 -1.4130
 8931SOL    HW238256   0.351   3.906  11.592 -1.0208 -0.4164  1.8591
 8932SOL     OW38257   2.519   1.352   4.847  0.0648  0.1331 -0.2252
 8932SOL    HW138258   2.455   1.413   4.884 -0.3848  0.2304 -1.1639
 8932SOL    HW238259   2.481   1.327   4.762  0.1821  1.4217 -0.6586
 8933SOL     OW38260   2.552   2.178  15.615 -0.2014  0.0125  0.1439
 8933SOL    HW138261   2.616   2.249  15.604  0.7251 -0.8217  0.1187
 8933SOL    HW238262   2.495   2.206  15.687 -1.8144  2.0910 -1.9451
 8934SOL     OW38263   3.242   4.243  13.643 -0.4410 -0.3977  0.4187
 8934SOL    HW138264   3.229   4.329  13.683 -0.9005 -0.8754  1.2876
 8934SOL    HW238265   3.276   4.265  13.556  1.4729 -0.0463  1.2457
 8935SOL     OW38266   1.802   2.693   5.213  0.0357  0.6815  0.0863
 8935SOL    HW138267   1.709   2.684   5.190 -0.4067  0.0601  2.0161
 8935SOL    HW238268   1.826   2.604   5.240 -0.5509 -0.6208 -3.6654
 8936SOL     OW38269   2.037   0.681   3.960 -0.5709 -0.4395 -0.1344
 8936SOL    HW138270   1.970   0.674   4.028  0.7805  0.1887  1.2392
 8936SOL    HW238271   1.992   0.738   3.897  0.3604  1.2690  0.7664
 8937SOL     OW38272   1.688   2.279   0.088  0.5819 -0.4664 -0.0318
 8937SOL    HW138273   1.723   2.295   0.000 -0.1370  1.7179  0.0770
 8937SOL    HW238274   1.745   2.208   0.118  0.9632 -0.6682 -1.2287
 8938SOL     OW38275   2.359   2.801   5.210  0.4209 -0.2754 -0.3129
 8938SOL    HW138276   2.284   2.819   5.154  0.8786  0.4423 -0.7020
 8938SOL    HW238277   2.410   2.733   5.166 -0.0228 -1.4467  0.9928
 8939SOL     OW38278   1.170   1.771   6.795 -0.2013  0.1451  0.6469
 8939SOL    HW138279   1.139   1.855   6.828 -2.4838 -0.8352  0.9959
 8939SOL    HW238280   1.245   1.804   6.745  0.5277 -0.4913  1.3212
 8940SOL     OW38281   1.893   3.433  13.154  0.1631  0.5124 -0.2087
 8940SOL    HW138282   1.925   3.507  13.103 -1.5374  1.6919  0.4097
 8940SOL    HW238283   1.949   3.364  13.120 -0.5334 -1.0183  1.7585
 8941SOL     OW38284   3.493   4.214  11.850 -0.1715  0.5123 -0.2652
 8941SOL    HW138285   3.448   4.247  11.773  1.4374  1.4811 -0.7957
 8941SOL    HW238286   3.560   4.280  11.865 -0.4530  0.8853 -0.6549
 8942SOL     OW38287   1.162   1.510   8.526  0.0114 -0.5454  0.3567
 8942SOL    HW138288   1.166   1.421   8.562 -0.6125 -1.2961 -1.4026
 8942SOL    HW238289   1.245   1.552   8.546  1.0976 -1.8060 -1.4758
 8943SOL     OW38290   2.144   1.000   5.569  0.1105 -0.1460 -0.3570
 8943SOL    HW138291   2.125   1.049   5.489 -0.1359  2.4096  1.2296
 8943SOL    HW238292   2.204   1.060   5.614  0.1408 -0.5854  0.1883
 8944SOL     OW38293   0.541   2.068   6.700 -0.1170 -0.0800  0.3342
 8944SOL    HW138294   0.527   1.976   6.680  2.0644 -0.4904  0.6610
 8944SOL    HW238295   0.627   2.063   6.742  0.6901  0.7342 -1.2182
 8945SOL     OW38296   1.884   4.117   3.958 -0.0142  0.8281 -0.4096
 8945SOL    HW138297   1.957   4.056   3.948  0.2652  1.2063 -0.6878
 8945SOL    HW238298   1.867   4.161   3.874  1.2958  0.5194 -0.8324
 8946SOL     OW38299   2.562   2.609  16.328  0.5387 -0.0900  0.0812
 8946SOL    HW138300   2.488   2.588  16.384  1.7507  0.7767  2.0007
 8946SOL    HW238301   2.520   2.573  16.249  1.1487 -3.3716  1.2712
 8947SOL     OW38302   4.097   3.682  15.856  0.1085 -0.7443  0.0910
 8947SOL    HW138303   4.005   3.710  15.855  0.0257 -1.0367 -0.6816
 8947SOL    HW238304   4.144   3.755  15.816 -0.2403 -0.3125  0.4683
 8948SOL     OW38305   3.820   3.529   8.325 -0.1200 -0.0659  0.2786
 8948SOL    HW138306   3.903   3.498   8.290 -0.8785  0.1270 -1.6778
 8948SOL    HW238307   3.844   3.590   8.394  0.6499 -0.3646  0.2691
 8949SOL     OW38308   2.227   1.459   5.784  0.4078 -0.3035  0.5290
 8949SOL    HW138309   2.172   1.404   5.840 -0.2242 -1.1504 -0.9177
 8949SOL    HW238310   2.285   1.392   5.749 -0.4445 -0.0694 -1.3340
 8950SOL     OW38311   1.912   4.242  11.756 -0.3421 -0.2769 -0.0823
 8950SOL    HW138312   1.999   4.202  11.752 -0.6410 -0.9293 -0.0914
 8950SOL    HW238313   1.892   4.222  11.847 -1.5818 -0.7458 -0.4624
 8951SOL     OW38314   3.025   0.339   3.434 -0.3861  0.8098  0.2829
 8951SOL    HW138315   3.102   0.392   3.413  1.6677 -2.4073 -0.2117
 8951SOL    HW238316   3.011   0.290   3.353 -1.6475  1.7080 -0.0546
 8952SOL     OW38317   1.257   1.813   2.566 -0.3625 -0.1556 -0.4167
 8952SOL    HW138318   1.322   1.870   2.525 -0.6157 -0.0272 -0.6380
 8952SOL    HW238319   1.196   1.839   2.497  1.9126 -0.1022 -2.3911
 8953SOL     OW38320   1.556   2.848  11.298  0.1433 -0.3089 -0.0529
 8953SOL    HW138321   1.577   2.757  11.319 -1.0107 -0.6152 -0.2042
 8953SOL    HW238322   1.483   2.864  11.359 -0.6725  0.1298 -1.1594
 8954SOL     OW38323   1.847   0.403  15.288  0.0091  0.1404 -0.2491
 8954SOL    HW138324   1.899   0.347  15.230  0.2857  0.2108 -0.0701
 8954SOL    HW238325   1.916   0.456  15.327 -0.0877 -0.9501  1.4370
 8955SOL     OW38326   2.531   3.678   8.186  0.1040 -0.3657 -0.1962
 8955SOL    HW138327   2.568   3.628   8.114 -0.2458  0.6588 -1.0867
 8955SOL    HW238328   2.492   3.614   8.246 -2.2768 -0.1611 -1.5238
 8956SOL     OW38329   3.383   4.158   5.206 -0.4360 -0.3350 -0.1566
 8956SOL    HW138330   3.436   4.178   5.130 -1.1654 -0.1481 -0.6189
 8956SOL    HW238331   3.414   4.071   5.233  0.3760 -0.2388 -0.7834
 8957SOL     OW38332   1.508   0.124   8.269 -0.0516 -0.2391  0.0831
 8957SOL    HW138333   1.595   0.085   8.262 -1.0372 -2.2876 -0.7764
 8957SOL    HW238334   1.518   0.184   8.196  2.2329 -1.5899 -0.7121
 8958SOL     OW38335   3.649   3.118  10.623 -0.0802 -0.4394  0.3491
 8958SOL    HW138336   3.649   3.134  10.717 -0.5174 -0.0514  0.2815
 8958SOL    HW238337   3.555   3.108  10.609  0.2370  0.6329 -2.7113
 8959SOL     OW38338   3.836   4.209   3.637 -0.4110  0.0849  0.1174
 8959SOL    HW138339   3.747   4.201   3.670 -1.0657  1.2004 -1.4072
 8959SOL    HW238340   3.884   4.222   3.719 -0.8078  3.1145 -0.1433
 8960SOL     OW38341   0.186   4.134   4.996  0.4053 -0.4822 -0.1458
 8960SOL    HW138342   0.262   4.076   5.003 -0.2478 -1.2536  0.4883
 8960SOL    HW238343   0.119   4.091   5.050 -1.3474  1.1651 -1.0207
 8961SOL     OW38344   3.476   2.167  12.578  1.0739  0.4788  0.2288
 8961SOL    HW138345   3.386   2.176  12.546  0.5903  0.8465  1.7064
 8961SOL    HW238346   3.481   2.125  12.664 -0.4658  1.4163  0.7764
 8962SOL     OW38347   1.641   2.149   3.832 -0.0309 -0.6135  0.2179
 8962SOL    HW138348   1.566   2.101   3.796  0.4084 -1.0491 -0.1035
 8962SOL    HW238349   1.627   2.131   3.925  0.4748 -0.2837  0.3528
 8963SOL     OW38350   4.149   2.814   7.630 -0.0678 -0.3284 -0.5568
 8963SOL    HW138351   4.236   2.835   7.666 -0.0171  0.5964 -1.2197
 8963SOL    HW238352   4.109   2.901   7.641  0.4440 -0.2677  0.9190
 8964SOL     OW38353   2.364   4.720   7.302  0.5697  0.1527 -0.0228
 8964SOL    HW138354   2.370   4.696   7.210  1.2781  1.3866 -0.3003
 8964SOL    HW238355   2.375   4.635   7.346  0.9726 -0.4557 -1.2861
 8965SOL     OW38356   4.231   2.470   7.011 -0.0192  0.3637 -0.0591
 8965SOL    HW138357   4.148   2.509   7.040  2.0138  3.8121  1.0984
 8965SOL    HW238358   4.289   2.546   7.014  1.3997 -0.7687  0.9869
 8966SOL     OW38359   0.125   2.358  11.233  0.4900  0.1172  0.3393
 8966SOL    HW138360   0.079   2.391  11.310  0.1112 -0.3307  0.3030
 8966SOL    HW238361   0.108   2.438  11.183  1.1026  1.3597  2.1147
 8967SOL     OW38362   2.948   3.115  16.498 -0.4745 -0.6749  0.4624
 8967SOL    HW138363   2.916   3.189  16.448  0.4938  0.4379  1.4782
 8967SOL    HW238364   3.043   3.121  16.488 -0.6918 -1.0803 -1.7640
 8968SOL     OW38365   3.420   2.189   9.857 -0.8172  0.4253 -0.5746
 8968SOL    HW138366   3.379   2.111   9.821  0.4271  0.0068 -1.0992
 8968SOL    HW238367   3.513   2.167   9.846 -0.5994  0.0852  1.8169
 8969SOL     OW38368   1.845   1.526   6.371  0.6607 -0.1975  0.2691
 8969SOL    HW138369   1.849   1.521   6.467  1.0156  1.0141  0.3217
 8969SOL    HW238370   1.752   1.507   6.361  1.2564 -1.7076 -2.1909
 8970SOL     OW38371   3.701   0.723   8.801 -0.6424  0.1612  0.3659
 8970SOL    HW138372   3.770   0.763   8.854  1.6718 -0.7771 -1.9643
 8970SOL    HW238373   3.658   0.689   8.880  4.0528  1.5116  3.4508
 8971SOL     OW38374   4.632   1.774  13.011 -0.1240  0.0677 -0.3057
 8971SOL    HW138375   4.608   1.713  12.941 -1.2759 -0.7391  0.8019
 8971SOL    HW238376   4.551   1.807  13.049  0.0370  0.9198 -0.7187
 8972SOL     OW38377   3.999   4.320   2.569  0.0246 -0.1124  0.5936
 8972SOL    HW138378   4.017   4.306   2.662 -0.1318  3.4152  1.1547
 8972SOL    HW238379   4.014   4.415   2.563 -0.7334  0.2469  4.3336
 8973SOL     OW38380   3.392   0.111   2.394 -0.1622  0.2518  0.4542
 8973SOL    HW138381   3.372   0.197   2.431 -0.2665  0.1419  0.6576
 8973SOL    HW238382   3.458   0.077   2.455 -0.5612  1.2983  1.4573
 8974SOL     OW38383   3.727   4.406   2.398 -0.0275  0.0496 -0.3159
 8974SOL    HW138384   3.820   4.425   2.410  0.1680 -0.0478 -1.6199
 8974SOL    HW238385   3.704   4.481   2.343 -0.6119 -0.2112 -0.4387
 8975SOL     OW38386   0.645   0.430   9.643 -0.0915 -0.5027 -0.3182
 8975SOL    HW138387   0.590   0.377   9.585 -2.7390  3.5564 -1.5518
 8975SOL    HW238388   0.604   0.517   9.637 -0.9020 -0.8153  0.6678
 8976SOL     OW38389   4.627   2.212   4.175  0.3066 -0.1112  0.5231
 8976SOL    HW138390   4.600   2.303   4.161 -0.5983 -0.5754 -0.8141
 8976SOL    HW238391   4.562   2.174   4.115  0.5002 -0.6418  0.6508
 8977SOL     OW38392   0.006   1.604  14.373  0.3486  0.5633  0.7640
 8977SOL    HW138393   4.690   1.641  14.454 -2.8265  0.6129 -0.6965
 8977SOL    HW238394   0.039   1.682  14.329 -0.5683  1.0813  0.9773
 8978SOL     OW38395   4.026   3.811  12.138 -0.2239  0.1487 -0.4194
 8978SOL    HW138396   4.067   3.844  12.058 -3.7750  0.6371 -2.0171
 8978SOL    HW238397   4.094   3.777  12.196 -0.2539  1.0480  0.1368
 8979SOL     OW38398   1.787   3.602   5.509 -0.8318  0.1772 -0.8814
 8979SOL    HW138399   1.812   3.661   5.580  1.1969 -0.0501 -1.3994
 8979SOL    HW238400   1.862   3.606   5.450  1.4386 -0.3150  1.9980
 8980SOL     OW38401   0.108   2.335  12.836 -0.2263  0.1213 -0.1003
 8980SOL    HW138402   0.061   2.347  12.918 -0.4991 -0.2267 -0.2044
 8980SOL    HW238403   0.031   2.351  12.782  0.5666  2.0972 -0.6623
 8981SOL     OW38404   3.131   3.735   7.172 -0.2912  0.1851  0.3458
 8981SOL    HW138405   3.223   3.751   7.152 -0.2489  2.0307  1.9201
 8981SOL    HW238406   3.139   3.641   7.185 -1.5050  0.3804  2.5576
 8982SOL     OW38407   1.759   2.118  11.945 -0.2967 -0.1899  0.2213
 8982SOL    HW138408   1.702   2.113  12.022 -0.3104 -1.2041  0.1456
 8982SOL    HW238409   1.696   2.138  11.877  2.3063 -0.8784 -2.3882
 8983SOL     OW38410   2.358   2.562   6.539 -0.0601  0.0108  0.1926
 8983SOL    HW138411   2.403   2.478   6.533  1.1601  0.6886 -0.2476
 8983SOL    HW238412   2.432   2.613   6.570 -0.6386 -0.0840  1.7439
 8984SOL     OW38413   1.673   0.431   4.778  0.2365 -0.2802  0.3718
 8984SOL    HW138414   1.728   0.428   4.699  1.8101  0.1594  1.4426
 8984SOL    HW238415   1.633   0.346   4.761  1.3523 -0.5488 -0.9086
 8985SOL     OW38416   3.736   2.860   8.422 -0.7638 -0.1048  0.7227
 8985SOL    HW138417   3.659   2.807   8.439 -1.1491  0.5005  0.8558
 8985SOL    HW238418   3.783   2.878   8.503  0.6235 -2.3017  0.4073
 8986SOL     OW38419   1.356   4.396   5.937 -0.6097 -0.3266  0.1947
 8986SOL    HW138420   1.427   4.351   5.891 -1.7271  0.6964 -2.5030
 8986SOL    HW238421   1.298   4.431   5.870 -0.0222  2.1269  0.9419
 8987SOL     OW38422   4.678   1.171   3.085 -0.0530 -0.2926 -0.0446
 8987SOL    HW138423   0.038   1.125   3.062  0.1335 -0.3535  0.7099
 8987SOL    HW238424   4.690   1.196   3.177  0.0754 -1.8310  0.3624
 8988SOL     OW38425   0.376   0.991   0.887 -1.0566 -0.8203  0.2630
 8988SOL    HW138426   0.410   0.905   0.911  1.2485  0.3734  1.2922
 8988SOL    HW238427   0.355   1.022   0.975 -3.0463 -0.9290 -0.1614
 8989SOL     OW38428   0.648   1.110   3.893  0.2809 -0.1604  0.6857
 8989SOL    HW138429   0.741   1.116   3.912  0.7828 -0.8556 -1.5133
 8989SOL    HW238430   0.648   1.123   3.798 -2.3593 -1.0175  0.5393
 8990SOL     OW38431   2.539   0.847   6.509  0.4684  0.3762 -0.0190
 8990SOL    HW138432   2.487   0.838   6.430 -0.8861  0.8514  0.8300
 8990SOL    HW238433   2.570   0.758   6.523 -2.0366 -0.2965  1.0356
 8991SOL     OW38434   0.743   1.535   3.616  0.3490  0.0457  1.0276
 8991SOL    HW138435   0.797   1.576   3.684  3.0759 -0.8106 -0.6132
 8991SOL    HW238436   0.786   1.450   3.624  3.2162  1.4269  0.2698
 8992SOL     OW38437   3.500   3.675  15.227  0.8918  0.2028  0.0007
 8992SOL    HW138438   3.457   3.651  15.145 -0.0959 -0.0568  0.6046
 8992SOL    HW238439   3.433   3.647  15.289  2.7206  1.2385  2.4468
 8993SOL     OW38440   1.081   1.281  14.705  0.6018  0.0738  0.0536
 8993SOL    HW138441   1.112   1.290  14.615 -0.8022  0.3900 -0.4031
 8993SOL    HW238442   1.094   1.189  14.726 -0.1738  0.1751  0.9960
 8994SOL     OW38443   0.246   2.016   2.584 -0.1130 -0.0324  0.4432
 8994SOL    HW138444   0.309   2.060   2.643  2.2479 -0.7081 -1.5585
 8994SOL    HW238445   0.190   1.981   2.653 -0.8653 -1.5213 -0.9362
 8995SOL     OW38446   1.523   2.022  11.269  0.3396  0.1054 -0.2650
 8995SOL    HW138447   1.529   2.117  11.283 -0.2500  0.1980 -0.6348
 8995SOL    HW238448   1.501   1.990  11.356  0.7625 -2.3638 -1.0689
 8996SOL     OW38449   4.350   1.301   7.332  0.3502 -0.1728  0.1650
 8996SOL    HW138450   4.374   1.394   7.326  1.0724 -0.2849  1.3308
 8996SOL    HW238451   4.431   1.267   7.292  0.8426 -0.4922  1.4188
 8997SOL     OW38452   2.967   2.575   6.790  0.4203 -0.0879  0.1056
 8997SOL    HW138453   2.947   2.536   6.875  2.3832  0.8643  1.0273
 8997SOL    HW238454   3.048   2.529   6.768  0.7570  1.7717 -2.5452
 8998SOL     OW38455   2.945   2.505   1.780  0.2100  0.1269  0.3228
 8998SOL    HW138456   2.935   2.414   1.752 -1.5295 -0.3193  2.4333
 8998SOL    HW238457   2.940   2.553   1.697  1.6461 -0.8269 -0.3198
 8999SOL     OW38458   0.658   4.015   5.820 -0.2458 -0.2935 -0.0365
 8999SOL    HW138459   0.748   3.984   5.805 -0.1871  0.0653 -0.4060
 8999SOL    HW238460   0.630   3.945   5.880 -1.0335  0.9276  1.0194
 9000SOL     OW38461   4.539   3.069   0.557 -0.3847 -0.4240  0.6006
 9000SOL    HW138462   4.537   3.083   0.463 -0.3820  0.3010  0.7053
 9000SOL    HW238463   4.450   3.096   0.582 -0.4468 -0.5904  0.5606
 9001SOL     OW38464   1.151   1.208   4.047 -0.0124 -0.2650 -0.1314
 9001SOL    HW138465   1.166   1.234   3.956  1.2043 -2.8075 -0.6358
 9001SOL    HW238466   1.212   1.139   4.073  0.2877 -0.3200 -0.9792
 9002SOL     OW38467   0.641   3.761  11.200  0.5661 -0.5829  0.1593
 9002SOL    HW138468   0.728   3.740  11.167  0.8496  0.0499  0.5035
 9002SOL    HW238469   0.635   3.856  11.214 -4.4799 -0.6373 -1.6947
 9003SOL     OW38470   2.988   3.103   7.015  0.5689  0.2775  0.4047
 9003SOL    HW138471   2.983   3.071   6.925 -0.3964 -2.6274  1.5072
 9003SOL    HW238472   2.917   3.058   7.058  0.2092 -0.8052 -1.3038
 9004SOL     OW38473   1.992   2.538   4.505  0.0043  0.0561  0.1389
 9004SOL    HW138474   1.904   2.505   4.524 -0.6316  1.8603  0.3723
 9004SOL    HW238475   2.018   2.581   4.586  1.7683 -1.0519  0.1538
 9005SOL     OW38476   2.380   2.362  15.253 -0.2212 -0.0063  0.0481
 9005SOL    HW138477   2.325   2.439  15.268  0.6951  0.7509 -0.4503
 9005SOL    HW238478   2.387   2.321  15.339  0.6863  0.2226  0.0899
 9006SOL     OW38479   2.502   0.069  14.329 -0.6238  0.2125 -0.3770
 9006SOL    HW138480   2.541   0.072  14.416 -0.6623 -1.1012 -0.3158
 9006SOL    HW238481   2.471   4.699  14.328 -0.1088  0.0329  0.1394
 9007SOL     OW38482   2.255   1.351  13.835 -0.2021 -0.1153 -0.0027
 9007SOL    HW138483   2.252   1.445  13.850 -0.9182 -0.0454 -0.5742
 9007SOL    HW238484   2.331   1.326  13.888  0.4958  2.4311  0.1865
 9008SOL     OW38485   3.211   4.467   1.750 -0.1002 -0.0409  0.5802
 9008SOL    HW138486   3.214   4.558   1.781  0.4448  0.7190 -1.6988
 9008SOL    HW238487   3.193   4.422   1.833  2.1602 -0.5937  0.7893
 9009SOL     OW38488   2.499   3.322   3.608  0.3907 -0.1755 -0.3261
 9009SOL    HW138489   2.472   3.401   3.562 -1.2429 -0.6340 -0.1367
 9009SOL    HW238490   2.557   3.280   3.544 -1.2926  0.4993 -2.2946
 9010SOL     OW38491   1.718   3.625   3.739 -0.0513  0.0113  0.1810
 9010SOL    HW138492   1.708   3.530   3.735  4.3333 -0.4399  0.0006
 9010SOL    HW238493   1.803   3.624   3.783  0.6352  0.2696 -1.1225
 9011SOL     OW38494   1.753   3.594   1.779  0.2476  0.1534 -0.5462
 9011SOL    HW138495   1.781   3.574   1.690  1.5259  1.1506 -0.3591
 9011SOL    HW238496   1.708   3.511   1.795 -0.9299  1.1565  1.4141
 9012SOL     OW38497   2.708   1.898   2.972 -0.0224  0.4013  0.1895
 9012SOL    HW138498   2.681   1.981   2.933 -2.3988 -0.0994  0.7422
 9012SOL    HW238499   2.661   1.827   2.927  0.9851 -0.4022  0.3999
 9013SOL     OW38500   2.180   4.498   5.991  0.1708  0.8430 -0.0764
 9013SOL    HW138501   2.204   4.441   5.919  0.4182 -2.6344  2.7458
 9013SOL    HW238502   2.135   4.436   6.049  0.6806 -0.3428 -0.9622
 9014SOL     OW38503   1.446   4.226   6.238 -0.6395 -0.1718 -0.1003
 9014SOL    HW138504   1.376   4.202   6.177  0.4440  0.8869 -1.7569
 9014SOL    HW238505   1.404   4.219   6.325  0.4235  0.4836  0.4599
 9015SOL     OW38506   3.488   0.778   3.126  0.1851  0.3256  0.0524
 9015SOL    HW138507   3.422   0.841   3.154 -1.0718 -0.9469 -0.0032
 9015SOL    HW238508   3.564   0.817   3.169  0.7348  1.2496 -1.7605
 9016SOL     OW38509   0.142   1.177  10.071 -0.1270 -0.5165 -0.5059
 9016SOL    HW138510   0.116   1.144   9.985  0.2614  1.1598 -1.2705
 9016SOL    HW238511   0.079   1.123  10.119  0.3993 -1.0047 -0.3647
 9017SOL     OW38512   0.826   2.589   3.051 -0.1295 -0.2546  0.7913
 9017SOL    HW138513   0.812   2.682   3.032  1.2060 -0.0395  0.8432
 9017SOL    HW238514   0.866   2.556   2.971  0.0580 -2.3917  1.7763
 9018SOL     OW38515   3.901   2.120   3.521 -0.3066  0.3757  0.0309
 9018SOL    HW138516   3.951   2.137   3.441 -2.3562  0.1951 -1.2948
 9018SOL    HW238517   3.809   2.106   3.496  0.0067  3.7313 -3.0292
 9019SOL     OW38518   2.643   3.925   3.134 -0.0475  0.0778  0.1382
 9019SOL    HW138519   2.648   3.903   3.041 -0.0231  3.4949 -0.6916
 9019SOL    HW238520   2.611   3.841   3.167 -0.4938  0.8870  1.7918
 9020SOL     OW38521   3.851   4.672   9.835  0.0708  0.3506 -0.6647
 9020SOL    HW138522   3.858   0.009   9.759  1.1908  0.8468 -0.1831
 9020SOL    HW238523   3.757   4.665   9.855  0.8858  1.7944  3.6445
 9021SOL     OW38524   3.771   4.199  11.566 -0.0287 -0.2511  0.1474
 9021SOL    HW138525   3.736   4.165  11.484 -1.6097  1.5765  0.0704
 9021SOL    HW238526   3.758   4.293  11.556 -0.3962 -0.4321 -1.1063
 9022SOL     OW38527   2.144   3.321  13.129 -0.4596 -0.0393  0.2736
 9022SOL    HW138528   2.238   3.307  13.117 -0.3202  0.0569  1.2323
 9022SOL    HW238529   2.119   3.251  13.189 -0.0290 -0.7412 -0.3706
 9023SOL     OW38530   4.330   2.489   2.326  0.0186 -0.1779 -0.5256
 9023SOL    HW138531   4.266   2.538   2.274 -0.9714  0.6505  1.4564
 9023SOL    HW238532   4.298   2.400   2.316 -1.7668  0.3502  0.5188
 9024SOL     OW38533   1.929   4.134   5.327  0.0836 -0.2324  0.0167
 9024SOL    HW138534   1.962   4.213   5.369 -1.6044  0.9991 -0.9803
 9024SOL    HW238535   2.005   4.088   5.291  0.4446  0.3019  0.1016
 9025SOL     OW38536   0.841   1.202  13.136  0.0652 -0.6149  0.1487
 9025SOL    HW138537   0.849   1.251  13.055  0.0294 -1.5360 -0.4129
 9025SOL    HW238538   0.909   1.236  13.194  1.3791 -1.1004 -1.1020
 9026SOL     OW38539   2.015   3.927   6.267  0.0284 -0.4405 -0.4620
 9026SOL    HW138540   2.019   3.957   6.176 -2.5741 -0.2537 -0.4936
 9026SOL    HW238541   1.974   4.006   6.301  2.2161  0.5122  0.0033
 9027SOL     OW38542   3.102   3.256  14.746  0.3635  0.0717  0.0151
 9027SOL    HW138543   3.075   3.175  14.702  1.0732  0.0945 -0.4696
 9027SOL    HW238544   3.035   3.317  14.714  0.6894  0.7251  0.5763
 9028SOL     OW38545   0.208   3.730   8.466 -1.3760 -0.0134  0.2661
 9028SOL    HW138546   0.250   3.779   8.537  2.1555 -1.7569 -0.6044
 9028SOL    HW238547   0.118   3.713   8.495 -1.1262 -0.2032  0.9276
 9029SOL     OW38548   1.647   1.445   2.771  0.6902  0.0614 -0.2398
 9029SOL    HW138549   1.593   1.506   2.722  1.6294 -0.2614 -1.6771
 9029SOL    HW238550   1.614   1.368   2.724  3.7807 -0.9758 -0.7550
 9030SOL     OW38551   3.114   0.000  14.663  0.6289 -0.2932 -0.0790
 9030SOL    HW138552   3.124   4.706  14.569  0.5198  0.0688 -0.1472
 9030SOL    HW238553   3.091   0.093  14.659 -0.5180 -0.6727 -2.2740
 9031SOL     OW38554   1.555   4.085   3.086 -0.0420 -0.4175 -0.0648
 9031SOL    HW138555   1.484   4.109   3.027  0.3461 -0.0528 -0.3845
 9031SOL    HW238556   1.508   4.029   3.148  2.2283 -1.8117  0.4039
 9032SOL     OW38557   4.665   2.680   7.975 -0.2729 -0.2979 -0.1209
 9032SOL    HW138558   4.687   2.678   7.882  2.5864 -1.5712  0.6082
 9032SOL    HW238559   4.571   2.696   7.963 -0.0566 -0.9672 -2.7626
 9033SOL     OW38560   3.678   1.809   7.936  0.0776 -0.1301  0.1452
 9033SOL    HW138561   3.678   1.731   7.992  1.8845 -1.0444 -1.1063
 9033SOL    HW238562   3.586   1.807   7.910  0.6153  0.5484 -1.8642
 9034SOL     OW38563   0.945   0.665  11.150 -0.3332  0.1207  0.5482
 9034SOL    HW138564   1.025   0.650  11.201  1.3626  2.1489 -1.5198
 9034SOL    HW238565   0.874   0.626  11.201  0.7405 -0.7965  1.3439
 9035SOL     OW38566   3.490   0.778   3.466  0.2156 -0.2327 -0.1871
 9035SOL    HW138567   3.423   0.750   3.404 -1.9202  0.1127  1.9538
 9035SOL    HW238568   3.484   0.709   3.532  0.3848 -0.1299 -0.0638
 9036SOL     OW38569   1.365   1.690   8.578  0.0184  0.2495 -0.4707
 9036SOL    HW138570   1.397   1.773   8.545  0.0337  0.0466 -0.9556
 9036SOL    HW238571   1.395   1.696   8.669 -0.8068 -2.8565  0.0323
 9037SOL     OW38572   3.490   3.929   2.770  0.3143 -0.3982  0.0085
 9037SOL    HW138573   3.474   3.840   2.739  2.0775 -0.9461  0.7327
 9037SOL    HW238574   3.537   3.923   2.853 -2.0912  0.8073  1.4756
 9038SOL     OW38575   1.138   1.964   9.473  0.8115 -0.0557  0.4723
 9038SOL    HW138576   1.203   2.014   9.523  0.4585  0.2650  0.6083
 9038SOL    HW238577   1.117   1.891   9.530 -4.1533  0.1121 -1.1583
 9039SOL     OW38578   0.117   0.192   8.044  0.1384  0.3432 -0.7260
 9039SOL    HW138579   0.175   0.142   7.988  0.5533  0.1405 -0.1133
 9039SOL    HW238580   0.179   0.236   8.102  0.2483  0.5002 -0.9619
 9040SOL     OW38581   3.444   0.346   9.483 -0.5754 -0.6964 -0.2360
 9040SOL    HW138582   3.528   0.301   9.483 -0.0990  0.2040  2.3063
 9040SOL    HW238583   3.421   0.330   9.574  0.8724  1.7149  0.5720
 9041SOL     OW38584   0.376   4.702   6.934  0.3921  0.9215 -0.2085
 9041SOL    HW138585   0.466   4.678   6.910 -0.0540 -0.9538  0.0222
 9041SOL    HW238586   0.358   0.065   6.891 -2.1104  1.1621  1.3123
 9042SOL     OW38587   0.183   1.328   0.229 -0.1833 -0.0771  0.3524
 9042SOL    HW138588   0.184   1.323   0.325  0.9956  1.7812  0.4287
 9042SOL    HW238589   0.091   1.303   0.221  0.4306 -1.7659 -1.5727
 9043SOL     OW38590   1.036   0.944  15.141  0.5139  0.0416 -0.2210
 9043SOL    HW138591   1.054   1.036  15.161  2.3123 -0.2086 -0.6991
 9043SOL    HW238592   1.124   0.909  15.129  0.3429 -0.3791 -0.2259
 9044SOL     OW38593   0.268   1.838   6.145  0.9214 -0.2722  0.1055
 9044SOL    HW138594   0.347   1.879   6.179  1.7352 -0.9016 -0.9990
 9044SOL    HW238595   0.283   1.848   6.050  0.3482 -0.2453  0.0180
 9045SOL     OW38596   0.496   4.097   4.972  0.2649  0.2515 -0.3695
 9045SOL    HW138597   0.581   4.056   4.959 -0.1792 -1.0478  0.8624
 9045SOL    HW238598   0.514   4.178   5.020  1.0144  0.1429 -0.4711
 9046SOL     OW38599   4.050   2.407   8.541  0.8791  0.5368 -0.7279
 9046SOL    HW138600   4.086   2.486   8.583  1.6724 -0.1099 -0.1855
 9046SOL    HW238601   4.067   2.415   8.448  2.1306  0.2520 -0.5255
 9047SOL     OW38602   4.168   3.061   9.428  0.0916 -0.2764  0.2249
 9047SOL    HW138603   4.234   3.035   9.492 -0.6682 -0.2894  1.0071
 9047SOL    HW238604   4.110   3.110   9.486 -2.0542  0.2893 -2.3894
 9048SOL     OW38605   4.445   2.861   4.629  0.0181 -0.1305  0.2581
 9048SOL    HW138606   4.447   2.779   4.580  0.4336 -0.0172  0.0847
 9048SOL    HW238607   4.359   2.889   4.596 -1.2671 -1.0218  2.8673
 9049SOL     OW38608   0.909   2.918   4.066 -0.3493 -0.7684  0.2266
 9049SOL    HW138609   0.918   2.875   4.151 -0.7613  2.2818  1.8038
 9049SOL    HW238610   0.818   2.945   4.069  0.0659  0.6633  0.1530
 9050SOL     OW38611   1.450   2.514   9.611 -0.5468 -0.6300  0.4192
 9050SOL    HW138612   1.509   2.572   9.562  1.4842 -1.9470  1.3056
 9050SOL    HW238613   1.514   2.468   9.665  1.7047  0.0187 -1.6736
 9051SOL     OW38614   1.779   2.275   6.158 -0.0821 -0.0650  0.4785
 9051SOL    HW138615   1.804   2.358   6.199  1.6264  0.6528 -1.9999
 9051SOL    HW238616   1.865   2.236   6.143  0.5896  1.0875  1.3163
 9052SOL     OW38617   0.380   2.214   1.651  0.4922  0.2595 -0.9980
 9052SOL    HW138618   0.340   2.252   1.573 -0.8341  0.3972 -0.2396
 9052SOL    HW238619   0.350   2.267   1.724 -2.7275 -0.9304 -1.4954
 9053SOL     OW38620   1.977   1.966  12.638 -0.1949 -0.4390  0.3982
 9053SOL    HW138621   1.918   2.009  12.576  1.4944  2.0363  0.5319
 9053SOL    HW238622   1.960   1.875  12.615  3.8036 -0.6994 -1.5045
 9054SOL     OW38623   1.008   0.732  11.990 -0.2121  0.0438 -0.2398
 9054SOL    HW138624   1.003   0.811  12.044 -1.2439  0.1692 -0.5104
 9054SOL    HW238625   1.009   0.772  11.903 -1.5447 -2.0258 -1.2001
 9055SOL     OW38626   0.632   3.850   1.829  0.1658  0.3341 -0.6426
 9055SOL    HW138627   0.665   3.847   1.919  1.9950 -0.2614 -1.3211
 9055SOL    HW238628   0.541   3.844   1.858  1.2582 -1.8683  2.3399
 9056SOL     OW38629   2.224   4.447   7.254 -0.2586 -0.2189 -0.3159
 9056SOL    HW138630   2.142   4.496   7.264 -0.2698 -0.3646  0.2926
 9056SOL    HW238631   2.263   4.461   7.340 -1.5541  1.9649 -0.0877
 9057SOL     OW38632   4.409   1.926  11.096 -0.3119  0.5970  0.0643
 9057SOL    HW138633   4.324   1.955  11.063 -1.4874 -0.8038  1.8909
 9057SOL    HW238634   4.404   1.880  11.180  1.0691 -2.1256 -1.3234
 9058SOL     OW38635   0.130   0.122   2.185  0.2760 -0.3748 -0.1267
 9058SOL    HW138636   0.180   0.170   2.118  0.2668 -1.8637 -1.1965
 9058SOL    HW238637   0.195   0.142   2.252 -1.2783  1.5171  0.8019
 9059SOL     OW38638   0.283   1.353   2.723  0.1293  0.2433  0.7328
 9059SOL    HW138639   0.234   1.350   2.805 -0.3710 -1.7063  0.3552
 9059SOL    HW238640   0.285   1.448   2.712  1.3752  0.1886  0.4601
 9060SOL     OW38641   3.658   3.745  11.863 -0.0670 -0.0873 -0.0722
 9060SOL    HW138642   3.739   3.781  11.827  0.8344 -2.4833 -0.4802
 9060SOL    HW238643   3.694   3.722  11.949  3.1422  0.6454 -1.2323
 9061SOL     OW38644   4.060   2.809   2.127  0.2168  0.0686 -0.4005
 9061SOL    HW138645   4.146   2.787   2.091  0.8370  0.0800  1.0820
 9061SOL    HW238646   4.031   2.730   2.172 -0.4344 -1.0025 -2.6869
 9062SOL     OW38647   3.792   3.932   8.613  0.2499 -0.1135  0.2832
 9062SOL    HW138648   3.733   3.857   8.605 -2.4915  2.0138  0.4360
 9062SOL    HW238649   3.857   3.886   8.666 -0.0429 -0.7505  0.0921
 9063SOL     OW38650   1.696   1.480   6.893  0.3614  0.0056  0.7429
 9063SOL    HW138651   1.729   1.526   6.970 -0.0673  0.4859  0.6456
 9063SOL    HW238652   1.641   1.557   6.877  0.4492  0.1720  1.2202
 9064SOL     OW38653   2.068   0.410   2.044  0.6024 -0.0878  0.5115
 9064SOL    HW138654   2.002   0.347   2.013  1.9141 -1.4058  0.4299
 9064SOL    HW238655   2.089   0.456   1.963  2.0332 -0.0001  0.9452
 9065SOL     OW38656   1.916   3.147   9.623  0.0278  0.3171 -0.5008
 9065SOL    HW138657   1.954   3.150   9.535 -1.1373  0.7793 -0.9960
 9065SOL    HW238658   1.977   3.087   9.666 -0.8084 -0.7585 -0.7977
 9066SOL     OW38659   4.313   0.219   7.744 -0.3480  0.1599  0.2441
 9066SOL    HW138660   4.353   0.135   7.765  1.5916  0.8749 -0.5633
 9066SOL    HW238661   4.387   0.279   7.751 -1.4310  1.2291  2.7164
 9067SOL     OW38662   2.473   1.930   0.742 -0.2664 -0.0903 -0.8249
 9067SOL    HW138663   2.449   1.992   0.811 -1.6116 -0.8171 -0.6354
 9067SOL    HW238664   2.437   1.849   0.779  2.0154 -2.2311 -3.2637
 9068SOL     OW38665   0.668   0.248  16.406  0.5960 -0.2261 -0.0334
 9068SOL    HW138666   0.701   0.180  16.347  2.1002 -0.1836  0.7719
 9068SOL    HW238667   0.577   0.218  16.397  0.4658  0.5982 -1.4668
 9069SOL     OW38668   2.956   3.613   4.556 -0.2740 -0.5367  0.3802
 9069SOL    HW138669   2.974   3.520   4.563 -0.2162 -0.4033  1.9916
 9069SOL    HW238670   2.984   3.653   4.638 -0.0135  1.1817 -0.5330
 9070SOL     OW38671   0.244   1.809   3.020  0.0986  0.3682  0.0151
 9070SOL    HW138672   0.323   1.758   3.039 -1.2104 -1.5739  0.3392
 9070SOL    HW238673   0.254   1.861   3.099  3.1632  0.5300 -0.4789
 9071SOL     OW38674   2.651   2.563   4.348  0.0927 -0.3060 -0.3459
 9071SOL    HW138675   2.682   2.476   4.325 -0.4528 -1.1694  2.1522
 9071SOL    HW238676   2.730   2.616   4.359  0.2058 -0.5770  0.1508
 9072SOL     OW38677   2.935   4.001  15.017 -0.5004  0.0186 -0.3884
 9072SOL    HW138678   2.970   4.088  15.039 -1.3835  0.6228 -1.3712
 9072SOL    HW238679   2.911   3.964  15.102 -1.7819  2.3940  0.2997
 9073SOL     OW38680   2.003   1.466   8.623  0.9950  0.5471 -1.0520
 9073SOL    HW138681   2.005   1.484   8.529  0.1351  1.6211 -0.8621
 9073SOL    HW238682   2.003   1.552   8.664  3.4785  0.1379 -0.1921
 9074SOL     OW38683   2.424   1.499   5.479  0.0945  0.8122  0.0508
 9074SOL    HW138684   2.342   1.454   5.460  1.7927 -1.0981 -2.5983
 9074SOL    HW238685   2.411   1.592   5.458  2.1314  1.4409  1.5382
 9075SOL     OW38686   0.821   3.279   3.107  0.0342  0.0618 -0.0913
 9075SOL    HW138687   0.898   3.321   3.145  1.5454 -4.5585  1.8979
 9075SOL    HW238688   0.776   3.266   3.190  1.1879 -0.7558  0.4187
 9076SOL     OW38689   2.111   1.399  11.081  0.3089 -0.3318 -0.0670
 9076SOL    HW138690   2.077   1.424  10.995 -1.0800  0.4248  0.6989
 9076SOL    HW238691   2.134   1.306  11.070 -0.3910 -0.5752  0.5619
 9077SOL     OW38692   4.385   0.277  13.010 -0.1177  0.1778  0.4922
 9077SOL    HW138693   4.447   0.256  12.940 -1.3883  1.7104 -1.0655
 9077SOL    HW238694   4.299   0.263  12.971  0.6143 -1.4933 -0.5337
 9078SOL     OW38695   1.753   1.662   7.102 -0.0934 -0.2419  0.0889
 9078SOL    HW138696   1.802   1.622   7.174  0.4055 -0.5609 -0.4313
 9078SOL    HW238697   1.817   1.729   7.078 -1.3623  0.9235 -0.0303
 9079SOL     OW38698   4.653   2.050   2.797 -0.3042 -0.3863  0.3394
 9079SOL    HW138699   4.565   2.085   2.786 -0.7136 -1.9307 -1.4086
 9079SOL    HW238700   4.707   2.125   2.774 -1.9114  0.4130 -0.8003
 9080SOL     OW38701   0.579   3.474   0.753  0.0171 -0.0342 -0.9855
 9080SOL    HW138702   0.625   3.393   0.771 -0.1931 -0.1661 -1.0354
 9080SOL    HW238703   0.631   3.502   0.679 -0.6863  0.2722 -1.3684
 9081SOL     OW38704   4.360   0.519   2.467  0.4281  0.4514  0.3126
 9081SOL    HW138705   4.266   0.505   2.479  0.2843  2.0493  1.0728
 9081SOL    HW238706   4.396   0.431   2.458 -0.4243 -0.1543  2.7615
 9082SOL     OW38707   0.910   0.515   2.453 -0.4822  0.0154  0.2812
 9082SOL    HW138708   0.939   0.477   2.536 -0.0910 -0.7242 -0.1979
 9082SOL    HW238709   0.941   0.604   2.465  0.1534 -0.1468 -0.1833
 9083SOL     OW38710   2.221   1.602  11.344 -0.0710 -0.1298  0.2860
 9083SOL    HW138711   2.191   1.514  11.367  0.1099  0.5237  3.0804
 9083SOL    HW238712   2.313   1.583  11.326 -0.8213 -1.2299 -2.3411
 9084SOL     OW38713   4.045   4.434   4.289  0.1443  0.3571  0.8042
 9084SOL    HW138714   3.999   4.349   4.285 -1.2051  1.0972  0.5357
 9084SOL    HW238715   4.045   4.456   4.382 -1.9687  2.2955  0.3323
 9085SOL     OW38716   2.426   2.397   6.884 -0.4337  0.1304  0.0017
 9085SOL    HW138717   2.518   2.412   6.862 -0.4698  0.6377  0.2038
 9085SOL    HW238718   2.407   2.428   6.972 -1.7496  1.1243 -0.6270
 9086SOL     OW38719   2.196   2.342  15.512 -0.9760  0.2049  0.2001
 9086SOL    HW138720   2.258   2.399  15.558  1.9414 -2.7976  0.0286
 9086SOL    HW238721   2.119   2.355  15.566  0.5169  1.8771  1.9358
 9087SOL     OW38722   4.706   4.662   1.231  0.0829  0.2223 -0.4465
 9087SOL    HW138723   0.013   0.030   1.210 -1.7611  0.5862 -1.3602
 9087SOL    HW238724   0.065   4.623   1.266 -0.4162 -0.8248 -0.4488
 9088SOL     OW38725   3.302   4.401   7.072  0.0452 -0.1126  0.5706
 9088SOL    HW138726   3.286   4.307   7.062 -0.2296  0.0474 -0.5571
 9088SOL    HW238727   3.231   4.439   7.019  0.7685  1.0638  0.4636
 9089SOL     OW38728   1.247   1.950   5.408 -0.3192 -0.3081 -1.1253
 9089SOL    HW138729   1.199   1.900   5.474 -1.7049 -1.5815 -3.0923
 9089SOL    HW238730   1.313   1.995   5.460  0.9467 -2.1956 -1.1205
 9090SOL     OW38731   3.866   1.305   7.217 -0.2575  0.2564 -0.2670
 9090SOL    HW138732   3.815   1.385   7.216 -0.7632 -0.0592  0.4237
 9090SOL    HW238733   3.936   1.335   7.159 -0.7484  1.3211 -0.2944
 9091SOL     OW38734   3.469   0.120   0.801  0.3905 -0.2115  0.4278
 9091SOL    HW138735   3.406   0.125   0.873  1.0392  2.1703  0.8535
 9091SOL    HW238736   3.546   0.167   0.832  0.0396  0.9086 -0.3780
 9092SOL     OW38737   2.457   0.999   1.182 -0.5025 -0.5043  0.1775
 9092SOL    HW138738   2.512   1.077   1.194  0.1179 -1.2418  2.1198
 9092SOL    HW238739   2.519   0.938   1.143 -0.4897 -0.0370 -0.5397
 9093SOL     OW38740   3.304   2.285   8.083  0.0878  0.5818 -0.0457
 9093SOL    HW138741   3.241   2.231   8.036  0.7293  0.7787 -1.1201
 9093SOL    HW238742   3.382   2.281   8.027 -1.5355  2.1125 -2.4256
 9094SOL     OW38743   4.481   3.421  10.996  0.0653  0.1086 -0.1156
 9094SOL    HW138744   4.491   3.509  10.960 -1.0450  0.2990  0.0370
 9094SOL    HW238745   4.534   3.439  11.074 -2.1380 -1.2299  1.7036
 9095SOL     OW38746   0.419   0.238   6.762  0.3166  0.5705 -0.7862
 9095SOL    HW138747   0.469   0.285   6.829 -0.1390 -1.1696  0.8042
 9095SOL    HW238748   0.369   0.313   6.732 -0.9034 -0.4907 -1.3962
 9096SOL     OW38749   0.233   2.878   8.622 -0.5321  0.4329 -0.0578
 9096SOL    HW138750   0.179   2.917   8.691  0.9631 -1.0047  1.9381
 9096SOL    HW238751   0.180   2.798   8.616  0.4411 -0.4205  2.8751
 9097SOL     OW38752   0.189   4.131   2.966  0.5181  0.2363 -0.2288
 9097SOL    HW138753   0.136   4.207   2.944  0.3247  0.2744  0.3717
 9097SOL    HW238754   0.239   4.134   2.884  0.7469 -2.0863 -0.1824
 9098SOL     OW38755   0.164   3.189  10.350  0.0930  0.0037  0.0228
 9098SOL    HW138756   0.208   3.105  10.363  1.6011  1.0533  1.7079
 9098SOL    HW238757   0.120   3.197  10.434 -0.0134 -2.3299  0.1795
 9099SOL     OW38758   3.029   3.373   0.510  0.0354  0.1334  0.2008
 9099SOL    HW138759   3.088   3.431   0.463 -1.5864  0.2751 -1.6826
 9099SOL    HW238760   3.058   3.291   0.469  0.0442 -0.6995  1.8469
 9100SOL     OW38761   2.408   0.425   7.439  0.6217  0.8139 -0.2530
 9100SOL    HW138762   2.399   0.336   7.406  0.6858  0.5579  0.4180
 9100SOL    HW238763   2.451   0.413   7.524 -2.6012 -0.4378  1.2126
 9101SOL     OW38764   2.102   2.671   8.369 -0.0003 -0.3048 -0.2622
 9101SOL    HW138765   2.116   2.673   8.463 -0.7871  3.2206 -0.2231
 9101SOL    HW238766   2.013   2.705   8.361 -0.0793 -0.5046 -0.2353
 9102SOL     OW38767   1.795   3.124   7.945 -0.0546 -0.0361  0.2670
 9102SOL    HW138768   1.722   3.107   7.886  0.7168 -1.0529 -0.3851
 9102SOL    HW238769   1.758   3.197   7.994 -1.6733 -1.4633  1.1271
 9103SOL     OW38770   3.064   4.631  16.920  0.2389 -0.3598  0.7298
 9103SOL    HW138771   3.153   4.664  16.932  0.2927  0.2401 -1.3671
 9103SOL    HW238772   3.082   4.542  16.892 -1.1148 -0.6918  0.9240
 9104SOL     OW38773   4.430   3.008   2.493 -0.5627  0.2136  0.5343
 9104SOL    HW138774   4.401   3.089   2.534 -3.7970  0.3421 -2.0697
 9104SOL    HW238775   4.524   3.014   2.511 -0.5656 -0.6444  0.8299
 9105SOL     OW38776   1.001   2.547   0.514  0.0686 -0.5012 -0.1499
 9105SOL    HW138777   1.078   2.558   0.457  0.4113  0.6233  0.5454
 9105SOL    HW238778   0.959   2.632   0.501  4.6656  1.8594  0.2393
 9106SOL     OW38779   2.187   3.677  17.304  0.5017  0.0598  0.1454
 9106SOL    HW138780   2.152   3.590  17.286 -0.5621  0.7755 -1.2789
 9106SOL    HW238781   2.111   3.699  17.357  0.3223 -0.4103  0.0862
 9107SOL     OW38782   2.927   2.739   4.835  0.5402  0.3376 -0.1206
 9107SOL    HW138783   3.016   2.719   4.805  1.1437  0.8386  1.3331
 9107SOL    HW238784   2.889   2.651   4.838  0.1122  0.5221 -0.0970
 9108SOL     OW38785   1.930   2.838   2.224 -0.1932  0.7486  0.3359
 9108SOL    HW138786   1.899   2.748   2.225 -3.6808  1.9102 -2.4320
 9108SOL    HW238787   1.850   2.884   2.249 -1.0686 -1.1588  0.9722
 9109SOL     OW38788   4.539   4.130   8.509 -0.2963 -0.4685  0.9444
 9109SOL    HW138789   4.484   4.206   8.526 -0.6028 -0.3296 -0.6639
 9109SOL    HW238790   4.626   4.170   8.504 -0.5003 -0.1338  0.1185
 9110SOL     OW38791   4.447   0.771  17.653 -0.4968  0.4960  0.0860
 9110SOL    HW138792   4.427   0.692   0.019  1.8317 -0.1684 -0.0650
 9110SOL    HW238793   4.537   0.756  17.626 -0.3781  1.0200  0.1943
 9111SOL     OW38794   4.471   4.604   6.789  0.2094 -0.0396 -0.7461
 9111SOL    HW138795   4.413   4.654   6.846  0.3518 -0.7204  0.0079
 9111SOL    HW238796   4.426   4.521   6.775 -0.8328  0.5184 -0.7075
 9112SOL     OW38797   3.133   1.586   1.176 -0.3777  0.3885  0.0468
 9112SOL    HW138798   3.136   1.493   1.197 -1.6659  1.0409  3.0272
 9112SOL    HW238799   3.096   1.623   1.256  1.8962 -0.8667  1.6831
 9113SOL     OW38800   0.115   1.934   6.872  0.4044 -0.2344  0.3214
 9113SOL    HW138801   0.032   1.942   6.824  0.7889  1.4427 -0.0522
 9113SOL    HW238802   0.155   1.858   6.828 -0.7109 -2.3515  2.9431
 9114SOL     OW38803   2.089   2.616   4.254 -0.0769  0.6955  0.1397
 9114SOL    HW138804   2.023   2.679   4.225 -0.2434  2.6439  4.7263
 9114SOL    HW238805   2.048   2.578   4.332 -1.5257  1.5896 -0.1778
 9115SOL     OW38806   0.148   0.248   4.601 -0.2547  0.2185 -0.4119
 9115SOL    HW138807   0.230   0.204   4.621  0.9800  3.7154  2.1262
 9115SOL    HW238808   0.152   0.273   4.509  0.8951  2.4028  0.2320
 9116SOL     OW38809   3.904   3.581   1.715  1.3113  0.0216  0.5038
 9116SOL    HW138810   3.974   3.603   1.653 -0.3257  0.6629 -1.1215
 9116SOL    HW238811   3.824   3.613   1.674  2.7167  1.0420 -1.4563
 9117SOL     OW38812   3.070   1.531   6.705 -0.7875  0.0208  0.4197
 9117SOL    HW138813   2.979   1.550   6.729 -0.9461 -0.3913  0.1325
 9117SOL    HW238814   3.061   1.499   6.615  0.4955  1.0207 -0.0638
 9118SOL     OW38815   0.748   4.460   2.681 -0.0945 -0.5754 -0.1677
 9118SOL    HW138816   0.820   4.420   2.633 -0.0439 -1.4179  0.6200
 9118SOL    HW238817   0.782   4.549   2.688  0.5130 -0.6972 -1.6683
 9119SOL     OW38818   0.220   4.274   1.824 -0.1655  0.5850  0.9526
 9119SOL    HW138819   0.222   4.272   1.919 -2.1067 -0.1161  0.9771
 9119SOL    HW238820   0.126   4.280   1.805 -0.3950 -1.1643  1.5051
 9120SOL     OW38821   3.163   3.187   4.246  0.3928  0.5762 -0.0786
 9120SOL    HW138822   3.154   3.164   4.154  2.6792  1.1395 -0.4513
 9120SOL    HW238823   3.134   3.278   4.247 -2.6367 -0.4186  0.1029
 9121SOL     OW38824   2.365   3.047   4.875  0.6852  0.2735 -0.1833
 9121SOL    HW138825   2.441   2.990   4.884 -0.5535 -1.0937  1.4849
 9121SOL    HW238826   2.298   2.990   4.837  0.9144  0.7584 -1.3118
 9122SOL     OW38827   3.389   3.226  13.202  0.6273 -0.3020 -0.7536
 9122SOL    HW138828   3.460   3.182  13.155  1.6271  0.4063  0.0888
 9122SOL    HW238829   3.320   3.219  13.137  1.3056  1.6179 -1.6850
 9123SOL     OW38830   2.259   2.819  17.206 -0.0797 -0.1843  0.0139
 9123SOL    HW138831   2.255   2.776  17.292  0.1402 -4.1025 -1.9443
 9123SOL    HW238832   2.352   2.804  17.186  0.5504 -0.2993  3.0624
 9124SOL     OW38833   2.545   4.204   9.046 -0.3528 -0.4272 -0.3731
 9124SOL    HW138834   2.581   4.144   8.981  0.4804 -0.3824  0.0556
 9124SOL    HW238835   2.600   4.282   9.037 -1.4064  0.4107  0.5505
 9125SOL     OW38836   0.274   3.149  16.535  0.1364  0.1194  0.4568
 9125SOL    HW138837   0.222   3.178  16.460  1.2766  1.2564  0.1041
 9125SOL    HW238838   0.363   3.176  16.513 -0.0658  1.3042  1.0898
 9126SOL     OW38839   3.905   2.244   1.998  0.0113  0.0376  0.1498
 9126SOL    HW138840   3.812   2.263   2.012  0.1674 -0.3597  1.7548
 9126SOL    HW238841   3.912   2.152   2.025  0.5252  0.4309  1.3431
 9127SOL     OW38842   3.521   0.063   6.297 -0.1102 -0.2732  0.1857
 9127SOL    HW138843   3.537   0.157   6.307 -2.2526 -0.0798  1.6890
 9127SOL    HW238844   3.603   0.031   6.257 -0.2910  0.1707 -0.5540
 9128SOL     OW38845   2.605   4.043  11.972  0.1840 -0.0702  0.4003
 9128SOL    HW138846   2.699   4.023  11.973  0.0735 -0.5665  0.6473
 9128SOL    HW238847   2.563   3.958  11.984  0.3750  0.0006  1.5441
 9129SOL     OW38848   0.153   1.786  14.603 -0.2139  0.3232  0.0036
 9129SOL    HW138849   0.182   1.816  14.689 -1.8653  0.2249  0.5922
 9129SOL    HW238850   0.057   1.782  14.607 -0.1986 -0.0794 -0.1185
 9130SOL     OW38851   2.987   2.706   7.285 -0.2356 -0.1004  0.1470
 9130SOL    HW138852   3.076   2.672   7.286  0.3017  1.2755 -1.2430
 9130SOL    HW238853   2.993   2.740   7.374  0.6335  0.9061 -0.2973
 9131SOL     OW38854   3.351   1.498   6.842  0.4507 -0.3794  0.1943
 9131SOL    HW138855   3.350   1.403   6.853 -3.6469 -0.4203 -0.3337
 9131SOL    HW238856   3.294   1.516   6.766 -1.0478 -0.4343  1.2979
 9132SOL     OW38857   3.634   1.458  16.057  0.0675  0.2678  0.3637
 9132SOL    HW138858   3.591   1.532  16.013 -1.2526 -0.1155  1.0193
 9132SOL    HW238859   3.707   1.441  15.998 -0.8534 -0.3814 -0.5868
 9133SOL     OW38860   0.395   1.928   1.631  0.2750  0.0003  0.2958
 9133SOL    HW138861   0.450   1.972   1.696  0.9215 -1.7603  0.9367
 9133SOL    HW238862   0.356   2.006   1.592 -1.7848 -1.1285  0.1145
 9134SOL     OW38863   2.316   0.788  15.169 -0.1267  0.8907 -0.0598
 9134SOL    HW138864   2.246   0.729  15.140 -0.1912 -0.1039  2.1134
 9134SOL    HW238865   2.323   0.758  15.260 -0.4404  2.2477  0.4135
 9135SOL     OW38866   1.648   3.101   7.503 -0.0214 -0.2962  0.2245
 9135SOL    HW138867   1.654   3.008   7.523  0.2043 -0.3086  0.0962
 9135SOL    HW238868   1.681   3.103   7.414  1.2150 -0.9203  0.6774
 9136SOL     OW38869   0.758   0.368  13.982 -0.0365 -0.5648 -0.1242
 9136SOL    HW138870   0.680   0.419  13.959 -0.9764 -2.0151 -0.1388
 9136SOL    HW238871   0.748   0.356  14.077 -2.4493 -1.5583 -0.5117
 9137SOL     OW38872   4.432   2.797  17.360  0.0950 -0.2447 -0.3612
 9137SOL    HW138873   4.503   2.859  17.379  1.5517 -1.6807 -1.1207
 9137SOL    HW238874   4.443   2.732  17.429  1.1552 -0.0397 -0.3310
 9138SOL     OW38875   4.282   2.094   4.260  0.5933  0.6606 -0.5046
 9138SOL    HW138876   4.219   2.023   4.269 -0.7345  1.7808 -0.9012
 9138SOL    HW238877   4.351   2.086   4.326  0.7165 -0.8615 -0.8184
 9139SOL     OW38878   3.413   0.155   3.670  0.8191 -0.3560 -0.8050
 9139SOL    HW138879   3.347   0.225   3.678  0.4964 -0.8252  0.5625
 9139SOL    HW238880   3.440   0.146   3.761 -1.1986  0.4840 -0.1110
 9140SOL     OW38881   1.870   3.366   7.349  0.2727 -1.1508 -0.2172
 9140SOL    HW138882   1.830   3.300   7.292 -0.3918 -1.4320  0.5678
 9140SOL    HW238883   1.795   3.407   7.392 -0.7362 -2.2079 -0.9687
 9141SOL     OW38884   0.727   1.799   3.374 -0.5965  0.1666 -0.7596
 9141SOL    HW138885   0.703   1.776   3.464  0.9026 -1.4617 -0.7877
 9141SOL    HW238886   0.642   1.837   3.351 -0.3435  1.1288 -0.1021
 9142SOL     OW38887   4.625   3.001   7.603  0.3824  0.1148 -0.2320
 9142SOL    HW138888   4.657   3.016   7.514 -2.7759 -1.5232 -1.6372
 9142SOL    HW238889   4.577   3.079   7.630  1.9449  1.1017 -0.2976
 9143SOL     OW38890   4.371   0.630   5.791 -0.4572 -0.4987  0.3992
 9143SOL    HW138891   4.295   0.615   5.847 -1.0811  0.6911 -0.1231
 9143SOL    HW238892   4.350   0.574   5.717 -1.1485  0.2669  0.0118
 9144SOL     OW38893   4.658   0.693  17.283 -0.4423  0.2382 -0.1300
 9144SOL    HW138894   0.004   0.697  17.214 -2.0236  1.1472 -1.5901
 9144SOL    HW238895   4.623   0.782  17.271 -1.3674  0.0524  1.2106
 9145SOL     OW38896   2.038   1.939   0.669 -0.1846 -0.2704 -0.6691
 9145SOL    HW138897   2.056   1.860   0.617 -0.3192  0.1055 -1.2798
 9145SOL    HW238898   2.127   1.975   0.671 -0.7234  1.0272 -0.3569
 9146SOL     OW38899   0.067   3.706   6.255  0.1702  0.3465  0.0733
 9146SOL    HW138900   0.122   3.780   6.281 -0.1629  0.4732  0.4244
 9146SOL    HW238901   4.700   3.733   6.283  0.1910 -0.3899  0.8540
 9147SOL     OW38902   3.782   0.666  11.799 -0.4398 -0.0305 -0.1228
 9147SOL    HW138903   3.705   0.658  11.743  0.8145 -0.1635 -1.8182
 9147SOL    HW238904   3.827   0.743  11.764  0.4119 -1.8918 -3.1446
 9148SOL     OW38905   3.415   1.391   6.187  0.0440  0.3458  0.2287
 9148SOL    HW138906   3.495   1.386   6.239 -1.4202 -3.6828  2.0864
 9148SOL    HW238907   3.431   1.329   6.116  0.1150 -0.8422  1.2748
 9149SOL     OW38908   1.619   1.051   5.006  0.5036  0.2867  0.4630
 9149SOL    HW138909   1.576   1.121   5.055  1.2119  0.0094  1.4763
 9149SOL    HW238910   1.563   0.976   5.024  1.1680  0.2428  2.3701
 9150SOL     OW38911   1.557   3.790   4.880 -0.0439 -0.3931 -0.6069
 9150SOL    HW138912   1.608   3.729   4.826 -1.2515  0.2594 -2.4885
 9150SOL    HW238913   1.626   3.804   4.944  0.6527  1.9455 -1.8667
 9151SOL     OW38914   3.100   3.574   6.137  0.5103 -0.0123  0.1547
 9151SOL    HW138915   3.021   3.620   6.109 -0.1315 -1.5125 -0.5398
 9151SOL    HW238916   3.075   3.481   6.129 -0.5814  0.4590 -1.9256
 9152SOL     OW38917   2.307   3.932   9.865 -0.2535 -0.0229 -0.6971
 9152SOL    HW138918   2.338   3.950   9.954 -0.0534  0.7140 -0.9173
 9152SOL    HW238919   2.252   3.860   9.895 -0.4951  1.6239  2.9397
 9153SOL     OW38920   4.072   0.811  13.136  0.2625  0.3129  0.5743
 9153SOL    HW138921   4.159   0.821  13.096  0.9294 -4.3848  0.9066
 9153SOL    HW238922   4.084   0.872  13.210  1.9858  0.2910  0.3197
 9154SOL     OW38923   1.934   2.509   2.518  0.1891  0.3488 -0.1588
 9154SOL    HW138924   1.992   2.553   2.579  0.9896 -1.8722  0.6385
 9154SOL    HW238925   1.846   2.545   2.533 -0.4680 -1.0056 -0.7361
 9155SOL     OW38926   1.753   4.078  11.294 -0.3135 -0.5143 -0.2612
 9155SOL    HW138927   1.745   4.097  11.387 -0.1224 -2.0086  0.0654
 9155SOL    HW238928   1.844   4.047  11.290 -0.5497 -1.0060 -1.7342
 9156SOL     OW38929   2.980   0.566  11.806 -0.0250 -0.3957  0.5241
 9156SOL    HW138930   3.042   0.527  11.745  1.3533 -0.0743  1.7048
 9156SOL    HW238931   2.906   0.506  11.807 -0.6670  0.3768 -0.4503
 9157SOL     OW38932   1.039   1.874  13.413 -0.4916  1.7955 -0.1145
 9157SOL    HW138933   1.106   1.812  13.385 -2.0675  0.3833 -0.7730
 9157SOL    HW238934   1.006   1.906  13.329  0.4249 -0.8934 -1.4815
 9158SOL     OW38935   1.384   1.862   5.782 -0.1973 -0.9238  0.3980
 9158SOL    HW138936   1.463   1.914   5.793 -1.9656  1.9633 -0.5784
 9158SOL    HW238937   1.421   1.774   5.779  2.1512  0.0893 -0.5105
 9159SOL     OW38938   2.787   2.168   5.666  0.0282 -0.1122  0.9630
 9159SOL    HW138939   2.833   2.251   5.680  0.8136 -0.5331  0.8897
 9159SOL    HW238940   2.711   2.204   5.620  1.5233  1.6991 -0.0942
 9160SOL     OW38941   2.337   2.517  11.096  0.3351 -0.5564  0.3089
 9160SOL    HW138942   2.339   2.528  11.191 -0.5317 -1.1483  0.3961
 9160SOL    HW238943   2.305   2.604  11.072  1.0883 -0.6241 -0.9039
 9161SOL     OW38944   0.707   2.148   6.016  0.1096  0.8097  0.4735
 9161SOL    HW138945   0.695   2.085   5.945  2.5714  0.5213  0.3110
 9161SOL    HW238946   0.787   2.178   5.974 -1.4932 -0.0999 -3.1914
 9162SOL     OW38947   0.474   3.297   2.456  0.1998  0.4370 -0.4226
 9162SOL    HW138948   0.410   3.228   2.439  0.7502  0.1768 -1.4619
 9162SOL    HW238949   0.548   3.265   2.404  1.5864 -1.6085  2.8095
 9163SOL     OW38950   3.200   0.383   4.484 -0.5052 -0.6104  0.3089
 9163SOL    HW138951   3.203   0.300   4.436  0.6067 -0.0266 -0.6381
 9163SOL    HW238952   3.201   0.368   4.578 -2.0201 -1.6061  0.1742
 9164SOL     OW38953   4.001   4.312   1.500  0.2728  0.0904 -0.2368
 9164SOL    HW138954   3.956   4.348   1.576  0.9599 -0.0966  0.2566
 9164SOL    HW238955   3.939   4.334   1.430  0.1984  0.0117 -0.1956
 9165SOL     OW38956   2.122   3.581   2.380 -0.0659 -0.3791 -0.3596
 9165SOL    HW138957   2.183   3.645   2.344 -4.2080  3.0804 -1.3497
 9165SOL    HW238958   2.040   3.626   2.359  1.1034  1.2396 -1.4778
 9166SOL     OW38959   4.208   0.163   6.442  0.0659 -0.5506  0.1488
 9166SOL    HW138960   4.134   0.116   6.482  0.2161 -0.6904  0.2647
 9166SOL    HW238961   4.284   0.120   6.481  0.9752  1.3069  0.4356
 9167SOL     OW38962   0.925   4.434   2.373  0.0525  0.4547 -0.0070
 9167SOL    HW138963   0.890   4.523   2.368  0.6193  0.6915  0.3003
 9167SOL    HW238964   0.964   4.452   2.458  2.8685 -0.6024 -1.0655
 9168SOL     OW38965   0.838   3.854   3.614  0.8031 -0.1556 -0.6841
 9168SOL    HW138966   0.848   3.778   3.672  0.4986 -1.1230 -1.8749
 9168SOL    HW238967   0.867   3.821   3.528 -0.7645  0.2705 -1.3863
 9169SOL     OW38968   3.174   1.153   6.907 -0.4923 -0.0100 -0.4272
 9169SOL    HW138969   3.096   1.208   6.905  0.9279  2.0086 -0.5753
 9169SOL    HW238970   3.137   1.070   6.937  0.0069  0.2097  0.7966
 9170SOL     OW38971   1.516   2.730   6.300 -0.0322 -0.1979 -0.1997
 9170SOL    HW138972   1.525   2.766   6.388 -0.7254  0.9238 -0.5755
 9170SOL    HW238973   1.595   2.770   6.263  0.5111  0.8417  2.0769
 9171SOL     OW38974   3.874   3.222   5.994  0.2555 -0.1970  0.4966
 9171SOL    HW138975   3.935   3.262   6.055  0.8135  1.0424 -0.8795
 9171SOL    HW238976   3.839   3.147   6.043  0.4391  0.3743  1.5024
 9172SOL     OW38977   4.639   1.263   0.586  0.3229 -0.8514 -0.2748
 9172SOL    HW138978   4.596   1.192   0.632  0.9390 -0.2114  1.2804
 9172SOL    HW238979   4.576   1.278   0.515  0.8253 -0.1444 -0.5760
 9173SOL     OW38980   0.183   1.338   4.203  0.2571 -0.3922  0.0033
 9173SOL    HW138981   0.097   1.377   4.217  0.0240 -0.3672 -1.4852
 9173SOL    HW238982   0.168   1.256   4.157 -0.8678 -0.1240 -0.1046
 9174SOL     OW38983   0.057   4.429   6.097  0.3090  0.1275 -0.3403
 9174SOL    HW138984   0.005   4.464   6.170  0.7742 -0.2014  0.1411
 9174SOL    HW238985   0.141   4.470   6.119  0.8803 -1.9673  1.3307
 9175SOL     OW38986   4.427   2.143   9.455 -0.0478  0.1971  0.2541
 9175SOL    HW138987   4.370   2.147   9.377  0.1795 -2.8747 -0.0923
 9175SOL    HW238988   4.497   2.207   9.444  0.8655 -1.3218 -2.7404
 9176SOL     OW38989   4.314   1.108   9.230  0.0477 -0.4959 -0.0971
 9176SOL    HW138990   4.311   1.019   9.194 -1.2108 -0.1728 -0.8066
 9176SOL    HW238991   4.311   1.150   9.144 -0.1505  1.9959  1.1223
 9177SOL     OW38992   3.781   1.222   4.343  0.0522  0.2718  0.3984
 9177SOL    HW138993   3.746   1.245   4.257 -1.6617  0.1650  1.0723
 9177SOL    HW238994   3.723   1.147   4.357 -0.7004  0.8817  0.5423
 9178SOL     OW38995   2.468   3.547   3.477 -0.3184 -0.1210 -0.2663
 9178SOL    HW138996   2.498   3.626   3.522 -0.5294 -0.0360 -0.2714
 9178SOL    HW238997   2.379   3.576   3.457  0.3692  2.3768  0.1869
 9179SOL     OW38998   2.079   1.320   5.938  0.0799  0.0525  0.2934
 9179SOL    HW138999   2.019   1.259   5.896 -0.5420  0.9240 -0.0874
 9179SOL    HW239000   2.018   1.341   6.009  2.0807  1.4117  1.6167
 9180SOL     OW39001   1.655   0.637   6.083  0.3025  0.4751 -0.3126
 9180SOL    HW139002   1.723   0.593   6.134 -0.1641 -1.0224 -0.9990
 9180SOL    HW239003   1.594   0.564   6.074  0.8259 -0.0888  0.7503
 9181SOL     OW39004   0.985   3.329   0.259 -0.4513  0.5996 -0.1004
 9181SOL    HW139005   0.969   3.416   0.294 -1.6808  0.3408  0.0012
 9181SOL    HW239006   1.067   3.344   0.213 -0.4740 -3.7743 -1.5636
 9182SOL     OW39007   2.357   4.283  13.562  0.0389  0.0411  0.1045
 9182SOL    HW139008   2.353   4.188  13.568 -1.1348  0.1969  1.7505
 9182SOL    HW239009   2.297   4.306  13.633 -1.9014  1.2268 -1.9225
 9183SOL     OW39010   1.580   2.376  10.546  1.1072 -0.6480 -0.0585
 9183SOL    HW139011   1.518   2.386  10.619  2.8690  0.3666  1.3039
 9183SOL    HW239012   1.576   2.280  10.540 -1.6541 -0.5037 -0.5992
 9184SOL     OW39013   4.279   3.768  14.598  0.0682  0.4709 -0.0807
 9184SOL    HW139014   4.271   3.720  14.516 -0.4721 -0.0888  0.3078
 9184SOL    HW239015   4.318   3.849  14.564  1.5935 -0.7550 -1.2634
 9185SOL     OW39016   3.812   3.760   1.512  0.1085 -0.5651 -0.0002
 9185SOL    HW139017   3.889   3.725   1.468 -2.5328 -2.8486 -2.8078
 9185SOL    HW239018   3.834   3.854   1.510  2.5969 -1.1109  2.5481
 9186SOL     OW39019   1.593   3.873  14.160  0.2316 -0.3499 -0.1666
 9186SOL    HW139020   1.582   3.932  14.085  0.2161 -0.8566 -0.5567
 9186SOL    HW239021   1.509   3.873  14.205  1.8734 -2.2795  2.8884
 9187SOL     OW39022   2.192   3.979   2.161  0.1752  0.4252  0.2981
 9187SOL    HW139023   2.254   4.048   2.187  0.2114  1.4569 -2.4704
 9187SOL    HW239024   2.109   4.014   2.193  0.0806 -0.7705  1.3503
 9188SOL     OW39025   2.394   4.699   3.086  0.0167 -0.2186  0.1835
 9188SOL    HW139026   2.356   4.662   3.166  0.3119 -1.3619 -0.1963
 9188SOL    HW239027   2.336   4.651   3.027 -0.1300 -1.6907  1.5247
 9189SOL     OW39028   4.594   4.529   6.254  0.5373 -0.8446 -0.3404
 9189SOL    HW139029   4.585   4.624   6.247  1.1715 -0.8288 -0.9425
 9189SOL    HW239030   4.516   4.502   6.205 -0.9909  0.0385  1.6013
 9190SOL     OW39031   4.437   2.289   7.981  0.1309 -0.2232  0.5832
 9190SOL    HW139032   4.500   2.345   8.026 -0.5278 -0.0756  1.3265
 9190SOL    HW239033   4.355   2.336   7.995  0.4394  0.7046 -0.8039
 9191SOL     OW39034   0.517   4.169  11.556  0.0060 -0.4632  0.2395
 9191SOL    HW139035   0.506   4.103  11.488  0.2728  0.1942 -0.4414
 9191SOL    HW239036   0.426   4.198  11.562 -0.3800 -1.1664 -2.3815
 9192SOL     OW39037   1.659   3.580  11.200  0.7320 -0.1106  0.3520
 9192SOL    HW139038   1.646   3.673  11.181 -2.4019 -1.2484 -2.9614
 9192SOL    HW239039   1.750   3.580  11.170 -0.2620 -0.4179 -2.6709
 9193SOL     OW39040   0.230   2.122   5.732 -0.5112 -1.0876 -0.5156
 9193SOL    HW139041   0.138   2.118   5.758  0.3957 -1.6655  2.6029
 9193SOL    HW239042   0.228   2.212   5.700 -0.9915 -1.4882 -1.5991
 9194SOL     OW39043   3.896   4.512  17.334  0.1015 -0.3719 -0.3627
 9194SOL    HW139044   3.867   4.602  17.349 -1.3704 -1.1414  1.3192
 9194SOL    HW239045   3.943   4.507  17.417 -0.2094  1.2300 -0.0914
 9195SOL     OW39046   2.929   4.291   3.561  0.1613  0.8007 -0.5964
 9195SOL    HW139047   3.020   4.302   3.534  1.5368 -1.3194  3.1327
 9195SOL    HW239048   2.896   4.271   3.474  0.2378  0.7865 -0.6222
 9196SOL     OW39049   2.011   4.670   7.065  0.0917 -0.1095  0.0210
 9196SOL    HW139050   2.092   4.683   7.015  0.5512  2.0214  1.3079
 9196SOL    HW239051   2.012   0.011   7.139  0.8147  0.4578 -0.4614
 9197SOL     OW39052   2.136   3.845   5.637 -0.3988  0.2026 -0.2357
 9197SOL    HW139053   2.190   3.770   5.613  2.0017  1.2424  1.8939
 9197SOL    HW239054   2.078   3.804   5.701  0.9046  0.2831  1.0056
 9198SOL     OW39055   2.332   3.454   6.697  0.4427  0.4915 -0.9731
 9198SOL    HW139056   2.255   3.500   6.664  1.6134  2.9181 -0.2939
 9198SOL    HW239057   2.355   3.393   6.626 -0.4799  0.3553 -1.1451
 9199SOL     OW39058   2.653   0.863   1.066 -0.3010 -0.5029  0.1562
 9199SOL    HW139059   2.642   0.794   1.001 -0.4778 -1.1267  0.8480
 9199SOL    HW239060   2.728   0.823   1.111 -1.5722 -1.5506  1.3312
 9200SOL     OW39061   0.823   2.607   6.067  0.0122 -0.3620  0.0648
 9200SOL    HW139062   0.796   2.692   6.030  2.2819  0.4007  0.1330
 9200SOL    HW239063   0.749   2.557   6.033  0.1037  1.2734 -2.6021
 9201SOL     OW39064   4.301   2.098  17.603 -0.4291 -0.1040  0.5262
 9201SOL    HW139065   4.212   2.065  17.617 -0.7028 -0.2800 -1.5308
 9201SOL    HW239066   4.345   2.075  17.684 -0.2808  1.7156  0.9483
 9202SOL     OW39067   4.361   3.913  16.009 -0.9352  0.5899  0.5114
 9202SOL    HW139068   4.425   3.969  15.964 -1.5367 -0.6057 -1.8230
 9202SOL    HW239069   4.285   3.930  15.954 -0.8621  1.2871  0.6243
 9203SOL     OW39070   3.840   3.391   7.461  0.0456 -0.2069 -0.6006
 9203SOL    HW139071   3.828   3.466   7.520 -0.2536  0.1712 -1.1391
 9203SOL    HW239072   3.749   3.362   7.450 -0.3264  1.0587 -0.9282
 9204SOL     OW39073   4.015   4.215   5.677 -0.0849 -0.0264  0.1305
 9204SOL    HW139074   4.110   4.205   5.675 -0.0350  0.4120  0.3770
 9204SOL    HW239075   4.015   4.304   5.642  0.7516 -0.4968 -1.0493
 9205SOL     OW39076   3.627   4.007   5.218 -0.1614  0.8752  0.5095
 9205SOL    HW139077   3.707   3.985   5.170 -1.4920 -0.6175 -0.9689
 9205SOL    HW239078   3.617   3.927   5.270 -0.9248 -0.1268 -1.1785
 9206SOL     OW39079   0.293   0.965   7.184 -0.4269  0.3294 -0.3650
 9206SOL    HW139080   0.318   1.058   7.183  3.2501 -0.6591 -0.8385
 9206SOL    HW239081   0.377   0.923   7.203 -0.1807  1.7112  1.6938
 9207SOL     OW39082   2.508   3.230   4.738 -0.2153 -0.7618  0.1528
 9207SOL    HW139083   2.591   3.238   4.785 -0.4103  3.5962 -0.2413
 9207SOL    HW239084   2.463   3.166   4.794  0.8657 -1.2756  0.4453
 9208SOL     OW39085   2.114   0.665   4.474 -0.2225 -0.1897  0.3517
 9208SOL    HW139086   2.093   0.755   4.450  0.2506  0.0624  0.8864
 9208SOL    HW239087   2.209   0.668   4.486 -0.1017 -2.8053 -0.0211
 9209SOL     OW39088   2.267   2.110   4.980  0.1916  0.0528  0.3588
 9209SOL    HW139089   2.253   2.154   5.064 -2.6181  0.8596 -0.5241
 9209SOL    HW239090   2.252   2.180   4.917 -0.0235  1.6176  2.1569
 9210SOL     OW39091   3.537   0.827  15.022 -0.0104  0.0413 -0.0863
 9210SOL    HW139092   3.595   0.887  15.069 -1.2415  3.1937 -2.5844
 9210SOL    HW239093   3.560   0.856  14.934 -0.3988 -2.6119 -1.0375
 9211SOL     OW39094   3.063   4.449   0.822  0.3046 -0.5303 -0.4089
 9211SOL    HW139095   3.034   4.514   0.885 -0.6718 -1.2499 -0.1200
 9211SOL    HW239096   3.049   4.361   0.857 -1.1458  0.5776  1.7689
 9212SOL     OW39097   0.577   1.319   5.035  0.0338  0.2056  0.4584
 9212SOL    HW139098   0.623   1.378   4.974 -1.5163  0.5226 -0.3892
 9212SOL    HW239099   0.567   1.240   4.982 -0.4914 -0.4401  1.5300
 9213SOL     OW39100   1.086   3.460  11.863  0.0835 -0.7324 -0.0337
 9213SOL    HW139101   1.167   3.464  11.913  0.6418  0.6292 -1.0350
 9213SOL    HW239102   1.046   3.379  11.893 -0.8923 -0.9644 -1.9629
 9214SOL     OW39103   3.147   3.502  16.727 -0.0086 -0.1931 -0.0996
 9214SOL    HW139104   3.127   3.505  16.821  1.6071  1.0429  0.2068
 9214SOL    HW239105   3.242   3.515  16.726 -0.2263  1.3034 -0.6381
 9215SOL     OW39106   1.441   2.013  14.857  0.0692 -0.1448 -0.0563
 9215SOL    HW139107   1.479   1.927  14.841 -1.9805 -0.6806 -2.0739
 9215SOL    HW239108   1.348   1.993  14.865 -0.0667  1.5139  2.3190
 9216SOL     OW39109   0.802   3.695   6.992  0.5455  0.7246 -0.0662
 9216SOL    HW139110   0.892   3.664   6.998  0.0861 -0.3225  1.3598
 9216SOL    HW239111   0.769   3.680   6.903  1.2113 -0.1242 -0.1677
 9217SOL     OW39112   4.042   3.936  15.623  0.1191 -0.4857 -0.3477
 9217SOL    HW139113   3.964   3.886  15.601 -1.4657  1.2381  1.3286
 9217SOL    HW239114   4.066   3.965  15.535 -0.3526 -0.4025 -0.4483
 9218SOL     OW39115   0.635   1.419  13.388  0.2305  0.1674 -0.0946
 9218SOL    HW139116   0.703   1.364  13.428  1.1610  0.6186 -1.0283
 9218SOL    HW239117   0.560   1.396  13.442 -0.0656  0.8711 -0.2143
 9219SOL     OW39118   0.710   1.897   5.804  0.2182 -0.3515  0.4100
 9219SOL    HW139119   0.662   1.978   5.788  1.0509 -0.0808 -0.7198
 9219SOL    HW239120   0.756   1.877   5.722  0.9938 -2.8052  1.4248
 9220SOL     OW39121   0.771   3.715   1.428  0.0363  0.6303 -0.3980
 9220SOL    HW139122   0.792   3.749   1.515 -0.2392 -0.7399  0.2021
 9220SOL    HW239123   0.676   3.701   1.432  0.5903 -2.6211  0.9944
 9221SOL     OW39124   1.706   3.643  15.319  0.0935 -0.1173  0.3398
 9221SOL    HW139125   1.655   3.658  15.240  1.1655  0.5368 -0.2349
 9221SOL    HW239126   1.767   3.582  15.277 -0.0425  0.1510 -0.2478
 9222SOL     OW39127   0.320   3.605   4.448  0.4821  0.2633  0.3734
 9222SOL    HW139128   0.349   3.549   4.376  1.4449  0.9866  0.1997
 9222SOL    HW239129   0.266   3.671   4.405  3.0966  1.8025 -0.5394
 9223SOL     OW39130   2.332   0.070  16.128  0.1470  0.0014  0.1506
 9223SOL    HW139131   2.315   0.046  16.219  2.1526 -2.8887 -0.2396
 9223SOL    HW239132   2.350   4.703  16.095  1.0698  0.1886  0.1564
 9224SOL     OW39133   2.905   0.764   9.053  0.2247 -0.1979 -0.2523
 9224SOL    HW139134   2.860   0.839   9.092  2.1631  1.6600 -1.5798
 9224SOL    HW239135   2.895   0.702   9.125  2.6131 -0.0272  0.2300
 9225SOL     OW39136   2.561   1.143   2.528 -0.2684  0.2766  0.8903
 9225SOL    HW139137   2.603   1.118   2.445  0.1552  1.7921  0.6626
 9225SOL    HW239138   2.641   1.151   2.580 -0.4937  0.2760  1.2374
 9226SOL     OW39139   4.391   3.071   8.405  0.1281 -0.1433 -0.0429
 9226SOL    HW139140   4.377   3.032   8.318  4.0228  1.1555 -1.2401
 9226SOL    HW239141   4.374   2.994   8.459  2.0081 -1.0718 -0.7781
 9227SOL     OW39142   0.306   0.828   4.811 -0.3426 -0.2766 -0.1757
 9227SOL    HW139143   0.336   0.816   4.901 -0.2390  1.7490  0.0661
 9227SOL    HW239144   0.212   0.818   4.828  0.0115  1.6277  2.8186
 9228SOL     OW39145   0.772   2.693   8.441  0.2626 -0.6574  0.1992
 9228SOL    HW139146   0.746   2.688   8.533  0.3145 -1.6549  0.1579
 9228SOL    HW239147   0.718   2.769   8.422  0.7486 -0.0305  1.3216
 9229SOL     OW39148   4.181   0.929  13.363 -1.3241  0.6128  0.2242
 9229SOL    HW139149   4.267   0.894  13.340 -1.0798  0.8753  0.7291
 9229SOL    HW239150   4.174   1.018  13.327 -1.3897 -0.6729 -3.0101
 9230SOL     OW39151   3.442   0.127   9.204  0.1739  0.4737 -0.4827
 9230SOL    HW139152   3.487   0.181   9.139 -0.2576  0.3069 -0.9156
 9230SOL    HW239153   3.350   0.145   9.186  0.6745  1.2045 -2.3542
 9231SOL     OW39154   1.872   1.586  12.894 -0.4683 -0.5732 -0.0200
 9231SOL    HW139155   1.781   1.614  12.904 -0.7041 -1.0033 -0.9691
 9231SOL    HW239156   1.884   1.518  12.960  0.3141 -2.7780 -2.4384
 9232SOL     OW39157   3.773   2.640   7.442  0.3377  0.1181 -0.4983
 9232SOL    HW139158   3.785   2.548   7.418  2.4687  0.1753  0.2891
 9232SOL    HW239159   3.862   2.645   7.477  0.7746  2.9317 -2.0701
 9233SOL     OW39160   3.393   2.814   8.202 -0.0925  0.2550  0.1318
 9233SOL    HW139161   3.437   2.787   8.283 -1.0347 -1.1509  0.1767
 9233SOL    HW239162   3.400   2.733   8.152 -1.1811  1.2219 -1.5708
 9234SOL     OW39163   0.536   2.904   4.550  0.4617 -0.3027  0.4386
 9234SOL    HW139164   0.511   2.937   4.636 -1.8853 -0.9748  0.0121
 9234SOL    HW239165   0.453   2.863   4.526  0.5599 -0.0458 -0.3374
 9235SOL     OW39166   1.280   1.936   3.414 -0.0760  0.7008  0.1502
 9235SOL    HW139167   1.221   1.905   3.346  0.8617  0.0856 -0.3650
 9235SOL    HW239168   1.304   2.025   3.389  1.3133 -0.5269 -2.8579
 9236SOL     OW39169   0.157   4.596   4.729 -0.3989  0.3880  0.5556
 9236SOL    HW139170   0.230   4.536   4.736  0.1941  1.0532  0.1256
 9236SOL    HW239171   0.178   4.675   4.779  3.4826  0.3089 -0.9972
 9237SOL     OW39172   1.037   2.944  12.434  0.0835 -0.0956 -0.3010
 9237SOL    HW139173   1.124   2.972  12.463  0.0812  0.8050 -1.1759
 9237SOL    HW239174   1.052   2.928  12.341  0.5330  1.3365 -0.4770
 9238SOL     OW39175   1.337   3.699   4.744 -0.2673  0.7580  0.0141
 9238SOL    HW139176   1.401   3.723   4.811 -0.0899  1.4394 -0.3968
 9238SOL    HW239177   1.391   3.639   4.692  0.4840 -0.2957  2.0240
 9239SOL     OW39178   3.849   2.569   8.834 -0.1736 -1.0345  0.1579
 9239SOL    HW139179   3.900   2.651   8.835  0.2946 -1.2974 -2.1315
 9239SOL    HW239180   3.823   2.561   8.926  0.5343 -0.2194  0.4370
 9240SOL     OW39181   1.243   3.212   3.374  0.1154  0.7343  0.1574
 9240SOL    HW139182   1.264   3.282   3.312  3.2229  1.4527  2.0189
 9240SOL    HW239183   1.154   3.244   3.387 -0.7670 -1.0288 -1.5235
 9241SOL     OW39184   3.283   3.698   3.019  0.2230 -0.0381  0.2853
 9241SOL    HW139185   3.324   3.612   3.011 -1.0271 -0.5852 -0.2468
 9241SOL    HW239186   3.359   3.751   3.042 -0.5370  0.2292  2.1108
 9242SOL     OW39187   3.589   1.160  11.109 -0.3506  0.7573  0.0288
 9242SOL    HW139188   3.598   1.239  11.055 -0.7259  0.1992 -0.8523
 9242SOL    HW239189   3.655   1.101  11.074 -0.2727  1.4471 -0.9978
 9243SOL     OW39190   4.004   1.931   7.322  0.0888 -0.6680 -0.0125
 9243SOL    HW139191   4.077   1.965   7.373 -0.7580  1.1245 -0.0102
 9243SOL    HW239192   3.958   1.881   7.389 -0.2195 -2.6603 -1.6667
 9244SOL     OW39193   0.468   3.164   3.416 -0.5895  0.1471  0.3951
 9244SOL    HW139194   0.381   3.131   3.395 -0.2535 -1.5739  1.7260
 9244SOL    HW239195   0.506   3.098   3.473  0.9987  1.8426  1.3197
 9245SOL     OW39196   2.618   3.760  14.147 -0.2664  0.2854 -0.2139
 9245SOL    HW139197   2.524   3.773  14.132 -0.6278 -1.9035  0.0544
 9245SOL    HW239198   2.632   3.683  14.091  1.8918  0.2714  0.3468
 9246SOL     OW39199   3.371   1.995   3.315 -0.3602 -0.0327  0.1188
 9246SOL    HW139200   3.307   1.924   3.321 -1.1139  0.7239  0.9867
 9246SOL    HW239201   3.403   1.997   3.405 -0.3159 -1.1464  0.1240
 9247SOL     OW39202   2.903   4.170  10.237  0.2757 -0.1520 -0.5067
 9247SOL    HW139203   2.955   4.111  10.292  0.8464  0.3550 -0.4909
 9247SOL    HW239204   2.849   4.226  10.292  1.0338 -1.6176  1.7118
 9248SOL     OW39205   3.578   3.008  16.677 -0.1416 -0.0017 -0.4290
 9248SOL    HW139206   3.488   3.027  16.652  0.1687  0.5271 -1.1223
 9248SOL    HW239207   3.614   3.096  16.667 -0.2205  0.2202  1.2295
 9249SOL     OW39208   1.469   3.485   4.597  0.3592 -0.7117  0.6444
 9249SOL    HW139209   1.474   3.455   4.506  0.6294  0.1756  0.3638
 9249SOL    HW239210   1.384   3.447   4.620 -0.6922  1.9790  1.1734
 9250SOL     OW39211   0.004   2.320   6.869 -0.0007 -0.6605 -0.3810
 9250SOL    HW139212   0.061   2.270   6.926  1.4575  0.5555 -0.7631
 9250SOL    HW239213   0.043   2.294   6.786  1.5152  1.4392 -0.3226
 9251SOL     OW39214   4.059   4.478   4.023  0.2961  0.4269  0.1513
 9251SOL    HW139215   4.043   4.464   4.116  0.5610 -0.5566  0.0482
 9251SOL    HW239216   4.125   4.545   4.040  0.1361  0.8712 -0.9654
 9252SOL     OW39217   3.168   2.213   1.090 -0.3270 -0.0988 -0.4305
 9252SOL    HW139218   3.197   2.269   1.019  2.3187 -1.7138 -0.6418
 9252SOL    HW239219   3.072   2.215   1.087 -0.3104  0.3214 -0.6057
 9253SOL     OW39220   3.293   0.066   5.709 -0.5778  0.1481  0.2264
 9253SOL    HW139221   3.210   0.059   5.662 -0.0379  1.6274 -0.9106
 9253SOL    HW239222   3.261   0.130   5.772 -0.5373 -1.4669  1.8877
 9254SOL     OW39223   3.822   4.536   2.015 -0.0324 -0.3272  0.0472
 9254SOL    HW139224   3.863   4.531   1.929 -1.4350 -1.4812 -0.5550
 9254SOL    HW239225   3.809   4.442   2.024  0.9609 -0.4041  0.7109
 9255SOL     OW39226   1.133   4.264   3.684  0.1277  0.0588 -0.2762
 9255SOL    HW139227   1.074   4.192   3.707 -0.5107  1.0417  1.1638
 9255SOL    HW239228   1.070   4.332   3.656 -0.0291 -0.0611 -0.2160
 9256SOL     OW39229   2.504   1.181  13.729 -0.4202 -0.3490 -0.1114
 9256SOL    HW139230   2.544   1.178  13.816 -1.0312  0.9955  0.2160
 9256SOL    HW239231   2.414   1.157  13.753 -1.0069  1.2450 -0.6608
 9257SOL     OW39232   4.646   4.623  12.588 -0.4477 -0.0243 -0.2340
 9257SOL    HW139233   4.698   4.584  12.659 -1.1443  0.7548  0.7116
 9257SOL    HW239234   4.696   4.698  12.557  0.5950 -1.1816 -1.3181
 9258SOL     OW39235   1.036   3.421   3.367 -0.0464 -0.4031 -0.3312
 9258SOL    HW139236   0.987   3.502   3.354  0.0125 -0.3310 -0.1084
 9258SOL    HW239237   1.023   3.423   3.462 -0.3743  0.9652 -0.4129
 9259SOL     OW39238   3.229   4.424   4.607 -0.1088 -0.4849  0.4048
 9259SOL    HW139239   3.229   4.402   4.700  0.4785 -0.8640  0.3130
 9259SOL    HW239240   3.300   4.366   4.578  0.4764  0.5221 -0.1977
 9260SOL     OW39241   4.648   1.863   7.859  0.7263 -0.2216  0.3162
 9260SOL    HW139242   0.020   1.875   7.836  0.4627  1.7387  0.2906
 9260SOL    HW239243   4.640   1.950   7.899 -0.5989 -0.0476 -0.3323
 9261SOL     OW39244   1.649   2.496  16.351 -0.3184  0.1018 -0.4238
 9261SOL    HW139245   1.611   2.494  16.439  0.9269 -1.5783  0.0910
 9261SOL    HW239246   1.711   2.425  16.370 -0.1244  0.1654 -0.8193
 9262SOL     OW39247   1.826   1.024   8.182 -0.1952  0.2536  0.2035
 9262SOL    HW139248   1.883   1.038   8.106 -0.3216  1.3203  0.3075
 9262SOL    HW239249   1.752   0.978   8.141 -0.8923 -0.7123  2.5644
 9263SOL     OW39250   3.553   1.025   4.899 -0.2162  0.0019  0.1210
 9263SOL    HW139251   3.569   0.981   4.816 -0.6037  0.3938 -0.1597
 9263SOL    HW239252   3.598   0.963   4.957  1.0781  1.6396  0.8677
 9264SOL     OW39253   2.826   1.101   8.776 -0.0285  0.0378  0.3763
 9264SOL    HW139254   2.743   1.099   8.824 -0.0079 -0.0999  0.4047
 9264SOL    HW239255   2.889   1.128   8.844  1.3020 -1.5614 -0.2441
 9265SOL     OW39256   2.633   0.454  17.317 -0.4963 -0.1614 -0.2019
 9265SOL    HW139257   2.727   0.464  17.329 -0.7984 -0.1664  2.0511
 9265SOL    HW239258   2.611   0.403  17.394 -0.5352  0.7348  0.3805
 9266SOL     OW39259   0.563   2.778   0.632 -0.2954  0.2410 -0.5844
 9266SOL    HW139260   0.473   2.766   0.601 -0.7470 -0.8037  1.1433
 9266SOL    HW239261   0.560   2.740   0.720 -1.3866 -0.5857 -0.9738
 9267SOL     OW39262   4.122   1.104   8.701 -0.2798  0.4566 -0.2987
 9267SOL    HW139263   4.030   1.086   8.687  0.4465 -4.1565  1.0561
 9267SOL    HW239264   4.152   1.116   8.611 -0.0634 -0.5446 -0.3613
 9268SOL     OW39265   0.749   4.336   2.915  0.1521  0.4860  0.0034
 9268SOL    HW139266   0.725   4.369   2.828 -0.3353  1.3970  0.4946
 9268SOL    HW239267   0.666   4.300   2.945  0.6463 -1.2965 -0.6971
 9269SOL     OW39268   0.331   2.772  17.502 -0.3003 -0.2486  0.1371
 9269SOL    HW139269   0.302   2.794  17.414  0.7420 -0.3941 -0.2412
 9269SOL    HW239270   0.246   2.751  17.542 -1.0453  0.9703 -0.8385
 9270SOL     OW39271   0.998   4.436   4.336 -0.2502  0.0052 -0.1315
 9270SOL    HW139272   0.910   4.411   4.306 -0.5262  0.0013  0.6973
 9270SOL    HW239273   0.975   4.528   4.328  1.3236  0.3820 -0.3057
 9271SOL     OW39274   2.449   4.477   6.134  0.3134  0.1930 -0.2322
 9271SOL    HW139275   2.359   4.476   6.166 -0.0776  0.4594 -1.3025
 9271SOL    HW239276   2.491   4.548   6.182 -1.9596  1.7238 -0.5532
 9272SOL     OW39277   4.578   1.367   9.881  0.6139 -0.8482  0.1367
 9272SOL    HW139278   4.617   1.403   9.960 -1.3923  1.3202  0.1489
 9272SOL    HW239279   4.534   1.288   9.911  2.2818 -1.9815 -0.3957
 9273SOL     OW39280   3.105   1.383   5.705 -0.1004 -0.8653  0.2610
 9273SOL    HW139281   3.172   1.348   5.647 -0.0482  0.3405 -0.3880
 9273SOL    HW239282   3.031   1.333   5.671  0.3960 -2.1847  1.1212
 9274SOL     OW39283   2.738   2.368  16.688  0.7289 -0.1080 -0.4855
 9274SOL    HW139284   2.821   2.411  16.710 -0.6693  0.0239  4.6693
 9274SOL    HW239285   2.763   2.323  16.608 -3.8064 -3.0056 -0.2764
 9275SOL     OW39286   4.428   3.645   5.244 -0.3531 -0.1522 -0.2040
 9275SOL    HW139287   4.423   3.708   5.172  0.0888 -1.6031 -1.5066
 9275SOL    HW239288   4.508   3.674   5.288 -0.7278  0.9648 -0.2513
 9276SOL     OW39289   2.307   1.905   2.257 -0.0183  0.2269 -0.6371
 9276SOL    HW139290   2.257   1.936   2.332 -0.1908  0.8661 -1.0175
 9276SOL    HW239291   2.355   1.986   2.241  0.9843 -0.4942 -1.3169
 9277SOL     OW39292   1.376   0.908  10.863  0.1348 -0.0337  0.1023
 9277SOL    HW139293   1.343   0.919  10.952 -3.1330  0.7698 -1.2315
 9277SOL    HW239294   1.343   0.989  10.825  0.3324  0.1752  0.3727
 9278SOL     OW39295   3.757   3.307   2.105  0.0460 -0.2395 -0.0900
 9278SOL    HW139296   3.774   3.294   2.199 -2.0432  0.4241  0.3780
 9278SOL    HW239297   3.669   3.269   2.103  0.3717 -0.8973 -1.5091
 9279SOL     OW39298   3.174   1.670  13.354  0.5385 -0.3704 -0.0777
 9279SOL    HW139299   3.131   1.651  13.438 -0.1699  0.3324 -0.2786
 9279SOL    HW239300   3.155   1.762  13.340  0.7753 -0.4252 -0.7603
 9280SOL     OW39301   4.095   1.400   2.953 -0.2715  0.9374  0.3899
 9280SOL    HW139302   4.140   1.318   2.976 -0.4816  0.8771  0.5775
 9280SOL    HW239303   4.099   1.389   2.858  0.8024 -1.7975  0.7512
 9281SOL     OW39304   1.645   0.822   4.250  0.4207 -0.1051  0.1172
 9281SOL    HW139305   1.731   0.784   4.235 -0.5169 -1.8438 -0.9465
 9281SOL    HW239306   1.627   0.864   4.166 -1.3766 -0.1252  0.4786
 9282SOL     OW39307   3.479   2.684  14.882  0.2178 -0.7268  0.0627
 9282SOL    HW139308   3.492   2.667  14.975  0.3368 -1.4804 -0.0896
 9282SOL    HW239309   3.571   2.689  14.856  0.7883 -1.1668  1.9821
 9283SOL     OW39310   2.595   2.620   7.613 -0.2867  0.2357 -0.2709
 9283SOL    HW139311   2.525   2.665   7.567 -0.2007  1.5774  0.9280
 9283SOL    HW239312   2.607   2.543   7.557  2.7484  0.3025  0.2539
 9284SOL     OW39313   4.142   1.344   9.841 -0.7065  0.3878 -0.5708
 9284SOL    HW139314   4.220   1.318   9.792 -0.5589  0.4607 -0.3751
 9284SOL    HW239315   4.182   1.358   9.927 -0.2813 -1.3708 -0.4794
 9285SOL     OW39316   4.543   1.499   2.146  0.0563  0.3472 -0.0038
 9285SOL    HW139317   4.619   1.552   2.169  0.1560  0.4564 -0.5882
 9285SOL    HW239318   4.487   1.502   2.224 -0.9715 -0.3529 -0.7065
 9286SOL     OW39319   0.098   4.108  14.648 -0.0698  0.2068  0.0724
 9286SOL    HW139320   0.099   4.202  14.668 -0.6701  0.1802  0.2359
 9286SOL    HW239321   0.020   4.104  14.592 -1.0678 -3.7045  1.7259
 9287SOL     OW39322   3.701   2.952  10.274  0.5264  0.2554  0.2379
 9287SOL    HW139323   3.637   3.023  10.281  2.3276  2.1120 -2.0873
 9287SOL    HW239324   3.766   2.992  10.216  2.0786 -2.5195  0.0756
 9288SOL     OW39325   4.647   1.418   4.252 -0.2475 -0.5803 -0.3040
 9288SOL    HW139326   4.583   1.347   4.248 -0.4147 -0.3291 -2.0020
 9288SOL    HW239327   4.657   1.437   4.345  0.4310 -2.6418  0.0372
 9289SOL     OW39328   0.642   2.276   3.295  0.2826  0.4877  0.0279
 9289SOL    HW139329   0.625   2.317   3.380 -1.4510  2.4694 -1.2783
 9289SOL    HW239330   0.733   2.248   3.307  0.1588  0.7850  1.7785
 9290SOL     OW39331   2.971   1.084   9.836 -0.1550  0.4595 -0.2156
 9290SOL    HW139332   3.031   1.010   9.841 -1.6152 -0.8357 -2.2660
 9290SOL    HW239333   2.933   1.086   9.924  0.7712 -1.0352  0.2162
 9291SOL     OW39334   3.006   1.922  10.790 -0.4866 -0.1695 -0.1750
 9291SOL    HW139335   2.957   2.004  10.781 -0.1388  0.0692  0.1329
 9291SOL    HW239336   3.083   1.952  10.837 -2.0988  2.4618  0.7869
 9292SOL     OW39337   2.858   0.091   9.646 -0.2500  0.0774  0.2346
 9292SOL    HW139338   2.803   0.151   9.595  0.0737  1.8371  1.9638
 9292SOL    HW239339   2.928   0.096   9.581 -3.4081  0.5159 -3.1399
 9293SOL     OW39340   2.826   3.228   7.344  0.3012  0.7173 -0.0066
 9293SOL    HW139341   2.795   3.274   7.422 -1.3154 -0.6020  0.1080
 9293SOL    HW239342   2.748   3.201   7.295  0.0821  1.0751  0.1419
 9294SOL     OW39343   3.362   1.178   7.212  1.0833 -0.1165 -0.4677
 9294SOL    HW139344   3.273   1.205   7.234  0.8733  0.5059 -2.1073
 9294SOL    HW239345   3.391   1.130   7.290 -1.9379  1.6311  1.6991
 9295SOL     OW39346   2.119   1.218   7.555  0.1994 -0.3215  0.1543
 9295SOL    HW139347   2.174   1.260   7.621 -0.8875  1.0623  0.1852
 9295SOL    HW239348   2.100   1.281   7.485  0.7887  1.2754  1.4220
 9296SOL     OW39349   3.424   4.215   6.230  0.1819  0.1702 -0.1118
 9296SOL    HW139350   3.435   4.224   6.325  1.5171 -0.0060 -0.2458
 9296SOL    HW239351   3.415   4.305   6.199 -0.8293  0.2991  0.5714
 9297SOL     OW39352   3.436   0.800  13.692 -0.6913 -0.1302  0.2957
 9297SOL    HW139353   3.475   0.841  13.769  3.3763  1.2068 -2.4495
 9297SOL    HW239354   3.440   0.707  13.716  0.4502 -0.2248 -0.2682
 9298SOL     OW39355   0.642   2.062   3.077 -0.0747 -0.1184  0.5348
 9298SOL    HW139356   0.678   2.122   3.011 -2.2089  1.1650  0.5264
 9298SOL    HW239357   0.600   2.121   3.140  2.0141  2.0452 -0.0775
 9299SOL     OW39358   2.046   2.370   8.485  0.3584  0.0082 -0.7784
 9299SOL    HW139359   2.126   2.391   8.438 -0.2888 -0.7832 -2.2136
 9299SOL    HW239360   2.082   2.370   8.574  0.5115 -0.2497 -0.8394
 9300SOL     OW39361   3.663   4.464   9.370 -0.4710  0.1054 -0.3375
 9300SOL    HW139362   3.619   4.522   9.432 -3.1572 -1.3418 -0.8806
 9300SOL    HW239363   3.639   4.506   9.287  0.4517  1.7114  0.2141
 9301SOL     OW39364   1.432   0.417  17.232  0.0048 -0.2338 -0.1828
 9301SOL    HW139365   1.423   0.440  17.140  1.3887 -0.0320 -0.2647
 9301SOL    HW239366   1.348   0.373  17.246  0.5490 -1.1576  0.2146
 9302SOL     OW39367   2.471   3.464   5.719  0.3367  0.1486 -0.4914
 9302SOL    HW139368   2.559   3.493   5.696  0.3242  1.1839  0.7248
 9302SOL    HW239369   2.491   3.375   5.751  0.2723  0.7991  1.3991
 9303SOL     OW39370   2.180   1.672  17.671  0.4063 -0.3784 -0.2131
 9303SOL    HW139371   2.209   1.706  17.586  1.4193 -0.8431 -0.0517
 9303SOL    HW239372   2.251   1.613   0.012 -0.1641 -0.4619  1.1064
 9304SOL     OW39373   4.370   1.487   2.405 -0.0163  0.3886 -0.2918
 9304SOL    HW139374   4.315   1.563   2.421 -2.5032 -1.6466  0.8543
 9304SOL    HW239375   4.320   1.425   2.459 -0.3661  0.2906 -0.7322
 9305SOL     OW39376   3.183   0.883  13.640  0.4124  0.4408 -0.5415
 9305SOL    HW139377   3.219   0.942  13.573  0.1590  0.5929 -0.5421
 9305SOL    HW239378   3.267   0.839  13.655  0.4683  1.4750  2.1257
 9306SOL     OW39379   1.725   3.371  13.940 -0.0653  0.1441 -0.5980
 9306SOL    HW139380   1.633   3.369  13.913 -0.6532  0.3040  1.3410
 9306SOL    HW239381   1.765   3.289  13.910 -0.2814 -0.6259  1.1856
 9307SOL     OW39382   0.921   3.691   3.408  0.0722  0.7516 -0.0588
 9307SOL    HW139383   0.933   3.775   3.363 -1.2528  1.4666  0.9064
 9307SOL    HW239384   0.994   3.697   3.469 -0.4252  0.2503  0.5869
 9308SOL     OW39385   4.674   1.613   9.800 -0.7978 -0.3607 -0.4607
 9308SOL    HW139386   4.698   1.541   9.743 -0.0308  0.2610 -0.9289
 9308SOL    HW239387   4.637   1.557   9.868 -1.6822  0.1554 -0.5063
 9309SOL     OW39388   4.319   3.243  10.076 -0.4448  0.0457 -0.6625
 9309SOL    HW139389   4.244   3.293  10.110 -0.4642  0.5598 -1.4633
 9309SOL    HW239390   4.276   3.217   9.994  0.9923 -0.5532 -1.2224
 9310SOL     OW39391   1.175   1.507  14.816  0.0975  0.5499  0.0922
 9310SOL    HW139392   1.109   1.562  14.774  0.3027  1.0739  0.4575
 9310SOL    HW239393   1.152   1.421  14.781  2.1851 -0.3525  0.8749
 9311SOL     OW39394   0.843   3.243   7.258 -0.0139 -0.4422  0.3012
 9311SOL    HW139395   0.801   3.159   7.275  1.5966 -1.4144 -0.4777
 9311SOL    HW239396   0.882   3.259   7.344  0.9782  1.1959 -0.4591
 9312SOL     OW39397   4.496   2.388   7.500  0.8846  0.5938 -0.2701
 9312SOL    HW139398   4.429   2.385   7.432 -0.1733  1.4926  0.7139
 9312SOL    HW239399   4.511   2.483   7.502  1.1199  0.5170  2.1064
 9313SOL     OW39400   0.347   0.560   9.753  0.2520  0.4734  0.5356
 9313SOL    HW139401   0.273   0.620   9.744  0.2352  0.1590 -1.3687
 9313SOL    HW239402   0.423   0.617   9.736  0.8007 -0.3188  0.3159
 9314SOL     OW39403   1.028   4.432  12.972 -0.3208 -0.2802 -0.3512
 9314SOL    HW139404   1.092   4.498  12.946 -0.2687  0.6060  2.0061
 9314SOL    HW239405   1.003   4.390  12.890 -0.5754 -1.7375  0.4666
 9315SOL     OW39406   3.663   3.551   2.048 -0.2534  0.3472  0.1873
 9315SOL    HW139407   3.739   3.610   2.047  1.5634 -2.0265 -1.0242
 9315SOL    HW239408   3.694   3.464   2.073 -2.4028 -1.3766 -3.1454
 9316SOL     OW39409   2.411   4.026  10.138  0.5093  0.4936 -0.0595
 9316SOL    HW139410   2.469   3.961  10.178 -0.5552  1.4500  3.0366
 9316SOL    HW239411   2.476   4.096  10.142  2.6600 -1.5223  0.3016
 9317SOL     OW39412   1.229   2.748   4.852  0.0583 -0.3158 -0.5614
 9317SOL    HW139413   1.273   2.786   4.776 -2.9979  1.9847 -1.2033
 9317SOL    HW239414   1.294   2.682   4.876  2.2537  2.5125  1.2497
 9318SOL     OW39415   4.174   0.035   2.294  0.5374 -0.6172 -0.4133
 9318SOL    HW139416   4.195   0.007   2.383  0.4363 -1.3421 -0.6215
 9318SOL    HW239417   4.079   0.026   2.297  0.5096 -0.0630  0.3796
 9319SOL     OW39418   3.672   3.222   2.918 -0.0446 -0.2391 -0.6149
 9319SOL    HW139419   3.680   3.246   2.826  1.1546  0.4217 -0.3451
 9319SOL    HW239420   3.759   3.186   2.935 -0.4254 -1.7432 -1.8559
 9320SOL     OW39421   1.003   4.141   2.846 -0.4290  0.3016  0.1030
 9320SOL    HW139422   0.925   4.195   2.837 -2.2814 -2.4881 -0.6181
 9320SOL    HW239423   1.061   4.177   2.778 -0.5684 -2.7325 -1.6442
 9321SOL     OW39424   3.856   0.706  10.757  0.0857  0.1780 -0.1881
 9321SOL    HW139425   3.854   0.683  10.849  1.0336 -2.2542 -0.7820
 9321SOL    HW239426   3.824   0.631  10.708 -1.3599  0.6130  0.1074
 9322SOL     OW39427   1.002   4.101   1.612  0.3266 -0.0693 -0.0874
 9322SOL    HW139428   1.023   4.063   1.698  0.5937 -0.3243 -0.2666
 9322SOL    HW239429   0.918   4.061   1.590  0.1946 -0.0352  0.3474
 9323SOL     OW39430   1.666   0.330   3.667 -0.4123  0.3714 -0.3816
 9323SOL    HW139431   1.590   0.317   3.724  0.3940  0.2332  0.6584
 9323SOL    HW239432   1.728   0.266   3.702  1.1962  1.7378 -0.7307
 9324SOL     OW39433   2.760   4.068   8.868 -0.3088  0.7000  0.5935
 9324SOL    HW139434   2.688   4.097   8.812  0.9468  0.9385 -0.8694
 9324SOL    HW239435   2.829   4.108   8.816 -0.7483 -2.1680 -2.1778
 9325SOL     OW39436   1.053   2.957   1.714  0.2257  0.3999 -0.2758
 9325SOL    HW139437   1.012   2.883   1.670 -1.0520  1.0575 -0.1947
 9325SOL    HW239438   1.083   3.010   1.640  1.6572  1.0292  0.7509
 9326SOL     OW39439   1.261   2.586   3.045  0.3487 -0.0662 -0.0438
 9326SOL    HW139440   1.343   2.539   3.029  1.5446  1.8469  0.4287
 9326SOL    HW239441   1.278   2.604   3.138 -0.8343  1.9589 -0.2134
 9327SOL     OW39442   3.330   0.413   2.092 -0.0480  0.0974 -0.1737
 9327SOL    HW139443   3.400   0.387   2.152 -1.1343  0.5887  1.2926
 9327SOL    HW239444   3.291   0.487   2.139 -1.0823 -1.4343  1.3671
 9328SOL     OW39445   0.149   3.926   2.662 -0.7885  0.6609 -0.8747
 9328SOL    HW139446   0.164   4.001   2.604  1.3098  0.1794 -0.9694
 9328SOL    HW239447   0.222   3.868   2.638  0.5223  1.9005  0.1670
 9329SOL     OW39448   4.213   3.226   6.641 -0.1874  0.3290 -0.1239
 9329SOL    HW139449   4.130   3.179   6.636 -0.5296  0.8422  0.7416
 9329SOL    HW239450   4.269   3.169   6.589  0.5013  0.2577  0.6984
 9330SOL     OW39451   1.492   2.639   4.323  0.0452 -0.0097  0.0316
 9330SOL    HW139452   1.473   2.727   4.354 -2.3956 -0.1228 -1.1840
 9330SOL    HW239453   1.436   2.636   4.246 -0.5902 -0.7787  0.5276
 9331SOL     OW39454   2.198   0.900   1.357  0.0443  0.0679  0.0587
 9331SOL    HW139455   2.291   0.881   1.371  0.1762 -1.0849 -2.2895
 9331SOL    HW239456   2.168   0.844   1.428 -1.7538 -1.1627 -1.6589
 9332SOL     OW39457   0.988   0.718   6.647  0.2132 -0.2119 -0.0880
 9332SOL    HW139458   1.064   0.673   6.683  2.1332  0.8162 -2.8498
 9332SOL    HW239459   0.924   0.690   6.713 -0.1976  0.9256  0.0036
 9333SOL     OW39460   1.811   1.453  10.705 -0.1848  0.3669 -0.0289
 9333SOL    HW139461   1.756   1.530  10.718  1.3050  1.8607 -2.6354
 9333SOL    HW239462   1.890   1.481  10.752  0.8108 -1.0840 -0.8499
 9334SOL     OW39463   0.358   3.881  11.869  0.0223 -0.3524  0.0181
 9334SOL    HW139464   0.409   3.865  11.949  1.1365  0.9294 -0.4336
 9334SOL    HW239465   0.406   3.828  11.806  0.5174  0.2433 -0.0975
 9335SOL     OW39466   1.784   4.128   8.126  0.4537 -0.0341 -0.0343
 9335SOL    HW139467   1.874   4.149   8.152  0.9477 -0.7220 -1.1819
 9335SOL    HW239468   1.794   4.074   8.047  1.1817 -2.5068  1.7704
 9336SOL     OW39469   3.637   0.194   4.499  0.3388 -0.2932 -0.3426
 9336SOL    HW139470   3.634   0.104   4.532 -0.7929 -0.3507 -0.5931
 9336SOL    HW239471   3.630   0.189   4.403 -0.3745 -1.1826 -0.2516
 9337SOL     OW39472   0.193   1.973  10.346  0.8229  0.3030  0.4030
 9337SOL    HW139473   0.251   1.970  10.269  1.3250 -2.7507  0.9384
 9337SOL    HW239474   0.207   2.064  10.373  0.4728  0.3165  0.5405
 9338SOL     OW39475   3.297   3.912  15.869  0.4823  0.2776  0.3485
 9338SOL    HW139476   3.325   3.946  15.784 -0.8712  0.0504 -0.2067
 9338SOL    HW239477   3.309   3.987  15.927 -0.0312  1.5912 -1.2544
 9339SOL     OW39478   1.607   4.402   9.017 -0.0019 -0.2699  0.2254
 9339SOL    HW139479   1.646   4.368   9.097 -0.0153 -0.2043  0.2597
 9339SOL    HW239480   1.621   4.327   8.959 -1.9511 -0.8026  0.4695
 9340SOL     OW39481   3.204   2.593   3.972 -0.2532 -0.3803  0.3205
 9340SOL    HW139482   3.218   2.545   3.891  1.2597 -0.6468  0.7453
 9340SOL    HW239483   3.221   2.682   3.941  0.7021 -0.5831  0.2700
 9341SOL     OW39484   0.246   4.133   5.310  0.5946  0.1488  0.0838
 9341SOL    HW139485   0.334   4.148   5.276  0.3212  1.5018 -0.0181
 9341SOL    HW239486   0.248   4.039   5.330  4.3289 -0.2248 -1.9496
 9342SOL     OW39487   0.073   1.091   5.052  0.2009  0.2743 -0.2472
 9342SOL    HW139488   4.708   1.113   5.087 -0.0977 -2.0574  0.4748
 9342SOL    HW239489   0.044   1.045   4.973  0.2125  0.7198 -0.5131
 9343SOL     OW39490   3.252   2.643   7.330  0.2107 -0.3841  0.0877
 9343SOL    HW139491   3.272   2.735   7.346 -1.3899  0.1805 -1.2204
 9343SOL    HW239492   3.336   2.598   7.342  1.7748  2.6243  0.3865
 9344SOL     OW39493   4.121   3.986   3.695  0.5012 -0.5964  0.0632
 9344SOL    HW139494   4.168   4.069   3.706  0.7211 -0.6800 -0.2322
 9344SOL    HW239495   4.182   3.941   3.637 -0.0437 -0.4804 -0.6069
 9345SOL     OW39496   0.133   1.939  16.041  0.2282  0.1844  0.2446
 9345SOL    HW139497   0.044   1.905  16.033 -0.0930  0.7752  1.3707
 9345SOL    HW239498   0.132   1.951  16.136 -1.7351 -2.5358  0.5798
 9346SOL     OW39499   2.997   1.520   3.079 -0.3489  0.7008  0.0406
 9346SOL    HW139500   2.941   1.515   3.002  0.6858 -1.1485 -0.5908
 9346SOL    HW239501   3.019   1.427   3.088  1.0317  1.0061 -0.0735
 9347SOL     OW39502   1.969   2.242   4.719  0.4075 -0.3495 -0.7742
 9347SOL    HW139503   2.021   2.179   4.669  0.6920  0.2884 -1.2785
 9347SOL    HW239504   2.039   2.280   4.772  0.7772 -0.4944 -1.1520
 9348SOL     OW39505   1.146   2.678  16.254 -0.3965 -0.0527 -0.2349
 9348SOL    HW139506   1.181   2.693  16.166 -0.0529  0.5063  0.0022
 9348SOL    HW239507   1.122   2.767  16.280 -3.1519 -0.5147 -1.1501
 9349SOL     OW39508   4.539   2.804   9.627 -0.5315 -0.0251 -0.1467
 9349SOL    HW139509   4.461   2.754   9.605  0.0103 -0.3493 -1.3797
 9349SOL    HW239510   4.502   2.892   9.630 -0.5044  0.0321 -1.2780
 9350SOL     OW39511   2.362   0.606   5.566 -0.0900  0.1681  0.1801
 9350SOL    HW139512   2.393   0.516   5.552  2.3503  0.9999  0.2751
 9350SOL    HW239513   2.268   0.601   5.546 -0.1828  1.5390  0.2470
 9351SOL     OW39514   2.139   0.410   6.807 -0.2737  0.2635 -0.5904
 9351SOL    HW139515   2.046   0.396   6.790 -0.2554  1.2416 -1.4560
 9351SOL    HW239516   2.186   0.409   6.724  0.0349 -0.2242 -0.4125
 9352SOL     OW39517   0.312   3.127   7.751 -0.2058 -0.2114  0.5576
 9352SOL    HW139518   0.309   3.109   7.657  2.3376  2.6766 -0.0815
 9352SOL    HW239519   0.228   3.092   7.782  0.1756 -2.4502 -0.9494
 9353SOL     OW39520   2.530   1.786   4.358 -0.0660 -0.5498  0.3884
 9353SOL    HW139521   2.476   1.746   4.289  3.0281  0.8181 -2.8735
 9353SOL    HW239522   2.461   1.842   4.394  0.1465  0.5808 -0.9625
 9354SOL     OW39523   2.883   0.418  15.261 -0.2198 -0.2929  0.1954
 9354SOL    HW139524   2.908   0.470  15.337  1.6696  1.4303 -1.5957
 9354SOL    HW239525   2.861   0.493  15.206  0.3996  0.2772  0.7352
 9355SOL     OW39526   2.096   1.559   2.484  0.5960  0.2198 -0.2778
 9355SOL    HW139527   2.173   1.596   2.526  0.6138 -0.3682  0.2153
 9355SOL    HW239528   2.059   1.504   2.554 -0.8152  0.1777 -1.0624
 9356SOL     OW39529   4.335   3.209  16.353  0.9356  0.0237  0.1715
 9356SOL    HW139530   4.379   3.175  16.431 -0.3856  1.3983  1.5328
 9356SOL    HW239531   4.379   3.166  16.280 -1.2059 -0.3140 -0.9202
 9357SOL     OW39532   1.082   4.373  10.347 -0.3345 -0.1654 -0.1332
 9357SOL    HW139533   1.138   4.451  10.355 -0.5363  0.1071 -1.4337
 9357SOL    HW239534   1.051   4.390  10.258 -0.2581  0.1867 -0.0933
 9358SOL     OW39535   3.658   3.569   6.252 -0.2733  0.3675  0.2265
 9358SOL    HW139536   3.579   3.532   6.213 -0.6716 -0.5763  1.9400
 9358SOL    HW239537   3.674   3.644   6.194  0.0587  1.1260  1.2938
 9359SOL     OW39538   3.943   0.707   4.367  0.3692 -0.3353 -0.1730
 9359SOL    HW139539   3.953   0.623   4.323 -1.6630 -1.1748  0.9712
 9359SOL    HW239540   3.869   0.688   4.425  0.6595  1.4472  0.7895
 9360SOL     OW39541   4.706   2.836   2.305  0.0867  0.0167  0.0602
 9360SOL    HW139542   4.678   2.748   2.330  0.0595 -0.1037 -0.3996
 9360SOL    HW239543   4.708   2.871   2.394  0.8354 -0.9491  0.4261
 9361SOL     OW39544   0.101   2.069   1.762  0.5464  0.0149  0.2036
 9361SOL    HW139545   0.101   2.081   1.668  0.3416  2.6120  0.5412
 9361SOL    HW239546   0.095   2.160   1.792  0.8688  0.6588 -1.6906
 9362SOL     OW39547   1.878   2.000   2.371 -0.8335  0.8346  0.3524
 9362SOL    HW139548   1.962   2.042   2.351  0.3306 -1.3452  0.6410
 9362SOL    HW239549   1.873   2.033   2.461 -0.2051 -2.6157  1.6801
 9363SOL     OW39550   3.694   1.125   6.342  0.0983 -0.7061 -0.0248
 9363SOL    HW139551   3.641   1.099   6.417 -1.0538  0.7904 -0.3188
 9363SOL    HW239552   3.692   1.047   6.287  1.6334 -0.8884  0.1861
 9364SOL     OW39553   1.945   1.973   3.794  0.1617 -0.3961 -0.3457
 9364SOL    HW139554   1.908   2.061   3.792  0.2446 -0.4006 -2.2059
 9364SOL    HW239555   1.888   1.940   3.725 -0.2696 -2.3202  0.9148
 9365SOL     OW39556   4.478   0.113   4.510 -0.0187  0.7488  0.9983
 9365SOL    HW139557   4.547   0.083   4.569  0.6522  0.5526  0.1041
 9365SOL    HW239558   4.451   0.027   4.477  0.2485  1.2040 -0.3935
 9366SOL     OW39559   3.988   2.557  16.451 -0.1297 -0.5977  0.4850
 9366SOL    HW139560   4.070   2.592  16.416 -2.0478  1.2576 -2.1666
 9366SOL    HW239561   3.935   2.636  16.455  2.7660  1.3858 -0.3009
 9367SOL     OW39562   0.142   3.376   0.422  0.9221  0.3807  0.2431
 9367SOL    HW139563   0.100   3.296   0.452  1.7117  0.6723  2.0775
 9367SOL    HW239564   0.108   3.377   0.332 -0.1323  1.5495  0.6597
 9368SOL     OW39565   2.641   2.394   5.886 -0.4314 -0.4178  0.6966
 9368SOL    HW139566   2.723   2.429   5.921 -0.9588  1.5631 -0.0581
 9368SOL    HW239567   2.658   2.301   5.873  2.7094 -0.0355  1.9828
 9369SOL     OW39568   4.434   1.601   6.330 -0.3934  0.9506  0.2836
 9369SOL    HW139569   4.475   1.560   6.254 -0.2716  2.0025 -0.2041
 9369SOL    HW239570   4.359   1.542   6.344  0.3870 -0.2430 -0.5795
 9370SOL     OW39571   1.262   1.285   6.787  0.0038  0.2802 -0.4202
 9370SOL    HW139572   1.177   1.243   6.799  0.9541 -1.3548  0.6607
 9370SOL    HW239573   1.270   1.307   6.880  0.4278  0.2089 -0.4364
 9371SOL     OW39574   3.194   3.269   2.538  0.0588 -0.2979 -0.0162
 9371SOL    HW139575   3.260   3.329   2.573 -0.0216 -0.9604  1.2595
 9371SOL    HW239576   3.213   3.178   2.560  0.9787 -0.5121 -1.7279
 9372SOL     OW39577   1.000   3.070   6.839  0.4344 -0.2629  0.1015
 9372SOL    HW139578   0.977   3.162   6.841 -1.3307 -0.7179  0.3716
 9372SOL    HW239579   1.091   3.065   6.868  0.5120  0.6025 -0.0137
 9373SOL     OW39580   3.931   2.520  15.323  0.0608 -0.4753 -0.0483
 9373SOL    HW139581   3.991   2.459  15.280  0.0453 -0.9570  0.6206
 9373SOL    HW239582   3.860   2.462  15.351 -0.7031  0.8311  0.7166
 9374SOL     OW39583   0.704   4.283  12.606  0.5306 -0.6302 -0.0799
 9374SOL    HW139584   0.677   4.358  12.553  2.5807  0.4086  0.3264
 9374SOL    HW239585   0.688   4.311  12.696  0.2334  0.3067 -0.4258
 9375SOL     OW39586   4.424   4.467  12.015 -0.2727  0.1559  0.1864
 9375SOL    HW139587   4.460   4.503  12.097  2.1348  0.8893 -1.1988
 9375SOL    HW239588   4.500   4.419  11.980  0.0775  0.8471 -0.0037
 9376SOL     OW39589   4.300   4.438  16.233  0.0309 -0.3709 -0.6704
 9376SOL    HW139590   4.244   4.515  16.240  1.5650  0.5605  0.9510
 9376SOL    HW239591   4.264   4.413  16.147 -0.4332  2.0786 -1.1714
 9377SOL     OW39592   1.656   4.043  13.035 -0.0640 -0.0979 -0.0683
 9377SOL    HW139593   1.705   3.985  12.976  0.9532  0.5952  0.0814
 9377SOL    HW239594   1.722   4.111  13.050 -0.2522  0.6761 -2.6273
 9378SOL     OW39595   4.310   4.461   3.802  0.0996  0.0102 -0.5529
 9378SOL    HW139596   4.268   4.517   3.736 -0.2733  3.0529  2.2604
 9378SOL    HW239597   4.308   4.520   3.877 -2.6999 -2.0375  0.9909
 9379SOL     OW39598   2.423   3.528  17.411  0.0382  0.1694 -0.0716
 9379SOL    HW139599   2.365   3.587  17.362 -1.1467 -0.7386  0.2255
 9379SOL    HW239600   2.390   3.440  17.395  0.3099  0.1898 -0.7433
 9380SOL     OW39601   4.659   0.659  13.043 -0.0409  0.2341  0.1030
 9380SOL    HW139602   4.585   0.690  12.991 -0.9766  0.5653  1.6246
 9380SOL    HW239603   4.628   0.644  13.132  1.0572 -2.0471  0.1146
 9381SOL     OW39604   3.167   4.437   5.711  0.0573 -0.0573  0.2043
 9381SOL    HW139605   3.243   4.381   5.693  1.4681  1.7635  0.5539
 9381SOL    HW239606   3.100   4.369   5.700 -0.2255  0.4698 -1.2767
 9382SOL     OW39607   1.520   2.454   5.347  0.4053 -0.3575 -0.1060
 9382SOL    HW139608   1.526   2.503   5.429  2.0944 -0.0130 -0.4473
 9382SOL    HW239609   1.526   2.531   5.291  1.4685 -1.9458 -2.2044
 9383SOL     OW39610   1.430   1.457   9.652  0.5276 -0.0967 -0.3742
 9383SOL    HW139611   1.439   1.539   9.700 -3.4150 -0.8423  1.6363
 9383SOL    HW239612   1.369   1.415   9.713 -0.4067  1.3094 -0.3381
 9384SOL     OW39613   0.595   3.865  15.486 -0.5958 -0.2195  0.8679
 9384SOL    HW139614   0.581   3.799  15.418 -2.1462  2.3295 -1.2546
 9384SOL    HW239615   0.576   3.810  15.563 -3.7213  0.0480  0.2861
 9385SOL     OW39616   1.512   3.743   2.351  0.1440 -0.0645 -0.0106
 9385SOL    HW139617   1.551   3.752   2.438 -1.1234  2.4420  0.3003
 9385SOL    HW239618   1.554   3.814   2.302  0.7375 -0.0719  0.4871
 9386SOL     OW39619   0.934   3.335   6.865 -0.4696  0.0555 -0.2238
 9386SOL    HW139620   0.844   3.362   6.882 -1.0016 -3.4507  2.7910
 9386SOL    HW239621   0.973   3.357   6.950 -0.6243  2.8889 -0.9187
 9387SOL     OW39622   1.866   0.932  13.059  0.4806 -0.1804 -0.7081
 9387SOL    HW139623   1.772   0.949  13.073  0.3023 -0.8993 -1.0276
 9387SOL    HW239624   1.898   1.021  13.044 -1.0696  0.6686  0.9360
 9388SOL     OW39625   1.503   1.593  16.953 -0.3509 -0.5964 -0.4791
 9388SOL    HW139626   1.575   1.534  16.974 -0.0735 -0.5445 -1.2647
 9388SOL    HW239627   1.458   1.597  17.037  0.0963 -0.8674 -0.2283
 9389SOL     OW39628   4.233   4.012   3.026  0.0362  0.1150 -0.2315
 9389SOL    HW139629   4.242   3.936   3.084 -0.1700  2.6205  3.0176
 9389SOL    HW239630   4.246   3.970   2.940 -1.5581  0.8193 -0.8283
 9390SOL     OW39631   3.193   0.599   6.197  0.4156  0.4402  0.0450
 9390SOL    HW139632   3.125   0.666   6.195  0.6017  0.5763 -2.2712
 9390SOL    HW239633   3.247   0.620   6.121  2.5497 -0.7582  1.2141
 9391SOL     OW39634   1.991   3.513   9.191  0.2039  0.5023 -0.4893
 9391SOL    HW139635   1.980   3.569   9.114 -0.4572  1.0426  0.0063
 9391SOL    HW239636   2.084   3.495   9.175  0.2320  0.0614  0.1948
 9392SOL     OW39637   0.317   1.040   5.272 -0.0416  0.2994  0.0889
 9392SOL    HW139638   0.273   1.115   5.230 -1.4892 -1.2219 -1.1107
 9392SOL    HW239639   0.408   1.068   5.276 -0.3914  1.0252  2.8156
 9393SOL     OW39640   0.112   0.946   0.571 -0.1946  0.0412  0.0843
 9393SOL    HW139641   0.170   1.013   0.608  1.3032 -2.3861  2.0755
 9393SOL    HW239642   0.122   0.957   0.476  0.9626 -2.3527 -0.0500
 9394SOL     OW39643   3.526   3.841   3.054  0.3426 -0.1337  0.4338
 9394SOL    HW139644   3.509   3.799   3.137  1.8233 -1.1493  0.2249
 9394SOL    HW239645   3.621   3.853   3.064  0.7050 -2.8930  0.2493
 9395SOL     OW39646   1.795   3.442   2.274  0.1045  0.5414  0.1565
 9395SOL    HW139647   1.834   3.355   2.290 -0.9337  0.1651  0.6367
 9395SOL    HW239648   1.836   3.481   2.351  0.9575  2.1852 -1.1406
 9396SOL     OW39649   2.112   1.524   3.335 -0.2683 -0.1674  0.2120
 9396SOL    HW139650   2.180   1.558   3.278  0.5318 -1.5353  0.3652
 9396SOL    HW239651   2.100   1.603   3.388  0.8933  0.6858 -0.7834
 9397SOL     OW39652   0.934   1.597  13.273  0.4548  0.4758  0.2482
 9397SOL    HW139653   0.996   1.534  13.309 -0.6785 -1.0025 -0.3316
 9397SOL    HW239654   0.884   1.623  13.350 -0.2313  1.1704 -0.4264
 9398SOL     OW39655   1.903   1.455   6.628  0.1890  0.0915 -0.6280
 9398SOL    HW139656   1.903   1.361   6.646 -1.6764  0.1228 -0.4444
 9398SOL    HW239657   1.949   1.487   6.705 -2.2144  0.2644  0.7107
 9399SOL     OW39658   4.002   0.252  13.394 -0.7328 -0.1516  0.0799
 9399SOL    HW139659   3.912   0.260  13.425 -0.8778 -0.8047 -0.1629
 9399SOL    HW239660   3.986   0.287  13.306  1.2927 -0.2127 -0.3195
 9400SOL     OW39661   3.720   4.162   6.610  0.0081 -0.1839  0.5283
 9400SOL    HW139662   3.763   4.159   6.524 -1.2645 -0.6208 -0.0847
 9400SOL    HW239663   3.786   4.216   6.653  0.4021 -0.4617  0.2847
 9401SOL     OW39664   2.226   3.366   9.578 -0.3805  0.1428 -0.6921
 9401SOL    HW139665   2.268   3.431   9.521 -0.6641 -0.3373 -1.4436
 9401SOL    HW239666   2.132   3.380   9.567 -0.4255  0.9847  0.7043
 9402SOL     OW39667   0.463   4.484   2.616  0.3746 -0.3893  0.7975
 9402SOL    HW139668   0.495   4.555   2.561 -0.7464 -0.6390 -0.1772
 9402SOL    HW239669   0.530   4.485   2.684 -0.6987  1.7833  1.8264
 9403SOL     OW39670   3.405   3.461   2.602 -0.3047  0.1541  0.7046
 9403SOL    HW139671   3.446   3.456   2.516 -0.5294  0.2357  0.5926
 9403SOL    HW239672   3.422   3.552   2.623 -0.3681  0.4352 -0.4735
 9404SOL     OW39673   3.384   0.283   5.566  0.0489  0.3367 -0.2589
 9404SOL    HW139674   3.354   0.213   5.624  0.3214  1.2512  0.9876
 9404SOL    HW239675   3.417   0.236   5.490 -1.6987  0.4663 -1.0978
 9405SOL     OW39676   0.471   3.999   6.980 -0.1077  1.2121 -0.2304
 9405SOL    HW139677   0.404   4.065   6.960  1.8950  2.6847 -1.9892
 9405SOL    HW239678   0.479   3.968   6.890 -0.5349  0.9654 -0.1865
 9406SOL     OW39679   2.421   4.506  14.288  0.4141 -0.7742  0.2236
 9406SOL    HW139680   2.502   4.454  14.283  0.4872 -0.8113  1.7050
 9406SOL    HW239681   2.376   4.470  14.364  0.5001  1.6104  1.4111
 9407SOL     OW39682   0.757   2.552  17.587 -0.2006  0.3307 -0.1325
 9407SOL    HW139683   0.844   2.544  17.548  0.6489  2.2458  1.4038
 9407SOL    HW239684   0.731   2.461  17.601 -0.6959  0.1789 -1.9664
 9408SOL     OW39685   2.674   2.062  16.014 -0.3555  0.2324 -0.0212
 9408SOL    HW139686   2.704   2.095  15.929 -0.3226 -4.6043 -1.9196
 9408SOL    HW239687   2.761   2.044  16.049 -0.8781  0.4910  1.3969
 9409SOL     OW39688   4.549   4.670   3.031 -0.3569 -0.1389  0.5637
 9409SOL    HW139689   4.623   4.644   2.977 -3.1934 -2.2155 -2.3102
 9409SOL    HW239690   4.493   4.668   2.953  1.8438  2.8170 -1.0675
 9410SOL     OW39691   3.441   3.619  11.775 -0.2821  0.1154 -0.2989
 9410SOL    HW139692   3.430   3.714  11.766  0.1994  0.2918  0.9482
 9410SOL    HW239693   3.536   3.626  11.790 -0.5511  3.0785 -0.0541
 9411SOL     OW39694   2.301   1.456   6.529 -0.1887  0.2920  0.1828
 9411SOL    HW139695   2.313   1.361   6.525 -2.0827  0.0125  1.5255
 9411SOL    HW239696   2.251   1.463   6.448 -0.2455 -0.4983  0.1472
 9412SOL     OW39697   3.568   0.237   3.426 -0.3087 -0.4063  0.0928
 9412SOL    HW139698   3.512   0.219   3.351 -1.2579  1.1934  0.4385
 9412SOL    HW239699   3.521   0.181   3.488 -0.9321  0.8263  0.7159
 9413SOL     OW39700   0.974   0.013   3.943  0.1264  0.2929  0.2977
 9413SOL    HW139701   0.918   0.068   3.887  1.9545  0.4513 -1.3637
 9413SOL    HW239702   0.995   4.647   3.910  2.8203  0.8836  0.4477
 9414SOL     OW39703   0.062   0.405  17.304 -0.2205 -0.2875 -0.4651
 9414SOL    HW139704   0.127   0.336  17.290  0.0212 -0.9842  4.0354
 9414SOL    HW239705   0.081   0.468  17.235 -2.9949  0.0114 -0.9160
 9415SOL     OW39706   3.253   3.904   4.896 -0.6869  0.3066 -0.0470
 9415SOL    HW139707   3.336   3.893   4.941 -0.8594  1.6064  0.5805
 9415SOL    HW239708   3.277   3.961   4.823 -1.6445  3.0020  1.7630
 9416SOL     OW39709   3.954   3.633   4.400 -0.0484  0.9860 -0.0377
 9416SOL    HW139710   3.941   3.590   4.316  0.3826  0.0941  0.3535
 9416SOL    HW239711   3.946   3.722   4.365 -2.2741  0.2681 -1.3522
 9417SOL     OW39712   3.103   3.935   2.186 -0.4644  0.9264 -0.1664
 9417SOL    HW139713   3.175   3.901   2.133 -1.3462 -0.8338 -0.2378
 9417SOL    HW239714   3.095   4.027   2.163 -1.2287  1.0662  0.6281
 9418SOL     OW39715   1.171   1.798  11.369  0.7489  0.3509 -0.3405
 9418SOL    HW139716   1.114   1.752  11.431 -0.1292  1.1576 -0.5524
 9418SOL    HW239717   1.248   1.811  11.426 -0.6897 -1.7213  2.1152
 9419SOL     OW39718   3.780   2.628  15.068  0.0923  0.1012  0.3834
 9419SOL    HW139719   3.781   2.552  15.125 -3.4021  1.0285  1.6739
 9419SOL    HW239720   3.780   2.586  14.982  0.0600 -0.0858  0.4749
 9420SOL     OW39721   2.070   1.905  10.748  0.0523 -0.6576 -0.0499
 9420SOL    HW139722   2.144   1.910  10.808  1.8654 -0.5580 -2.2691
 9420SOL    HW239723   2.089   1.828  10.694 -2.8824 -0.7448 -0.9482
 9421SOL     OW39724   0.848   4.418   3.600  0.1084 -0.3672  0.3385
 9421SOL    HW139725   0.805   4.339   3.632 -0.2249  0.0801  1.0094
 9421SOL    HW239726   0.784   4.443   3.534 -0.6791 -2.1899  0.4070
 9422SOL     OW39727   1.266   1.789   6.323  0.0380 -0.1841 -0.4478
 9422SOL    HW139728   1.303   1.763   6.407  0.6138 -0.5621 -0.8239
 9422SOL    HW239729   1.270   1.885   6.325 -0.2512 -0.1635 -0.7972
 9423SOL     OW39730   0.865   1.570  14.560  0.1213  0.4238 -0.7487
 9423SOL    HW139731   0.799   1.507  14.530  0.2870  0.7617 -1.8005
 9423SOL    HW239732   0.870   1.623  14.481  2.4447 -0.4840 -1.2205
 9424SOL     OW39733   2.367   0.557   5.958  0.0688  0.2245 -0.2076
 9424SOL    HW139734   2.398   0.624   5.897  2.6290 -0.0527  0.7855
 9424SOL    HW239735   2.343   0.486   5.899  0.6280  0.6840 -0.9845
 9425SOL     OW39736   3.011   3.464  11.662 -0.1221  0.7337  0.1836
 9425SOL    HW139737   2.940   3.400  11.652 -0.6182  1.2823  0.2413
 9425SOL    HW239738   3.044   3.462  11.573  1.6058  0.2611  0.8235
 9426SOL     OW39739   3.939   1.354   7.920  0.0562  0.3091  0.2711
 9426SOL    HW139740   3.964   1.438   7.881 -1.0853 -0.0859 -1.3112
 9426SOL    HW239741   3.987   1.291   7.867 -0.7966 -2.2077  2.4639
 9427SOL     OW39742   3.948   1.286   6.121 -0.5160  0.2927  0.2062
 9427SOL    HW139743   4.037   1.255   6.137 -0.7383  0.6138  2.0287
 9427SOL    HW239744   3.914   1.293   6.210  0.7989  2.4429  0.5383
 9428SOL     OW39745   0.739   1.589   9.107 -0.0889 -0.1157  0.2628
 9428SOL    HW139746   0.785   1.667   9.075  0.5447 -0.3225  0.6531
 9428SOL    HW239747   0.757   1.590   9.201  2.6128  0.7537 -0.2567
 9429SOL     OW39748   2.332   4.335   2.843  0.4247  0.2985 -0.1404
 9429SOL    HW139749   2.334   4.244   2.816  0.0154  0.5144 -0.8773
 9429SOL    HW239750   2.376   4.380   2.772 -0.4530  0.8840 -0.3064
 9430SOL     OW39751   0.757   2.855   5.962  0.8638  0.1967 -0.0131
 9430SOL    HW139752   0.755   2.935   6.015 -1.3281 -1.5515  2.5736
 9430SOL    HW239753   0.840   2.871   5.919  0.8433  0.6737  0.1290
 9431SOL     OW39754   1.112   1.205   7.235  0.2082 -0.0814  0.9228
 9431SOL    HW139755   1.179   1.144   7.265  2.0148  0.8447 -1.2411
 9431SOL    HW239756   1.045   1.192   7.302  0.0256  0.8447  0.9209
 9432SOL     OW39757   2.582   2.242   4.409  0.2819 -0.2696 -0.2802
 9432SOL    HW139758   2.601   2.269   4.319 -1.5199  1.7041 -0.0704
 9432SOL    HW239759   2.496   2.203   4.399 -0.0366  0.0863  1.0195
 9433SOL     OW39760   0.295   1.431   8.106 -0.1765 -0.0008 -0.2032
 9433SOL    HW139761   0.366   1.371   8.084  0.1864  1.2374 -2.3974
 9433SOL    HW239762   0.284   1.416   8.200 -0.6551  0.0125 -0.2571
 9434SOL     OW39763   3.524   0.159   4.765  0.1263  0.3981  0.1557
 9434SOL    HW139764   3.462   0.216   4.719  0.2949 -0.6021 -1.3062
 9434SOL    HW239765   3.606   0.207   4.754  0.4456 -0.0307  0.6642
 9435SOL     OW39766   2.269   4.691   4.499  0.0205 -0.2846  0.5169
 9435SOL    HW139767   2.291   4.598   4.486 -0.8648 -0.3965 -0.1518
 9435SOL    HW239768   2.174   4.681   4.491  0.0875  1.0563 -1.6466
 9436SOL     OW39769   1.240   2.397   6.379 -0.0922  0.1352  0.0890
 9436SOL    HW139770   1.165   2.391   6.438 -0.0956 -0.4582  0.0300
 9436SOL    HW239771   1.199   2.346   6.309  0.2517 -1.7692  1.2857
 9437SOL     OW39772   1.034   0.007   6.089 -0.3600  0.3797 -0.2243
 9437SOL    HW139773   1.082   4.645   6.088 -1.3157 -0.1730 -0.2980
 9437SOL    HW239774   1.105   0.065   6.116 -1.1630  1.4051 -0.3389
 9438SOL     OW39775   3.647   3.857   6.594  0.1273  0.2717 -0.4945
 9438SOL    HW139776   3.661   3.947   6.622  1.6413  0.3130 -1.3907
 9438SOL    HW239777   3.585   3.870   6.523 -0.0174  1.7757 -0.0759
 9439SOL     OW39778   4.472   3.448  16.345  0.0910  0.4360  0.0567
 9439SOL    HW139779   4.423   3.366  16.348 -0.4907  0.7688 -0.3454
 9439SOL    HW239780   4.424   3.498  16.411 -1.2593 -1.1692  0.2914
 9440SOL     OW39781   4.710   0.669   4.241 -0.0156 -0.0497  0.3083
 9440SOL    HW139782   0.085   0.677   4.242 -0.0460  0.2967  0.4979
 9440SOL    HW239783   4.687   0.735   4.175  3.1194 -0.5057 -1.2433
 9441SOL     OW39784   0.535   2.379   7.132  0.0958  0.5009 -0.0780
 9441SOL    HW139785   0.532   2.349   7.041  0.2683  2.5897 -0.7724
 9441SOL    HW239786   0.578   2.305   7.176  0.1056  1.1170  0.9538
 9442SOL     OW39787   2.770   3.586   1.940  0.2108  0.0841  0.2721
 9442SOL    HW139788   2.804   3.578   1.851 -1.8013  0.8043 -0.5570
 9442SOL    HW239789   2.809   3.509   1.981 -0.0349 -0.0021  0.3387
 9443SOL     OW39790   2.434   0.078   3.432 -0.0448 -0.1156 -0.3707
 9443SOL    HW139791   2.415   0.076   3.526  1.6929 -4.1017 -0.0922
 9443SOL    HW239792   2.523   0.042   3.428  0.8166  2.2453 -2.7060
 9444SOL     OW39793   1.803   2.455   4.724 -0.2065 -0.2654 -0.4374
 9444SOL    HW139794   1.750   2.424   4.798  1.1263  3.0946  1.9282
 9444SOL    HW239795   1.873   2.390   4.715  1.1540  0.9287  1.3946
 9445SOL     OW39796   3.233   4.270   4.845  0.3784  0.2732  0.1505
 9445SOL    HW139797   3.316   4.236   4.877 -0.6297 -1.5430  0.8046
 9445SOL    HW239798   3.173   4.237   4.912 -0.6735 -0.0719 -0.9567
 9446SOL     OW39799   2.542   0.226   4.196 -0.2181 -0.0989 -0.5872
 9446SOL    HW139800   2.619   0.270   4.232 -0.4327 -0.9119  0.8558
 9446SOL    HW239801   2.540   0.269   4.110 -0.8295  0.1744 -0.4285
 9447SOL     OW39802   4.001   1.484   5.057  0.0741 -0.1909 -0.2280
 9447SOL    HW139803   3.935   1.463   4.991  1.1375 -0.2270 -1.2955
 9447SOL    HW239804   4.061   1.530   4.997  0.2939 -0.1502  0.0238
 9448SOL     OW39805   4.124   4.677  13.209  1.1346  0.1150 -0.6903
 9448SOL    HW139806   4.129   4.697  13.303 -0.5755  0.1049 -0.5892
 9448SOL    HW239807   4.075   4.595  13.206  0.1413  0.6627  0.2325
 9449SOL     OW39808   1.396   3.128   5.908 -0.4089  0.1925 -0.4680
 9449SOL    HW139809   1.455   3.061   5.941 -2.2120 -1.0769  0.1969
 9449SOL    HW239810   1.317   3.106   5.958 -0.6065 -0.7626 -1.1988
 9450SOL     OW39811   4.236   4.102   2.135 -0.2440 -0.0586 -0.4578
 9450SOL    HW139812   4.214   4.191   2.164 -1.2896 -0.2210 -0.7641
 9450SOL    HW239813   4.292   4.084   2.211 -0.0250 -2.6424 -1.2319
 9451SOL     OW39814   4.450   0.399   5.974 -0.1550 -0.3078 -0.0141
 9451SOL    HW139815   4.541   0.396   6.002  0.2792  0.4344 -1.3077
 9451SOL    HW239816   4.448   0.481   5.925  0.8450 -0.2031  0.1211
 9452SOL     OW39817   2.850   2.780   8.503  0.2036 -0.3403  0.8552
 9452SOL    HW139818   2.924   2.765   8.444 -0.1995  0.0586  0.2373
 9452SOL    HW239819   2.827   2.693   8.535 -0.2314 -0.4742  0.1917
 9453SOL     OW39820   0.948   0.921   8.047  0.3343  0.6625  0.0495
 9453SOL    HW139821   0.972   0.974   8.122 -1.1698 -0.2916  1.1945
 9453SOL    HW239822   0.860   0.897   8.077  0.0460  0.4181 -0.9647
 9454SOL     OW39823   3.129   3.003   4.008 -0.3025  0.4596  0.0907
 9454SOL    HW139824   3.072   3.043   3.942  3.4110  0.2331 -3.2774
 9454SOL    HW239825   3.213   3.017   3.964 -0.0717 -2.1453 -0.2663
 9455SOL     OW39826   3.705   2.687  10.199 -0.0858  0.3460  0.2697
 9455SOL    HW139827   3.775   2.714  10.139  1.1946 -0.2273  1.5164
 9455SOL    HW239828   3.700   2.774  10.239 -0.7494  1.3883 -2.0671
 9456SOL     OW39829   1.379   3.723   5.611 -0.0985 -0.0268  0.4207
 9456SOL    HW139830   1.290   3.698   5.584 -0.7474 -0.1496  2.6641
 9456SOL    HW239831   1.424   3.649   5.570  0.8022 -0.1219  1.5932
 9457SOL     OW39832   4.568   3.763  16.100 -0.1024  0.3503  0.0408
 9457SOL    HW139833   4.621   3.843  16.093 -3.9006  2.6847 -2.3080
 9457SOL    HW239834   4.478   3.794  16.109  0.7309  1.9285  3.0245
 9458SOL     OW39835   0.733   3.537   0.535  0.2178 -0.3743 -0.9514
 9458SOL    HW139836   0.767   3.454   0.503  0.6128 -0.1465 -1.1253
 9458SOL    HW239837   0.765   3.578   0.455 -1.4670 -0.3881 -1.6394
 9459SOL     OW39838   4.353   1.419   5.167 -0.1278  0.2127 -0.1086
 9459SOL    HW139839   4.332   1.444   5.077 -1.1446  1.3624  0.4614
 9459SOL    HW239840   4.438   1.461   5.182  0.2545 -0.6003  0.0482
 9460SOL     OW39841   0.238   3.359  14.556 -0.2551 -0.0306  0.8279
 9460SOL    HW139842   0.239   3.267  14.529  1.7956 -0.9937  4.1823
 9460SOL    HW239843   0.157   3.393  14.517  0.9216  1.9175  0.0693
 9461SOL     OW39844   4.020   2.628   7.043  0.5937 -0.9073  0.2791
 9461SOL    HW139845   3.938   2.675   7.059  0.9958  0.6125 -2.1396
 9461SOL    HW239846   4.074   2.678   7.103 -1.2276  2.2270 -0.6789
 9462SOL     OW39847   1.214   2.693  15.709 -0.0573  0.3605 -0.0478
 9462SOL    HW139848   1.141   2.704  15.648 -0.1383  1.4267  0.2363
 9462SOL    HW239849   1.243   2.603  15.696  1.5320  0.8032  0.5185
 9463SOL     OW39850   4.548   0.288   2.364 -0.0660 -0.1891 -0.9372
 9463SOL    HW139851   4.581   0.320   2.280  0.9580 -2.1119 -1.2548
 9463SOL    HW239852   4.630   0.291   2.412 -1.4522 -0.1792  1.4236
 9464SOL     OW39853   1.102   3.004   7.578  0.1262  0.1673  0.3855
 9464SOL    HW139854   1.030   2.941   7.572  1.2172 -0.8817 -1.5935
 9464SOL    HW239855   1.183   2.959   7.601 -0.8871 -2.0615 -0.3987
 9465SOL     OW39856   1.808   4.385   4.749  0.2672 -0.6140  0.3158
 9465SOL    HW139857   1.803   4.330   4.827 -0.0352 -0.4556  0.4080
 9465SOL    HW239858   1.887   4.436   4.762 -0.2413  0.5443 -1.1856
 9466SOL     OW39859   2.871   3.696  11.846  0.0253 -0.0681 -0.0395
 9466SOL    HW139860   2.898   3.644  11.771 -2.0333  0.1251 -0.9037
 9466SOL    HW239861   2.891   3.786  11.819  1.7924 -0.3123  0.4868
 9467SOL     OW39862   1.143   3.077   6.020 -0.2055  0.1208 -0.0827
 9467SOL    HW139863   1.160   2.996   6.068  2.1637  1.1859  0.8660
 9467SOL    HW239864   1.135   3.143   6.088  0.8232 -1.0327  1.1580
 9468SOL     OW39865   1.770   2.018  12.441  0.0784  0.0663  0.0839
 9468SOL    HW139866   1.706   1.952  12.416  0.3986 -0.6914  1.2578
 9468SOL    HW239867   1.721   2.065  12.509  0.2758  2.0800 -1.1749
 9469SOL     OW39868   2.536   1.490   4.250 -0.2270 -0.3347 -0.0015
 9469SOL    HW139869   2.512   1.522   4.163 -1.2856 -0.6054  0.1987
 9469SOL    HW239870   2.616   1.539   4.269  0.5746 -1.4902 -0.3939
 9470SOL     OW39871   4.082   1.366   4.405  0.1458  0.0295  0.0396
 9470SOL    HW139872   4.103   1.272   4.399 -0.7132 -0.1638  0.0067
 9470SOL    HW239873   4.168   1.399   4.431 -0.0187  0.6900 -0.2742
 9471SOL     OW39874   2.326   0.853  12.308  0.4877  0.5340  0.4910
 9471SOL    HW139875   2.410   0.807  12.300 -0.6408 -1.4983  0.5790
 9471SOL    HW239876   2.342   0.888  12.396 -1.0548  0.6363  0.7293
 9472SOL     OW39877   2.110   3.614   4.619 -0.6206 -0.2313 -0.3554
 9472SOL    HW139878   2.057   3.597   4.541 -0.9608  0.1619 -0.2113
 9472SOL    HW239879   2.123   3.527   4.657  0.8448 -0.1695 -0.7389
 9473SOL     OW39880   4.117   0.066   1.583  0.6996  0.0787  0.1812
 9473SOL    HW139881   4.105   4.704   1.629  0.4263  0.8465  1.4853
 9473SOL    HW239882   4.140   0.035   1.495  0.5137 -1.8949  0.8229
 9474SOL     OW39883   0.718   4.489  17.572  0.7592 -0.3516 -0.0706
 9474SOL    HW139884   0.778   4.454  17.638  1.4133 -1.6102 -1.3564
 9474SOL    HW239885   0.632   4.457  17.602 -0.1244  0.7615 -1.4191
 9475SOL     OW39886   0.360   4.430   4.766 -0.7636  0.1291  0.3967
 9475SOL    HW139887   0.452   4.441   4.741 -0.6033  0.1023  0.9568
 9475SOL    HW239888   0.347   4.336   4.760  1.9816 -0.2675  0.6872
 9476SOL     OW39889   2.746   3.791   8.929 -0.2626  1.0082  1.0451
 9476SOL    HW139890   2.651   3.780   8.941 -0.5176  1.9073 -0.1636
 9476SOL    HW239891   2.739   3.884   8.910  0.2462  0.9803  0.7139
 9477SOL     OW39892   2.471   4.717   2.016  0.2550 -0.5804  0.2613
 9477SOL    HW139893   2.405   4.649   2.031 -0.3714 -0.5729 -2.4542
 9477SOL    HW239894   2.532   4.674   1.956  0.5421  0.2965 -0.0669
 9478SOL     OW39895   0.170   3.718  11.280  0.2224 -0.2611 -0.4718
 9478SOL    HW139896   0.077   3.739  11.274 -0.0099 -0.7210  1.6027
 9478SOL    HW239897   0.193   3.709  11.187 -1.2400  1.0401 -0.9480
 9479SOL     OW39898   2.496   0.144   7.819  0.4338 -0.1034 -0.4191
 9479SOL    HW139899   2.533   0.063   7.853 -0.0897 -1.3838 -2.9176
 9479SOL    HW239900   2.565   0.168   7.758  2.4822 -1.9062  1.1920
 9480SOL     OW39901   0.521   0.481   6.238 -0.6425  0.2070  0.1289
 9480SOL    HW139902   0.484   0.485   6.149  0.2068  0.5439 -0.2157
 9480SOL    HW239903   0.468   0.432   6.299 -0.4039  1.5841  1.4458
 9481SOL     OW39904   0.150   1.981   7.338  0.3137 -0.2920 -0.6250
 9481SOL    HW139905   0.240   1.986   7.307 -0.4475  2.2886 -2.4912
 9481SOL    HW239906   0.157   1.942   7.425  0.6496  1.3805  0.0939
 9482SOL     OW39907   4.474   0.515   4.311  0.3157  0.6122 -0.2466
 9482SOL    HW139908   4.554   0.557   4.342  0.1759 -0.5885  1.7416
 9482SOL    HW239909   4.487   0.540   4.220 -0.0938 -2.0972 -1.0267
 9483SOL     OW39910   3.714   0.745   7.222 -0.3145  0.0546  0.2737
 9483SOL    HW139911   3.707   0.691   7.143  0.7067  2.8259 -1.6742
 9483SOL    HW239912   3.672   0.693   7.291  0.4331 -3.5584 -1.9998
 9484SOL     OW39913   2.467   2.764   1.076 -0.0139 -0.0039 -0.1599
 9484SOL    HW139914   2.396   2.803   1.024 -0.2121  0.1030  0.1844
 9484SOL    HW239915   2.533   2.833   1.069  1.0745 -1.3073 -2.5885
 9485SOL     OW39916   3.475   0.222   5.021  0.3615  0.2762  0.0489
 9485SOL    HW139917   3.474   0.214   4.926 -2.0797 -0.5006  0.1366
 9485SOL    HW239918   3.440   0.311   5.036  0.2419 -0.1680  2.4536
 9486SOL     OW39919   0.160   2.617  11.114  0.1243 -0.2623  0.3951
 9486SOL    HW139920   0.206   2.575  11.042 -1.0859 -0.1434 -0.4487
 9486SOL    HW239921   0.204   2.702  11.122  0.4110 -0.2512 -1.1957
 9487SOL     OW39922   2.268   0.037   8.102  0.4809  0.4241 -0.4097
 9487SOL    HW139923   2.270   0.132   8.090 -0.4591  0.7790  2.2775
 9487SOL    HW239924   2.186   0.006   8.065  1.5243 -0.4830 -2.0065
 9488SOL     OW39925   4.005   1.370   6.572 -0.0263 -0.4857  0.0445
 9488SOL    HW139926   4.032   1.445   6.625  1.2588  0.4217 -1.8640
 9488SOL    HW239927   3.967   1.327   6.649 -0.9706 -1.2088 -0.8236
 9489SOL     OW39928   1.052   0.076   4.190 -0.9450 -0.0565 -0.5066
 9489SOL    HW139929   1.039   0.040   4.102 -0.9285 -2.8330  0.6385
 9489SOL    HW239930   0.990   0.024   4.240  0.9682 -0.9027  1.0083
 9490SOL     OW39931   3.183   2.801   5.275  0.6373 -0.5338  0.0239
 9490SOL    HW139932   3.224   2.740   5.215  0.1264 -0.4817 -0.3770
 9490SOL    HW239933   3.100   2.819   5.230  1.4445  0.7025 -0.9867
 9491SOL     OW39934   3.495   4.232   0.270 -0.2490 -0.4341 -0.4219
 9491SOL    HW139935   3.401   4.232   0.253 -0.2540 -4.5884 -0.1831
 9491SOL    HW239936   3.523   4.245   0.180 -0.9394 -0.9409 -0.7058
 9492SOL     OW39937   1.863   2.173   1.962  0.2839 -0.6606  0.0480
 9492SOL    HW139938   1.878   2.268   1.971 -2.0136 -0.4846  2.0970
 9492SOL    HW239939   1.951   2.139   1.948  0.0506 -1.9639  1.7791
 9493SOL     OW39940   4.645   0.411   1.290 -0.5001 -0.1477 -0.0236
 9493SOL    HW139941   4.558   0.374   1.305 -0.4367 -0.6253 -0.8128
 9493SOL    HW239942   4.641   0.503   1.315 -0.1847  0.1354 -0.9992
 9494SOL     OW39943   0.640   1.633  15.519 -0.0182  0.3901 -0.6544
 9494SOL    HW139944   0.728   1.620  15.555 -0.2934 -0.8369 -0.4316
 9494SOL    HW239945   0.599   1.677  15.593  2.7785 -1.0713  1.7466
 9495SOL     OW39946   2.446   0.924   4.075 -0.2806 -0.1160 -0.8254
 9495SOL    HW139947   2.351   0.908   4.078  0.1470 -2.5323  0.1908
 9495SOL    HW239948   2.447   1.018   4.091  0.9506 -0.4021  0.7575
 9496SOL     OW39949   1.575   3.760   2.969 -0.6854 -0.0034 -0.2244
 9496SOL    HW139950   1.509   3.818   2.930  0.3866  1.0298 -0.5216
 9496SOL    HW239951   1.535   3.673   2.975  0.6134 -0.6858 -1.4651
 9497SOL     OW39952   3.500   3.190   2.099  0.2293  0.1652 -0.2752
 9497SOL    HW139953   3.466   3.278   2.118  2.4203  0.5660  1.9723
 9497SOL    HW239954   3.459   3.146   2.173 -0.4891  2.4100  0.6782
 9498SOL     OW39955   4.585   4.532  13.350  0.3720 -0.1799 -0.0979
 9498SOL    HW139956   4.643   4.608  13.360  1.1700 -0.7645 -0.2940
 9498SOL    HW239957   4.502   4.564  13.315 -0.3243 -0.4576  1.3223
 9499SOL     OW39958   1.430   3.434   4.329 -0.6863  0.1048  0.0592
 9499SOL    HW139959   1.401   3.422   4.238  2.5265  0.2580 -0.9785
 9499SOL    HW239960   1.405   3.350   4.368  0.0793  0.2761  0.9092
 9500SOL     OW39961   2.310   3.382   1.766 -0.3977 -0.0259  0.6192
 9500SOL    HW139962   2.384   3.427   1.806 -1.6601  0.0906  2.8514
 9500SOL    HW239963   2.318   3.292   1.796  1.4139 -0.0418  0.0877
 9501SOL     OW39964   0.603   2.873   2.133  0.3903 -0.3191  0.9672
 9501SOL    HW139965   0.567   2.962   2.131 -0.4491 -0.6320  1.9111
 9501SOL    HW239966   0.634   2.864   2.043 -1.5699 -0.7681  0.3159
 9502SOL     OW39967   0.978   2.294   6.454 -0.0253 -0.2029  0.0284
 9502SOL    HW139968   0.909   2.319   6.393  0.1295  0.3136  0.0670
 9502SOL    HW239969   0.925   2.288   6.533  0.8393  1.6478  0.7549
 9503SOL     OW39970   1.721   2.513  15.238  0.1426 -0.5460 -0.1155
 9503SOL    HW139971   1.650   2.514  15.174 -1.6405  0.3267  1.8648
 9503SOL    HW239972   1.734   2.608  15.242 -0.3505 -0.4502 -0.7062
 9504SOL     OW39973   1.399   1.395  17.531 -0.0041 -0.3445 -0.2021
 9504SOL    HW139974   1.336   1.423  17.464  0.7118 -0.2800 -0.8503
 9504SOL    HW239975   1.365   1.438  17.609  1.8213 -0.9743  0.9426
 9505SOL     OW39976   2.886   3.832   9.794  0.1500 -0.0015 -0.1325
 9505SOL    HW139977   2.920   3.911   9.753 -0.2624  1.5038  2.4748
 9505SOL    HW239978   2.828   3.874   9.857 -0.5486 -0.2486 -0.6054
 9506SOL     OW39979   2.549   3.882  16.154  0.1494 -0.3935 -0.6148
 9506SOL    HW139980   2.520   3.825  16.224 -5.2959  0.6668 -2.0225
 9506SOL    HW239981   2.488   3.952  16.175 -1.8063 -1.2174 -3.5080
 9507SOL     OW39982   0.037   2.936   0.105 -0.2343  0.1181 -0.6881
 9507SOL    HW139983   0.050   2.842   0.123  0.7594  0.7403  1.8032
 9507SOL    HW239984   0.112   2.983   0.141  0.3413 -1.2578 -0.0657
 9508SOL     OW39985   2.893   1.663   7.629  0.1455  0.2129 -0.4524
 9508SOL    HW139986   2.950   1.721   7.680 -0.7309 -0.0406  0.7944
 9508SOL    HW239987   2.956   1.597   7.598 -1.3686 -0.2290 -2.5896
 9509SOL     OW39988   0.401   3.469  11.103  0.5346 -0.3406  0.2377
 9509SOL    HW139989   0.421   3.393  11.048 -2.0499 -0.4792 -0.5390
 9509SOL    HW239990   0.400   3.431  11.191 -1.6186 -0.0796  0.3229
 9510SOL     OW39991   1.397   2.163   3.352 -0.3185 -0.1572 -0.4136
 9510SOL    HW139992   1.486   2.172   3.317 -0.7397  4.3059 -0.3650
 9510SOL    HW239993   1.375   2.255   3.334 -0.7522  0.1002  1.4207
 9511SOL     OW39994   1.615   0.776   8.863 -0.1023 -0.2808  0.2366
 9511SOL    HW139995   1.539   0.827   8.890  1.3490  2.9445 -1.8059
 9511SOL    HW239996   1.580   0.699   8.908 -2.0136 -0.2231 -1.1349
 9512SOL     OW39997   3.749   0.825  16.560 -0.3747  0.1230  0.2703
 9512SOL    HW139998   3.663   0.795  16.589 -0.9201  0.3226 -1.0853
 9512SOL    HW239999   3.785   0.842  16.646  0.3309 -0.4611  0.0894
 9513SOL     OW40000   4.519   1.699   3.341 -0.6100 -0.1188 -0.2918
 9513SOL    HW140001   4.433   1.663   3.362 -1.1116  1.7138  0.7657
 9513SOL    HW240002   4.529   1.666   3.252 -1.2310  0.8975 -0.7386
 9514SOL     OW40003   4.257   4.172   8.208 -0.0124 -0.0994 -0.8106
 9514SOL    HW140004   4.248   4.107   8.278 -0.6667  1.1264  0.2469
 9514SOL    HW240005   4.261   4.111   8.135  0.7182 -0.4862 -0.4519
 9515SOL     OW40006   1.503   3.007   6.921 -0.3632 -0.2838 -0.1717
 9515SOL    HW140007   1.455   3.003   6.838  1.6459 -0.0141 -1.3518
 9515SOL    HW240008   1.425   2.993   6.974  1.0530 -0.2644  1.9173
 9516SOL     OW40009   2.817   1.698   2.383 -0.6423  0.6772  0.0547
 9516SOL    HW140010   2.751   1.690   2.453 -0.7874 -0.1264 -0.1752
 9516SOL    HW240011   2.762   1.698   2.304 -1.7594  0.1860  0.8200
 9517SOL     OW40012   3.472   1.848   5.479  0.5812  0.0498  0.2474
 9517SOL    HW140013   3.427   1.920   5.524 -1.2296 -0.1148 -1.3021
 9517SOL    HW240014   3.410   1.830   5.408  2.1362 -0.6610 -0.9324
 9518SOL     OW40015   3.215   1.882   9.310  0.3646 -0.1523 -0.1042
 9518SOL    HW140016   3.165   1.810   9.271  0.2423  0.8802 -1.8643
 9518SOL    HW240017   3.184   1.881   9.401 -1.2679 -1.3047 -0.6653
 9519SOL     OW40018   4.331   2.155   2.913 -0.0863  0.1180  0.1839
 9519SOL    HW140019   4.359   2.079   2.964 -1.9478 -0.2659  0.6354
 9519SOL    HW240020   4.254   2.121   2.868  0.9275 -0.4720 -1.1131
 9520SOL     OW40021   4.409   1.202  15.930  0.4193  0.5006  0.2335
 9520SOL    HW140022   4.361   1.280  15.903  0.4744 -1.0232 -4.1707
 9520SOL    HW240023   4.425   1.215  16.024 -1.9045  1.8187  0.4454
 9521SOL     OW40024   3.305   3.951  12.856 -0.0808  0.0847  0.5663
 9521SOL    HW140025   3.211   3.962  12.843  0.2531 -0.9348 -2.7593
 9521SOL    HW240026   3.334   4.014  12.790  0.6474 -1.5436 -0.6816
 9522SOL     OW40027   3.093   1.744   8.590 -0.0334  0.3104 -0.5526
 9522SOL    HW140028   3.173   1.693   8.577  1.0855  1.8069  0.4659
 9522SOL    HW240029   3.035   1.670   8.604 -0.6393  0.9434  0.2728
 9523SOL     OW40030   3.074   3.009   1.377  0.2958  0.8185 -0.3780
 9523SOL    HW140031   3.090   3.083   1.436  0.5112  0.5520 -0.0969
 9523SOL    HW240032   3.161   2.970   1.382  0.0688  0.7628  3.5969
 9524SOL     OW40033   4.194   1.435   0.389 -0.4642  0.4377  0.1434
 9524SOL    HW140034   4.102   1.457   0.371 -0.9058 -1.9548 -0.5353
 9524SOL    HW240035   4.230   1.514   0.429  0.5637  0.6489 -1.1777
 9525SOL     OW40036   2.982   3.140   3.827  0.3317 -0.5495  0.0682
 9525SOL    HW140037   3.000   3.234   3.821  0.8898 -0.6728 -0.2035
 9525SOL    HW240038   2.977   3.118   3.734  2.2664  1.1646 -0.4490
 9526SOL     OW40039   0.748   2.955   4.383 -0.1193 -0.7234 -1.0654
 9526SOL    HW140040   0.685   2.932   4.451 -0.1972  0.4696 -0.7225
 9526SOL    HW240041   0.691   2.955   4.306  0.4550  2.0447 -1.5148
 9527SOL     OW40042   3.909   4.635   3.318  0.0957  0.6818 -0.0730
 9527SOL    HW140043   3.905   0.008   3.297  0.2547  0.9299  0.9976
 9527SOL    HW240044   4.003   4.622   3.302  0.1668  0.4502  0.5230
 9528SOL     OW40045   1.039   3.015  11.822 -0.0692 -0.2022 -0.1240
 9528SOL    HW140046   1.079   2.948  11.767 -1.5185  0.3349 -1.8038
 9528SOL    HW240047   0.949   2.992  11.800  0.4907 -3.2012  0.6361
 9529SOL     OW40048   2.494   0.938  11.593  0.0605 -0.2868  0.3971
 9529SOL    HW140049   2.454   0.986  11.520  0.0530 -1.3879 -0.3298
 9529SOL    HW240050   2.578   0.984  11.591  0.6848 -1.4483  0.1498
 9530SOL     OW40051   3.525   0.557   8.101 -0.0386  0.1094 -0.2445
 9530SOL    HW140052   3.591   0.489   8.113  1.1083  1.2317 -0.2335
 9530SOL    HW240053   3.463   0.534   8.170  1.6503 -0.1428  1.1939
 9531SOL     OW40054   4.619   1.990   3.173 -0.0979 -0.2570  0.0103
 9531SOL    HW140055   4.560   1.977   3.099  3.5159 -4.3525 -2.1233
 9531SOL    HW240056   4.677   1.914   3.178  0.4043  0.1511  0.3724
 9532SOL     OW40057   3.303   1.365   1.595  0.2148 -0.7821 -0.1811
 9532SOL    HW140058   3.373   1.310   1.631 -0.3835  0.7239  3.2487
 9532SOL    HW240059   3.350   1.447   1.581 -1.6367  0.5336  1.3616
 9533SOL     OW40060   0.714   2.208   7.245  0.4969  0.0367  0.4602
 9533SOL    HW140061   0.776   2.165   7.186  0.9151  1.5428 -0.2043
 9533SOL    HW240062   0.779   2.237   7.309 -0.1650  1.5676  0.4580
 9534SOL     OW40063   3.821   2.255   7.005  0.5258  0.5885  0.8061
 9534SOL    HW140064   3.731   2.224   6.998  0.6384  0.6361 -0.8477
 9534SOL    HW240065   3.844   2.283   6.916  2.7785 -0.3171  1.0792
 9535SOL     OW40066   0.889   0.917   5.351 -0.1000  0.0840  0.0062
 9535SOL    HW140067   0.934   0.955   5.426  1.2280 -1.5409  0.0298
 9535SOL    HW240068   0.806   0.965   5.348  0.4731  1.2254  2.7477
 9536SOL     OW40069   1.264   0.131  14.554 -0.2471 -0.2958  0.4091
 9536SOL    HW140070   1.241   0.190  14.625 -1.0280  1.0520 -0.9559
 9536SOL    HW240071   1.197   0.160  14.493 -0.7707  0.6746  1.4465
 9537SOL     OW40072   3.798   0.972   9.275 -0.0004  0.4269  0.1368
 9537SOL    HW140073   3.744   0.958   9.353  0.8971  1.5811  0.9576
 9537SOL    HW240074   3.878   0.932   9.308  0.0231  0.1211 -0.2865
 9538SOL     OW40075   2.881   3.456   7.929  0.1309 -0.4033  0.9021
 9538SOL    HW140076   2.943   3.436   8.000  0.0384 -0.7925  0.8739
 9538SOL    HW240077   2.938   3.467   7.853  2.8202 -1.7469  2.6855
 9539SOL     OW40078   4.541   4.637   5.501  0.2834 -0.0767 -0.7704
 9539SOL    HW140079   4.567   4.700   5.569  1.7506  1.2239 -2.5541
 9539SOL    HW240080   4.630   4.619   5.472  0.1087  1.0979 -2.0444
 9540SOL     OW40081   2.524   0.318   3.949 -0.4943 -0.8346  0.0966
 9540SOL    HW140082   2.581   0.372   3.894 -2.4085  0.6929 -0.4161
 9540SOL    HW240083   2.443   0.368   3.935 -0.5035 -1.1094 -0.8161
 9541SOL     OW40084   2.107   1.881   6.075  0.3676  0.5494  0.1232
 9541SOL    HW140085   2.162   1.809   6.046 -0.4705 -0.2494  0.5162
 9541SOL    HW240086   2.032   1.837   6.115  2.1750 -2.0748  0.5914
 9542SOL     OW40087   3.470   4.651   0.187 -0.1373 -0.0449  0.2932
 9542SOL    HW140088   3.407   4.588   0.152 -0.2992  0.4751 -0.3567
 9542SOL    HW240089   3.410   0.005   0.191  1.1959  1.0759 -0.7979
 9543SOL     OW40090   0.712   0.379   7.866 -0.0981 -0.3277 -0.2679
 9543SOL    HW140091   0.750   0.304   7.819 -0.7120 -0.7172 -0.1352
 9543SOL    HW240092   0.728   0.348   7.955 -0.1094  1.5479  0.3861
 9544SOL     OW40093   2.136   3.982  13.280  0.2529  0.3475 -0.0668
 9544SOL    HW140094   2.089   3.958  13.360  0.5833  0.2535  0.0974
 9544SOL    HW240095   2.140   4.078  13.289  0.2009  0.2270  1.2500
 9545SOL     OW40096   0.379   4.642   4.408  0.2689 -0.5400  0.4155
 9545SOL    HW140097   0.352   4.706   4.341 -1.2575 -2.0285 -0.4008
 9545SOL    HW240098   0.295   4.597   4.418 -0.2421  0.9450  2.6434
 9546SOL     OW40099   3.182   2.778   6.384  0.0101 -0.0409 -0.0537
 9546SOL    HW140100   3.175   2.692   6.426 -0.0687 -0.1151 -0.2186
 9546SOL    HW240101   3.274   2.800   6.396  0.7221 -3.3179  0.5011
 9547SOL     OW40102   3.021   3.797   4.755 -0.2710  0.3518 -0.1327
 9547SOL    HW140103   3.005   3.746   4.834  0.4196 -0.2109 -0.3563
 9547SOL    HW240104   3.066   3.869   4.799 -1.0336 -0.2513  1.6212
 9548SOL     OW40105   3.311   3.592   4.926 -0.0925 -0.1276 -0.4381
 9548SOL    HW140106   3.395   3.562   4.963  0.8756  0.2307 -2.3652
 9548SOL    HW240107   3.333   3.683   4.943 -1.2989 -0.0977  1.0150
 9549SOL     OW40108   3.274   0.174   1.588 -0.0716  0.3241 -0.1826
 9549SOL    HW140109   3.350   0.159   1.644 -0.2822 -1.0356 -0.2775
 9549SOL    HW240110   3.269   0.107   1.520  0.1465  0.3958 -0.2694
 9550SOL     OW40111   1.142   0.896   7.241 -0.0136  0.4790 -0.0665
 9550SOL    HW140112   1.193   0.815   7.240 -0.0613  0.4162  2.0643
 9550SOL    HW240113   1.180   0.949   7.311  1.3942 -0.5408 -0.0697
 9551SOL     OW40114   0.458   1.565   2.020 -0.3287  0.1445  0.0401
 9551SOL    HW140115   0.538   1.616   2.007 -0.5058  0.3301 -0.3059
 9551SOL    HW240116   0.441   1.537   1.930 -0.1995 -0.5022  0.2134
 9552SOL     OW40117   1.223   2.222   8.350 -0.4438  0.1284  0.1074
 9552SOL    HW140118   1.163   2.268   8.409 -0.3976  0.5941 -0.2097
 9552SOL    HW240119   1.299   2.278   8.362 -0.8565  0.5297  0.8469
 9553SOL     OW40120   4.445   3.323   6.790  0.1145 -0.3192  0.0694
 9553SOL    HW140121   4.387   3.312   6.715 -0.4450  0.9843  0.3076
 9553SOL    HW240122   4.388   3.282   6.855 -1.3438  0.2253 -0.8822
 9554SOL     OW40123   2.722   2.207   8.750 -0.5762 -0.5257  0.5438
 9554SOL    HW140124   2.683   2.153   8.681  1.9805  0.3435 -1.5833
 9554SOL    HW240125   2.777   2.142   8.795 -1.2762 -1.8976 -0.5917
 9555SOL     OW40126   3.220   1.869   2.986  0.1759 -0.3718  0.3883
 9555SOL    HW140127   3.234   1.779   2.956 -0.9462 -1.5490  3.4376
 9555SOL    HW240128   3.132   1.859   3.022 -0.7044  1.4294 -1.2364
 9556SOL     OW40129   1.819   0.547  15.838  0.8999  0.2888 -0.2368
 9556SOL    HW140130   1.812   0.642  15.830  0.8051  0.3507  0.5642
 9556SOL    HW240131   1.765   0.527  15.914 -0.9795  2.4110 -0.9963
 9557SOL     OW40132   0.924   2.193   4.065 -0.3111 -0.3356 -0.3856
 9557SOL    HW140133   0.841   2.147   4.080 -1.0443  1.2212  0.3312
 9557SOL    HW240134   0.979   2.157   4.135  1.0522  0.1585 -1.2067
 9558SOL     OW40135   3.679   1.180   0.331 -0.3015  0.1203 -0.1367
 9558SOL    HW140136   3.734   1.247   0.288 -0.8846 -0.0954 -1.2178
 9558SOL    HW240137   3.605   1.227   0.370 -1.7258 -1.0955 -1.4001
 9559SOL     OW40138   2.912   4.586   4.927 -0.0158  0.2406 -0.1053
 9559SOL    HW140139   2.867   4.629   4.854  0.8569  0.8308 -0.3032
 9559SOL    HW240140   2.972   4.525   4.883  0.7784 -0.1988  1.5914
 9560SOL     OW40141   4.714   1.897  11.651  0.2956 -0.0725  0.2784
 9560SOL    HW140142   0.067   1.857  11.604  1.4020  1.5746  0.6132
 9560SOL    HW240143   4.699   1.830  11.717  1.2717 -2.3131 -1.7520
 9561SOL     OW40144   1.535   1.392  10.068 -0.1254  0.1270  0.0026
 9561SOL    HW140145   1.596   1.407  10.140 -0.4069 -1.0793  0.4823
 9561SOL    HW240146   1.531   1.297  10.064 -1.4399  0.1443  0.7085
 9562SOL     OW40147   1.848   0.310   8.849 -0.0531  0.0422  0.3630
 9562SOL    HW140148   1.824   0.240   8.788 -2.1218  0.7482  0.3363
 9562SOL    HW240149   1.786   0.290   8.919  0.2427  1.3723  1.0080
 9563SOL     OW40150   1.817   1.934  17.572 -0.3084  0.5391  0.0757
 9563SOL    HW140151   1.877   2.006  17.555 -0.5684  0.4458 -1.1994
 9563SOL    HW240152   1.871   1.859  17.547  1.0642  0.9593  1.7446
 9564SOL     OW40153   0.159   3.830   4.386  0.1466 -0.0356 -0.8842
 9564SOL    HW140154   0.134   3.865   4.472 -0.5570 -0.3786 -0.9482
 9564SOL    HW240155   0.161   3.912   4.337 -0.1371  1.0918  0.9662
 9565SOL     OW40156   0.402   4.452   5.442 -0.1988 -0.0515 -0.0602
 9565SOL    HW140157   0.364   4.421   5.524  0.4240 -0.2063  0.1693
 9565SOL    HW240158   0.490   4.413   5.438 -0.0849  0.0187  1.7390
 9566SOL     OW40159   3.132   2.518  16.083 -0.0983 -0.0549 -0.2143
 9566SOL    HW140160   3.193   2.544  16.152 -1.3490  0.8323  0.5475
 9566SOL    HW240161   3.125   2.425  16.105  1.2852 -0.0917  0.0297
 9567SOL     OW40162   2.932   3.004   5.358 -0.1706 -0.6653 -0.0849
 9567SOL    HW140163   2.951   2.957   5.276 -2.4544 -2.2769  0.3085
 9567SOL    HW240164   2.865   2.949   5.397 -1.8774 -0.6145 -2.8920
 9568SOL     OW40165   2.208   0.618   7.304  0.3639 -0.2081 -0.4420
 9568SOL    HW140166   2.194   0.526   7.328 -2.4005  0.3920  0.2651
 9568SOL    HW240167   2.181   0.658   7.386  0.0991  0.6147 -0.9309
   4.72077   4.72077  17.68555
