Membrane in water
40167
    1TCq1    O1    1   3.958   3.013  10.501 -0.6031  0.2154 -0.1449
    1TCq1    C1    2   3.864   2.947  10.434 -1.6592 -0.4858 -0.3419
    1TCq1    O2    3   3.883   2.863  10.344 -0.3481 -0.3997 -0.2676
    1TCq1    C2    4   3.746   2.980  10.513 -0.6096  0.3025 -0.6159
    1TCq1    C3    5   3.747   3.110  10.574 -0.9595 -0.2372 -0.6064
    1TCq1    C4    6   3.650   3.131  10.668 -0.0885 -0.1798 -0.3507
    1TCq1    C5    7   3.562   3.038  10.713  0.5348 -0.0383 -0.1984
    1TCq1    C6    8   3.562   2.918  10.650 -0.2489  0.5500  0.3473
    1TCq1    C7    9   3.666   2.883  10.557  0.1388 -0.3073 -0.0908
    1TCq1    C8   10   3.482   2.805  10.703 -0.3129 -0.2662 -0.4666
    1TCq1    O4   11   3.440   2.819  10.819 -0.5698  0.5429 -0.2959
    1TCq1    C9   12   3.634   3.258  10.720  0.7443  0.1244  0.0731
    1TCq1    O5   13   3.705   3.350  10.668  0.2796  0.0412 -0.3455
    1TCq1    O6   14   3.580   3.260  10.834 -0.1854  0.6651 -0.1551
    1TCq1    H1   15   3.929   3.048  10.588  0.7229 -0.8869  0.7511
    1TCq1    H2   16   3.815   3.189  10.546 -2.3476  0.9584 -0.5692
    1TCq1    H3   17   3.485   3.053  10.788  0.4794 -1.0386 -0.0569
    1TCq1    H4   18   3.691   2.787  10.513 -1.2320 -1.2402  1.1741
    2MPD2     C   19   3.270   2.329  10.669  0.1909  0.7217  0.5268
    2MPD2    C1   20   3.284   2.419  10.774  0.5129  0.0665  0.1779
    2MPD2    C2   21   3.351   2.542  10.760 -0.1868 -0.3617  0.5791
    2MPD2    C3   22   3.401   2.579  10.641  0.1694 -0.4611 -0.0894
    2MPD2    C4   23   3.386   2.493  10.532  0.0581 -0.4267 -0.4918
    2MPD2    C5   24   3.324   2.369  10.549  0.1923 -0.2378  1.3405
    2MPD2     H   25   3.346   2.612  10.843 -1.1143 -1.1847  1.2143
    2MPD2    H1   26   3.425   2.513  10.433  1.1247 -0.0979  0.0040
    2MPD2    H2   27   3.213   2.237  10.669  0.9717  0.2380 -0.1398
    2MPD2    H3   28   3.338   2.318  10.454 -2.6052 -0.0979  0.8472
    2MPD2     N   29   3.469   2.704  10.614 -0.0835 -0.2817 -0.0110
    2MPD2    H5   30   3.498   2.721  10.518 -1.4289  0.3511 -0.3143
    2MPD2    N1   31   3.234   2.388  10.898  0.0499  0.6500 -0.6225
    2MPD2    H7   32   3.232   2.466  10.963  1.4520  0.2362 -0.0768
    3TCq1    O1   33   3.221   2.817  10.400 -0.7803 -0.5808 -0.1237
    3TCq1    C1   34   3.092   2.768  10.411  0.8196 -0.0556 -1.7180
    3TCq1    O2   35   3.060   2.654  10.365  0.4449  0.6051 -0.4286
    3TCq1    C2   36   2.993   2.866  10.431 -0.3167 -0.0916 -0.0919
    3TCq1    C3   37   3.006   2.988  10.379  0.2758  0.3293  0.1347
    3TCq1    C4   38   2.909   3.080  10.394  0.3216 -0.4438 -0.3540
    3TCq1    C5   39   2.795   3.044  10.467 -0.1693 -0.1327 -0.0806
    3TCq1    C6   40   2.777   2.914  10.516  0.5111 -0.1876 -0.1340
    3TCq1    C7   41   2.881   2.824  10.493 -0.5616 -0.3104 -0.0841
    3TCq1    C8   42   2.661   2.886  10.597  0.8880 -0.2442  0.7408
    3TCq1    O4   43   2.614   2.772  10.601 -0.0244 -0.0815 -0.5939
    3TCq1    C9   44   2.912   3.200  10.313 -0.3001  0.2529  0.5876
    3TCq1    O5   45   2.832   3.288  10.348  0.2019  0.0928 -0.0685
    3TCq1    O6   46   2.995   3.200  10.221 -0.6533  0.6075  0.0183
    3TCq1    H1   47   3.217   2.893  10.462 -1.0948 -1.3848  0.8233
    3TCq1    H2   48   3.088   3.022  10.317  0.3958 -0.0045  0.1067
    3TCq1    H3   49   2.710   3.110  10.474 -0.2334 -0.1597 -0.5890
    3TCq1    H4   50   2.869   2.724  10.532 -1.0223  0.2112  1.1469
    4MPD2     C   51   2.296   3.061  10.915 -0.3201 -0.0784  0.0639
    4MPD2    C1   52   2.380   3.166  10.884  0.2624 -0.5621 -0.5060
    4MPD2    C2   53   2.478   3.141  10.788 -0.0829 -0.2164 -0.5091
    4MPD2    C3   54   2.501   3.017  10.733  0.4657  1.0164 -0.3609
    4MPD2    C4   55   2.419   2.914  10.769  0.9196  0.8673  0.3861
    4MPD2    C5   56   2.314   2.937  10.862 -0.3125 -0.4623 -0.1118
    4MPD2     H   57   2.545   3.225  10.774  1.1058 -0.8898  1.0877
    4MPD2    H1   58   2.424   2.814  10.726 -0.9977  0.1389  1.8493
    4MPD2    H2   59   2.217   3.075  10.987 -0.5818  0.5166 -0.3430
    4MPD2    H3   60   2.247   2.856  10.887  0.4676 -1.9679 -2.9120
    4MPD2     N   61   2.616   3.002  10.655 -0.1862  0.2627 -0.2297
    4MPD2    H5   62   2.667   3.088  10.640  0.8048 -0.5514 -1.4938
    4MPD2    N1   63   2.362   3.296  10.941 -0.1128 -0.2331 -0.0324
    4MPD2    H7   64   2.418   3.365  10.892 -1.6379 -1.6937 -3.8050
    5TCq1    O1   65   3.580   0.325  11.763 -0.0601  0.1303  0.0122
    5TCq1    C1   66   3.454   0.296  11.805 -0.0441 -0.0226 -0.2444
    5TCq1    O2   67   3.418   0.249  11.912 -0.4503 -0.5122  0.3389
    5TCq1    C2   68   3.367   0.381  11.724  0.4501  0.0082  0.3946
    5TCq1    C3   69   3.255   0.430  11.793 -0.2558 -0.5229  0.5081
    5TCq1    C4   70   3.157   0.490  11.714  0.6169  1.0497 -0.4388
    5TCq1    C5   71   3.176   0.510  11.577  0.5746  0.0793  0.0840
    5TCq1    C6   72   3.290   0.460  11.521  0.5579 -0.3561 -0.9603
    5TCq1    C7   73   3.385   0.391  11.591  0.7902  0.1012  0.4437
    5TCq1    C8   74   3.306   0.464  11.374  0.1807  0.0225 -0.4790
    5TCq1    O4   75   3.391   0.388  11.322 -0.1655 -0.1139  0.2171
    5TCq1    C9   76   3.035   0.545  11.773  0.5104 -0.0256 -0.5140
    5TCq1    O5   77   2.953   0.602  11.696  0.2186 -0.0300  0.4907
    5TCq1    O6   78   2.996   0.510  11.893  0.0912 -0.1805  0.0696
    5TCq1    H1   79   3.594   0.372  11.678  0.0378 -0.3933 -0.2683
    5TCq1    H2   80   3.251   0.427  11.902  1.5056 -1.7779  0.5218
    5TCq1    H3   81   3.091   0.546  11.519 -0.0161 -1.6164 -0.1138
    5TCq1    H4   82   3.462   0.339  11.534  0.2971  0.0724 -0.2037
    6MPD2     C   83   3.103   0.672  11.150 -0.4425  0.8508 -0.1695
    6MPD2    C1   84   3.206   0.585  11.182 -0.8403 -0.1360 -0.1436
    6MPD2    C2   85   3.253   0.491  11.087 -0.0812  0.1085 -0.2056
    6MPD2    C3   86   3.201   0.498  10.961 -0.4100  0.0781  0.5236
    6MPD2    C4   87   3.110   0.599  10.927 -0.3673 -0.1023 -0.3761
    6MPD2    C5   88   3.059   0.682  11.021 -0.3144  0.0945  0.2898
    6MPD2     H   89   3.320   0.408  11.104  0.4486  0.6817  0.4584
    6MPD2    H1   90   3.086   0.622  10.824  0.3464 -0.1998 -0.5641
    6MPD2    H2   91   3.061   0.742  11.222 -2.0383  0.5227 -0.7790
    6MPD2    H3   92   2.979   0.746  10.984 -1.5509 -1.5024  0.2118
    6MPD2     N   93   3.235   0.396  10.872  0.1710  0.6496  0.3071
    6MPD2    H5   94   3.299   0.324  10.901 -0.4625  1.0359  2.6887
    6MPD2    N1   95   3.235   0.565  11.321 -0.1567 -0.0598  0.1856
    6MPD2    H7   96   3.189   0.621  11.392  1.3178  1.4906 -0.1049
    7TCq1    O1   97   0.844   0.058  13.716 -0.0969 -0.2976  0.0672
    7TCq1    C1   98   0.712   0.027  13.710  0.1808 -0.5063 -0.2566
    7TCq1    O2   99   0.656   4.696  13.803  0.1806  0.6136  0.0135
    7TCq1    C2  100   0.694   4.719  13.570 -0.3103 -0.2074 -0.2913
    7TCq1    C3  101   0.703   0.098  13.478 -0.0986  0.2495 -0.4256
    7TCq1    C4  102   0.665   0.064  13.352  0.0901  0.3362 -0.2298
    7TCq1    C5  103   0.622   4.660  13.317 -0.0768  0.1070 -0.3901
    7TCq1    C6  104   0.614   4.568  13.416 -0.0726 -0.2081  0.3459
    7TCq1    C7  105   0.636   4.598  13.543 -0.5124  0.2289 -0.2106
    7TCq1    C8  106   0.560   4.439  13.379 -0.4324 -0.5849  0.7734
    7TCq1    O4  107   0.463   4.401  13.449  0.4783 -0.0599 -0.2308
    7TCq1    C9  108   0.653   0.167  13.256  0.5080 -0.6462 -0.4465
    7TCq1    O5  109   0.594   0.138  13.148 -0.4745  0.0220 -0.4730
    7TCq1    O6  110   0.692   0.284  13.290 -0.0502  0.4212 -0.3007
    7TCq1    H1  111   0.874   0.062  13.622  1.1688 -2.5427  0.3676
    7TCq1    H2  112   0.750   0.193  13.502  0.8960 -0.5663  0.8931
    7TCq1    H3  113   0.613   4.628  13.214 -2.0153  0.7605 -0.4164
    7TCq1    H4  114   0.631   4.524  13.622  2.2748 -0.8929 -1.0632
    8MPD2     C  115   0.591   4.000  13.121 -0.5724 -0.4821  0.7522
    8MPD2    C1  116   0.499   4.044  13.218  0.3820 -0.3998  0.2339
    8MPD2    C2  117   0.510   4.175  13.273 -0.4389  0.2632  0.5100
    8MPD2    C3  118   0.613   4.255  13.232  0.7305  0.0950  0.3846
    8MPD2    C4  119   0.712   4.203  13.141 -0.1417 -0.7403 -0.1967
    8MPD2    C5  120   0.702   4.078  13.087 -0.1234  0.3819  0.2682
    8MPD2     H  121   0.430   4.201  13.341  1.0626  1.7348  1.6872
    8MPD2    H1  122   0.803   4.261  13.129  0.3482 -1.3140  0.7238
    8MPD2    H2  123   0.597   3.895  13.093  0.9232 -0.4951  1.1022
    8MPD2    H3  124   0.776   4.026  13.027 -2.4976 -0.4454 -1.9910
    8MPD2     N  125   0.647   4.378  13.290 -0.4523  0.1853  0.2522
    8MPD2    H5  126   0.733   4.429  13.271 -0.8430  1.0173  0.7038
    8MPD2    N1  127   0.402   3.949  13.268  0.6680 -0.1876  0.2210
    8MPD2    H7  128   0.408   3.862  13.214 -4.3034  1.6284 -3.2418
    9TCq1    O1  129   3.629   3.370  10.414 -0.2719  0.4877 -0.0363
    9TCq1    C1  130   3.509   3.335  10.365  0.3829  0.6389 -0.2528
    9TCq1    O2  131   3.492   3.259  10.270  0.2095  0.2666  0.1294
    9TCq1    C2  132   3.422   3.347  10.482 -0.5443 -0.5916 -0.1412
    9TCq1    C3  133   3.362   3.232  10.514  0.5248  0.5779  1.5307
    9TCq1    C4  134   3.267   3.230  10.613 -0.1593  0.0444  0.2484
    9TCq1    C5  135   3.244   3.340  10.686  0.1000 -0.2658 -0.1755
    9TCq1    C6  136   3.324   3.452  10.659 -0.8133 -0.6959  0.5754
    9TCq1    C7  137   3.412   3.460  10.551  0.5783 -0.0828 -0.5231
    9TCq1    C8  138   3.313   3.574  10.743 -0.3740  0.5177 -0.6258
    9TCq1    O4  139   3.335   3.687  10.704 -0.6156  0.3979  0.1172
    9TCq1    C9  140   3.203   3.108  10.645 -0.7397  0.6813  1.0352
    9TCq1    O5  141   3.117   3.103  10.732 -0.2063  0.2510  0.0579
    9TCq1    O6  142   3.235   3.008  10.575  0.3265 -0.7309  0.1344
    9TCq1    H1  143   3.629   3.392  10.509 -2.4271 -0.9412  0.3000
    9TCq1    H2  144   3.399   3.141  10.466  0.1629  1.9441 -1.3599
    9TCq1    H3  145   3.159   3.337  10.753  0.3075 -0.4459  0.0808
    9TCq1    H4  146   3.462   3.553  10.524 -0.1424  1.1813  2.4213
   10MPD2     C  147   3.253   3.759  10.975  0.8099 -1.0947  0.2366
   10MPD2    C1  148   3.253   3.623  10.980 -0.7062 -0.0679  0.2353
   10MPD2    C2  149   3.204   3.565  11.099  0.5139 -0.6831 -0.2216
   10MPD2    C3  150   3.156   3.632  11.210 -0.4387  0.0903 -0.2725
   10MPD2    C4  151   3.158   3.771  11.189  0.5650  0.0826  0.8096
   10MPD2    C5  152   3.216   3.829  11.077  0.0163  0.1691  0.0238
   10MPD2     H  153   3.221   3.458  11.103  0.6723 -0.6569 -0.2009
   10MPD2    H1  154   3.126   3.840  11.266 -0.6816 -0.2047  0.5430
   10MPD2    H2  155   3.285   3.815  10.888  2.5398 -1.4761  0.6265
   10MPD2    H3  156   3.205   3.937  11.069 -1.0422  0.0406 -0.2315
   10MPD2     N  157   3.098   3.567  11.322  0.2138  0.1025  0.1520
   10MPD2    H5  158   3.055   3.622  11.396 -1.0530  0.5804 -0.9342
   10MPD2    N1  159   3.286   3.541  10.868 -0.0936 -0.5035 -0.4628
   10MPD2    H7  160   3.285   3.442  10.890 -3.2372 -0.7007 -1.5366
   11TCq1    O1  161   3.842   3.305  14.059  0.4200  0.4877 -0.6021
   11TCq1    C1  162   3.777   3.205  14.118 -0.1985 -0.9167 -0.1643
   11TCq1    O2  163   3.698   3.134  14.057  0.2498 -0.0415 -0.3602
   11TCq1    C2  164   3.763   3.242  14.260 -0.0515 -0.1313 -0.5149
   11TCq1    C3  165   3.878   3.259  14.336 -0.0328  0.5260 -0.1075
   11TCq1    C4  166   3.867   3.281  14.467  0.3037 -0.2203  0.5324
   11TCq1    C5  167   3.745   3.278  14.525 -0.6579 -0.4255  0.0580
   11TCq1    C6  168   3.632   3.252  14.446 -0.3695 -0.0020  0.1914
   11TCq1    C7  169   3.638   3.233  14.312  0.0020 -0.0242  1.0434
   11TCq1    C8  170   3.506   3.231  14.515 -0.3330 -0.3648 -0.1131
   11TCq1    O4  171   3.494   3.266  14.634  0.6118 -0.0177  0.1088
   11TCq1    C9  172   3.993   3.313  14.531 -0.6047  0.3362 -0.4598
   11TCq1    O5  173   3.989   3.362  14.649  0.2730  0.4181  0.1994
   11TCq1    O6  174   4.092   3.328  14.450 -0.4093  0.5125  0.3329
   11TCq1    H1  175   3.869   3.375  14.122  0.3793 -0.1172  0.0818
   11TCq1    H2  176   3.975   3.247  14.290 -0.3880  0.8067 -0.9382
   11TCq1    H3  177   3.726   3.295  14.630  0.3270 -1.1388  0.3506
   11TCq1    H4  178   3.548   3.250  14.254 -2.3420 -2.4160  3.9675
   12MPD2     C  179   3.214   3.172  14.573  0.4973 -1.0167 -0.1135
   12MPD2    C1  180   3.279   3.148  14.459 -0.0067  0.0312  0.1577
   12MPD2    C2  181   3.216   3.078  14.359  0.3309 -0.0950  0.4588
   12MPD2    C3  182   3.087   3.036  14.373  0.1877 -0.3360  0.3487
   12MPD2    C4  183   3.018   3.081  14.486  0.2911 -0.1839 -0.1925
   12MPD2    C5  184   3.081   3.145  14.590  0.1317  0.1563 -0.7896
   12MPD2     H  185   3.268   3.057  14.266 -1.9232 -1.4779 -0.5102
   12MPD2    H1  186   2.913   3.063  14.506  0.2757  0.7254  0.5367
   12MPD2    H2  187   3.272   3.213  14.655 -1.2837  1.1297  0.0511
   12MPD2    H3  188   3.041   3.186  14.682  0.2278 -0.0436 -0.6582
   12MPD2     N  189   3.029   2.967  14.270  0.7453 -0.0106 -0.3700
   12MPD2    H5  190   3.086   2.921  14.199  0.4654  0.1340 -0.6886
   12MPD2    N1  191   3.414   3.172  14.428  0.0962 -0.1639 -0.2937
   12MPD2    H7  192   3.453   3.135  14.342  0.6870 -1.6077  0.5854
   13TCq1    O1  193   2.410   1.659  11.065 -0.3951 -0.2999 -0.3840
   13TCq1    C1  194   2.510   1.738  11.121  0.3687  0.2118 -0.1517
   13TCq1    O2  195   2.510   1.782  11.234 -0.3651  0.6492  0.0322
   13TCq1    C2  196   2.574   1.809  11.017  0.0250  0.3339  0.1738
   13TCq1    C3  197   2.615   1.745  10.899  0.1957 -0.1299  0.0870
   13TCq1    C4  198   2.646   1.819  10.792 -0.0029  0.3402 -0.0261
   13TCq1    C5  199   2.656   1.958  10.793  0.5960 -0.2019  0.1399
   13TCq1    C6  200   2.618   2.018  10.912 -0.1228 -0.1539 -0.1896
   13TCq1    C7  201   2.566   1.946  11.025 -0.3626  1.0157  0.7453
   13TCq1    C8  202   2.651   2.160  10.926 -0.2542 -0.2251 -0.1679
   13TCq1    O4  203   2.601   2.206  11.025 -0.2867  0.0258  0.3158
   13TCq1    C9  204   2.675   1.756  10.663 -0.3792  0.2791  0.0213
   13TCq1    O5  205   2.710   1.834  10.567  0.6962  0.7813  0.4997
   13TCq1    O6  206   2.669   1.628  10.653 -0.3143 -0.9463 -0.2692
   13TCq1    H1  207   2.407   1.675  10.968  0.0665 -0.9172 -0.4981
   13TCq1    H2  208   2.614   1.637  10.895  1.2297 -0.1764  0.9622
   13TCq1    H3  209   2.664   2.024  10.707 -1.5765 -0.3259 -0.1660
   13TCq1    H4  210   2.535   1.998  11.115 -1.4658 -0.6917  1.3459
   14MPD2     C  211   2.888   2.370  10.751  0.0739  0.4899 -0.8815
   14MPD2    C1  212   2.776   2.339  10.831 -0.0400  0.0328  0.6608
   14MPD2    C2  213   2.721   2.445  10.904  0.3483 -0.3310  0.4215
   14MPD2    C3  214   2.779   2.574  10.897  0.1320 -0.2724 -0.1677
   14MPD2    C4  215   2.890   2.596  10.819 -0.1234  0.1309  0.1193
   14MPD2    C5  216   2.942   2.490  10.750 -0.3050 -0.3074 -0.7630
   14MPD2     H  217   2.641   2.427  10.975 -0.5005  0.7004 -0.2782
   14MPD2    H1  218   2.930   2.695  10.800 -1.7068  0.5951 -0.8382
   14MPD2    H2  219   2.940   2.290  10.700 -0.6264 -0.7920  0.4011
   14MPD2    H3  220   3.021   2.500  10.677  0.7803 -0.0948  0.4548
   14MPD2     N  221   2.714   2.678  10.964  0.0123 -0.5708 -0.5906
   14MPD2    H5  222   2.623   2.657  11.004  0.9266 -1.1304  1.1699
   14MPD2    N1  223   2.747   2.207  10.843  0.5386  0.4493 -0.3865
   14MPD2    H7  224   2.796   2.142  10.782 -2.4233  0.6226 -2.9494
   15TCq1    O1  225   4.263   3.294   1.993  0.0086 -0.0832  0.3454
   15TCq1    C1  226   4.319   3.235   1.879 -0.6302 -0.4845 -0.4379
   15TCq1    O2  227   4.420   3.167   1.883  0.1876 -0.2555  0.4780
   15TCq1    C2  228   4.205   3.209   1.791  0.2352 -0.1278 -0.2973
   15TCq1    C3  229   4.105   3.304   1.794  0.2231 -0.1403 -1.1519
   15TCq1    C4  230   3.999   3.285   1.713  0.1633 -0.0429 -0.1402
   15TCq1    C5  231   3.989   3.183   1.619  0.1661 -0.2017  0.4636
   15TCq1    C6  232   4.087   3.093   1.621 -1.0278 -0.1046 -0.4732
   15TCq1    C7  233   4.195   3.103   1.708  0.2654  0.4253 -0.1234
   15TCq1    C8  234   4.080   2.968   1.546  0.2025  0.2112  0.4583
   15TCq1    O4  235   4.176   2.903   1.542 -0.5074  0.1025  0.2759
   15TCq1    C9  236   3.898   3.386   1.709 -0.2337  0.1171 -0.0192
   15TCq1    O5  237   3.915   3.485   1.781 -0.0173 -0.4177  0.1159
   15TCq1    O6  238   3.807   3.379   1.623 -0.4545 -0.0210  0.5767
   15TCq1    H1  239   4.165   3.297   1.987  0.2265 -0.8201 -3.3284
   15TCq1    H2  240   4.110   3.397   1.850  2.7372 -1.5200  0.9009
   15TCq1    H3  241   3.902   3.181   1.554  0.6999 -0.8247 -0.2281
   15TCq1    H4  242   4.282   3.039   1.701  1.9410  2.5640  1.3811
   16MPD2     C  243   3.791   2.824   1.380 -0.0358  0.1831  0.2860
   16MPD2    C1  244   3.916   2.829   1.422  0.3984 -0.2686 -0.5800
   16MPD2    C2  245   4.015   2.743   1.373  0.2928 -0.2705  0.8709
   16MPD2    C3  246   3.973   2.647   1.283  1.5553 -0.1422 -0.4910
   16MPD2    C4  247   3.842   2.643   1.238  0.5843  0.4544  0.4786
   16MPD2    C5  248   3.749   2.726   1.296  0.2469  0.4671 -0.8248
   16MPD2     H  249   4.120   2.745   1.399  0.4166 -0.5256  0.3764
   16MPD2    H1  250   3.817   2.573   1.159  1.6100  0.2983  0.2996
   16MPD2    H2  251   3.716   2.885   1.429 -1.5824 -1.0880 -0.4627
   16MPD2    H3  252   3.647   2.731   1.260  1.0200  2.2582 -2.7710
   16MPD2     N  253   4.072   2.564   1.231 -0.1858  0.2450  0.2824
   16MPD2    H5  254   4.163   2.577   1.275 -0.0792  2.2888 -0.5415
   16MPD2    N1  255   3.950   2.941   1.498 -0.1766 -0.7384  0.0734
   16MPD2    H7  256   3.879   3.011   1.518  0.3544  0.1410 -1.0956
   17TCq1    O1  257   2.554   1.239  10.407  0.3875  0.1587  0.5360
   17TCq1    C1  258   2.493   1.247  10.286 -0.1535 -0.6331 -0.0762
   17TCq1    O2  259   2.379   1.207  10.265 -0.4443  0.0181 -0.0536
   17TCq1    C2  260   2.601   1.252  10.195 -0.0363 -0.4649  0.9236
   17TCq1    C3  261   2.716   1.175  10.229  0.0560 -0.5333 -1.2716
   17TCq1    C4  262   2.830   1.212  10.165 -0.3981  0.6106  0.7019
   17TCq1    C5  263   2.835   1.324  10.086 -0.0269 -0.1882  0.4521
   17TCq1    C6  264   2.722   1.402  10.069  0.3573 -0.1460  0.1317
   17TCq1    C7  265   2.599   1.363  10.115 -0.2878 -0.0566 -0.0003
   17TCq1    C8  266   2.720   1.509   9.968  0.5051  0.3545 -0.8271
   17TCq1    O4  267   2.622   1.534   9.899 -0.7558  0.1407 -0.0532
   17TCq1    C9  268   2.948   1.126  10.186 -0.6318  0.4548 -0.1780
   17TCq1    O5  269   3.059   1.177  10.148 -0.0873 -0.1696  0.3821
   17TCq1    O6  270   2.936   1.010  10.236 -0.2897 -0.3007  0.6220
   17TCq1    H1  271   2.641   1.282  10.400  0.4026 -0.2566 -1.7501
   17TCq1    H2  272   2.717   1.082  10.284 -1.9997  0.4653  0.4602
   17TCq1    H3  273   2.929   1.348  10.036 -0.2862 -0.5289 -0.2004
   17TCq1    H4  274   2.510   1.424  10.103 -1.1956 -1.2553  0.5648
   18MPD2     C  275   2.821   1.685   9.735 -0.4187 -0.1104  0.1293
   18MPD2    C1  276   2.892   1.647   9.844 -0.2480  0.0722  0.1175
   18MPD2    C2  277   3.024   1.681   9.838  0.3849 -0.2028 -0.0490
   18MPD2    C3  278   3.072   1.763   9.737 -0.3748 -0.4209  0.4269
   18MPD2    C4  279   2.999   1.798   9.629  0.7794  0.0629  0.3456
   18MPD2    C5  280   2.871   1.757   9.626 -0.2710  0.8754 -0.1807
   18MPD2     H  281   3.091   1.660   9.920 -0.1346  2.6144  1.1017
   18MPD2    H1  282   3.037   1.857   9.546  1.3636 -0.2670  0.3802
   18MPD2    H2  283   2.717   1.654   9.730 -1.6505  3.4847  3.3374
   18MPD2    H3  284   2.804   1.791   9.548 -1.7398  0.5912  0.9487
   18MPD2     N  285   3.201   1.823   9.744 -0.1474 -0.2813 -0.5000
   18MPD2    H5  286   3.233   1.865   9.658  1.4152 -0.1378  0.1343
   18MPD2    N1  287   2.843   1.565   9.949 -0.2752 -0.2057 -0.0899
   18MPD2    H7  288   2.915   1.566  10.020 -0.6770  0.1192  0.3190
   19TMC2    C1  289   3.816   3.038  13.655  0.3144 -0.3748  0.0927
   19TMC2    C2  290   3.727   3.090  13.567  0.0045 -0.8013  0.2888
   19TMC2    C3  291   3.655   3.006  13.487  0.1222 -0.3856  0.4572
   19TMC2    C4  292   3.834   2.905  13.673 -0.1918  0.6716 -1.0028
   19TMC2    C5  293   3.752   2.823  13.601  0.2758 -0.2874  0.2712
   19TMC2    C6  294   3.669   2.869  13.504  0.4737  0.0283 -0.5325
   19TMC2     C  295   3.929   3.124  13.700 -0.4106  0.1643 -0.2620
   19TMC2     O  296   3.939   3.242  13.672 -0.2118 -0.7525 -0.2103
   19TMC2     H  297   3.718   3.197  13.554 -0.1646 -0.5225  2.6087
   19TMC2    H1  298   3.904   2.858  13.742  1.3484  0.6312 -2.6120
   19TMC2    H2  299   3.626   2.796  13.437 -0.0316 -0.2905  0.1330
   19TMC2    C7  300   3.754   2.677  13.615  0.0701 -0.1290  0.1271
   19TMC2    C8  301   3.534   3.054  13.425 -0.0459  0.4272 -0.1950
   19TMC2    O1  302   3.650   2.620  13.594 -0.6978 -0.4684  0.1747
   19TMC2    O2  303   3.493   3.172  13.434 -0.2260  0.6010 -0.6589
   19TMC2    O5  304   3.498   2.967  13.329 -0.3262 -0.1946  0.0860
   19TMC2    H5  305   3.556   2.887  13.322 -1.1152 -0.7052 -0.6498
   20MPD2     C  306   4.090   3.237  13.906  0.4452  0.0905 -0.2797
   20MPD2    C1  307   4.111   3.108  13.854 -0.0733 -0.1040 -0.2889
   20MPD2    C2  308   4.204   3.031  13.914 -0.2075 -0.0487 -0.5466
   20MPD2    C3  309   4.271   3.079  14.027 -0.0779  0.0363 -0.4010
   20MPD2    C4  310   4.252   3.209  14.067 -0.0903  0.6201 -0.2172
   20MPD2    C5  311   4.161   3.286  14.014 -0.4449  0.1536 -0.1473
   20MPD2     H  312   4.215   2.929  13.878 -2.2761 -0.3883 -0.2305
   20MPD2    H1  313   4.318   3.238  14.149  2.3026  1.0994 -2.3126
   20MPD2    H2  314   4.016   3.309  13.872 -0.6608 -1.5510 -1.3632
   20MPD2    H3  315   4.142   3.384  14.056 -4.2137 -1.3775  1.6441
   20MPD2     N  316   4.366   3.004  14.107 -0.1986  0.5287  0.4272
   20MPD2    H5  317   4.405   3.055  14.186 -2.1123  1.2303  0.9267
   20MPD2    N1  318   4.032   3.051  13.754  0.1469  0.5194 -0.5892
   20MPD2    H7  319   4.049   2.953  13.731 -2.8063 -0.3254  0.8849
   21MPD2     C  320   1.914   3.493  14.521 -0.5077 -0.3009  0.7714
   21MPD2    C1  321   1.946   3.362  14.483 -1.1112  0.7267  0.7582
   21MPD2    C2  322   1.853   3.258  14.483 -0.2763  0.1796 -0.3545
   21MPD2    C3  323   1.722   3.286  14.514  0.3248  0.5512  0.7601
   21MPD2    C4  324   1.686   3.413  14.552  1.0975 -0.5521 -0.0970
   21MPD2    C5  325   1.778   3.515  14.546 -0.2566  0.2579 -0.2855
   21MPD2     H  326   1.892   3.165  14.444  0.9062 -0.1081  1.4923
   21MPD2    H1  327   1.586   3.446  14.574  0.4116 -1.9957 -1.0944
   21MPD2    H2  328   1.987   3.574  14.520  0.4228 -1.1772 -1.4870
   21MPD2    H3  329   1.748   3.614  14.575 -0.8723 -0.0711  0.1899
   21MPD2     N  330   1.618   3.189  14.507 -0.4583 -0.5203 -0.1751
   21MPD2    H5  331   1.525   3.217  14.538  0.5348  2.5788  0.0131
   21MPD2    N1  332   2.083   3.334  14.450  0.6022 -0.7005 -0.1565
   21MPD2    H7  333   2.099   3.245  14.402 -1.5725 -0.6368 -0.9825
   22TCq2    C1  334   1.631   3.070  14.434  1.0577 -0.0356 -1.3887
   22TCq2    O2  335   1.732   3.015  14.397 -0.1473 -0.2328 -0.4068
   22TCq2    C2  336   1.517   2.993  14.421 -0.5082  0.8354  0.2408
   22TCq2    C3  337   1.543   2.859  14.409 -0.0829 -0.0983  0.1251
   22TCq2    C4  338   1.442   2.770  14.409  0.2017 -0.7996  0.3001
   22TCq2    C5  339   1.315   2.817  14.396  0.5212 -0.7148 -0.2633
   22TCq2    C6  340   1.286   2.955  14.401 -0.7668 -0.0991 -0.8595
   22TCq2    C7  341   1.391   3.047  14.412 -0.8510  0.1910 -1.0313
   22TCq2    C8  342   1.157   2.996  14.343 -0.3527 -0.0570  0.7943
   22TCq2    O4  343   1.101   2.903  14.290 -0.3575  0.3409 -0.4479
   22TCq2    C9  344   1.465   2.632  14.425 -0.0880 -0.3459 -0.1485
   22TCq2    O5  345   1.588   2.603  14.439 -0.5983  0.6292  0.5864
   22TCq2    O6  346   1.373   2.560  14.380 -0.2956  0.1312  0.1295
   22TCq2    H2  347   1.638   2.816  14.437 -0.6271 -0.1444  1.8880
   22TCq2    H3  348   1.235   2.744  14.384 -0.6835  0.9219 -2.2594
   22TCq2    H4  349   1.378   3.154  14.399  1.2499  0.4160 -1.1677
   23MPD2     C  350   3.954   3.877  14.281  0.2912  0.1234  0.0577
   23MPD2    C1  351   3.835   3.907  14.346  0.4663  0.6294  0.3465
   23MPD2    C2  352   3.743   3.991  14.286  0.2102 -0.0709 -0.3645
   23MPD2    C3  353   3.792   4.056  14.171 -0.3357  0.0251 -0.3050
   23MPD2    C4  354   3.912   4.026  14.107  1.1135  0.8115  0.7117
   23MPD2    C5  355   3.986   3.927  14.161 -0.2591 -0.2076  0.3561
   23MPD2     H  356   3.655   4.024  14.340  1.2467 -0.2972  1.4605
   23MPD2    H1  357   3.921   4.076  14.012  1.2676  0.4818  0.5547
   23MPD2    H2  358   4.028   3.805  14.316 -2.2476 -0.1265  4.9437
   23MPD2    H3  359   4.079   3.890  14.118 -1.1376 -0.2974 -1.4497
   23MPD2     N  360   3.723   4.168  14.113 -0.6413 -0.1940  0.5686
   23MPD2    H5  361   3.773   4.218  14.040 -2.5561  0.8436 -0.0347
   23MPD2    N1  362   3.797   3.857  14.472 -0.0841  0.4731  0.3405
   23MPD2    H7  363   3.720   3.893  14.527  1.2285  0.1051  2.4301
   24TCq2    C1  364   3.583   4.176  14.121 -0.2941  0.0197  0.5486
   24TCq2    O2  365   3.503   4.094  14.169  0.2183 -0.4467 -0.0443
   24TCq2    C2  366   3.527   4.290  14.048 -0.6454 -0.5310  0.2894
   24TCq2    C3  367   3.595   4.412  14.059  0.7502 -0.3590  0.1285
   24TCq2    C4  368   3.537   4.523  14.007 -0.4027 -0.3897 -0.1967
   24TCq2    C5  369   3.407   4.525  13.962 -0.4770 -0.6113 -0.7631
   24TCq2    C6  370   3.349   4.402  13.945  0.6541  0.2357 -0.0617
   24TCq2    C7  371   3.405   4.286  13.987  0.1881 -0.0611  0.0416
   24TCq2    C8  372   3.206   4.397  13.912  0.0535  0.2264  0.1007
   24TCq2    O4  373   3.176   4.282  13.871 -0.0930  0.0127 -0.1849
   24TCq2    C9  374   3.604   4.652  14.024  0.5540 -0.1399 -0.2639
   24TCq2    O5  375   3.693   4.656  14.112  0.1536  0.4000  0.6248
   24TCq2    O6  376   3.549   0.031  13.977  0.0362 -0.0673 -0.9046
   24TCq2    H2  377   3.694   4.435  14.098 -0.1980  1.7446  1.2940
   24TCq2    H3  378   3.373   4.612  13.907 -0.0665 -0.9726 -1.5952
   24TCq2    H4  379   3.355   4.191  13.974  0.0724 -0.3950  2.8794
   25TMC2    C1  380   2.502   1.370  11.204 -0.3168  0.5012  0.8248
   25TMC2    C2  381   2.591   1.280  11.255 -0.1722  0.6553  0.6968
   25TMC2    C3  382   2.626   1.288  11.388 -0.7277 -0.4390  0.2441
   25TMC2    C4  383   2.426   1.450  11.287 -0.4142  0.6489  0.3210
   25TMC2    C5  384   2.465   1.453  11.421  0.3194 -0.3225 -0.9666
   25TMC2    C6  385   2.564   1.368  11.471  0.0653 -0.9092 -0.0681
   25TMC2     C  386   2.429   1.316  11.095  0.2794  0.5165  0.4217
   25TMC2     O  387   2.490   1.286  10.996 -0.0661 -0.4284 -0.2234
   25TMC2     H  388   2.661   1.245  11.180 -0.9558  1.2680 -0.3049
   25TMC2    H1  389   2.341   1.512  11.260 -1.0602 -0.6816 -0.6857
   25TMC2    H2  390   2.587   1.371  11.576 -1.9526  4.2409  0.2287
   25TMC2    C7  391   2.412   1.547  11.514 -0.3350 -0.0073 -0.2318
   25TMC2    C8  392   2.705   1.180  11.442 -0.6351  0.6163  0.1471
   25TMC2    O1  393   2.399   1.515  11.632 -0.1720  0.2690  0.4039
   25TMC2    O2  394   2.721   1.084  11.369 -0.0700  0.3836  0.4709
   25TMC2    O5  395   2.810   1.254  11.488 -0.3472 -0.1037  0.3424
   25TMC2    H5  396   2.783   1.321  11.555 -2.4361 -2.4325  1.8224
   26MPD2     C  397   2.085   0.994  10.940 -0.0200  0.9875 -0.1525
   26MPD2    C1  398   2.039   1.033  11.063  0.1322 -0.6633  0.5666
   26MPD2    C2  399   2.116   1.130  11.126 -0.0408  0.0467  0.3433
   26MPD2    C3  400   2.227   1.187  11.062  0.3661 -0.7281 -0.3905
   26MPD2    C4  401   2.255   1.165  10.924 -0.1492 -0.0333 -0.0312
   26MPD2    C5  402   2.183   1.064  10.871 -0.2278  0.5969  0.7708
   26MPD2     H  403   2.112   1.151  11.232 -0.1204 -0.9901  0.5424
   26MPD2    H1  404   2.330   1.216  10.865 -0.6905  1.1724  0.3194
   26MPD2    H2  405   2.032   0.915  10.890  1.4282 -0.9903  1.4402
   26MPD2    H3  406   2.202   1.028  10.770  1.1265 -0.6626  1.4737
   26MPD2     N  407   2.304   1.277  11.141  0.3516  0.1568  0.0585
   26MPD2    H5  408   2.289   1.294  11.240 -0.4077 -0.2805  0.0159
   26MPD2    N1  409   1.926   0.971  11.121  0.2665 -0.4618  0.0263
   26MPD2    H7  410   1.881   0.895  11.071 -0.8092  1.0179 -1.2017
   27TMC2    C1  411   1.062   3.545  11.822 -0.2441  0.4269  0.1008
   27TMC2    C2  412   1.189   3.564  11.775 -0.4916  0.4370 -0.3421
   27TMC2    C3  413   1.231   3.693  11.751  0.6797 -0.1083 -0.0582
   27TMC2    C4  414   0.967   3.648  11.844 -0.8105 -0.2612 -0.1571
   27TMC2    C5  415   1.020   3.772  11.837  0.1865  0.1026  0.2280
   27TMC2    C6  416   1.149   3.799  11.790  1.2683 -0.1074  0.1611
   27TMC2     C  417   1.059   3.438  11.920  0.4042 -0.2239 -0.1247
   27TMC2     O  418   1.138   3.343  11.899  0.2777  0.2137 -0.0008
   27TMC2     H  419   1.246   3.480  11.737  1.4053  1.0078  1.1974
   27TMC2    H1  420   0.864   3.623  11.869 -0.7270  0.4912  0.9437
   27TMC2    H2  421   1.195   3.897  11.779  0.0688  0.4475  0.1321
   27TMC2    C7  422   0.993   3.840  11.963 -0.2605 -0.7395  0.8248
   27TMC2    C8  423   1.376   3.718  11.734 -0.1041  0.2302 -0.2422
   27TMC2    O1  424   0.920   3.768  12.028  0.0210 -0.4645  0.7333
   27TMC2    O2  425   1.434   3.804  11.794 -0.3894 -0.4012 -0.3132
   27TMC2    O5  426   1.442   3.620  11.663 -0.9038 -0.6959  0.1215
   27TMC2    H5  427   1.380   3.558  11.619 -1.8925 -0.2385  0.8441
   28MPD2     C  428   0.918   3.231  12.380  0.1216  0.0993 -0.5290
   28MPD2    C1  429   0.859   3.352  12.361 -0.1387  0.2688  0.0806
   28MPD2    C2  430   0.881   3.431  12.250 -0.6841 -0.0201 -0.0152
   28MPD2    C3  431   0.970   3.388  12.148 -0.0496 -0.7098 -0.5016
   28MPD2    C4  432   1.026   3.265  12.169 -0.4925 -0.4205 -0.4597
   28MPD2    C5  433   1.000   3.187  12.275  0.0812  0.8699 -0.2401
   28MPD2     H  434   0.819   3.518  12.236  0.1501  0.0848 -2.9874
   28MPD2    H1  435   1.091   3.214  12.098 -0.1265 -0.3140 -0.2024
   28MPD2    H2  436   0.897   3.158  12.457  2.8344  0.9129  0.9690
   28MPD2    H3  437   1.045   3.088  12.281  0.2136  1.1070  3.0820
   28MPD2     N  438   0.982   3.470  12.033  0.4429  1.0908  0.0606
   28MPD2    H5  439   0.940   3.562  12.032  1.4833  1.5599 -2.5180
   28MPD2    N1  440   0.764   3.381  12.466  0.2631  0.3886 -0.0568
   28MPD2    H7  441   0.747   3.313  12.540  1.8237  0.6910  0.5816
   29MPD2     C  442   0.389   1.037  13.997  0.1914 -0.2316  0.2525
   29MPD2    C1  443   0.517   1.032  13.958  0.8099  0.4791  0.1547
   29MPD2    C2  444   0.587   1.139  13.924 -0.5842  0.2821  0.0798
   29MPD2    C3  445   0.529   1.268  13.930 -0.2600  0.5184  0.6242
   29MPD2    C4  446   0.397   1.272  13.970  0.1960 -0.2809  0.8519
   29MPD2    C5  447   0.331   1.156  13.989  0.2193 -0.4593  0.1881
   29MPD2     H  448   0.691   1.129  13.893 -0.6447  0.1491 -0.0813
   29MPD2    H1  449   0.347   1.367  13.986 -0.4589 -0.4806 -0.0363
   29MPD2    H2  450   0.323   0.955  14.024  0.8082 -1.2582 -1.3403
   29MPD2    H3  451   0.227   1.171  14.017  0.1314  0.9734 -0.9129
   29MPD2     N  452   0.594   1.391  13.903  0.6492  0.1768  0.3566
   29MPD2    H5  453   0.550   1.472  13.946 -2.1797 -0.5963 -1.1247
   29MPD2    N1  454   0.577   0.907  13.968 -0.2192 -0.0801 -0.3446
   29MPD2    H7  455   0.678   0.909  13.958 -0.3896 -0.4123 -2.1366
   30TCq2    C1  456   0.723   1.392  13.851 -0.4444  0.3436  0.8587
   30TCq2    O2  457   0.790   1.310  13.786  0.0337 -0.3147 -0.0733
   30TCq2    C2  458   0.787   1.526  13.868  0.2831 -0.4198  0.1863
   30TCq2    C3  459   0.738   1.618  13.951 -0.1769 -0.0847  0.4448
   30TCq2    C4  460   0.815   1.735  13.960  0.2266 -0.6103  0.1914
   30TCq2    C5  461   0.926   1.760  13.888 -0.5735  0.0089  0.3625
   30TCq2    C6  462   0.972   1.660  13.804 -0.1000  0.0527  0.0909
   30TCq2    C7  463   0.896   1.549  13.789 -0.3334 -0.2744  0.3792
   30TCq2    C8  464   1.088   1.682  13.719 -0.1656  0.0582 -0.5581
   30TCq2    O4  465   1.146   1.580  13.687 -0.2599 -0.3632  0.3276
   30TCq2    C9  466   0.761   1.837  14.040  0.3380  0.2251 -0.4925
   30TCq2    O5  467   0.651   1.810  14.102  0.0450 -0.7616 -0.5743
   30TCq2    O6  468   0.823   1.947  14.042 -0.8707  0.0723 -0.5370
   30TCq2    H2  469   0.657   1.592  14.017 -0.2501 -1.9773 -0.3921
   30TCq2    H3  470   0.987   1.847  13.911 -1.0417 -0.4380  3.3679
   30TCq2    H4  471   0.921   1.481  13.709  0.0769  1.1817 -0.7478
   31MPD2     C  472   3.051   0.292  14.178  0.3598  0.1405 -0.5129
   31MPD2    C1  473   3.081   0.393  14.264  0.1912  0.4528 -0.2084
   31MPD2    C2  474   3.194   0.389  14.348 -0.7706 -0.3967  0.3782
   31MPD2    C3  475   3.282   0.278  14.343  0.7051 -0.3701  0.2680
   31MPD2    C4  476   3.238   0.174  14.260  0.1231  0.1490 -0.3176
   31MPD2    C5  477   3.126   0.182  14.183 -0.5208 -0.5197  0.2496
   31MPD2     H  478   3.209   0.475  14.412  0.0227  0.1019 -0.4850
   31MPD2    H1  479   3.294   0.081  14.264 -0.9019 -0.3982  1.6110
   31MPD2    H2  480   2.967   0.288  14.109 -0.1596  2.2834 -0.0180
   31MPD2    H3  481   3.116   0.097  14.116 -0.8352  0.9479 -1.5473
   31MPD2     N  482   3.387   0.239  14.427 -0.4047  0.0598  0.3243
   31MPD2    H5  483   3.444   0.157  14.407 -2.0948 -1.4808  1.8078
   31MPD2    N1  484   2.993   0.496  14.286  0.3587 -0.2688  0.4660
   31MPD2    H7  485   3.019   0.586  14.324 -2.6892  0.4338  0.8618
   32TCq2    C1  486   3.454   0.341  14.498 -0.2690  0.3094  0.5302
   32TCq2    O2  487   3.418   0.455  14.523 -0.2624  0.1129  1.3033
   32TCq2    C2  488   3.551   0.294  14.602 -0.4288  1.2295 -0.6620
   32TCq2    C3  489   3.622   0.384  14.669 -0.1588 -0.4646 -0.4507
   32TCq2    C4  490   3.699   0.354  14.775 -0.1531 -0.1347 -0.4934
   32TCq2    C5  491   3.716   0.224  14.812 -0.3386 -0.4598 -0.9642
   32TCq2    C6  492   3.640   0.132  14.748  0.1437  0.2846  0.1788
   32TCq2    C7  493   3.557   0.161  14.643  0.1432 -0.3448  0.5675
   32TCq2    C8  494   3.641   4.719  14.788  0.3144  0.5921  0.6240
   32TCq2    O4  495   3.705   4.687  14.889 -0.0707 -0.6374  0.1709
   32TCq2    C9  496   3.791   0.440  14.832  0.4076 -0.1670 -0.8809
   32TCq2    O5  497   3.830   0.412  14.952  0.3014 -0.1804 -0.4292
   32TCq2    O6  498   3.827   0.545  14.767  0.0568  0.6056 -0.4296
   32TCq2    H2  499   3.606   0.480  14.621 -0.5600 -0.2462  0.1319
   32TCq2    H3  500   3.775   0.194  14.897 -2.5136  1.1878  1.1202
   32TCq2    H4  501   3.488   0.092  14.594  2.9939 -1.8345 -1.3687
   33MPD2     C  502   3.693   1.745   9.341  0.1311  0.7157  0.3051
   33MPD2    C1  503   3.718   1.866   9.406  0.2393 -0.3291 -0.8138
   33MPD2    C2  504   3.813   1.949   9.351 -0.4971  0.5519  0.0128
   33MPD2    C3  505   3.892   1.924   9.244 -0.2282  0.1916  0.5264
   33MPD2    C4  506   3.869   1.805   9.182 -0.3934  0.3100  0.4440
   33MPD2    C5  507   3.770   1.722   9.231 -0.3272 -0.1896  0.3318
   33MPD2     H  508   3.822   2.046   9.399  0.9482  2.0269 -3.2245
   33MPD2    H1  509   3.919   1.773   9.091  2.3753  2.7441  1.1222
   33MPD2    H2  510   3.628   1.666   9.376  0.5073  0.6009  0.7342
   33MPD2    H3  511   3.751   1.632   9.172 -1.4192  0.1031  0.2280
   33MPD2     N  512   4.000   2.007   9.199  0.7177 -0.1641  0.3491
   33MPD2    H5  513   4.064   1.975   9.127  1.0408  0.1705  0.4878
   33MPD2    N1  514   3.640   1.903   9.522 -0.5448  0.4429  0.1263
   33MPD2    H7  515   3.578   1.830   9.555 -0.9123  1.6816  2.2167
   34TCq2    C1  516   4.021   2.135   9.236 -0.3209 -0.6645 -0.5981
   34TCq2    O2  517   3.933   2.210   9.280 -0.3998 -0.0739 -0.4135
   34TCq2    C2  518   4.146   2.189   9.198  0.4173 -0.3057  0.4636
   34TCq2    C3  519   4.256   2.108   9.185  0.2970 -0.6661 -0.1092
   34TCq2    C4  520   4.374   2.162   9.161  0.5677 -0.6555 -0.5800
   34TCq2    C5  521   4.389   2.301   9.140  0.0589 -0.0599  0.7617
   34TCq2    C6  522   4.273   2.372   9.140  0.3206  0.7240 -0.2647
   34TCq2    C7  523   4.152   2.318   9.166 -0.0715 -0.6429 -0.2605
   34TCq2    C8  524   4.275   2.514   9.139 -0.0994  0.1553  0.9960
   34TCq2    O4  525   4.182   2.574   9.190  0.6175 -0.8476  0.5338
   34TCq2    C9  526   4.492   2.082   9.159 -0.3571 -0.4983  0.1960
   34TCq2    O5  527   4.467   1.958   9.144 -0.1982 -0.4839 -0.0198
   34TCq2    O6  528   4.605   2.136   9.152 -0.4032 -0.3216 -0.0954
   34TCq2    H2  529   4.258   2.006   9.223 -1.2337 -0.7339 -0.1852
   34TCq2    H3  530   4.489   2.344   9.134 -0.1760  0.1907 -1.6459
   34TCq2    H4  531   4.067   2.384   9.182 -0.9198 -1.7049 -0.4457
   35MPD2     C  532   0.650   4.119  12.087  0.2993  0.1748 -1.2394
   35MPD2    C1  533   0.525   4.128  12.050 -0.0528 -0.5157  0.4888
   35MPD2    C2  534   0.479   4.209  11.946  0.4443 -0.1671  0.2006
   35MPD2    C3  535   0.576   4.289  11.888 -0.1744  0.2388  0.1302
   35MPD2    C4  536   0.707   4.291  11.930  0.4740 -0.1247  0.1095
   35MPD2    C5  537   0.743   4.209  12.031  0.1066  0.4301 -1.0090
   35MPD2     H  538   0.382   4.195  11.900  0.4154  1.6158 -0.2867
   35MPD2    H1  539   0.780   4.352  11.878  1.5964 -1.3255  0.2797
   35MPD2    H2  540   0.688   4.036  12.146  1.6760  0.8787 -1.1374
   35MPD2    H3  541   0.845   4.204  12.067  0.3798 -2.8550 -2.1885
   35MPD2     N  542   0.528   4.357  11.773  0.4707 -0.6970  0.1571
   35MPD2    H5  543   0.431   4.342  11.746 -0.4110  1.6752  2.0600
   35MPD2    N1  544   0.448   4.020  12.094  0.0793 -0.2839  0.4706
   35MPD2    H7  545   0.490   3.941  12.141 -0.1829 -0.5786  0.2065
   36TCq2    C1  546   0.604   4.403  11.669  0.3313  0.3742 -0.0751
   36TCq2    O2  547   0.724   4.409  11.641 -0.5919 -0.5045 -0.3702
   36TCq2    C2  548   0.516   4.426  11.557  0.5901 -0.4687  0.2246
   36TCq2    C3  549   0.555   4.522  11.469  0.2338 -0.1938  0.3846
   36TCq2    C4  550   0.487   4.548  11.354 -0.0046  0.4669  0.2803
   36TCq2    C5  551   0.365   4.486  11.342 -0.1420  0.1468  0.8654
   36TCq2    C6  552   0.317   4.402  11.436  0.3686 -1.0590 -0.1716
   36TCq2    C7  553   0.390   4.362  11.540  0.4518  0.0243 -0.5459
   36TCq2    C8  554   0.192   4.338  11.424 -0.5929  0.1065  0.3053
   36TCq2    O4  555   0.183   4.233  11.482 -0.1188  1.1329 -0.2799
   36TCq2    C9  556   0.546   4.633  11.250 -1.0540 -0.0997 -0.0447
   36TCq2    O5  557   0.522   4.586  11.134 -0.3352  0.1943 -0.4648
   36TCq2    O6  558   0.656   4.696  11.277 -0.0220  0.3707  0.2828
   36TCq2    H2  559   0.654   4.564  11.483  1.0444 -1.7019 -0.7571
   36TCq2    H3  560   0.315   4.511  11.249 -0.7398  1.0467  1.4369
   36TCq2    H4  561   0.350   4.288  11.608  2.7307  0.9509  1.8003
   37TMC2    C1  562   2.299   3.870  11.711  0.6821 -0.6432  0.1572
   37TMC2    C2  563   2.251   3.782  11.619  0.4969 -0.6932 -0.3452
   37TMC2    C3  564   2.320   3.762  11.498 -1.2111  0.3352 -0.4501
   37TMC2    C4  565   2.413   3.939  11.685  0.0766  0.2482  0.1211
   37TMC2    C5  566   2.480   3.918  11.569  0.0132  0.5238 -0.1442
   37TMC2    C6  567   2.441   3.822  11.478 -0.2958 -0.1744  0.2740
   37TMC2     C  568   2.235   3.879  11.842  0.0877 -1.0698 -0.7153
   37TMC2     O  569   2.124   3.836  11.857 -1.1404 -0.2347 -0.2168
   37TMC2     H  570   2.150   3.744  11.631 -0.2311  0.8134 -1.6208
   37TMC2    H1  571   2.473   3.992  11.758  2.0368  0.5159 -1.6910
   37TMC2    H2  572   2.495   3.803  11.386  1.3416 -0.4905  1.3109
   37TMC2    C7  573   2.596   3.999  11.544 -0.0966  1.0060 -0.3821
   37TMC2    C8  574   2.254   3.695  11.386 -0.7409 -0.4504 -0.1135
   37TMC2    O1  575   2.660   4.037  11.638 -0.3082 -0.3605  0.1499
   37TMC2    O2  576   2.155   3.620  11.409 -0.0649  0.2908 -0.2514
   37TMC2    O5  577   2.242   3.786  11.298  0.2061  0.3736 -0.3395
   37TMC2    H5  578   2.313   3.853  11.305 -1.2606  1.9421 -0.4232
   38MPD2     C  579   2.235   4.023  12.334 -0.5856 -0.3634 -0.2746
   38MPD2    C1  580   2.367   3.995  12.295 -0.0918 -0.1115 -0.4028
   38MPD2    C2  581   2.393   3.962  12.164  0.1409  0.0388 -0.3347
   38MPD2    C3  582   2.286   3.943  12.075  0.5487  0.0619  0.0795
   38MPD2    C4  583   2.153   3.964  12.116 -0.1411  0.4910  0.2835
   38MPD2    C5  584   2.132   4.000  12.242 -0.1966 -0.7636  0.4040
   38MPD2     H  585   2.493   3.952  12.123  1.8071 -3.5825  4.5827
   38MPD2    H1  586   2.068   3.953  12.050  0.3872 -2.1654  0.0651
   38MPD2    H2  587   2.205   4.064  12.430  0.6656  0.9870 -0.4669
   38MPD2    H3  588   2.031   4.015  12.279  0.5386  0.0795  2.0593
   38MPD2     N  589   2.319   3.917  11.939  0.7966  0.2980 -0.2676
   38MPD2    H5  590   2.413   3.936  11.905 -0.3055  1.4822 -2.6395
   38MPD2    N1  591   2.475   4.009  12.379 -0.1603 -0.0161  0.0602
   38MPD2    H7  592   2.566   3.987  12.340  0.3255  0.3944  0.9620
   39MPD2     C  593   0.229   1.645   1.125  0.0840 -0.0773 -0.9691
   39MPD2    C1  594   0.151   1.667   1.229 -0.1198 -0.1897 -0.6633
   39MPD2    C2  595   0.018   1.703   1.212 -0.4984 -0.0266 -0.2771
   39MPD2    C3  596   4.700   1.716   1.079  0.0833 -0.1350  0.3961
   39MPD2    C4  597   0.060   1.685   0.973  0.3584 -0.2557 -0.0919
   39MPD2    C5  598   0.187   1.664   0.997  0.9773  0.5938  0.3659
   39MPD2     H  599   4.672   1.742   1.285 -1.6657 -1.1618 -0.7597
   39MPD2    H1  600   0.029   1.705   0.871 -1.5054 -0.1341  0.4987
   39MPD2    H2  601   0.335   1.624   1.141 -0.3853  0.1962  2.5029
   39MPD2    H3  602   0.249   1.644   0.911 -0.7585 -0.0780 -0.7383
   39MPD2     N  603   4.564   1.748   1.044 -0.0154  0.6752  0.0399
   39MPD2    H5  604   4.534   1.758   0.948 -1.5060  1.7568  0.6181
   39MPD2    N1  605   0.206   1.652   1.352  0.1560  0.3222  0.0373
   39MPD2    H7  606   0.304   1.627   1.360  0.4948  1.7492  0.3265
   40TCq2    C1  607   0.134   1.676   1.472 -0.6496  0.2155  0.0702
   40TCq2    O2  608   0.017   1.698   1.496 -0.5124  0.1922 -0.6130
   40TCq2    C2  609   0.234   1.696   1.581 -0.5683  0.4445 -0.2945
   40TCq2    C3  610   0.177   1.722   1.700 -0.9287 -0.1318 -0.0109
   40TCq2    C4  611   0.250   1.766   1.809 -0.3429 -0.2504 -0.3515
   40TCq2    C5  612   0.388   1.771   1.797  0.2264 -0.3142  0.5135
   40TCq2    C6  613   0.447   1.757   1.671 -0.0359  0.4655  0.3921
   40TCq2    C7  614   0.369   1.719   1.562 -0.1201  0.4810  0.0633
   40TCq2    C8  615   0.596   1.761   1.669  0.3602  0.3180  0.3717
   40TCq2    O4  616   0.663   1.708   1.751 -0.1261  0.3653 -0.0800
   40TCq2    C9  617   0.190   1.799   1.938 -0.0990 -0.0847  1.2531
   40TCq2    O5  618   0.064   1.801   1.930  0.3334 -0.1963 -0.0500
   40TCq2    O6  619   0.265   1.840   2.031 -0.7607 -0.1365  0.5316
   40TCq2    H2  620   0.072   1.711   1.726 -0.9664 -0.1850 -0.1823
   40TCq2    H3  621   0.443   1.804   1.884  1.0119 -0.1469 -0.0506
   40TCq2    H4  622   0.426   1.707   1.471  0.8746  0.6114  0.6724
   41TMC2    C1  623   4.237   4.434  13.673  0.3589 -0.0827  0.6256
   41TMC2    C2  624   4.140   4.492  13.757 -0.1980 -0.5999  0.1448
   41TMC2    C3  625   4.059   4.589  13.711  0.1476  0.6605  0.0425
   41TMC2    C4  626   4.265   4.481  13.549  0.1404 -0.4473 -0.0517
   41TMC2    C5  627   4.190   4.588  13.513 -0.2042 -0.5719  0.3882
   41TMC2    C6  628   4.080   4.636  13.584  0.2384 -0.6387  0.2824
   41TMC2     C  629   4.289   4.305  13.704  0.9435  0.3297 -0.2870
   41TMC2     O  630   4.329   4.240  13.605 -0.0875  0.5790  0.5072
   41TMC2     H  631   4.106   4.436  13.843 -2.1119 -0.4334 -0.5116
   41TMC2    H1  632   4.365   4.469  13.509 -0.5595  0.4755 -2.0548
   41TMC2    H2  633   4.010   4.712  13.549  0.6258 -0.6718 -0.5619
   41TMC2    C7  634   4.209   4.649  13.380  0.9307 -0.6423 -0.6202
   41TMC2    C8  635   3.942   4.642  13.795  0.0703  0.1224  0.1195
   41TMC2    O1  636   4.145   0.031  13.366 -0.1165  0.4642  0.2266
   41TMC2    O2  637   3.875   4.572  13.868  0.1326 -0.1685  0.1239
   41TMC2    O5  638   3.945   0.048  13.791 -0.1953  0.4769  0.0838
   41TMC2    H5  639   4.002   0.091  13.724 -1.3946  1.2188 -0.4570
   42MPD2     C  640   4.396   4.062  13.835  0.4029  0.4846 -0.8685
   42MPD2    C1  641   4.313   4.151  13.898  0.6452 -0.0410 -0.0272
   42MPD2    C2  642   4.280   4.134  14.029  0.3441 -1.2289 -0.0208
   42MPD2    C3  643   4.332   4.030  14.105 -0.2031  0.8453 -0.4333
   42MPD2    C4  644   4.408   3.938  14.044 -0.2227  0.0031  0.2256
   42MPD2    C5  645   4.431   3.955  13.909  0.0500  0.0268 -0.1765
   42MPD2     H  646   4.215   4.201  14.084  0.9608 -1.9063  1.5340
   42MPD2    H1  647   4.453   3.861  14.107  1.6517 -0.3974 -1.6181
   42MPD2    H2  648   4.424   4.079  13.732 -2.1108  0.9534 -1.4543
   42MPD2    H3  649   4.500   3.884  13.865 -1.7747 -1.7356 -0.1908
   42MPD2     N  650   4.307   4.007  14.244  0.1059 -0.4954  0.1688
   42MPD2    H5  651   4.360   3.927  14.278 -1.4377 -0.6627  2.1653
   42MPD2    N1  652   4.269   4.272  13.831 -0.4966  0.0629 -0.3639
   42MPD2    H7  653   4.222   4.338  13.892  0.0938  0.4068 -0.2807
   43MPD2     C  654   1.043   3.052   0.417 -0.0738  0.4502  0.5465
   43MPD2    C1  655   0.940   2.966   0.453 -0.1364 -0.5337 -0.2608
   43MPD2    C2  656   0.849   3.015   0.550  0.4560 -0.8921 -0.2619
   43MPD2    C3  657   0.860   3.147   0.601 -0.4232  0.0080 -0.5472
   43MPD2    C4  658   0.965   3.226   0.568  0.5755 -0.0084  0.9724
   43MPD2    C5  659   1.055   3.180   0.469  0.0583  0.3277  0.3301
   43MPD2     H  660   0.764   2.951   0.570 -1.4601  1.4650 -1.0061
   43MPD2    H1  661   0.982   3.328   0.599 -1.3951  0.5917  0.0910
   43MPD2    H2  662   1.109   3.033   0.333  0.7865 -1.3032  1.6130
   43MPD2    H3  663   1.131   3.247   0.430  0.7165 -0.0290  0.9782
   43MPD2     N  664   0.763   3.209   0.686 -0.5086 -0.7659 -0.2684
   43MPD2    H5  665   0.797   3.292   0.733 -1.1752 -0.6698  0.0309
   43MPD2    N1  666   0.925   2.832   0.403  0.0176 -0.0114  0.0536
   43MPD2    H7  667   0.866   2.774   0.462 -0.2626 -0.7684 -0.9868
   44TCq2    C1  668   0.625   3.310   1.151 -0.3811 -0.1803 -0.1644
   44TCq2    O2  669   0.746   3.318   1.157 -0.3311 -0.2287 -0.0858
   44TCq2    C2  670   0.565   3.324   1.023  0.0201  0.0784 -0.5136
   44TCq2    C3  671   0.426   3.338   1.023 -0.2265 -0.4406 -0.7303
   44TCq2    C4  672   0.365   3.294   0.916 -0.1314 -0.2826 -0.4790
   44TCq2    C5  673   0.432   3.237   0.806  0.6568 -0.3349 -0.3253
   44TCq2    C6  674   0.572   3.223   0.812 -0.5950 -0.0342  0.2177
   44TCq2    C7  675   0.640   3.269   0.921 -0.2210  0.4344 -0.6373
   44TCq2    C8  676   0.639   3.167   0.699 -0.6435  0.0582  0.3797
   44TCq2    O4  677   0.579   3.088   0.626  0.1211 -0.0182  0.1250
   44TCq2    C9  678   0.227   3.325   0.909 -0.2170  0.2112 -0.0795
   44TCq2    O5  679   0.181   3.410   0.986 -0.2848  0.8116  0.1427
   44TCq2    O6  680   0.173   3.296   0.798  0.0520  0.2887  0.5690
   44TCq2    H2  681   0.370   3.387   1.101  1.2286 -0.6697  0.4647
   44TCq2    H3  682   0.380   3.195   0.721  1.4277 -0.7397 -0.6015
   44TCq2    H4  683   0.747   3.267   0.931 -0.1098  1.4294 -1.5885
   45TMC2    C1  684   2.486   3.755  10.073 -0.1614  0.0650  0.1361
   45TMC2    C2  685   2.613   3.738  10.120 -0.1411  0.3592  0.3427
   45TMC2    C3  686   2.636   3.816  10.233  0.0985 -0.2820  0.0842
   45TMC2    C4  687   2.381   3.817  10.133  0.0910 -0.2744  0.3226
   45TMC2    C5  688   2.419   3.902  10.232  0.1389 -0.6339  0.3018
   45TMC2    C6  689   2.545   3.898  10.284  0.5348 -0.5782  0.3225
   45TMC2     C  690   2.454   3.669   9.959 -0.1314  0.1051 -0.1777
   45TMC2     O  691   2.515   3.561   9.946  0.3355  0.0171  0.1363
   45TMC2     H  692   2.686   3.699  10.051  0.6497  1.0004  0.8109
   45TMC2    H1  693   2.286   3.803  10.083  0.5771  1.4275 -1.0551
   45TMC2    H2  694   2.576   3.968  10.361 -0.8726 -1.5560  1.7794
   45TMC2    C7  695   2.313   3.989  10.288 -0.1763  0.1895  0.5402
   45TMC2    C8  696   2.775   3.837  10.269 -0.1773  0.6036 -0.1053
   45TMC2    O1  697   2.342   4.099  10.329  0.4363  0.4341 -0.3348
   45TMC2    O2  698   2.808   3.937  10.329  0.3684  0.2131 -0.5418
   45TMC2    O5  699   2.828   3.716  10.292  0.0912  0.0083  0.0916
   45TMC2    H5  700   2.765   3.649  10.257  1.8516 -1.5569 -0.1257
   46MPD2     C  701   2.352   3.541   9.722  0.3145 -0.3207 -0.3287
   46MPD2    C1  702   2.330   3.670   9.749 -0.1792  0.7670  0.0784
   46MPD2    C2  703   2.250   3.742   9.660 -0.7579  0.0235  0.4736
   46MPD2    C3  704   2.186   3.681   9.552  0.2352  0.1696 -1.2463
   46MPD2    C4  705   2.211   3.546   9.522  0.0532  0.3654  0.3744
   46MPD2    C5  706   2.295   3.480   9.609 -0.3358 -0.7679 -0.1707
   46MPD2     H  707   2.246   3.851   9.665 -2.1168  0.0149 -0.2885
   46MPD2    H1  708   2.171   3.493   9.436  0.3273 -1.1687  1.2158
   46MPD2    H2  709   2.405   3.465   9.779 -0.1004  0.1060  0.6208
   46MPD2    H3  710   2.320   3.376   9.592  0.7459 -0.4817 -0.3333
   46MPD2     N  711   2.108   3.767   9.470 -0.9140  0.3729  0.0149
   46MPD2    H5  712   2.135   3.864   9.482  1.0974 -0.4770  2.5286
   46MPD2    N1  713   2.374   3.732   9.872 -0.5724 -0.2814 -0.0924
   46MPD2    H7  714   2.326   3.817   9.900 -0.3062 -0.4229  0.7762
   47TMC2    C1  715   0.016   4.064   8.855 -0.3633  0.3235  0.5671
   47TMC2    C2  716   0.033   4.047   8.721 -0.1447 -0.5041 -0.2116
   47TMC2    C3  717   4.670   4.107   8.630 -0.3123  0.2784  0.2564
   47TMC2    C4  718   4.665   4.169   8.907 -0.1777  0.6940  0.2025
   47TMC2    C5  719   4.585   4.228   8.811  0.1559 -0.5397  0.5305
   47TMC2    C6  720   4.590   4.202   8.675 -0.3937 -0.6619  0.4976
   47TMC2     C  721   0.106   3.985   8.941  0.9024 -0.8384 -0.4132
   47TMC2     O  722   0.178   3.902   8.886 -0.2394  0.0059  0.7387
   47TMC2     H  723   0.103   3.975   8.683  0.7664  0.5295 -0.4919
   47TMC2    H1  724   4.649   4.191   9.012  1.0267  2.0366  0.1024
   47TMC2    H2  725   4.518   4.250   8.610 -0.2906 -3.1174 -1.4487
   47TMC2    C7  726   4.458   4.303   8.841 -0.3703  0.8122 -0.1302
   47TMC2    C8  727   4.681   4.072   8.487  0.0756 -0.3823  0.1093
   47TMC2    O1  728   4.435   4.395   8.768 -0.3775  0.5087  0.3928
   47TMC2    O2  729   0.058   4.037   8.426  0.1095 -0.7588 -0.1527
   47TMC2    O5  730   4.560   4.065   8.429  0.1006  0.3781 -0.3680
   47TMC2    H5  731   4.485   4.081   8.490 -1.3412  1.5268 -2.4295
   48MPD2     C  732   0.288   3.861   9.155  0.7016  0.5938  0.2806
   48MPD2    C1  733   0.197   3.963   9.176 -0.1119 -0.6418 -0.4549
   48MPD2    C2  734   0.160   3.999   9.305 -0.2483  0.4500  0.2564
   48MPD2    C3  735   0.230   3.943   9.416 -0.1869  0.1089  0.3433
   48MPD2    C4  736   0.328   3.846   9.391  0.6425 -0.0134  0.4687
   48MPD2    C5  737   0.355   3.805   9.264 -0.9932  0.1892 -0.1152
   48MPD2     H  738   0.075   4.062   9.330 -0.6442 -0.1491  0.4259
   48MPD2    H1  739   0.367   3.787   9.473  0.6014 -0.1677  0.3784
   48MPD2    H2  740   0.321   3.834   9.055 -1.4805  0.2712 -0.3558
   48MPD2    H3  741   0.415   3.721   9.231 -0.2542  0.3253  0.8869
   48MPD2     N  742   0.201   3.985   9.551 -0.1354 -0.0776  0.1994
   48MPD2    H5  743   0.124   4.049   9.567 -0.2906  0.0143 -0.9741
   48MPD2    N1  744   0.115   4.014   9.071  0.2974  0.0969 -0.8746
   48MPD2    H7  745   0.042   4.077   9.101 -0.0843 -1.4915  1.5062
   49MPD2     C  746   1.623   1.413  10.039 -0.1086 -0.6447 -0.3470
   49MPD2    C1  747   1.674   1.363  10.160  0.2460  0.3753  0.5190
   49MPD2    C2  748   1.761   1.446  10.224 -0.1048 -0.3732  0.2667
   49MPD2    C3  749   1.809   1.562  10.168  0.0071 -0.1350 -0.1351
   49MPD2    C4  750   1.771   1.594  10.040  0.5593  0.0638 -0.2951
   49MPD2    C5  751   1.684   1.518   9.970  0.8337 -0.5132  0.3720
   49MPD2     H  752   1.794   1.416  10.323  1.5530 -2.3656 -0.9100
   49MPD2    H1  753   1.794   1.692  10.001 -0.6399  0.8771  1.0637
   49MPD2    H2  754   1.544   1.366   9.981  0.2641 -2.2912  0.4939
   49MPD2    H3  755   1.646   1.549   9.874  1.5482 -0.4200  0.1172
   49MPD2     N  756   1.902   1.647  10.234 -0.1311 -0.2120 -0.4410
   49MPD2    H5  757   1.965   1.710  10.186 -1.1917  1.3496  0.2343
   49MPD2    N1  758   1.627   1.245  10.225  0.3448  0.4623 -0.5074
   49MPD2    H7  759   1.650   1.241  10.324 -0.3224  0.5055 -0.3526
   50TCq2    C1  760   1.568   1.143  10.170  0.0200  0.6260  1.0293
   50TCq2    O2  761   1.545   1.128  10.050  0.2353  0.5056 -0.6353
   50TCq2    C2  762   1.557   1.024  10.255  0.4652 -0.0565 -0.5658
   50TCq2    C3  763   1.481   0.924  10.210 -0.1298 -0.1741  0.5050
   50TCq2    C4  764   1.480   0.803  10.272  0.4759 -0.4106 -1.0166
   50TCq2    C5  765   1.578   0.771  10.358  0.4345  0.8654  0.9821
   50TCq2    C6  766   1.668   0.874  10.392  0.6058 -0.5094 -0.3112
   50TCq2    C7  767   1.653   0.999  10.351  0.1073 -0.0161 -0.3380
   50TCq2    C8  768   1.779   0.836  10.482 -0.4772  0.3081  0.2071
   50TCq2    O4  769   1.754   0.753  10.571 -0.2551 -0.3069  0.0056
   50TCq2    C9  770   1.390   0.702  10.231 -0.5660  0.4987 -0.0584
   50TCq2    O5  771   1.338   0.627  10.316  0.2805 -0.7009  0.5738
   50TCq2    O6  772   1.351   0.703  10.112  0.4595 -0.0130  0.0808
   50TCq2    H2  773   1.400   0.946  10.142  0.6520  0.6053 -0.1673
   50TCq2    H3  774   1.596   0.668  10.387 -0.1392  0.0499 -1.5531
   50TCq2    H4  775   1.726   1.076  10.376  0.5450  0.2136 -2.3269
   51MPD2     C  776   3.668   0.383   0.948 -0.3044  0.3814 -0.0307
   51MPD2    C1  777   3.531   0.399   0.966  0.5278 -0.2398  0.4253
   51MPD2    C2  778   3.490   0.512   1.024  0.0653  0.1857 -0.2005
   51MPD2    C3  779   3.582   0.611   1.061  0.0738  0.1480 -0.0249
   51MPD2    C4  780   3.717   0.594   1.031  0.2969  0.7263 -0.1853
   51MPD2    C5  781   3.760   0.474   0.986  0.5400  0.4123 -0.8417
   51MPD2     H  782   3.384   0.534   1.036  0.5164  1.3219  1.6723
   51MPD2    H1  783   3.790   0.668   1.061 -1.3177  1.7067  1.3630
   51MPD2    H2  784   3.719   0.292   0.917  0.6325  0.3427  1.6525
   51MPD2    H3  785   3.865   0.450   0.977  0.7094 -0.2633  3.0941
   51MPD2     N  786   3.543   0.728   1.135  0.3765  0.3095 -0.9407
   51MPD2    H5  787   3.617   0.797   1.145 -0.4726  1.4126 -2.3150
   51MPD2    N1  788   3.437   0.297   0.929  0.2671 -0.3870  0.2162
   51MPD2    H7  789   3.338   0.319   0.936  0.1412 -0.0757 -2.7237
   52TCq2    C1  790   3.415   0.759   1.168 -0.7918 -0.0669 -0.6093
   52TCq2    O2  791   3.312   0.700   1.147 -0.4080 -0.1757  0.1381
   52TCq2    C2  792   3.408   0.890   1.238 -0.0820 -0.3661 -0.0148
   52TCq2    C3  793   3.511   0.945   1.312  0.7047  0.0675 -0.5279
   52TCq2    C4  794   3.493   1.062   1.380 -0.7130 -0.0109 -0.3112
   52TCq2    C5  795   3.367   1.113   1.373 -0.5332 -0.4977  0.4258
   52TCq2    C6  796   3.269   1.066   1.301 -0.1800  1.0581  0.2829
   52TCq2    C7  797   3.280   0.947   1.236 -0.1494  0.7335  0.6323
   52TCq2    C8  798   3.133   1.126   1.306  0.7264 -0.3832 -0.7443
   52TCq2    O4  799   3.110   1.197   1.402 -0.6306  0.3500  0.0455
   52TCq2    C9  800   3.589   1.122   1.468 -0.3313  0.0430  0.6968
   52TCq2    O5  801   3.549   1.216   1.547  0.3415  0.1390 -0.0540
   52TCq2    O6  802   3.694   1.055   1.474 -0.2264  0.1531 -0.3810
   52TCq2    H2  803   3.614   0.911   1.317  1.6002  2.6822 -0.8627
   52TCq2    H3  804   3.346   1.207   1.423 -0.2375 -1.9598  3.2795
   52TCq2    H4  805   3.211   0.901   1.165 -0.6016 -0.0753  1.5950
   53TMC2    C1  806   3.272   4.262  11.544  0.3304 -0.2033  0.0584
   53TMC2    C2  807   3.404   4.234  11.566 -0.6016  0.4258  1.0615
   53TMC2    C3  808   3.445   4.237  11.697  0.1773 -0.7695  0.2457
   53TMC2    C4  809   3.184   4.284  11.652  0.1275 -0.2943 -0.6241
   53TMC2    C5  810   3.231   4.291  11.780  0.4414  0.2067  0.6149
   53TMC2    C6  811   3.364   4.263  11.805 -0.0950  0.0963  0.8590
   53TMC2     C  812   3.208   4.207  11.432 -1.3426 -0.2721  0.6355
   53TMC2     O  813   3.271   4.213  11.328 -0.7669  0.3755 -0.6255
   53TMC2     H  814   3.473   4.230  11.483  0.4314  1.0782  1.8992
   53TMC2    H1  815   3.086   4.327  11.633 -0.4501 -0.7101  1.3882
   53TMC2    H2  816   3.402   4.248  11.905  1.1079 -0.7500  0.2684
   53TMC2    C7  817   3.129   4.258  11.878  0.2944 -0.2277 -0.5486
   53TMC2    C8  818   3.586   4.247  11.712 -0.5938 -0.0331  1.1156
   53TMC2    O1  819   3.025   4.221  11.829 -0.0141 -0.3178 -0.0317
   53TMC2    O2  820   3.641   4.297  11.810 -0.2249 -0.0828  0.0478
   53TMC2    O5  821   3.658   4.186  11.616 -0.4302 -0.0742 -0.4001
   53TMC2    H5  822   3.609   4.109  11.580 -0.5755 -0.8367  1.4214
   54MPD2     C  823   2.997   4.122  11.243  0.3296  0.3688  1.0162
   54MPD2    C1  824   2.986   4.116  11.382  0.5318  0.0360  0.0887
   54MPD2    C2  825   2.869   4.081  11.446 -0.1352 -0.5128 -0.1607
   54MPD2    C3  826   2.763   4.035  11.369 -1.0988  0.1257  0.3323
   54MPD2    C4  827   2.774   4.032  11.234  0.2725 -0.1780  0.0603
   54MPD2    C5  828   2.889   4.071  11.168 -0.0492 -0.2453  0.0933
   54MPD2     H  829   2.870   4.085  11.554  1.3730  0.2058 -0.2098
   54MPD2    H1  830   2.693   3.990  11.175  3.1090 -2.2699 -2.3176
   54MPD2    H2  831   3.079   4.157  11.181  3.4296 -1.9129  3.8341
   54MPD2    H3  832   2.895   4.072  11.060  0.4108 -1.3019  0.1054
   54MPD2     N  833   2.637   3.993  11.411 -0.4382 -0.0752 -0.1641
   54MPD2    H5  834   2.568   3.962  11.344  0.5397 -2.0164 -0.2623
   54MPD2    N1  835   3.086   4.163  11.465  0.2033 -0.3678 -0.1436
   54MPD2    H7  836   3.068   4.154  11.564  2.2516  0.3002  0.2894
   55MPD2     C  837   3.645   2.105  16.966 -0.1220  0.3384 -0.0318
   55MPD2    C1  838   3.565   2.115  17.074  0.0998 -0.3733  0.7611
   55MPD2    C2  839   3.479   2.228  17.079  0.2879  0.0617 -0.2303
   55MPD2    C3  840   3.469   2.317  16.981  0.0395  0.2716 -0.2465
   55MPD2    C4  841   3.543   2.294  16.872 -0.3541  0.0232 -0.5065
   55MPD2    C5  842   3.630   2.189  16.855 -0.5151 -0.1738 -0.2059
   55MPD2     H  843   3.411   2.244  17.162  1.2827  1.1237  0.3825
   55MPD2    H1  844   3.538   2.365  16.789 -0.0074  1.3887  0.6388
   55MPD2    H2  845   3.706   2.017  16.977 -1.2448 -0.5615 -1.0039
   55MPD2    H3  846   3.688   2.174  16.764  1.8762  1.3691  1.0835
   55MPD2     N  847   3.400   2.436  17.014  0.0992  0.1525  0.0702
   55MPD2    H5  848   3.367   2.457  17.107  0.4831  1.1769 -0.0283
   55MPD2    N1  849   3.595   2.041  17.190 -1.0592 -0.0920 -0.4174
   55MPD2    H7  850   3.667   1.970  17.183 -0.5702  0.4051 -0.4159
   56TCq2    C1  851   3.538   2.054  17.312 -0.4550  0.1633 -0.1273
   56TCq2    O2  852   3.470   2.143  17.366  0.1068  0.1269  0.4440
   56TCq2    C2  853   3.597   1.965  17.409 -0.3295  0.5773 -0.0424
   56TCq2    C3  854   3.651   1.853  17.361 -0.5218  0.1332 -0.0276
   56TCq2    C4  855   3.710   1.774  17.447 -0.9499 -0.6623  0.5914
   56TCq2    C5  856   3.737   1.800  17.574 -0.4592 -0.5351 -0.3939
   56TCq2    C6  857   3.689   1.921  17.619  0.2576  0.3113 -0.3984
   56TCq2    C7  858   3.613   2.004  17.535  1.2413  0.6386  0.8118
   56TCq2    C8  859   3.714   1.961   0.061  0.2532 -0.0375 -0.1557
   56TCq2    O4  860   3.826   1.942   0.105 -0.1820 -0.1147 -0.0543
   56TCq2    C9  861   3.752   1.646  17.391 -0.5102 -0.3642  0.1436
   56TCq2    O5  862   3.716   1.609  17.279  0.0926 -0.0484  0.0877
   56TCq2    O6  863   3.798   1.569  17.480 -0.1896 -0.0648  0.2929
   56TCq2    H2  864   3.646   1.814  17.260 -0.3687 -0.2545  0.1171
   56TCq2    H3  865   3.803   1.737  17.633 -1.9800 -2.7575 -1.0865
   56TCq2    H4  866   3.569   2.098  17.564 -0.8360 -0.0654 -0.0732
   57TMC2    C1  867   2.719   3.200  13.468  0.7316 -0.6093 -0.2069
   57TMC2    C2  868   2.817   3.128  13.532  0.4153  0.4957  0.4343
   57TMC2    C3  869   2.867   3.032  13.454  0.3774 -0.8457 -0.0081
   57TMC2    C4  870   2.664   3.170  13.347 -0.4047  0.1156  0.3929
   57TMC2    C5  871   2.708   3.059  13.284 -0.0815  0.1120 -0.3129
   57TMC2    C6  872   2.825   2.997  13.334 -0.1865  0.4119  0.3125
   57TMC2     C  873   2.660   3.317  13.520 -0.2227 -0.4143 -0.5492
   57TMC2     O  874   2.600   3.398  13.448  0.7483  0.5972 -0.4114
   57TMC2     H  875   2.859   3.140  13.632  0.4202  0.8254  0.3927
   57TMC2    H1  876   2.578   3.220  13.303  0.9480  1.8355 -0.2942
   57TMC2    H2  877   2.867   2.910  13.284  1.8492  0.6676  1.5637
   57TMC2    C7  878   2.676   3.055  13.140  0.2901  0.5242  0.9163
   57TMC2    C8  879   2.948   2.933  13.524 -0.0349  0.8905  0.5558
   57TMC2    O1  880   2.646   3.162  13.091  0.0584  0.5330  0.5664
   57TMC2    O2  881   2.943   2.924  13.647  0.0516 -0.1927 -0.0407
   57TMC2    O5  882   3.043   2.882  13.441 -0.0204  0.1084  0.0617
   57TMC2    H5  883   3.048   2.930  13.356 -2.0542 -1.0366 -0.7396
   58MPD2     C  884   2.413   3.533  13.921 -0.0119  0.7512  0.8096
   58MPD2    C1  885   2.385   3.535  13.789  0.6546 -0.0146  0.6267
   58MPD2    C2  886   2.465   3.467  13.699  0.0580  0.2138  0.4947
   58MPD2    C3  887   2.565   3.379  13.742  0.2948 -0.1106 -0.5196
   58MPD2    C4  888   2.572   3.357  13.876 -0.2585 -0.0120  0.3538
   58MPD2    C5  889   2.502   3.438  13.966 -0.4850  0.0750 -0.3044
   58MPD2     H  890   2.448   3.489  13.594 -2.4936 -0.3742  0.7984
   58MPD2    H1  891   2.640   3.281  13.912 -0.7527 -0.8399 -0.4597
   58MPD2    H2  892   2.371   3.603  13.993 -1.5371  1.1390 -0.4513
   58MPD2    H3  893   2.521   3.428  14.072 -0.7190  0.9290 -0.1846
   58MPD2     N  894   2.653   3.309  13.656 -0.0708 -0.2921  0.0812
   58MPD2    H5  895   2.691   3.223  13.696 -0.4350 -0.3618  0.2776
   58MPD2    N1  896   2.289   3.621  13.731 -0.2839 -0.1876 -0.5153
   58MPD2    H7  897   2.272   3.619  13.631  0.6109  1.7609 -0.7056
   59MPD2     C  898   0.326   3.081  13.006 -0.5613  0.2979 -0.1102
   59MPD2    C1  899   0.440   3.060  12.933  0.3552 -0.3160 -0.3665
   59MPD2    C2  900   0.553   3.127  12.971  0.4953  0.2814  0.0814
   59MPD2    C3  901   0.553   3.218  13.083  0.0430  0.5600 -0.1742
   59MPD2    C4  902   0.441   3.220  13.160  0.2078  0.0995  0.2432
   59MPD2    C5  903   0.328   3.152  13.122  0.3970 -0.2410  0.7059
   59MPD2     H  904   0.644   3.116  12.914 -0.0727 -3.0839 -0.1596
   59MPD2    H1  905   0.436   3.293  13.240 -2.3223 -2.4285  2.3815
   59MPD2    H2  906   0.236   3.039  12.963 -0.5287 -0.1983  0.3039
   59MPD2    H3  907   0.238   3.155  13.182  1.0886 -2.0286  1.8156
   59MPD2     N  908   0.667   3.294  13.128  0.3014 -0.0389  0.2723
   59MPD2    H5  909   0.662   3.312  13.227  0.2227  4.8941 -0.6202
   59MPD2    N1  910   0.459   2.976  12.827 -0.3874 -0.4017 -0.1854
   59MPD2    H7  911   0.536   3.004  12.767 -0.7651  2.4623  0.6528
   60TCq2    C1  912   0.384   2.865  12.783 -0.0997 -0.3391 -0.0912
   60TCq2    O2  913   0.283   2.813  12.833  0.5130 -0.4468  0.3201
   60TCq2    C2  914   0.438   2.815  12.654  0.4637  0.2081 -0.2419
   60TCq2    C3  915   0.425   2.681  12.630 -0.8749 -0.7502 -0.3492
   60TCq2    C4  916   0.459   2.642  12.501 -0.0015 -0.6485  0.8268
   60TCq2    C5  917   0.505   2.729  12.405 -0.1339 -0.2188  1.1683
   60TCq2    C6  918   0.510   2.863  12.432  0.7673 -0.5338 -0.5769
   60TCq2    C7  919   0.482   2.909  12.559 -0.0487 -0.3725 -0.4899
   60TCq2    C8  920   0.566   2.954  12.337  0.8576  0.6031 -0.3719
   60TCq2    O4  921   0.630   2.900  12.247 -0.2037  0.5713 -0.4389
   60TCq2    C9  922   0.472   2.499  12.474 -0.1423  0.1805  0.6315
   60TCq2    O5  923   0.409   2.419  12.544 -1.0973 -0.2497  0.1709
   60TCq2    O6  924   0.544   2.471  12.372 -0.8290  0.4485 -0.2161
   60TCq2    H2  925   0.388   2.614  12.706  3.3540 -1.7820  0.7986
   60TCq2    H3  926   0.544   2.686  12.313  1.7042  0.4512  1.6261
   60TCq2    H4  927   0.497   3.015  12.571 -0.2397 -0.1061 -2.5162
   61MPD2     C  928   4.252   4.538  14.458  0.0244  0.1922 -0.0592
   61MPD2    C1  929   4.328   4.648  14.501 -0.3683 -0.0613 -0.3897
   61MPD2    C2  930   4.286   0.053  14.479 -0.0425  0.1344 -1.0330
   61MPD2    C3  931   4.178   0.076  14.395  0.6772 -0.1831  0.6377
   61MPD2    C4  932   4.114   4.692  14.336  0.1256 -0.4895  0.2566
   61MPD2    C5  933   4.143   4.563  14.377  0.3346  0.6171  0.0279
   61MPD2     H  934   4.342   0.134  14.524 -1.9192  0.1125  1.3679
   61MPD2    H1  935   4.025   4.705  14.276 -1.7028 -0.8111  2.8841
   61MPD2    H2  936   4.279   4.438  14.490  0.9155  0.5991  0.4518
   61MPD2    H3  937   4.078   4.483  14.345 -0.5666  1.9638 -1.5584
   61MPD2     N  938   4.125   0.206  14.356  0.1700 -0.1607 -0.7509
   61MPD2    H5  939   4.060   0.199  14.278 -1.8094  1.1022  0.7999
   61MPD2    N1  940   4.426   4.640  14.603  0.2750 -0.2666 -0.4987
   61MPD2    H7  941   4.452   0.005  14.647  1.0679 -0.8666  0.2396
   62TCq2    C1  942   4.484   4.526  14.658  0.7694 -0.1723 -0.1261
   62TCq2    O2  943   4.500   4.418  14.612 -0.4138  0.5472  0.1225
   62TCq2    C2  944   4.526   4.549  14.798 -0.5712 -0.0549  0.1346
   62TCq2    C3  945   4.633   4.473  14.846 -0.5487  0.4143  0.3722
   62TCq2    C4  946   4.673   4.504  14.975  0.4821 -0.3086 -0.0026
   62TCq2    C5  947   4.600   4.584  15.054  0.3390 -0.7012 -0.3795
   62TCq2    C6  948   4.492   4.654  15.002  0.5678  1.0079  0.0767
   62TCq2    C7  949   4.457   4.638  14.872 -0.1911  0.4028  0.6076
   62TCq2    C8  950   4.460   0.065  15.049  0.0029 -0.0893 -0.0570
   62TCq2    O4  951   4.449   0.150  14.960 -0.0204  0.3547 -0.1342
   62TCq2    C9  952   0.064   4.439  15.031 -0.1015 -0.8069 -0.4150
   62TCq2    O5  953   0.114   4.338  14.978 -0.2289  0.0607 -0.1173
   62TCq2    O6  954   0.132   4.507  15.115 -0.4695  0.2165  0.1832
   62TCq2    H2  955   4.694   4.415  14.778 -0.5049  2.6053 -1.4714
   62TCq2    H3  956   4.625   4.588  15.160  1.4322  0.6559 -0.6910
   62TCq2    H4  957   4.376   4.699  14.835  1.0908  2.0611  0.5406
   63TMC2    C1  958   4.460   0.365  10.129 -0.3049  0.5770  0.1408
   63TMC2    C2  959   4.503   0.487  10.183 -0.1094 -0.6377  0.3883
   63TMC2    C3  960   4.627   0.537  10.146 -0.0255 -0.3438 -0.1245
   63TMC2    C4  961   4.547   0.287  10.063 -0.0470 -0.4949  0.7089
   63TMC2    C5  962   4.672   0.340  10.029 -0.0276 -0.2959  0.1309
   63TMC2    C6  963   4.711   0.456  10.074 -0.0272 -0.2748  0.3891
   63TMC2     C  964   4.328   0.319  10.150  0.7597  0.2229  0.3302
   63TMC2     O  965   4.236   0.394  10.182  0.1282 -0.7826  0.1466
   63TMC2     H  966   4.436   0.543  10.248 -1.5048 -2.2821  0.3771
   63TMC2    H1  967   4.523   0.199  10.006  3.4290 -0.6676 -0.4988
   63TMC2    H2  968   0.087   0.488  10.043 -0.3845  0.9892  0.5398
   63TMC2    C7  969   0.026   0.288   9.922  0.0489 -0.2681  0.3060
   63TMC2    C8  970   4.700   0.634  10.220 -0.3557  0.3971  0.4039
   63TMC2    O1  971   0.082   0.365   9.841 -0.0474 -0.1639  0.6892
   63TMC2    O2  972   0.089   0.668  10.187 -0.3356  0.1338  0.4284
   63TMC2    O5  973   4.605   0.712  10.269  0.1956 -0.4170 -0.0768
   63TMC2    H5  974   4.634   0.796  10.311 -1.7431  0.3163 -0.2302
   64MPD2     C  975   3.957   4.681  10.185 -0.5079  0.1045  0.4586
   64MPD2    C1  976   4.079   4.619  10.180  0.1515 -0.2442 -0.1957
   64MPD2    C2  977   4.193   4.701  10.163  0.4301 -0.1328  0.1830
   64MPD2    C3  978   4.185   0.114  10.141  0.4016  0.2369 -0.1188
   64MPD2    C4  979   4.061   0.169  10.144  0.2573  0.4875 -0.5012
   64MPD2    C5  980   3.949   0.091  10.161  0.6107 -0.8124 -0.5898
   64MPD2     H  981   4.293   4.659  10.166  0.5290  0.2155  1.6470
   64MPD2    H1  982   4.045   0.275  10.130 -3.0034 -0.3546 -3.0318
   64MPD2    H2  983   3.861   4.632  10.200 -0.1857 -0.6938 -0.1433
   64MPD2    H3  984   3.846   0.125  10.161  0.8924  0.0307 -1.4988
   64MPD2     N  985   4.308   0.182  10.126 -0.8431  0.3119  0.3889
   64MPD2    H5  986   4.388   0.121  10.110 -1.1285  0.5121 -1.7961
   64MPD2    N1  987   4.089   4.483  10.204  0.2433 -0.1913  0.0993
   64MPD2    H7  988   4.183   4.449  10.186 -0.3925 -1.5267 -0.6853
   65MPD2     C  989   0.199   4.312  15.837 -0.0744 -0.1219  0.0266
   65MPD2    C1  990   0.221   4.308  15.698  0.2140 -0.7486 -0.1985
   65MPD2    C2  991   0.201   4.194  15.623  0.5315  0.1845 -0.1780
   65MPD2    C3  992   0.154   4.079  15.692  0.5090  0.2155 -0.1214
   65MPD2    C4  993   0.146   4.081  15.831 -0.3701 -0.0562 -0.1757
   65MPD2    C5  994   0.161   4.197  15.899  0.3158 -0.4060 -0.1016
   65MPD2     H  995   0.221   4.184  15.517 -1.1740 -0.8925 -0.4048
   65MPD2    H1  996   0.119   3.988  15.879 -0.3814  1.1287  2.0967
   65MPD2    H2  997   0.210   4.400  15.899  1.1288  0.9833 -1.7321
   65MPD2    H3  998   0.141   4.189  16.006 -1.9351 -0.5132 -0.5223
   65MPD2     N  999   0.140   3.947  15.643 -0.1463  0.0170 -0.7686
   65MPD2    H5 1000   0.124   3.871  15.708  1.6380  0.1126 -0.2233
   65MPD2    N1 1001   0.260   4.428  15.632  0.5832 -0.4986 -0.4062
   65MPD2    H7 1002   0.265   4.428  15.531  0.2222 -0.8157 -0.4259
   66TCq2    C1 1003   0.290   4.550  15.688 -0.1022 -0.0820 -0.2707
   66TCq2    O2 1004   0.251   4.596  15.791  0.3221  0.2202  0.0039
   66TCq2    C2 1005   0.341   4.641  15.585 -0.9168 -0.4566  0.3137
   66TCq2    C3 1006   0.369   4.601  15.451 -0.1886  0.9344 -0.0155
   66TCq2    C4 1007   0.409   4.686  15.358 -0.5653  0.5910  0.6646
   66TCq2    C5 1008   0.427   0.098  15.386 -0.1011  0.4913 -0.2075
   66TCq2    C6 1009   0.398   0.141  15.518  0.3231 -0.4009 -0.0728
   66TCq2    C7 1010   0.352   0.053  15.617  0.3271  0.7740  0.2445
   66TCq2    C8 1011   0.384   0.283  15.532  0.2716  0.1092  0.3224
   66TCq2    O4 1012   0.430   0.342  15.439 -0.4886 -0.0599 -0.9545
   66TCq2    C9 1013   0.453   4.643  15.231 -0.3397  0.1666  0.6700
   66TCq2    O5 1014   0.450   4.522  15.190 -0.1471  0.1837 -0.5684
   66TCq2    O6 1015   0.532   4.719  15.167 -0.5096 -0.1097  0.1521
   66TCq2    H2 1016   0.358   4.503  15.406 -0.1744  1.2707 -0.7401
   66TCq2    H3 1017   0.459   0.167  15.309 -0.5145 -1.5491 -2.1942
   66TCq2    H4 1018   0.333   0.086  15.718 -0.2053 -0.1369  0.4447
   67MPD2     C 1019   0.500   3.535  14.036  0.0056  0.4043 -0.6130
   67MPD2    C1 1020   0.417   3.580  14.132  0.1155  0.4809  0.1055
   67MPD2    C2 1021   0.283   3.569  14.106 -0.1154 -0.0150  0.3128
   67MPD2    C3 1022   0.226   3.510  14.004 -0.1191 -0.0294  0.1107
   67MPD2    C4 1023   0.306   3.461  13.905 -0.0408  0.0299 -0.4906
   67MPD2    C5 1024   0.446   3.473  13.926  0.2901  0.3566  0.4507
   67MPD2     H 1025   0.225   3.618  14.184 -0.7092  0.5443 -0.4876
   67MPD2    H1 1026   0.272   3.437  13.804  0.0554 -2.3162  0.0173
   67MPD2    H2 1027   0.608   3.539  14.038 -0.0307  1.8059 -1.8056
   67MPD2    H3 1028   0.510   3.432  13.849 -0.3817  1.2413 -0.5731
   67MPD2     N 1029   0.082   3.503  13.987  0.1405  0.3637  0.7218
   67MPD2    H5 1030   0.045   3.465  13.901  2.7219  0.7407 -0.5578
   67MPD2    N1 1031   0.449   3.641  14.259  0.3373 -0.0523 -0.1252
   67MPD2    H7 1032   0.371   3.663  14.320  1.6437  0.3223  1.4321
   68TCq2    C1 1033   0.578   3.659  14.302 -0.4221  0.2521  0.4787
   68TCq2    O2 1034   0.684   3.622  14.253  0.0708  0.1856 -0.0186
   68TCq2    C2 1035   0.583   3.710  14.437  0.1645 -0.6069  0.0960
   68TCq2    C3 1036   0.513   3.821  14.462 -0.3630  0.1981 -0.1626
   68TCq2    C4 1037   0.536   3.889  14.579 -0.2867 -0.2090 -0.1728
   68TCq2    C5 1038   0.616   3.832  14.676 -0.4562  0.2750  0.2817
   68TCq2    C6 1039   0.682   3.716  14.649  0.3415 -0.3019  0.0186
   68TCq2    C7 1040   0.670   3.659  14.530  0.3554  0.0851 -0.8298
   68TCq2    C8 1041   0.793   3.673  14.729  0.0373 -1.0015  0.2714
   68TCq2    O4 1042   0.867   3.591  14.688  0.1712 -0.1628  0.3488
   68TCq2    C9 1043   0.481   4.029  14.580 -0.3487  0.1074  0.2011
   68TCq2    O5 1044   0.512   4.100  14.682  0.2368  0.1666  0.4174
   68TCq2    O6 1045   0.436   4.074  14.469  0.0591  0.2760  0.6578
   68TCq2    H2 1046   0.432   3.852  14.397 -0.3748  0.2568 -0.1205
   68TCq2    H3 1047   0.629   3.892  14.766  0.4229 -0.2208  0.4891
   68TCq2    H4 1048   0.733   3.575  14.503 -2.1454 -1.4160 -2.0925
   69TMC2    C1 1049   2.798   4.685  12.316 -0.4817 -0.2018 -0.3061
   69TMC2    C2 1050   2.672   4.661  12.266 -0.2520 -0.2783 -0.4354
   69TMC2    C3 1051   2.659   4.661  12.128  0.0251  0.5798 -0.2391
   69TMC2    C4 1052   2.905   4.681  12.231 -0.7017  0.3492 -0.1856
   69TMC2    C5 1053   2.890   4.660  12.095  0.4146  0.8193  0.5694
   69TMC2    C6 1054   2.763   4.658  12.036  0.3651  0.3540  0.0161
   69TMC2     C 1055   2.823   4.652  12.456 -0.0462  0.1157 -0.1158
   69TMC2     O 1056   2.740   4.583  12.509  0.4576 -0.5031 -0.2539
   69TMC2     H 1057   2.585   4.660  12.331  0.0647 -0.2802 -0.0163
   69TMC2    H1 1058   3.006   4.691  12.268 -0.2200 -2.1035 -0.7899
   69TMC2    H2 1059   2.736   4.653  11.931 -0.9861 -2.7306  0.5024
   69TMC2    C7 1060   3.006   4.657  12.010 -0.2053  0.4086 -0.0413
   69TMC2    C8 1061   2.532   4.649  12.065  0.1151 -0.0073 -0.8235
   69TMC2    O1 1062   3.112   4.707  12.043  0.2113 -0.2087 -0.4973
   69TMC2    O2 1063   2.503   4.573  11.975  0.0085  0.0278  0.2179
   69TMC2    O5 1064   2.479   0.053  12.077  0.3190  0.1877 -0.0666
   69TMC2    H5 1065   2.524   0.110  12.144  1.4665 -1.4964  0.5951
   70MPD2     C 1066   3.143   4.707  12.629 -0.3831  0.5302  0.1023
   70MPD2    C1 1067   3.019   4.647  12.611  0.2399  0.3899  0.4429
   70MPD2    C2 1068   2.972   4.547  12.707  0.1539 -0.5260  0.4003
   70MPD2    C3 1069   3.049   4.510  12.807 -0.2322 -0.0157 -0.0646
   70MPD2    C4 1070   3.180   4.561  12.811 -0.3509  0.1435 -0.1542
   70MPD2    C5 1071   3.226   4.654  12.722 -0.6461 -0.4063 -0.2907
   70MPD2     H 1072   2.868   4.518  12.702 -0.8545  2.7708  1.6355
   70MPD2    H1 1073   3.238   4.548  12.902 -1.2716  2.5466  0.7724
   70MPD2    H2 1074   3.184   0.068  12.574 -1.0835  1.1203  0.4790
   70MPD2    H3 1075   3.325   4.697  12.734 -0.1446 -1.4566 -0.6265
   70MPD2     N 1076   3.014   4.421  12.918  0.2483 -0.1184 -0.3355
   70MPD2    H5 1077   3.084   4.404  12.990 -0.4628  0.6897  0.5368
   70MPD2    N1 1078   2.943   4.697  12.502  0.2427  0.3866 -0.6781
   70MPD2    H7 1079   2.986   0.043  12.441  0.2367  0.1824 -0.9142
   71TMC2    C1 1080   4.510   1.464   1.259  0.0440  0.2219 -0.0098
   71TMC2    C2 1081   4.609   1.411   1.337  0.0647  0.3835 -0.2369
   71TMC2    C3 1082   4.585   1.397   1.466 -0.6685  0.1891 -0.3201
   71TMC2    C4 1083   4.385   1.486   1.308  0.7021  0.0054  0.3774
   71TMC2    C5 1084   4.364   1.452   1.439  0.7446 -0.1691 -0.3395
   71TMC2    C6 1085   4.460   1.405   1.518 -1.1358 -0.6607 -0.6304
   71TMC2     C 1086   4.511   1.426   1.117 -0.3186 -0.0519 -0.2209
   71TMC2     O 1087   4.413   1.468   1.055 -0.4148 -0.6705 -0.0640
   71TMC2     H 1088   4.710   1.392   1.302 -0.2885  0.2269 -1.1800
   71TMC2    H1 1089   4.311   1.542   1.252 -1.6243 -1.8941  1.5674
   71TMC2    H2 1090   4.432   1.394   1.623  0.4740 -3.8829 -0.5349
   71TMC2    C7 1091   4.228   1.472   1.484 -0.0273  0.1561  0.4926
   71TMC2    C8 1092   4.701   1.344   1.539 -0.3952  0.1572  0.8981
   71TMC2    O1 1093   4.213   1.478   1.605 -0.1865 -0.3253  0.0448
   71TMC2    O2 1094   0.073   1.293   1.482 -0.6662  0.0163 -0.2387
   71TMC2    O5 1095   4.698   1.394   1.666  0.7957 -0.3576 -0.5607
   71TMC2    H5 1096   4.614   1.439   1.690  0.0909 -1.8120 -0.3229
   72MPD2     C 1097   4.711   1.251   0.684 -0.1063 -0.9334  0.1782
   72MPD2    C1 1098   4.606   1.333   0.706 -0.2591 -0.8763  0.5899
   72MPD2    C2 1099   4.573   1.363   0.833 -0.0320  0.4852  1.1125
   72MPD2    C3 1100   4.641   1.309   0.943  0.3843  0.1082  0.0813
   72MPD2    C4 1101   0.021   1.224   0.918 -0.7628 -0.2378  0.0849
   72MPD2    C5 1102   0.061   1.202   0.790 -0.4499  0.4226  0.2974
   72MPD2     H 1103   4.488   1.430   0.843  0.2322  1.1646 -1.0316
   72MPD2    H1 1104   0.082   1.182   0.997 -1.6199  0.4812  1.1191
   72MPD2    H2 1105   0.031   1.228   0.587 -1.8473  1.3896 -1.1140
   72MPD2    H3 1106   0.143   1.135   0.770 -2.2132 -2.0352  1.4027
   72MPD2     N 1107   4.602   1.339   1.080 -0.5276  0.1206 -0.0151
   72MPD2    H5 1108   4.660   1.307   1.157 -2.3074  2.0811  2.1134
   72MPD2    N1 1109   4.530   1.393   0.605  0.3138 -0.5855 -0.0959
   72MPD2    H7 1110   4.464   1.459   0.643  3.5433  1.2085  2.4352
   73TMC2    C1 1111   4.349   2.177  12.829 -0.4491 -0.3209  0.1918
   73TMC2    C2 1112   4.421   2.063  12.850  0.2910 -0.6417 -0.6192
   73TMC2    C3 1113   4.380   1.973  12.942 -0.0804  0.6072 -0.2031
   73TMC2    C4 1114   4.238   2.205  12.905  0.5842  0.1113 -0.4228
   73TMC2    C5 1115   4.213   2.118  13.008  0.3785  0.2554 -0.4981
   73TMC2    C6 1116   4.272   1.996  13.022 -0.4104  0.2506  0.8300
   73TMC2     C 1117   4.420   2.300  12.808  0.3813 -0.5960 -0.5616
   73TMC2     O 1118   4.383   2.393  12.883  0.3698  0.0327 -0.3935
   73TMC2     H 1119   4.505   2.040  12.786 -0.4070 -0.8095 -1.4763
   73TMC2    H1 1120   4.174   2.291  12.888  2.9670  1.5092 -2.2222
   73TMC2    H2 1121   4.263   1.924  13.102  0.0629  0.6265  1.2261
   73TMC2    C7 1122   4.195   2.186  13.133 -0.5641 -0.6628  0.4430
   73TMC2    C8 1123   4.457   1.846  12.948 -0.5804 -1.1774  0.1178
   73TMC2    O1 1124   4.168   2.111  13.224 -0.1540 -0.0236 -0.1559
   73TMC2    O2 1125   4.568   1.843  13.000 -0.3039  0.3263 -0.0291
   73TMC2    O5 1126   4.411   1.779  12.838  0.1106 -0.2256 -0.3141
   73TMC2    H5 1127   4.335   1.817  12.791  2.0403  2.1549 -1.5234
   74MPD2     C 1128   0.092   2.584  12.661  0.0841 -0.1640 -0.5255
   74MPD2    C1 1129   0.022   2.580  12.783 -0.4214 -0.3445  0.1444
   74MPD2    C2 1130   4.652   2.484  12.800 -0.6290  0.2859  0.1930
   74MPD2    C3 1131   4.611   2.403  12.696 -0.0035 -0.2092 -0.6343
   74MPD2    C4 1132   4.677   2.419  12.577  0.1217 -0.9293  0.3463
   74MPD2    C5 1133   0.059   2.505  12.563  0.0970 -0.2055 -0.2343
   74MPD2     H 1134   4.618   2.465  12.901  0.4226  3.3764  1.1200
   74MPD2    H1 1135   4.666   2.361  12.485  1.1160  1.4514 -1.2771
   74MPD2    H2 1136   0.169   2.658  12.644  0.0835  0.2308  1.2072
   74MPD2    H3 1137   0.109   2.496  12.467 -1.2234  0.8611 -1.0215
   74MPD2     N 1138   4.514   2.302  12.709  0.6752  0.2739 -0.4532
   74MPD2    H5 1139   4.516   2.226  12.642 -1.7995 -0.4539  0.2833
   74MPD2    N1 1140   0.055   2.675  12.884 -0.5622 -0.7469  0.0392
   74MPD2    H7 1141   0.121   2.746  12.853 -0.1033 -0.5936  1.3823
   75TCq2    C1 1142   4.718   3.532  14.085  0.5645 -0.5486  0.4744
   75TCq2    O2 1143   0.013   3.576  14.196  0.3538  0.3122  0.1611
   75TCq2    C2 1144   4.575   3.545  14.040 -0.5951  0.3613 -0.5104
   75TCq2    C3 1145   4.478   3.541  14.127  0.7529  0.5196  0.4775
   75TCq2    C4 1146   4.345   3.565  14.104 -0.4449 -0.4773 -0.0971
   75TCq2    C5 1147   4.302   3.582  13.982 -0.3568 -0.9746 -0.1055
   75TCq2    C6 1148   4.407   3.589  13.880 -0.4270 -0.2712 -0.8453
   75TCq2    C7 1149   4.540   3.568  13.914 -0.3322  0.7121  0.1162
   75TCq2    C8 1150   4.367   3.587  13.740  0.5073  0.0125 -0.1757
   75TCq2    O4 1151   4.273   3.525  13.701  0.2006 -0.0679  0.4813
   75TCq2    C9 1152   4.262   3.546  14.216  0.1731 -0.3966  0.6582
   75TCq2    O5 1153   4.310   3.488  14.318  0.6939  0.1336  0.1892
   75TCq2    O6 1154   4.150   3.603  14.219  0.1572  0.3259 -0.0918
   75TCq2    H2 1155   4.516   3.535  14.228  1.3739  0.1066  0.2203
   75TCq2    H3 1156   4.197   3.586  13.957 -0.5668  0.5911  1.0217
   75TCq2    H4 1157   4.617   3.580  13.839 -0.4533 -0.1029 -0.1376
   76MPD2     C 1158   4.141   4.411  11.817  0.2570 -0.0949 -0.0553
   76MPD2    C1 1159   4.026   4.345  11.803 -0.0374  0.5877  1.2711
   76MPD2    C2 1160   4.016   4.219  11.854  0.2253  0.1488 -0.4411
   76MPD2    C3 1161   4.121   4.167  11.928 -0.1064 -0.1505  0.4499
   76MPD2    C4 1162   4.235   4.240  11.945  0.5871 -0.5063 -0.1165
   76MPD2    C5 1163   4.247   4.362  11.883  0.3017 -0.0126  0.8359
   76MPD2     H 1164   3.921   4.167  11.850 -1.2964  2.6881  2.8476
   76MPD2    H1 1165   4.308   4.203  12.017  0.8849 -1.2813 -0.8145
   76MPD2    H2 1166   4.158   4.515  11.791  0.1774 -0.2669 -0.8190
   76MPD2    H3 1167   4.334   4.426  11.890 -0.4396  1.1612 -0.7609
   76MPD2     N 1168   4.099   4.044  11.993  0.4522 -1.0670 -0.5083
   76MPD2    H5 1169   4.182   4.004  12.036  0.1657  0.2866  1.2762
   76MPD2    N1 1170   3.915   4.412  11.745  0.1696  0.9498  0.3111
   76MPD2    H7 1171   3.825   4.366  11.755  0.3346 -0.3086 -3.7619
   77TCq2    C1 1172   3.999   3.953  11.979  0.7766  0.4359  0.5703
   77TCq2    O2 1173   3.894   3.962  11.916 -0.3394  0.1475 -0.7492
   77TCq2    C2 1174   4.001   3.823  12.043 -0.4718  0.0294 -0.0259
   77TCq2    C3 1175   3.908   3.729  12.008 -1.0242 -0.1340 -0.4870
   77TCq2    C4 1176   3.934   3.606  12.063 -0.1619  0.0032  0.0205
   77TCq2    C5 1177   4.040   3.574  12.139  1.0465 -0.8967 -0.0531
   77TCq2    C6 1178   4.129   3.674  12.170 -0.0777  0.4270  0.2951
   77TCq2    C7 1179   4.116   3.805  12.125  0.9284  0.0616  0.3632
   77TCq2    C8 1180   4.250   3.625  12.239 -0.2779  0.7745 -0.1402
   77TCq2    O4 1181   4.296   3.522  12.195 -0.1400 -0.4187 -0.2473
   77TCq2    C9 1182   3.831   3.511  12.044 -0.6056  0.1380 -0.0114
   77TCq2    O5 1183   3.744   3.534  11.957  0.0228  0.7347  0.1672
   77TCq2    O6 1184   3.862   3.393  12.083  0.5539 -0.0352  0.1215
   77TCq2    H2 1185   3.823   3.745  11.943  0.6983  1.6517 -2.3311
   77TCq2    H3 1186   4.055   3.476  12.183 -0.6461 -1.0964  0.0691
   77TCq2    H4 1187   4.186   3.883  12.152  0.1339  0.5036  1.1333
   78MPD1     C 1188   4.648   4.399   1.400  0.8592 -0.0198  0.1455
   78MPD1    C1 1189   4.538   4.401   1.483  0.5013 -0.4017 -0.2956
   78MPD1    C2 1190   4.443   4.496   1.465  0.0536 -0.1361  0.4501
   78MPD1    C3 1191   4.448   4.581   1.356  0.0251  0.4311  0.9167
   78MPD1    C4 1192   4.556   4.584   1.271 -0.3502  0.3163  0.0810
   78MPD1    C5 1193   4.655   4.497   1.305  0.6186  0.6976 -0.8055
   78MPD1     H 1194   4.358   4.498   1.533  0.5802 -0.3681  1.1053
   78MPD1    H1 1195   4.559   4.651   1.186  1.7069  0.9127  0.6287
   78MPD1    H2 1196   0.005   4.327   1.415  0.5638 -0.1575  1.0622
   78MPD1    H3 1197   0.015   4.503   1.235  1.3006  0.6016 -0.0011
   78MPD1     N 1198   4.366   4.691   1.333  0.2913 -0.5390 -0.3458
   78MPD1    H5 1199   4.384   0.024   1.251  1.4976  0.8853  0.8851
   78MPD1    N1 1200   4.524   4.306   1.582 -0.2688  0.3664  0.4152
   78MPD1    H6 1201   4.582   4.225   1.560  0.4919  1.1075 -0.3611
   78MPD1    H7 1202   4.426   4.282   1.594 -0.5935  1.4664 -0.0095
   79TCq2    C1 1203   4.253   0.014   1.397 -0.0145  0.0113  0.1553
   79TCq2    O2 1204   4.206   4.673   1.489  0.1851  0.2441 -0.3083
   79TCq2    C2 1205   4.194   0.131   1.336  0.6237 -0.2348  0.2180
   79TCq2    C3 1206   4.257   0.217   1.253  1.1339  0.2053 -0.5581
   79TCq2    C4 1207   4.201   0.334   1.210  0.1375 -0.8787 -0.3694
   79TCq2    C5 1208   4.070   0.359   1.240  0.3207 -0.9674  0.1835
   79TCq2    C6 1209   3.999   0.259   1.308  0.2142  0.3468 -0.2597
   79TCq2    C7 1210   4.063   0.149   1.361  0.3954 -0.3811  0.3333
   79TCq2    C8 1211   3.864   0.280   1.344  0.7247  0.1696  0.2855
   79TCq2    O4 1212   3.789   0.189   1.373  0.2941 -0.1071  0.3064
   79TCq2    C9 1213   4.272   0.434   1.135 -0.0605  0.0239  0.4828
   79TCq2    O5 1214   4.220   0.544   1.108  0.1196  0.4836  0.0701
   79TCq2    O6 1215   4.385   0.400   1.095  0.2200 -0.2366 -0.3213
   79TCq2    H2 1216   4.360   0.202   1.223  0.5545 -0.8783 -2.0374
   79TCq2    H3 1217   4.027   0.446   1.192  0.0374 -1.4462 -0.4313
   79TCq2    H4 1218   4.003   0.074   1.412 -0.4775  0.4752  0.5556
   80MPD2     C 1219   3.386   4.051  12.229 -0.1944 -0.6201  0.8972
   80MPD2    C1 1220   3.273   3.998  12.170  0.2052 -0.0917  0.0750
   80MPD2    C2 1221   3.158   3.994  12.253 -0.4557 -0.0997  0.1230
   80MPD2    C3 1222   3.165   4.043  12.387  0.4995 -0.2756 -0.4269
   80MPD2    C4 1223   3.286   4.082  12.438  0.3101 -0.6418  0.4883
   80MPD2    C5 1224   3.396   4.092  12.360  0.0084 -0.3463  0.2703
   80MPD2     H 1225   3.059   3.967  12.216 -0.1592  0.2595 -0.9393
   80MPD2    H1 1226   3.296   4.126  12.537 -0.5517  2.4203 -0.7833
   80MPD2    H2 1227   3.475   4.074  12.172 -2.3820  1.9480 -1.4171
   80MPD2    H3 1228   3.490   4.131  12.398 -0.9310  0.9481  1.2552
   80MPD2     N 1229   3.055   4.059  12.469  0.1668 -0.2270 -0.0911
   80MPD2    H5 1230   3.071   4.114  12.553 -1.5047 -1.2113  0.8895
   80MPD2    N1 1231   3.271   3.946  12.041 -0.2603 -0.0402 -0.3387
   80MPD2    H7 1232   3.186   3.898  12.014 -1.6564  1.3316  1.5688
   81TCq2    C1 1233   3.358   3.970  11.936  0.1319 -0.1243 -0.5351
   81TCq2    O2 1234   3.468   4.026  11.940  0.4537 -0.0348  0.3576
   81TCq2    C2 1235   3.319   3.916  11.809 -0.1209  0.0912  0.0268
   81TCq2    C3 1236   3.414   3.910  11.715  0.3572 -0.3751  0.1952
   81TCq2    C4 1237   3.376   3.881  11.584 -0.3466  0.1862  0.6012
   81TCq2    C5 1238   3.246   3.862  11.545 -0.2143  0.8293  0.7251
   81TCq2    C6 1239   3.151   3.880  11.645 -0.6645  0.4441 -0.1656
   81TCq2    C7 1240   3.186   3.904  11.778 -0.0696  0.0238  0.0341
   81TCq2    C8 1241   3.022   3.822  11.610  0.1069 -0.6014 -0.3035
   81TCq2    O4 1242   3.013   3.784  11.492 -0.1817  0.5992 -0.3066
   81TCq2    C9 1243   3.487   3.883  11.493 -0.6224 -0.7291 -0.4084
   81TCq2    O5 1244   3.578   3.968  11.513 -0.0400 -0.3908  0.3325
   81TCq2    O6 1245   3.469   3.815  11.385 -0.1919  0.1046  0.3212
   81TCq2    H2 1246   3.518   3.915  11.747 -0.1603 -0.4350  1.8601
   81TCq2    H3 1247   3.226   3.856  11.439  1.0121 -0.3356  0.5601
   81TCq2    H4 1248   3.116   3.944  11.850  0.6114  0.2108  0.5888
   82MPD2     C 1249   1.297   3.171  10.202  0.1241  0.1567 -0.0525
   82MPD2    C1 1250   1.173   3.157  10.259  0.2792  0.1147  0.0339
   82MPD2    C2 1251   1.155   3.060  10.363  0.5458 -0.1944  0.2475
   82MPD2    C3 1252   1.265   2.985  10.410 -0.1718  0.3945 -0.2835
   82MPD2    C4 1253   1.385   3.008  10.351  0.1011 -0.2997  1.2652
   82MPD2    C5 1254   1.403   3.100  10.250  0.4637  0.7233  0.4493
   82MPD2     H 1255   1.055   3.039  10.400  0.4153 -2.7665 -1.5571
   82MPD2    H1 1256   1.475   2.963  10.393  0.7023  0.6636  1.0182
   82MPD2    H2 1257   1.312   3.239  10.119 -0.7951 -1.2662 -1.3686
   82MPD2    H3 1258   1.503   3.113  10.208  0.6964 -0.2034  0.7351
   82MPD2     N 1259   1.267   2.892  10.514  0.1130  0.6117  0.4762
   82MPD2    H5 1260   1.351   2.841  10.537 -0.0909 -0.2982 -0.8005
   82MPD2    N1 1261   1.079   3.254  10.217 -0.0624  0.0720  0.1469
   82MPD2    H7 1262   1.100   3.324  10.148  1.7545 -0.8759 -0.2655
   83TCq2    C1 1263   1.153   2.868  10.583 -0.1923 -0.6902  0.1396
   83TCq2    O2 1264   1.042   2.903  10.558  0.3735 -0.6306  0.3530
   83TCq2    C2 1265   1.180   2.793  10.703 -0.2696 -0.3118 -0.5774
   83TCq2    C3 1266   1.293   2.807  10.784  0.5878 -0.6677  0.1581
   83TCq2    C4 1267   1.280   2.781  10.917 -0.4714 -0.4497  0.6081
   83TCq2    C5 1268   1.171   2.708  10.957  0.8054 -0.7723  0.1162
   83TCq2    C6 1269   1.066   2.686  10.877 -0.1944  0.7727  0.6287
   83TCq2    C7 1270   1.070   2.722  10.749  0.8423  0.7348 -0.3436
   83TCq2    C8 1271   0.956   2.599  10.923 -0.7763 -0.4524 -0.7724
   83TCq2    O4 1272   0.899   2.647  11.023  0.2901  0.1435  0.5068
   83TCq2    C9 1273   1.385   2.815  11.018  0.1933  0.3709  0.2220
   83TCq2    O5 1274   1.360   2.767  11.132 -0.2636  0.0769 -0.0439
   83TCq2    O6 1275   1.477   2.894  10.983  0.0721 -0.7027  0.0985
   83TCq2    H2 1276   1.376   2.870  10.752  1.6863 -1.7135  0.9456
   83TCq2    H3 1277   1.159   2.681  11.061 -2.2615  1.3598  0.3079
   83TCq2    H4 1278   0.981   2.707  10.689 -0.3146 -1.3934  1.8894
   84TCq2    C1 1279   1.913   1.649  10.373 -1.1942 -0.0919 -0.0532
   84TCq2    O2 1280   1.845   1.590  10.454 -0.4075 -0.6100 -0.2900
   84TCq2    C2 1281   2.001   1.758  10.415 -0.0074  0.5549  0.2723
   84TCq2    C3 1282   2.079   1.826  10.326 -0.6258  0.4670 -0.1667
   84TCq2    C4 1283   2.122   1.955  10.361 -0.2110 -0.1594  0.6584
   84TCq2    C5 1284   2.081   2.018  10.475 -0.3559 -0.1859  0.0614
   84TCq2    C6 1285   2.016   1.942  10.563  1.0026 -0.4483  0.2852
   84TCq2    C7 1286   1.970   1.811  10.534  1.5104  0.1589  0.7472
   84TCq2    C8 1287   2.014   1.983  10.700  0.0280 -0.0992  0.0825
   84TCq2    O4 1288   2.046   2.098  10.713 -0.0813  0.3837 -0.4742
   84TCq2    C9 1289   2.216   2.033  10.269 -0.1786  0.9137 -0.6134
   84TCq2    O5 1290   2.268   1.982  10.165 -0.0345 -0.3179 -0.0166
   84TCq2    O6 1291   2.242   2.153  10.300 -0.2417 -0.2082 -0.2467
   84TCq2    H2 1292   2.105   1.788  10.228 -0.2982  2.0651 -0.7024
   84TCq2    H3 1293   2.121   2.118  10.492  3.5532 -1.5076 -1.5670
   84TCq2    H4 1294   1.900   1.761  10.600  0.4952  2.0670  1.1123
   85MPD2     C 1295   2.816   0.536  16.159  0.0799 -0.3194 -0.6878
   85MPD2    C1 1296   2.716   0.544  16.060 -0.2862  0.2947 -0.4468
   85MPD2    C2 1297   2.740   0.635  15.970 -0.0131 -0.3847 -0.7368
   85MPD2    C3 1298   2.837   0.736  15.974 -0.6967  0.5854  0.2210
   85MPD2    C4 1299   2.926   0.741  16.082 -0.2859 -0.0613 -1.1362
   85MPD2    C5 1300   2.910   0.638  16.168  0.5946 -0.6772 -0.0490
   85MPD2     H 1301   2.678   0.634  15.881 -1.6977 -1.4462  0.4451
   85MPD2    H1 1302   3.001   0.818  16.089 -0.8143  0.3276  0.1530
   85MPD2    H2 1303   2.829   0.453  16.228 -0.5332  1.0361  1.0611
   85MPD2    H3 1304   2.979   0.633  16.251  2.8901 -1.5882 -1.9832
   85MPD2     N 1305   2.839   0.832  15.872 -0.0100 -0.0954 -0.4714
   85MPD2    H5 1306   2.761   0.818  15.807  0.9096  2.1194 -2.0597
   85MPD2    N1 1307   2.606   0.455  16.046  0.0854 -0.2047 -0.4307
   85MPD2    H7 1308   2.561   0.462  15.955 -2.2666  1.2780  0.8581
   86TCq2    C1 1309   2.930   0.938  15.864  0.3912 -0.4615  0.0071
   86TCq2    O2 1310   3.023   0.984  15.930  0.5105  0.3004 -0.4739
   86TCq2    C2 1311   2.929   0.995  15.730 -0.2004  0.6721 -0.8249
   86TCq2    C3 1312   2.912   1.131  15.719 -0.0500  0.4452  0.1441
   86TCq2    C4 1313   2.891   1.179  15.591 -0.1341 -0.4122 -0.2416
   86TCq2    C5 1314   2.893   1.092  15.488  0.3027  0.2596  0.0988
   86TCq2    C6 1315   2.914   0.959  15.504  0.3319 -0.2868  0.3431
   86TCq2    C7 1316   2.942   0.914  15.621 -0.3037 -0.5149  0.1694
   86TCq2    C8 1317   2.910   0.870  15.390  0.6664  0.4562 -0.0335
   86TCq2    O4 1318   2.964   0.762  15.400  0.2109 -0.2735 -0.2401
   86TCq2    C9 1319   2.857   1.314  15.567 -0.0640 -0.2638  0.3440
   86TCq2    O5 1320   2.864   1.389  15.670 -1.0090  0.4985 -0.3786
   86TCq2    O6 1321   2.787   1.343  15.466  0.2503  0.9154  0.0145
   86TCq2    H2 1322   2.877   1.187  15.805 -0.9090 -0.0752  0.1299
   86TCq2    H3 1323   2.882   1.135  15.389 -0.8141 -1.6939 -0.6201
   86TCq2    H4 1324   2.975   0.812  15.640 -0.7240 -0.8080 -0.6790
   87MPD2     C 1325   4.111   4.327   1.352  0.4036  0.1082 -0.1187
   87MPD2    C1 1326   4.200   4.352   1.246  0.2241  0.1595  0.4648
   87MPD2    C2 1327   4.168   4.453   1.150  0.4747  0.2828  0.2263
   87MPD2    C3 1328   4.062   4.542   1.173  0.5584 -0.8239 -1.0615
   87MPD2    C4 1329   3.980   4.517   1.282  0.3429  0.0930  0.4495
   87MPD2    C5 1330   3.998   4.402   1.350  0.1850 -0.0946  0.6024
   87MPD2     H 1331   4.225   4.464   1.058  0.3642  0.5834  0.1962
   87MPD2    H1 1332   3.889   4.574   1.298  0.1141 -0.0341 -0.3967
   87MPD2    H2 1333   4.127   4.256   1.432  0.3519  0.9847  0.6741
   87MPD2    H3 1334   3.922   4.374   1.421 -0.3657  0.7321  0.3369
   87MPD2     N 1335   4.024   4.648   1.081 -0.3696 -0.2601  0.7730
   87MPD2    H5 1336   3.935   4.693   1.100 -0.1603 -0.9045  3.1734
   87MPD2    N1 1337   4.306   4.260   1.244  0.1269  0.7367  0.3251
   87MPD2    H7 1338   4.319   4.192   1.318 -1.0364 -0.2577 -0.3897
   88TCq2    C1 1339   4.395   4.246   1.141  1.2048  0.5695  0.0853
   88TCq2    O2 1340   4.400   4.311   1.035  0.1611  0.0529 -0.1714
   88TCq2    C2 1341   4.493   4.140   1.164 -0.3671  0.1533  0.2225
   88TCq2    C3 1342   4.540   4.115   1.293 -0.0020  0.6682  1.0255
   88TCq2    C4 1343   4.670   4.069   1.310  0.3872  0.9004  0.7000
   88TCq2    C5 1344   0.027   4.037   1.210  0.4717  0.0034 -0.6311
   88TCq2    C6 1345   4.702   4.061   1.083  0.0418 -0.5029  0.6398
   88TCq2    C7 1346   4.576   4.112   1.063 -0.4060  0.2990 -0.6121
   88TCq2    C8 1347   0.066   4.033   0.970 -0.3806 -0.6023 -0.3438
   88TCq2    O4 1348   0.016   3.991   0.866 -0.3646 -0.5460 -0.4352
   88TCq2    C9 1349   4.715   4.037   1.448 -0.8041  0.0279 -0.4230
   88TCq2    O5 1350   0.116   4.036   1.471  0.3339  0.1600 -0.0338
   88TCq2    O6 1351   4.623   4.042   1.535  0.0992 -0.5957  0.1283
   88TCq2    H2 1352   4.480   4.129   1.382 -0.5127 -0.3845  0.8520
   88TCq2    H3 1353   0.128   4.005   1.231  0.0907 -0.7888  0.0211
   88TCq2    H4 1354   4.544   4.131   0.961 -0.6780 -1.5169 -0.8607
   89MPD2     C 1355   0.869   1.770   1.566  0.5231  0.1078  0.1054
   89MPD2    C1 1356   0.765   1.838   1.503 -0.0794 -0.2436  0.0712
   89MPD2    C2 1357   0.781   1.925   1.394 -0.4625  0.3385  0.2454
   89MPD2    C3 1358   0.901   1.928   1.341 -0.3212 -0.7834  0.7883
   89MPD2    C4 1359   1.000   1.850   1.386 -0.1456 -0.4104 -0.5023
   89MPD2    C5 1360   0.984   1.763   1.493  0.1095  0.1496  0.3737
   89MPD2     H 1361   0.694   1.983   1.365 -1.0965 -0.4199  0.6387
   89MPD2    H1 1362   1.102   1.848   1.350 -0.5636 -0.4244 -1.6793
   89MPD2    H2 1363   0.870   1.706   1.653  0.7844  0.5369  0.4156
   89MPD2    H3 1364   1.070   1.706   1.527  0.3850  1.8482  2.5522
   89MPD2     N 1365   0.915   2.022   1.234 -0.5986 -0.4918 -0.5595
   89MPD2    H5 1366   0.830   2.073   1.210 -0.3465  0.0621 -0.2829
   89MPD2    N1 1367   0.630   1.828   1.555  0.5882  0.0727 -0.0378
   89MPD2    H7 1368   0.555   1.859   1.494  0.4945 -1.4746 -0.7153
   90TCq2    C1 1369   1.025   2.054   1.165  0.0718  0.1845 -0.9312
   90TCq2    O2 1370   1.134   2.006   1.177  0.2478  0.1238  0.4236
   90TCq2    C2 1371   0.997   2.136   1.048 -0.1714  0.1583 -1.1411
   90TCq2    C3 1372   0.900   2.222   1.038  0.3815  0.6792 -0.6341
   90TCq2    C4 1373   0.874   2.292   0.923  0.7249 -0.6571  0.3847
   90TCq2    C5 1374   0.951   2.287   0.817 -0.1536 -0.1043  1.1370
   90TCq2    C6 1375   1.062   2.205   0.840  0.1649  0.0552 -0.1966
   90TCq2    C7 1376   1.080   2.121   0.941  0.3211 -0.2066  0.0076
   90TCq2    C8 1377   1.165   2.216   0.741 -0.1047  0.5483 -0.3317
   90TCq2    O4 1378   1.236   2.117   0.720  0.5947  0.1964  0.3536
   90TCq2    C9 1379   0.765   2.381   0.916 -0.4027 -0.2585  0.3079
   90TCq2    O5 1380   0.790   2.492   0.861 -0.3495 -0.0900 -0.0923
   90TCq2    O6 1381   0.686   2.374   1.018  0.5192 -0.3454  0.0073
   90TCq2    H2 1382   0.848   2.239   1.132  1.7336  0.6014  0.1207
   90TCq2    H3 1383   0.938   2.341   0.724  3.6990  1.2979  1.4118
   90TCq2    H4 1384   1.172   2.068   0.961 -0.2889 -0.7848  1.2763
   91TMC2    C1 1385   2.376   2.042  16.555 -0.6291  0.1429  0.0712
   91TMC2    C2 1386   2.439   2.115  16.468 -0.4335 -0.2476  0.2693
   91TMC2    C3 1387   2.361   2.182  16.378  0.0937 -0.5999 -0.2799
   91TMC2    C4 1388   2.241   2.023  16.559  0.0790 -0.4197 -0.4975
   91TMC2    C5 1389   2.173   2.075  16.456  0.1872 -0.6450  0.1275
   91TMC2    C6 1390   2.227   2.157  16.366  0.4623 -0.3484 -0.4655
   91TMC2     C 1391   2.441   1.972  16.665  0.3323 -0.2634  0.5855
   91TMC2     O 1392   2.392   1.976  16.776  0.3987 -0.2045  0.7602
   91TMC2     H 1393   2.547   2.112  16.459 -0.2368  0.8866  2.3085
   91TMC2    H1 1394   2.193   1.967  16.638 -1.4392  0.7643 -0.5885
   91TMC2    H2 1395   2.165   2.210  16.294  1.6593  0.3954 -0.9440
   91TMC2    C7 1396   2.033   2.033  16.434  0.5471  0.4253  0.2860
   91TMC2    C8 1397   2.430   2.257  16.274  0.3334  0.0995 -0.4643
   91TMC2    O1 1398   1.959   2.016  16.526  0.7013  0.4752  0.1022
   91TMC2    O2 1399   2.549   2.236  16.245 -0.3370  0.1977  0.3517
   91TMC2    O5 1400   2.378   2.386  16.266  0.4537 -0.4433 -0.1659
   91TMC2    H5 1401   2.304   2.404  16.328  0.4686 -0.6265 -0.0955
   92MPD2     C 1402   2.636   1.840  16.838  0.2701 -0.8459 -0.4820
   92MPD2    C1 1403   2.658   1.868  16.705  0.1120  0.1089 -0.0507
   92MPD2    C2 1404   2.774   1.832  16.642  0.4962  0.2678 -0.7978
   92MPD2    C3 1405   2.877   1.773  16.715 -0.5489  0.1838 -0.3416
   92MPD2    C4 1406   2.854   1.743  16.849  0.3821  0.0954 -0.0951
   92MPD2    C5 1407   2.728   1.765  16.904  0.5205  0.0223 -0.2745
   92MPD2     H 1408   2.781   1.852  16.536  1.4912  2.1041 -0.3799
   92MPD2    H1 1409   2.917   1.684  16.914  0.6295 -0.5203 -0.9006
   92MPD2    H2 1410   2.541   1.854  16.889  0.7424  0.6673 -0.0116
   92MPD2    H3 1411   2.705   1.727  17.003  2.7507 -0.0129  0.2438
   92MPD2     N 1412   2.997   1.738  16.646 -0.7923 -0.4163 -0.5358
   92MPD2    H5 1413   3.010   1.768  16.550 -2.0075  0.6245 -0.3692
   92MPD2    N1 1414   2.562   1.929  16.624  0.1783 -0.0546  0.4596
   92MPD2    H7 1415   2.587   1.937  16.526  1.9108  0.3762  0.9256
   93MPD2     C 1416   4.441   1.174  13.301  0.7762  0.3377 -1.1414
   93MPD2    C1 1417   4.425   1.260  13.411  0.6487 -0.0410  0.2222
   93MPD2    C2 1418   4.294   1.314  13.435  0.2644  0.2014 -0.5495
   93MPD2    C3 1419   4.190   1.285  13.355 -0.2359  0.0053 -0.3093
   93MPD2    C4 1420   4.210   1.202  13.240  0.0704 -0.0276  0.3828
   93MPD2    C5 1421   4.336   1.145  13.223 -0.7003 -0.4457 -0.0751
   93MPD2     H 1422   4.281   1.392  13.509  1.3768 -0.3497  0.2463
   93MPD2    H1 1423   4.125   1.176  13.178  0.1737 -2.6699  1.3713
   93MPD2    H2 1424   4.542   1.135  13.288 -0.0802 -1.8174 -1.2851
   93MPD2    H3 1425   4.348   1.080  13.138 -0.7800 -1.7138  0.8748
   93MPD2     N 1426   4.061   1.349  13.360 -0.5416  0.5790 -0.7937
   93MPD2    H5 1427   3.994   1.316  13.292 -0.6929 -1.4092  0.2999
   93MPD2    N1 1428   4.531   1.290  13.499 -0.4430 -0.0244  0.1961
   93MPD2    H7 1429   4.509   1.369  13.559 -1.0919  1.3557 -1.8749
   94TCq2    C1 1430   4.645   1.225  13.526 -0.2912  0.2916 -0.3767
   94TCq2    O2 1431   4.690   1.118  13.484 -0.3779 -0.1905 -0.1778
   94TCq2    C2 1432   4.707   1.288  13.642  0.0045 -0.2264  0.3959
   94TCq2    C3 1433   4.636   1.369  13.728 -0.2395 -0.1549 -0.1061
   94TCq2    C4 1434   4.707   1.452  13.813  0.3123  0.0450  0.1897
   94TCq2    C5 1435   0.122   1.449  13.813  0.4363 -0.3570 -0.3714
   94TCq2    C6 1436   0.184   1.369  13.713  0.0154  0.2907 -0.9667
   94TCq2    C7 1437   0.120   1.274  13.643  0.0609  0.5424 -0.2587
   94TCq2    C8 1438   0.309   1.414  13.651 -0.0064 -0.4010 -0.1108
   94TCq2    O4 1439   0.368   1.336  13.576  0.3166  0.2601 -0.5140
   94TCq2    C9 1440   4.635   1.531  13.906  0.2310  0.5530  0.1228
   94TCq2    O5 1441   4.522   1.566  13.872  0.1084 -0.1101  0.2327
   94TCq2    O6 1442   4.715   1.594  13.985  0.9169 -0.7660  0.2063
   94TCq2    H2 1443   4.528   1.365  13.734 -0.1802 -0.3915  0.8379
   94TCq2    H3 1444   0.177   1.513  13.881  0.3094 -2.2538  1.5041
   94TCq2    H4 1445   0.167   1.210  13.568  4.0339  3.8848 -0.5708
   95TMC2    C1 1446   4.246   3.005  15.772  0.5897 -0.6903 -0.5239
   95TMC2    C2 1447   4.140   3.014  15.859  0.1371  0.3743  0.1719
   95TMC2    C3 1448   4.077   2.896  15.894 -0.2764 -0.2798 -0.5660
   95TMC2    C4 1449   4.300   2.886  15.722 -0.3676  0.1706  0.2429
   95TMC2    C5 1450   4.223   2.775  15.750 -0.5084  0.8808 -0.8233
   95TMC2    C6 1451   4.107   2.783  15.830  0.4622 -0.1227 -0.0262
   95TMC2     C 1452   4.313   3.125  15.727 -0.6621 -0.9343  0.0488
   95TMC2     O 1453   4.436   3.112  15.721  0.1638  0.7060 -0.6459
   95TMC2     H 1454   4.115   3.103  15.916 -1.3107  0.8832 -1.2772
   95TMC2    H1 1455   4.377   2.888  15.646  0.4817 -3.5800  1.0262
   95TMC2    H2 1456   4.059   2.689  15.856  0.9472 -1.4512 -3.9010
   95TMC2    C7 1457   4.261   2.646  15.695  0.1684  0.1378 -0.3613
   95TMC2    C8 1458   3.948   2.917  15.968 -0.2196  0.5053 -0.3790
   95TMC2    O1 1459   4.180   2.557  15.718 -0.2307 -0.1930 -0.0301
   95TMC2    O2 1460   3.911   3.026  16.006 -0.6232  0.1887 -0.0481
   95TMC2    O5 1461   3.925   2.809  16.044  0.5663  0.0238 -0.4166
   95TMC2    H5 1462   3.959   2.723  16.013  0.0132 -0.0860 -0.7299
   96MPD2     C 1463   4.331   3.644  15.654  0.8287 -0.6665  0.5660
   96MPD2    C1 1464   4.424   3.543  15.640 -0.4789 -0.1416  0.0558
   96MPD2    C2 1465   4.388   3.407  15.644  0.1667  0.1563 -0.5466
   96MPD2    C3 1466   4.265   3.370  15.686  0.7392 -0.0305  0.2854
   96MPD2    C4 1467   4.178   3.469  15.710 -0.8231  0.4313 -0.2443
   96MPD2    C5 1468   4.208   3.605  15.696  0.6699  0.4492 -0.1810
   96MPD2     H 1469   4.465   3.331  15.641 -1.3303 -1.2562 -3.1210
   96MPD2    H1 1470   4.086   3.445  15.763  0.7647  0.6090  2.5914
   96MPD2    H2 1471   4.347   3.750  15.642  0.6505 -0.8543 -1.4413
   96MPD2    H3 1472   4.129   3.677  15.718  1.7678  1.1803  1.4111
   96MPD2     N 1473   4.228   3.230  15.721 -0.0958  0.0218  0.2084
   96MPD2    H5 1474   4.130   3.209  15.740  0.2057 -2.4226 -0.9041
   96MPD2    N1 1475   4.550   3.591  15.606  0.1172  0.0314 -0.4224
   96MPD2    H7 1476   4.563   3.690  15.588  0.5875  0.1430  0.5382
   97MPD2     C 1477   1.945   1.580   0.738  0.2910 -0.1881 -0.6070
   97MPD2    C1 1478   1.810   1.556   0.719 -0.1249 -0.0504 -0.1026
   97MPD2    C2 1479   1.748   1.593   0.598  0.0163  0.0009  0.6906
   97MPD2    C3 1480   1.817   1.655   0.499  0.0087 -0.4551 -0.8041
   97MPD2    C4 1481   1.951   1.685   0.520  0.6193 -0.0212  0.4174
   97MPD2    C5 1482   2.014   1.645   0.635  0.0297  0.6295  0.2242
   97MPD2     H 1483   1.644   1.566   0.583 -0.8768  3.7924  0.0454
   97MPD2    H1 1484   2.011   1.746   0.453  0.0261 -0.5720 -0.6152
   97MPD2    H2 1485   1.989   1.552   0.833  0.7583 -1.4750 -1.1960
   97MPD2    H3 1486   2.119   1.670   0.642  0.5844 -1.9963  1.1070
   97MPD2     N 1487   1.759   1.689   0.374 -0.1362 -0.0535  0.1279
   97MPD2    H5 1488   1.821   1.755   0.327 -0.5657 -0.8332 -1.5176
   97MPD2    N1 1489   1.744   1.483   0.821  0.1032 -0.4269 -0.7638
   97MPD2    H7 1490   1.797   1.452   0.902 -1.1925 -2.8391 -0.8150
   98TCq2    C1 1491   1.658   1.618   0.324  0.6038 -0.4456 -0.6454
   98TCq2    O2 1492   1.584   1.533   0.369  0.3093 -0.2518  0.1181
   98TCq2    C2 1493   1.628   1.670   0.192 -0.0636 -0.0247  0.0973
   98TCq2    C3 1494   1.499   1.654   0.160 -0.2430 -0.3023  0.1170
   98TCq2    C4 1495   1.447   1.704   0.045 -1.1610  0.0737  1.0717
   98TCq2    C5 1496   1.531   1.770  17.656 -0.0239  0.1610  0.0377
   98TCq2    C6 1497   1.664   1.779  17.688 -0.0399 -0.0524  0.3970
   98TCq2    C7 1498   1.717   1.739   0.115  0.0988 -0.2899 -0.4891
   98TCq2    C8 1499   1.748   1.872  17.613  0.5676 -0.5409 -0.5647
   98TCq2    O4 1500   1.827   1.933  17.684  0.5301 -0.1455  0.0177
   98TCq2    C9 1501   1.304   1.687   0.025 -0.1504 -0.0385  0.2914
   98TCq2    O5 1502   1.238   1.620   0.110  0.5496  0.3167 -0.1085
   98TCq2    O6 1503   1.245   1.752  17.634  0.7972  0.4506  0.4696
   98TCq2    H2 1504   1.425   1.610   0.226 -1.6977  2.6307  0.4435
   98TCq2    H3 1505   1.490   1.805  17.562 -0.5464  0.0904  0.2402
   98TCq2    H4 1506   1.823   1.744   0.134  0.2461  1.2666 -1.7432
   99MPD2     C 1507   0.574   3.337   1.661 -0.0611  0.4594 -0.1124
   99MPD2    C1 1508   0.452   3.305   1.613  1.0116  0.3680 -0.0422
   99MPD2    C2 1509   0.443   3.297   1.471 -0.8037  0.3454 -0.2822
   99MPD2    C3 1510   0.552   3.322   1.393  0.5683 -0.2052 -0.2290
   99MPD2    C4 1511   0.678   3.360   1.443 -0.0032  0.5402  0.3801
   99MPD2    C5 1512   0.684   3.360   1.582 -0.4529  0.1962  0.5150
   99MPD2     H 1513   0.345   3.276   1.429 -0.7960  0.0799 -0.1708
   99MPD2    H1 1514   0.760   3.385   1.376 -0.8194 -0.7894 -1.1228
   99MPD2    H2 1515   0.590   3.351   1.768  0.7712 -2.4425  0.1657
   99MPD2    H3 1516   0.776   3.377   1.637 -0.1337 -3.5573  1.1689
   99MPD2     N 1517   0.528   3.301   1.258 -0.1741  0.1140 -0.6483
   99MPD2    H5 1518   0.433   3.279   1.230 -0.1155 -1.1245  0.1419
   99MPD2    N1 1519   0.337   3.282   1.696 -0.3627  0.0791 -0.0513
   99MPD2    H7 1520   0.250   3.282   1.643 -0.5504 -2.4467  0.2653
  100TCq2    C1 1521   0.338   3.275   1.832  0.5700  0.6343  0.3755
  100TCq2    O2 1522   0.431   3.270   1.915  0.7510 -0.3050  0.3343
  100TCq2    C2 1523   0.207   3.292   1.891  0.1951 -0.3955 -0.7098
  100TCq2    C3 1524   0.199   3.262   2.025 -0.2278 -0.3782  0.4074
  100TCq2    C4 1525   0.083   3.296   2.085 -0.3773 -0.6538  0.3174
  100TCq2    C5 1526   4.699   3.353   2.014  0.4473 -1.2078 -0.0951
  100TCq2    C6 1527   4.715   3.377   1.873 -0.0648  0.2527  0.4351
  100TCq2    C7 1528   0.109   3.344   1.811 -0.0038 -0.3149  0.5676
  100TCq2    C8 1529   4.601   3.445   1.806  0.1024  0.1714 -0.7168
  100TCq2    O4 1530   4.531   3.504   1.890 -0.3574  0.0652  0.1744
  100TCq2    C9 1531   0.067   3.263   2.225 -0.5276  0.1240 -0.1184
  100TCq2    O5 1532   4.682   3.299   2.285 -0.2063 -0.7142  0.1570
  100TCq2    O6 1533   0.160   3.210   2.284  0.1588  0.2580 -0.2693
  100TCq2    H2 1534   0.284   3.226   2.083 -0.0834 -2.1952 -0.9390
  100TCq2    H3 1535   4.609   3.375   2.071  0.9260  0.8370 -0.1133
  100TCq2    H4 1536   0.118   3.386   1.712  0.1850  1.5219  1.3632
  101MPD2     C 1537   1.441   3.803  12.646 -0.1948 -0.4174  0.1857
  101MPD2    C1 1538   1.356   3.887  12.710  0.0216 -0.0761  0.3307
  101MPD2    C2 1539   1.277   3.845  12.817 -0.4989 -0.1471  0.0656
  101MPD2    C3 1540   1.273   3.712  12.847 -0.1868 -0.1497 -0.6416
  101MPD2    C4 1541   1.358   3.629  12.778 -0.2987 -0.3568 -0.4039
  101MPD2    C5 1542   1.441   3.672  12.679 -0.0045  0.0102 -0.1128
  101MPD2     H 1543   1.223   3.919  12.874  1.6773  0.0846  1.8669
  101MPD2    H1 1544   1.368   3.524  12.802 -0.8970  0.2211  2.3073
  101MPD2    H2 1545   1.503   3.833  12.562  0.0679  0.5887  0.7401
  101MPD2    H3 1546   1.509   3.602  12.632  0.0913 -0.9014  1.3886
  101MPD2     N 1547   1.185   3.661  12.940 -0.4289 -0.2048 -0.3248
  101MPD2    H5 1548   1.126   3.725  12.992  1.7943  1.4319  0.2009
  101MPD2    N1 1549   1.368   4.023  12.678 -0.1932 -0.1197  0.2376
  101MPD2    H7 1550   1.436   4.048  12.607  0.1746 -0.9119  0.3179
  102TCq2    C1 1551   1.639   4.425  12.586  0.4789 -0.1621  0.0661
  102TCq2    O2 1552   1.653   4.486  12.479  0.0249  0.6775  0.3666
  102TCq2    C2 1553   1.501   4.420  12.628  0.4998 -0.1503  0.6412
  102TCq2    C3 1554   1.405   4.498  12.564 -0.0459 -0.2662  0.5942
  102TCq2    C4 1555   1.282   4.447  12.546  0.3196 -0.7044 -0.0724
  102TCq2    C5 1556   1.242   4.329  12.602 -0.3317  0.6431  0.4828
  102TCq2    C6 1557   1.339   4.258  12.669 -0.1863  0.7011 -0.0328
  102TCq2    C7 1558   1.464   4.301  12.685 -0.1338 -0.2222 -0.3668
  102TCq2    C8 1559   1.291   4.127  12.721 -0.2422  0.9316  0.4012
  102TCq2    O4 1560   1.181   4.116  12.776 -0.1314 -0.0776  0.0872
  102TCq2    C9 1561   1.182   4.517  12.480 -0.0319 -0.2088  0.0276
  102TCq2    O5 1562   1.065   4.468  12.474  0.0174 -0.5782 -0.5158
  102TCq2    O6 1563   1.223   4.613  12.409 -0.0502  0.0815  0.2981
  102TCq2    H2 1564   1.435   4.599  12.538  2.6376 -0.8022  1.6707
  102TCq2    H3 1565   1.141   4.291  12.593 -0.2816  0.7073 -0.3463
  102TCq2    H4 1566   1.529   4.226  12.728  1.8097  2.5126  1.4325
  103TMC2    C1 1567   0.007   4.123  12.691  0.3887 -0.0145  0.5793
  103TMC2    C2 1568   0.115   4.195  12.644  0.3550 -0.3840 -0.0506
  103TMC2    C3 1569   0.126   4.318  12.687  0.3939 -0.0688  0.2742
  103TMC2    C4 1570   4.637   4.174  12.780  0.0661 -1.1026 -0.1324
  103TMC2    C5 1571   4.654   4.309  12.815 -0.3487  0.5077  0.0270
  103TMC2    C6 1572   0.038   4.380  12.775 -0.6746 -0.6274  0.5455
  103TMC2     C 1573   0.005   3.985  12.652  0.2761  0.2696 -0.3781
  103TMC2     O 1574   0.117   3.934  12.629 -0.0845 -0.0327  0.1373
  103TMC2     H 1575   0.190   4.153  12.578  0.4263  3.1628 -2.2322
  103TMC2    H1 1576   4.556   4.121  12.828 -0.1601  1.5813  2.4450
  103TMC2    H2 1577   0.056   4.480  12.812 -2.6777  0.6348 -1.9147
  103TMC2    C7 1578   4.575   4.364  12.921 -0.3328 -0.0477 -1.2337
  103TMC2    C8 1579   0.239   4.394  12.639  0.2712 -0.1303 -0.6161
  103TMC2    O1 1580   4.511   4.290  12.995  0.0294 -0.2965  0.3495
  103TMC2    O2 1581   0.270   4.500  12.697  0.1154 -0.2654 -0.4784
  103TMC2    O5 1582   0.242   4.379  12.505  0.3688 -0.2203 -0.1455
  103TMC2    H5 1583   0.188   4.304  12.473 -1.8776  0.9734  0.8414
  104MPD2     C 1584   4.672   3.712  12.542  0.3679 -0.0022 -0.4164
  104MPD2    C1 1585   4.580   3.823  12.543  0.0926 -0.1450  0.3811
  104MPD2    C2 1586   4.467   3.812  12.471 -0.6719 -0.1063 -0.3653
  104MPD2    C3 1587   4.436   3.698  12.397 -0.3134 -0.7747 -0.2727
  104MPD2    C4 1588   4.518   3.591  12.397 -0.0244 -0.2970  0.3858
  104MPD2    C5 1589   4.639   3.602  12.465 -0.3971  0.7058  0.0216
  104MPD2     H 1590   4.403   3.899  12.464 -0.6559  0.1094  2.1323
  104MPD2    H1 1591   4.488   3.501  12.346 -0.9438 -0.9604  2.1129
  104MPD2    H2 1592   0.039   3.717  12.602 -0.0920 -2.5846  0.4890
  104MPD2    H3 1593   4.712   3.522  12.472  0.2520  1.3757  0.9091
  104MPD2     N 1594   4.311   3.718  12.326  0.2632  0.0433 -0.3961
  104MPD2    H5 1595   4.259   3.801  12.353 -1.3916 -2.0708  2.9362
  104MPD2    N1 1596   4.605   3.941  12.615  0.2449 -0.4226  0.2276
  104MPD2    H7 1597   4.537   4.016  12.615  1.4736  0.7100  1.1255
  105MPD2     C 1598   1.109   3.797  17.441  0.0046  0.3870 -0.6473
  105MPD2    C1 1599   0.976   3.795  17.409  0.6485  0.0695 -0.7520
  105MPD2    C2 1600   0.883   3.775  17.511  0.0755 -0.1859  0.6121
  105MPD2    C3 1601   0.918   3.783  17.642 -0.2129 -0.3663 -0.1647
  105MPD2    C4 1602   1.048   3.809  17.678  0.1371  0.3240  0.7170
  105MPD2    C5 1603   1.145   3.807  17.580 -0.0338 -0.7951  0.2926
  105MPD2     H 1604   0.777   3.775  17.490  0.0834 -0.9394  0.6014
  105MPD2    H1 1605   1.081   3.793   0.085 -0.3584 -1.9819  0.5131
  105MPD2    H2 1606   1.180   3.832  17.367  0.5528  0.4142 -0.1187
  105MPD2    H3 1607   1.248   3.833  17.604 -0.1327  0.9372 -1.1430
  105MPD2     N 1608   0.810   3.780   0.038 -0.0998 -0.0893 -0.3345
  105MPD2    H5 1609   0.720   3.747   0.004 -0.8489  1.2577  0.3543
  105MPD2    N1 1610   0.928   3.820  17.280  0.0650  0.5676  0.5359
  105MPD2    H7 1611   0.828   3.824  17.265  0.3289 -2.1253 -1.8837
  106TCq2    C1 1612   0.829   3.802   0.173  0.4634  0.2672 -0.0182
  106TCq2    O2 1613   0.919   3.866   0.228  0.4798  0.1489 -0.6238
  106TCq2    C2 1614   0.706   3.796   0.247 -0.3753  0.6445 -0.4293
  106TCq2    C3 1615   0.605   3.716   0.199 -0.7248  0.3480  0.4415
  106TCq2    C4 1616   0.484   3.716   0.271  0.2152  0.2350 -0.2475
  106TCq2    C5 1617   0.467   3.811   0.372 -0.3358  0.4044 -0.2233
  106TCq2    C6 1618   0.578   3.888   0.412 -0.1629 -0.6280  0.3556
  106TCq2    C7 1619   0.690   3.887   0.345 -0.2015  0.2439  0.4592
  106TCq2    C8 1620   0.573   3.963   0.534 -0.2107 -0.2791  0.2783
  106TCq2    O4 1621   0.650   4.057   0.541 -0.4629  0.4273 -0.5418
  106TCq2    C9 1622   0.377   3.630   0.229  0.1933 -0.7717  0.5157
  106TCq2    O5 1623   0.262   3.673   0.244 -0.2087 -0.5543  0.4556
  106TCq2    O6 1624   0.404   3.527   0.165 -0.0438 -0.4514 -0.2800
  106TCq2    H2 1625   0.603   3.655   0.110 -0.5555 -0.3547  0.9150
  106TCq2    H3 1626   0.374   3.806   0.427  0.2653 -1.4144  0.6328
  106TCq2    H4 1627   0.775   3.947   0.377 -0.2214  0.4477  0.1359
  107TMC2    C1 1628   1.885   2.598  11.369 -0.2547  0.8134  0.0838
  107TMC2    C2 1629   1.957   2.665  11.269 -0.7700 -0.2696 -1.0757
  107TMC2    C3 1630   1.998   2.599  11.155  0.4335  0.2013  0.4886
  107TMC2    C4 1631   1.885   2.464  11.373  0.0398 -0.3753  0.3646
  107TMC2    C5 1632   1.936   2.402  11.262 -0.6322 -0.8142 -0.3396
  107TMC2    C6 1633   1.998   2.462  11.151  0.0555 -0.5724  1.1181
  107TMC2     C 1634   1.790   2.668  11.450 -0.6701 -0.2811  0.4140
  107TMC2     O 1635   1.767   2.617  11.561 -0.5433  0.0107  0.2840
  107TMC2     H 1636   1.963   2.774  11.268 -1.3510 -0.2365 -1.1469
  107TMC2    H1 1637   1.817   2.410  11.437 -0.9633  2.0247  1.3233
  107TMC2    H2 1638   2.038   2.408  11.066 -1.9561 -0.0214 -0.1764
  107TMC2    C7 1639   1.959   2.258  11.273 -0.6714  0.0239  0.4382
  107TMC2    C8 1640   2.090   2.669  11.066  0.2407 -0.7886 -0.3515
  107TMC2    O1 1641   1.943   2.211  11.382  0.0786 -0.0179 -0.0622
  107TMC2    O2 1642   2.060   2.777  11.025 -0.4597 -0.0889  0.1185
  107TMC2    O5 1643   2.193   2.590  11.027 -0.0437 -0.0281  0.7214
  107TMC2    H5 1644   2.209   2.520  11.093 -1.2013 -0.5893  0.4113
  108MPD2     C 1645   1.593   2.947  11.346 -0.0750  0.9228  0.5305
  108MPD2    C1 1646   1.637   2.857  11.434  0.2909  0.1875 -0.4576
  108MPD2    C2 1647   1.576   2.852  11.564 -0.1540 -0.0342  0.2139
  108MPD2    C3 1648   1.458   2.925  11.584 -0.2822  0.7436  0.9906
  108MPD2    C4 1649   1.418   3.015  11.492 -0.1638 -0.1262  0.2003
  108MPD2    C5 1650   1.485   3.026  11.373 -0.3589  0.2639  0.6960
  108MPD2     H 1651   1.613   2.785  11.641 -0.4341 -2.3448 -1.6806
  108MPD2    H1 1652   1.331   3.079  11.506  0.4436  0.6310  0.5349
  108MPD2    H2 1653   1.631   2.953  11.245 -1.0835 -0.2361  0.0844
  108MPD2    H3 1654   1.453   3.088  11.290 -0.9920  0.2379  0.9242
  108MPD2     N 1655   1.377   2.917  11.700 -0.3759 -0.3146  0.1659
  108MPD2    H5 1656   1.287   2.964  11.698  0.2833  0.8932 -0.8747
  108MPD2    N1 1657   1.747   2.777  11.389 -0.1660  0.4603  0.0358
  108MPD2    H7 1658   1.762   2.793  11.289  3.4732 -0.7160  0.3826
  109MPD2     C 1659   2.930   0.678   1.350 -0.0257 -0.1789 -0.1128
  109MPD2    C1 1660   2.888   0.585   1.435 -0.1721 -0.8820  0.7059
  109MPD2    C2 1661   2.759   0.594   1.489  0.1181 -0.3521 -0.5717
  109MPD2    C3 1662   2.680   0.704   1.462  0.1987  0.2358 -0.4420
  109MPD2    C4 1663   2.725   0.797   1.372 -0.0554  1.4624 -0.4653
  109MPD2    C5 1664   2.847   0.781   1.315  0.1153  0.9859  1.1016
  109MPD2     H 1665   2.735   0.550   1.584  1.2257  2.1601  0.8831
  109MPD2    H1 1666   2.667   0.880   1.332 -0.2822  0.0294 -3.0867
  109MPD2    H2 1667   3.034   0.677   1.321 -0.2264 -0.3154 -0.8339
  109MPD2    H3 1668   2.885   0.852   1.241 -1.1755 -0.7185 -1.2068
  109MPD2     N 1669   2.545   0.708   1.521  0.1395  0.2340 -0.4343
  109MPD2    H5 1670   2.524   0.629   1.582  0.2947 -0.6038 -1.4582
  109MPD2    N1 1671   2.978   0.484   1.470 -0.0686  0.0796 -0.1260
  109MPD2    H7 1672   3.071   0.482   1.430  0.3760 -0.8307  0.9388
  110TCq2    C1 1673   2.458   0.818   1.517 -0.5082  0.1638  0.3023
  110TCq2    O2 1674   2.469   0.928   1.471  0.6970  0.6632  0.1313
  110TCq2    C2 1675   2.324   0.776   1.568 -0.2757  0.4455 -0.2580
  110TCq2    C3 1676   2.318   0.704   1.682  0.0234 -0.2816  0.5204
  110TCq2    C4 1677   2.201   0.678   1.735  0.2685  0.1829 -0.7195
  110TCq2    C5 1678   2.096   0.721   1.670 -0.5177  0.4910 -0.4410
  110TCq2    C6 1679   2.101   0.800   1.558  0.2495 -0.0200  0.4644
  110TCq2    C7 1680   2.217   0.841   1.513 -0.5992  0.4988 -0.0528
  110TCq2    C8 1681   1.981   0.853   1.488  0.6995 -0.3213  0.3207
  110TCq2    O4 1682   1.997   0.950   1.411 -0.0234 -0.0151  0.3715
  110TCq2    C9 1683   2.188   0.602   1.856 -0.2816 -0.0941 -0.0150
  110TCq2    O5 1684   2.083   0.623   1.926  0.0991  0.2899 -0.0192
  110TCq2    O6 1685   2.293   0.544   1.883 -0.4224  0.1896 -0.1057
  110TCq2    H2 1686   2.410   0.691   1.739  1.1445  1.7601 -0.8117
  110TCq2    H3 1687   2.004   0.691   1.719 -0.7255 -0.7893 -1.6355
  110TCq2    H4 1688   2.229   0.896   1.421 -0.3330 -0.2812 -0.4904
  111TMC2    C1 1689   1.887   4.038  11.218  0.2798  0.9474 -0.1872
  111TMC2    C2 1690   1.895   4.096  11.092  0.1245  0.1283  0.0449
  111TMC2    C3 1691   2.013   4.159  11.062 -0.2415  0.1032  0.1449
  111TMC2    C4 1692   1.994   4.033  11.300  0.3742  0.3040 -0.8527
  111TMC2    C5 1693   2.110   4.088  11.265  0.0340  0.2310 -0.0141
  111TMC2    C6 1694   2.124   4.155  11.144  0.0952 -0.7900 -0.1303
  111TMC2     C 1695   1.758   4.073  11.278 -1.2078  0.1271  0.2990
  111TMC2     O 1696   1.690   4.148  11.208  0.0384 -0.2521 -0.0588
  111TMC2     H 1697   1.817   4.078  11.019  0.2525  0.3735 -0.1507
  111TMC2    H1 1698   1.988   3.983  11.397 -0.8645  0.8784 -0.6317
  111TMC2    H2 1699   2.209   4.217  11.116 -0.3098 -0.8508 -1.4970
  111TMC2    C7 1700   2.184   4.136  11.384  0.8089 -0.1504 -0.0633
  111TMC2    C8 1701   2.050   4.185  10.923 -0.1230  0.3778 -0.2518
  111TMC2    O1 1702   2.167   4.083  11.492 -0.6274 -0.3210 -0.4723
  111TMC2    O2 1703   2.164   4.175  10.883 -0.1439  0.0785 -0.7988
  111TMC2    O5 1704   1.943   4.182  10.837  0.4048  0.3200 -0.0535
  111TMC2    H5 1705   1.860   4.216  10.876 -1.4176  0.0880 -3.7066
  112MPD2     C 1706   1.596   4.343  11.687 -0.3352  0.3594 -0.0112
  112MPD2    C1 1707   1.600   4.376  11.551  0.0417 -0.3597 -0.7075
  112MPD2    C2 1708   1.656   4.288  11.455 -0.6244 -0.4052 -0.6094
  112MPD2    C3 1709   1.702   4.161  11.497 -0.3984 -0.1396  0.0110
  112MPD2    C4 1710   1.695   4.126  11.632 -0.1645  0.4560  0.6623
  112MPD2    C5 1711   1.647   4.220  11.723 -0.0339  0.1179 -0.3368
  112MPD2     H 1712   1.663   4.326  11.354  1.9763 -1.7093 -0.9108
  112MPD2    H1 1713   1.725   4.027  11.663  0.0442  0.5666  0.8208
  112MPD2    H2 1714   1.569   4.405  11.771  0.1126  1.8201 -0.9426
  112MPD2    H3 1715   1.648   4.194  11.828 -1.5390  1.6623  0.0614
  112MPD2     N 1716   1.753   4.066  11.411 -0.1430  0.1467 -0.0669
  112MPD2    H5 1717   1.804   3.988  11.452 -1.7829 -0.6380  0.4691
  112MPD2    N1 1718   1.566   4.502  11.505 -0.1291 -0.3806  0.4090
  112MPD2    H7 1719   1.601   4.535  11.415 -1.4862 -0.8339 -0.2787
  113MPD2     C 1720   4.301   3.236   0.915 -0.3770 -0.0510 -0.0306
  113MPD2    C1 1721   4.212   3.335   0.954  0.6828 -0.3253  0.3463
  113MPD2    C2 1722   4.091   3.343   0.896  0.3587 -0.1587 -0.5807
  113MPD2    C3 1723   4.052   3.244   0.810 -0.0897  0.1156 -0.1909
  113MPD2    C4 1724   4.127   3.133   0.783  0.8652  0.1145 -0.3946
  113MPD2    C5 1725   4.254   3.135   0.835  0.6777  0.1327  0.5672
  113MPD2     H 1726   4.035   3.434   0.914  0.8207 -0.1803  0.9751
  113MPD2    H1 1727   4.111   3.049   0.716  0.2927  0.2473 -0.4277
  113MPD2    H2 1728   4.398   3.229   0.963 -1.6593 -1.1203  2.3881
  113MPD2    H3 1729   4.319   3.052   0.811  0.1866 -0.2775  0.6771
  113MPD2     N 1730   3.926   3.241   0.750  0.1297  0.4564 -0.0900
  113MPD2    H5 1731   3.907   3.152   0.705 -0.6810 -0.3827  1.8966
  113MPD2    N1 1732   4.255   3.447   1.028  0.1940  0.3906 -0.2782
  113MPD2    H7 1733   4.177   3.509   1.047  1.3930  1.7482  0.1508
  114TCq2    C1 1734   3.837   3.349   0.732 -0.1340 -0.2139 -0.2689
  114TCq2    O2 1735   3.859   3.463   0.767 -1.0852 -0.2651 -0.8005
  114TCq2    C2 1736   3.713   3.318   0.664  0.3382  0.0614 -0.1737
  114TCq2    C3 1737   3.603   3.385   0.698 -0.1358 -0.6500 -0.4734
  114TCq2    C4 1738   3.488   3.318   0.669 -0.1519  0.0301 -0.1347
  114TCq2    C5 1739   3.478   3.199   0.607  0.3005 -0.6517  0.0115
  114TCq2    C6 1740   3.589   3.146   0.556 -0.0844  0.4061  0.0959
  114TCq2    C7 1741   3.704   3.209   0.585  0.4589  0.1557 -0.7577
  114TCq2    C8 1742   3.606   3.002   0.541  1.0216  0.1177  0.6284
  114TCq2    O4 1743   3.704   2.963   0.488 -0.2036 -0.2935  0.6634
  114TCq2    C9 1744   3.365   3.386   0.687 -0.2208  0.4533 -0.3921
  114TCq2    O5 1745   3.261   3.335   0.630  0.1814  0.1122  0.0251
  114TCq2    O6 1746   3.378   3.510   0.700  0.1126  0.4655 -0.0492
  114TCq2    H2 1747   3.602   3.475   0.758 -1.2604  0.0635 -1.5622
  114TCq2    H3 1748   3.381   3.152   0.594 -0.0016 -0.4304  1.4805
  114TCq2    H4 1749   3.791   3.151   0.555  0.0777 -0.2537 -1.0808
  115TMC2    C1 1750   0.016   0.402  17.052 -0.0627 -0.0196  0.6192
  115TMC2    C2 1751   0.124   0.359  16.978 -0.1640  0.7287  0.4694
  115TMC2    C3 1752   0.186   0.454  16.905  0.5148 -0.9059 -0.6120
  115TMC2    C4 1753   4.700   0.530  17.057 -0.1832 -0.1061  0.3577
  115TMC2    C5 1754   0.045   0.617  16.983 -0.0394  0.3271 -0.2692
  115TMC2    C6 1755   0.157   0.586  16.907 -0.2835 -0.6679 -0.1459
  115TMC2     C 1756   4.660   0.299  17.109 -0.0056  0.1431  0.0952
  115TMC2     O 1757   4.681   0.183  17.090  0.3182 -0.3636 -0.5907
  115TMC2     H 1758   0.146   0.252  16.979 -0.2394  0.7084 -0.4473
  115TMC2    H1 1759   4.623   0.572  17.121 -1.0624  0.4786 -1.0749
  115TMC2    H2 1760   0.200   0.651  16.832  2.3305 -1.1985  0.8800
  115TMC2    C7 1761   0.030   0.758  17.022 -0.0924  0.1985  0.6482
  115TMC2    C8 1762   0.316   0.422  16.852 -0.3398 -0.5333 -0.4050
  115TMC2    O1 1763   4.645   0.788  17.068 -0.1739  0.0533 -0.0815
  115TMC2    O2 1764   0.392   0.509  16.818  0.6564  0.0504  0.0543
  115TMC2    O5 1765   0.301   0.291  16.805  0.3915 -0.6363  0.1766
  115TMC2    H5 1766   0.210   0.258  16.815  1.3255 -2.7019  1.9163
  116MPD2     C 1767   4.246   0.161  17.370 -0.1111 -0.8525  0.0097
  116MPD2    C1 1768   4.327   0.090  17.287 -0.2318  0.1585  0.2685
  116MPD2    C2 1769   4.444   0.143  17.250 -0.2836  0.5224  0.2013
  116MPD2    C3 1770   4.462   0.280  17.265  0.7756 -0.5714 -0.1801
  116MPD2    C4 1771   4.371   0.353  17.338 -0.1169 -0.2470 -0.2629
  116MPD2    C5 1772   4.262   0.290  17.389  0.6222 -0.3053 -0.2821
  116MPD2     H 1773   4.525   0.095  17.197 -1.1789 -1.5884  0.7627
  116MPD2    H1 1774   4.379   0.461  17.346 -1.9251 -0.0830 -0.7162
  116MPD2    H2 1775   4.153   0.114  17.401 -0.9719  1.4799  1.0179
  116MPD2    H3 1776   4.188   0.347  17.443  0.0791  0.0384 -1.3838
  116MPD2     N 1777   4.557   0.353  17.192 -0.0199 -0.0251 -0.3796
  116MPD2    H5 1778   4.549   0.455  17.197  3.1673  0.3243 -2.9327
  116MPD2    N1 1779   4.289   4.688  17.251  0.1334  0.1580  0.6883
  116MPD2    H7 1780   4.229   4.645  17.321  0.8653 -0.4100  0.9700
  117TMC2    C1 1781   3.323   1.973  13.843 -0.8900 -0.1467 -0.0543
  117TMC2    C2 1782   3.374   1.848  13.851 -0.3746  0.3981  0.2790
  117TMC2    C3 1783   3.510   1.838  13.861 -0.0063  0.1618 -0.3151
  117TMC2    C4 1784   3.394   2.088  13.858  0.0867 -0.2164 -0.0078
  117TMC2    C5 1785   3.528   2.070  13.848 -0.2331 -0.1218  0.4091
  117TMC2    C6 1786   3.593   1.945  13.857 -0.2532 -0.3159 -0.2304
  117TMC2     C 1787   3.184   1.980  13.802 -0.8656  0.0836 -0.8418
  117TMC2     O 1788   3.145   1.905  13.712 -0.0787 -0.3946 -0.0125
  117TMC2     H 1789   3.307   1.765  13.834  0.2052 -0.1302  0.5399
  117TMC2    H1 1790   3.360   2.189  13.841  0.6528  0.1111  0.8222
  117TMC2    H2 1791   3.699   1.944  13.834  0.2443 -0.3829  2.1118
  117TMC2    C7 1792   3.603   2.192  13.823 -1.0714 -0.6048 -0.7603
  117TMC2    C8 1793   3.554   1.704  13.826  0.8590  0.1933  0.7365
  117TMC2    O1 1794   3.538   2.292  13.808 -0.3437 -0.0589 -0.7207
  117TMC2    O2 1795   3.497   1.615  13.769  0.2382 -0.6353  0.2716
  117TMC2    O5 1796   3.686   1.707  13.860 -0.0004  0.2569 -0.2304
  117TMC2    H5 1797   3.701   1.775  13.929 -1.2255  1.6924 -1.3622
  118MPD2     C 1798   3.968   2.251  13.835 -0.1774 -0.3938  0.1327
  118MPD2    C1 1799   3.837   2.283  13.805  0.3613  0.8789  0.9586
  118MPD2    C2 1800   3.796   2.400  13.738  0.1602  0.6128 -0.4663
  118MPD2    C3 1801   3.895   2.494  13.717  0.7006 -0.3695  0.3255
  118MPD2    C4 1802   4.026   2.465  13.755  0.1230  0.5963 -0.3644
  118MPD2    C5 1803   4.067   2.348  13.811  0.1125  0.0657 -0.9491
  118MPD2     H 1804   3.693   2.422  13.716 -0.3654  1.0260  2.4698
  118MPD2    H1 1805   4.107   2.534  13.738  0.8808 -0.1186  0.3432
  118MPD2    H2 1806   3.996   2.167  13.898 -0.0310 -0.8433 -0.5282
  118MPD2    H3 1807   4.167   2.326  13.846 -1.2692 -1.3480  2.1074
  118MPD2     N 1808   3.873   2.627  13.662  0.4083  0.3788 -0.1859
  118MPD2    H5 1809   3.953   2.689  13.667  0.6469  0.0554  0.0701
  118MPD2    N1 1810   3.741   2.179  13.823 -0.1915 -0.5524  0.3902
  118MPD2    H7 1811   3.781   2.087  13.836  2.1516  0.4701  0.4158
  119MPD2     C 1812   2.288   3.954  13.181  0.0872  0.0849  0.1633
  119MPD2    C1 1813   2.160   3.933  13.218 -0.2338 -0.0728  0.0572
  119MPD2    C2 1814   2.055   3.948  13.132 -0.7142 -0.2709  0.1000
  119MPD2    C3 1815   2.076   4.002  13.006 -0.5729  0.3036 -0.2765
  119MPD2    C4 1816   2.205   4.009  12.964  0.4851  0.1532  0.0619
  119MPD2    C5 1817   2.307   3.989  13.050 -0.7008 -0.6917  0.3536
  119MPD2     H 1818   1.952   3.923  13.155 -0.1321  0.0574  3.1007
  119MPD2    H1 1819   2.231   4.021  12.859 -0.8161  1.4898 -0.1142
  119MPD2    H2 1820   2.380   3.937  13.235 -0.8143 -2.8358  0.7798
  119MPD2    H3 1821   2.409   3.998  13.014 -1.0883  1.0892 -0.2954
  119MPD2     N 1822   1.969   3.992  12.915 -0.0537  0.5737 -0.0557
  119MPD2    H5 1823   1.990   3.980  12.817  0.8686  1.8630 -0.0167
  119MPD2    N1 1824   2.137   3.888  13.354  0.1160 -1.1620 -0.1616
  119MPD2    H7 1825   2.217   3.868  13.414  0.7953 -1.7504 -1.2572
  120TCq2    C1 1826   1.838   4.005  12.954 -0.4954  0.0613 -0.1187
  120TCq2    O2 1827   1.790   4.055  13.055  0.1036 -0.6073 -0.1115
  120TCq2    C2 1828   1.745   3.926  12.876  0.4973 -0.0190 -1.1000
  120TCq2    C3 1829   1.804   3.818  12.812 -0.1693  0.2190 -0.2800
  120TCq2    C4 1830   1.763   3.689  12.845 -0.2154 -0.3273 -0.1802
  120TCq2    C5 1831   1.662   3.669  12.940 -0.1684 -0.1289  0.7678
  120TCq2    C6 1832   1.599   3.778  12.996  0.4118 -0.2933 -0.1202
  120TCq2    C7 1833   1.634   3.910  12.953  0.1784 -0.5891  0.6213
  120TCq2    C8 1834   1.516   3.753  13.111 -0.9622  0.2571  0.1184
  120TCq2    O4 1835   1.483   3.852  13.174  0.1596 -0.1954  0.2694
  120TCq2    C9 1836   1.800   3.579  12.762  0.4025 -0.0708  0.2476
  120TCq2    O5 1837   1.857   3.597  12.651  0.2580 -0.1483  0.9366
  120TCq2    O6 1838   1.776   3.464  12.812 -0.6796  0.3249  0.9517
  120TCq2    H2 1839   1.887   3.832  12.744  1.6875 -0.4456  1.8557
  120TCq2    H3 1840   1.624   3.569  12.956  0.7839 -0.3572  1.5373
  120TCq2    H4 1841   1.577   3.995  12.991  1.0760 -0.1244  0.9182
  121TMC2    C1 1842   3.362   0.507  13.859  0.4139 -0.1414 -0.7188
  121TMC2    C2 1843   3.455   0.486  13.953 -0.3027 -0.3450 -0.4570
  121TMC2    C3 1844   3.448   0.363  14.022  0.4288  0.4139  0.6120
  121TMC2    C4 1845   3.276   0.411  13.814  0.2112 -0.0353  0.0891
  121TMC2    C5 1846   3.282   0.283  13.874 -0.7788  0.2677 -0.5963
  121TMC2    C6 1847   3.369   0.259  13.978  0.5405  0.1992 -0.6444
  121TMC2     C 1848   3.396   0.615  13.776 -0.0234 -0.3196 -0.1506
  121TMC2     O 1849   3.448   0.716  13.828 -0.2497 -0.2946 -0.1218
  121TMC2     H 1850   3.526   0.563  13.980 -0.9551  0.1231 -0.0820
  121TMC2    H1 1851   3.201   0.431  13.738  0.4409 -1.4765 -0.5219
  121TMC2    H2 1852   3.371   0.156  14.013  0.7699  1.0592  1.9036
  121TMC2    C7 1853   3.175   0.185  13.839  0.3457 -0.3724  0.0049
  121TMC2    C8 1854   3.526   0.353  14.140  0.6569  0.0649 -0.3130
  121TMC2    O1 1855   3.175   0.079  13.896 -0.1233  0.1306 -0.2555
  121TMC2    O2 1856   3.564   0.450  14.205 -0.1912  0.0834 -0.1839
  121TMC2    O5 1857   3.575   0.224  14.142  0.1646  0.1628 -0.1860
  121TMC2    H5 1858   3.565   0.160  14.068  0.3439  0.5192 -0.5208
  122MPD2     C 1859   3.395   0.829  13.573  0.4018 -0.1767  0.1549
  122MPD2    C1 1860   3.384   0.693  13.543 -0.1949  0.3347  0.7041
  122MPD2    C2 1861   3.389   0.658  13.406  0.4296 -0.2612 -0.6111
  122MPD2    C3 1862   3.419   0.750  13.303  0.1676 -0.2008 -0.2987
  122MPD2    C4 1863   3.429   0.875  13.343  0.1370 -0.4415 -0.6638
  122MPD2    C5 1864   3.416   0.922  13.473 -0.2407 -0.5805 -0.3604
  122MPD2     H 1865   3.381   0.552  13.388  1.7878 -0.3648 -0.5759
  122MPD2    H1 1866   3.432   0.963  13.279  0.3617 -0.6907 -0.9971
  122MPD2    H2 1867   3.366   0.868  13.670 -0.4305  1.2780 -0.6654
  122MPD2    H3 1868   3.430   1.025  13.504  2.2928 -0.8615 -0.5236
  122MPD2     N 1869   3.439   0.714  13.165  0.6014 -0.1132 -0.0506
  122MPD2    H5 1870   3.452   0.797  13.107  1.3860 -1.8706 -2.4196
  122MPD2    N1 1871   3.358   0.597  13.644 -1.0724 -0.1440 -0.1433
  122MPD2    H7 1872   3.334   0.502  13.617 -1.6191  0.1815 -0.7983
  123MPD2     C 1873   1.246   3.744   8.864  0.0344 -0.4713 -0.0926
  123MPD2    C1 1874   1.349   3.712   8.785  0.1364 -0.6997  0.2416
  123MPD2    C2 1875   1.388   3.579   8.776  0.3917 -0.2086 -0.5456
  123MPD2    C3 1876   1.314   3.482   8.846  0.7019 -0.6977  0.1639
  123MPD2    C4 1877   1.218   3.517   8.935 -0.1297  0.0579 -0.0265
  123MPD2    C5 1878   1.186   3.652   8.945  0.6218  0.1317 -0.1306
  123MPD2     H 1879   1.460   3.547   8.701  1.0408  0.0395 -0.0339
  123MPD2    H1 1880   1.163   3.447   8.996 -1.5047  1.0357 -0.1357
  123MPD2    H2 1881   1.201   3.843   8.866  0.1541 -0.4083 -0.5101
  123MPD2    H3 1882   1.103   3.681   9.009 -0.3174 -0.5730 -1.0351
  123MPD2     N 1883   1.353   3.344   8.835  0.0193 -0.4888 -0.1976
  123MPD2    H5 1884   1.412   3.312   8.759  0.6753 -0.4574  0.3064
  123MPD2    N1 1885   1.411   3.817   8.714  0.3851 -0.2304  0.4568
  123MPD2    H7 1886   1.360   3.904   8.719  0.0057 -0.2984 -2.1295
  124TCq2    C1 1887   1.319   3.242   8.916  1.0481  0.0582  0.0359
  124TCq2    O2 1888   1.257   3.237   9.021 -0.6265 -0.2408  0.1323
  124TCq2    C2 1889   1.415   3.132   8.887 -0.2134  0.0772 -0.0062
  124TCq2    C3 1890   1.509   3.135   8.780  0.6167  0.0951  0.0843
  124TCq2    C4 1891   1.594   3.031   8.768  0.2137  0.6286  0.6879
  124TCq2    C5 1892   1.610   2.939   8.872  0.4337  0.0309  0.4056
  124TCq2    C6 1893   1.520   2.944   8.983  0.3261  0.6196 -0.5662
  124TCq2    C7 1894   1.424   3.041   8.991 -0.2305  0.3733 -0.3836
  124TCq2    C8 1895   1.514   2.818   9.053  0.0722  0.1732  0.2202
  124TCq2    O4 1896   1.614   2.750   9.064 -0.2416 -0.5099 -0.5355
  124TCq2    C9 1897   1.687   3.030   8.655  0.4399  0.0630 -0.1616
  124TCq2    O5 1898   1.678   3.120   8.572  0.3827 -0.3102 -0.3644
  124TCq2    O6 1899   1.763   2.927   8.652  0.2007  0.2369 -0.4807
  124TCq2    H2 1900   1.509   3.215   8.707 -0.6051  1.1314  1.2081
  124TCq2    H3 1901   1.695   2.873   8.862 -0.6478 -1.4424  0.8166
  124TCq2    H4 1902   1.362   3.037   9.080 -2.6445 -1.5697 -2.1604
  125TMC2    C1 1903   3.902   0.198   8.725  0.0371  0.9072 -0.2881
  125TMC2    C2 1904   3.773   0.234   8.740 -0.5210 -0.0620  0.8488
  125TMC2    C3 1905   3.709   0.175   8.848 -0.6510 -0.4661  0.6117
  125TMC2    C4 1906   3.961   0.094   8.799  0.1244 -0.3753 -0.5768
  125TMC2    C5 1907   3.881   0.028   8.889 -0.9240  0.1851 -0.5829
  125TMC2    C6 1908   3.760   0.073   8.918  0.0286  0.2409  0.3829
  125TMC2     C 1909   3.982   0.278   8.635  0.9893 -0.8480 -0.2208
  125TMC2     O 1910   3.929   0.386   8.617  0.0262 -0.0935  0.3710
  125TMC2     H 1911   3.713   0.298   8.676  0.4864  2.0220  2.0053
  125TMC2    H1 1912   4.066   0.077   8.782  0.2071 -0.3256 -0.1143
  125TMC2    H2 1913   3.687   0.004   8.959  2.0025 -1.6711  0.6627
  125TMC2    C7 1914   3.919   4.641   8.969 -0.5850 -0.2258 -0.2946
  125TMC2    C8 1915   3.578   0.231   8.872  1.1092  0.2925 -0.3287
  125TMC2    O1 1916   3.845   4.620   9.060  0.0254 -0.2224 -0.2696
  125TMC2    O2 1917   3.518   0.314   8.798  0.0787  0.2784 -0.1369
  125TMC2    O5 1918   3.527   0.196   8.989  0.3292  0.9299  0.0446
  125TMC2    H5 1919   3.589   0.149   9.048 -1.6277 -1.2419  0.3496
  126MPD1     C 1920   4.277   0.379   8.232  0.0928 -0.8149  0.6226
  126MPD1    C1 1921   4.295   0.246   8.256 -0.4186  0.2312 -0.0896
  126MPD1    C2 1922   4.236   0.193   8.370  0.5267 -0.1449  0.4758
  126MPD1    C3 1923   4.152   0.268   8.446 -0.8314 -0.3277 -0.5133
  126MPD1    C4 1924   4.136   0.400   8.422 -0.1506  0.0381  0.2092
  126MPD1    C5 1925   4.205   0.455   8.320  0.0329 -0.1613 -0.0816
  126MPD1     H 1926   4.247   0.088   8.393 -0.2111 -0.4084 -0.3727
  126MPD1    H1 1927   4.065   0.472   8.460  0.6218  0.7421  0.2997
  126MPD1    H2 1928   4.332   0.427   8.152  0.3962 -0.9580  0.7466
  126MPD1    H3 1929   4.186   0.560   8.303 -0.8061 -0.1535  0.8972
  126MPD1     N 1930   4.085   0.214   8.561 -0.5634 -0.4153  0.0522
  126MPD1    H5 1931   4.088   0.113   8.575  0.6781 -0.4194 -0.1681
  126MPD1    N1 1932   4.352   0.166   8.160  0.4501 -0.1577  0.1758
  126MPD1    H6 1933   4.434   0.209   8.117 -0.0337  0.6287  0.0552
  126MPD1    H7 1934   4.383   0.073   8.190 -3.3847 -0.6676  2.5912
  127MPD2     C 1935   4.143   3.768   9.702  0.4218 -0.8920 -0.6024
  127MPD2    C1 1936   4.252   3.699   9.649 -0.0370  0.7180 -0.9565
  127MPD2    C2 1937   4.379   3.727   9.695 -0.3564 -0.9173  0.1994
  127MPD2    C3 1938   4.405   3.826   9.787  0.3174 -0.4119  0.5843
  127MPD2    C4 1939   4.301   3.893   9.848 -1.0668  0.4827 -0.3478
  127MPD2    C5 1940   4.174   3.859   9.805  0.3888  0.1880 -0.0815
  127MPD2     H 1941   4.462   3.670   9.658 -0.4871  0.4946 -2.2143
  127MPD2    H1 1942   4.319   3.975   9.917  1.3560  0.1747 -0.6331
  127MPD2    H2 1943   4.042   3.739   9.676 -0.2263  0.2597  0.5976
  127MPD2    H3 1944   4.097   3.920   9.851 -1.1608 -1.6914 -0.1806
  127MPD2     N 1945   4.540   3.851   9.807  0.5772 -0.0268  0.2170
  127MPD2    H5 1946   4.600   3.793   9.749  0.8013  0.2913  0.1314
  127MPD2    N1 1947   4.227   3.599   9.549 -0.2557 -1.0923  0.3149
  127MPD2    H7 1948   4.129   3.591   9.526 -0.4891  0.5788  0.7025
  128TCq2    C1 1949   4.321   3.528   9.476  0.2759 -0.0650 -0.4832
  128TCq2    O2 1950   4.444   3.521   9.486 -0.0946  0.3015 -0.4057
  128TCq2    C2 1951   4.260   3.416   9.393 -0.2751  0.8412  0.3213
  128TCq2    C3 1952   4.145   3.362   9.427  0.9012 -0.4648  0.4040
  128TCq2    C4 1953   4.095   3.252   9.369 -0.3330 -0.5034  0.5521
  128TCq2    C5 1954   4.163   3.180   9.272  0.1861  0.9607 -0.4235
  128TCq2    C6 1955   4.289   3.237   9.240 -0.3739 -0.0754 -0.6115
  128TCq2    C7 1956   4.342   3.349   9.303  1.0229 -0.6534 -0.4408
  128TCq2    C8 1957   4.383   3.153   9.163 -0.1894  0.2370 -0.2189
  128TCq2    O4 1958   4.490   3.207   9.145  0.3512 -0.1887 -0.6688
  128TCq2    C9 1959   3.964   3.219   9.402  0.1067  0.1545  0.6017
  128TCq2    O5 1960   3.900   3.137   9.328 -0.5800 -0.2121  0.3792
  128TCq2    O6 1961   3.904   3.305   9.471  0.4445 -0.1644  0.0768
  128TCq2    H2 1962   4.087   3.423   9.496 -0.8272 -0.2791 -1.1998
  128TCq2    H3 1963   4.115   3.098   9.221  0.4851  1.6673 -1.8464
  128TCq2    H4 1964   4.443   3.380   9.279  1.1213 -0.2726  0.4706
  129MPD2     C 1965   3.062   4.117   1.341 -0.0130  0.5333  0.0628
  129MPD2    C1 1966   3.036   4.099   1.202  0.3951 -0.2560  0.9783
  129MPD2    C2 1967   3.054   4.208   1.117 -0.5790 -0.2686 -0.1317
  129MPD2    C3 1968   3.106   4.326   1.166  0.0133 -1.5071  0.1925
  129MPD2    C4 1969   3.146   4.333   1.295  0.1321 -0.5592 -0.2163
  129MPD2    C5 1970   3.122   4.229   1.379  0.4763 -0.7692 -0.1717
  129MPD2     H 1971   3.027   4.201   1.012 -0.3728  1.4531 -0.3028
  129MPD2    H1 1972   3.196   4.418   1.339  0.5467  0.0388 -1.8507
  129MPD2    H2 1973   3.053   4.037   1.413 -1.8270  1.8060  1.2523
  129MPD2    H3 1974   3.146   4.244   1.484  0.9663 -0.2181 -0.3668
  129MPD2     N 1975   3.120   4.432   1.072 -1.4385  0.7772 -0.2713
  129MPD2    H5 1976   3.079   4.417   0.980  1.7386  0.6195 -1.6807
  129MPD2    N1 1977   3.000   3.977   1.144 -0.0479 -0.5567 -0.1657
  129MPD2    H7 1978   3.003   3.972   1.043  1.9514 -2.5326 -0.0076
  130TCq2    C1 1979   2.945   3.869   1.220 -0.3359  0.0326 -0.8637
  130TCq2    O2 1980   2.904   3.871   1.335  0.2748 -0.2920  0.2394
  130TCq2    C2 1981   2.919   3.747   1.137 -0.0605  0.6839 -0.5310
  130TCq2    C3 1982   2.996   3.719   1.036  0.6434 -0.7849 -0.1621
  130TCq2    C4 1983   2.968   3.620   0.951  0.9494  0.0400 -0.4891
  130TCq2    C5 1984   2.848   3.551   0.963  0.1720 -0.0542 -0.0795
  130TCq2    C6 1985   2.765   3.582   1.073 -0.7619 -0.4009  0.4937
  130TCq2    C7 1986   2.803   3.679   1.160 -0.0103 -0.2112 -0.2954
  130TCq2    C8 1987   2.632   3.521   1.096 -0.7225 -0.0664  0.7796
  130TCq2    O4 1988   2.559   3.571   1.181  0.4699  0.5685 -0.2248
  130TCq2    C9 1989   3.054   3.589   0.840 -0.5263  0.1834 -1.0588
  130TCq2    O5 1990   3.137   3.677   0.809 -0.5708  0.5944 -0.0530
  130TCq2    O6 1991   3.039   3.477   0.783  0.0695 -0.0747 -0.2756
  130TCq2    H2 1992   3.092   3.770   1.028 -0.4654  1.2843 -0.3382
  130TCq2    H3 1993   2.804   3.493   0.883 -1.7422  1.0376  0.1609
  130TCq2    H4 1994   2.757   3.692   1.258  3.0393 -0.1818  1.1234
  131MPD2     C 1995   2.321   4.366   8.474  0.5365 -0.1384 -0.0888
  131MPD2    C1 1996   2.211   4.446   8.472  0.2250 -0.3082  0.8772
  131MPD2    C2 1997   2.087   4.389   8.490 -0.6919 -0.2986  1.3836
  131MPD2    C3 1998   2.076   4.251   8.484  0.1359 -0.1157  0.5995
  131MPD2    C4 1999   2.183   4.174   8.461  0.8879 -0.2851 -0.2318
  131MPD2    C5 2000   2.307   4.229   8.453 -0.4760  0.0589 -0.3704
  131MPD2     H 2001   2.001   4.449   8.516 -1.3994 -1.4439  1.6689
  131MPD2    H1 2002   2.188   4.065   8.457  2.3928 -0.1563 -1.7680
  131MPD2    H2 2003   2.420   4.409   8.485  0.2443  0.9256 -1.7789
  131MPD2    H3 2004   2.392   4.163   8.452  0.2368  0.9471  2.1348
  131MPD2     N 2005   1.951   4.194   8.500  0.3589  0.2870  0.1586
  131MPD2    H5 2006   1.879   4.265   8.507 -0.0154 -0.2078  1.3466
  131MPD2    N1 2007   2.240   4.581   8.461  0.1564  0.4122  0.6189
  131MPD2    H7 2008   2.336   4.610   8.445 -0.4487  1.4811 -1.0358
  132TCq2    C1 2009   2.536   0.233   8.297 -0.1835 -0.2772  0.2061
  132TCq2    O2 2010   2.574   0.305   8.204 -0.0975  0.5065 -0.0370
  132TCq2    C2 2011   2.395   0.213   8.315 -0.7756 -0.2829 -0.0253
  132TCq2    C3 2012   2.314   0.312   8.272 -0.2970 -0.5582  0.6903
  132TCq2    C4 2013   2.183   0.304   8.291  0.2381  0.2921  0.4175
  132TCq2    C5 2014   2.134   0.198   8.365  0.3297  0.0026 -0.5429
  132TCq2    C6 2015   2.218   0.092   8.407 -0.4398 -0.3028  0.0399
  132TCq2    C7 2016   2.354   0.102   8.378  0.1060 -0.0142 -0.6428
  132TCq2    C8 2017   2.154   4.687   8.444  0.7771  0.4637  0.0716
  132TCq2    O4 2018   2.031   4.680   8.427  0.2064 -0.1905  0.1163
  132TCq2    C9 2019   2.091   0.401   8.242 -0.0773 -0.2951 -0.0987
  132TCq2    O5 2020   1.970   0.364   8.239 -0.0226  0.3530  0.2876
  132TCq2    O6 2021   2.130   0.512   8.203 -0.7042 -0.0852 -0.3542
  132TCq2    H2 2022   2.350   0.400   8.221 -1.4852  1.0392  2.5794
  132TCq2    H3 2023   2.027   0.182   8.371  0.4880 -0.4573  1.0703
  132TCq2    H4 2024   2.419   0.021   8.409 -0.4264  0.3512  1.4405
  133MPD2     C 2025   2.250   4.589   8.935 -0.9218 -0.1053  0.2118
  133MPD2    C1 2026   2.285   4.523   9.052  0.1495 -0.3344  0.4126
  133MPD2    C2 2027   2.222   4.406   9.086 -0.2692 -0.1030  0.2186
  133MPD2    C3 2028   2.135   4.341   9.002 -0.3246 -0.0973 -0.1852
  133MPD2    C4 2029   2.107   4.404   8.882  0.3457  0.7643 -0.1035
  133MPD2    C5 2030   2.159   4.523   8.853  0.4176  0.4083  0.4354
  133MPD2     H 2031   2.233   4.364   9.185 -1.9150  0.9671  0.8403
  133MPD2    H1 2032   2.034   4.358   8.816  0.0024  0.1853  0.6779
  133MPD2    H2 2033   2.299   4.682   8.907 -0.5739  0.3505  2.3227
  133MPD2    H3 2034   2.148   4.563   8.753 -1.2787  0.2740  0.5622
  133MPD2     N 2035   2.080   4.215   9.035  0.5878  0.1191  0.2629
  133MPD2    H5 2036   2.025   4.169   8.963 -1.4747  1.7259  0.8282
  133MPD2    N1 2037   2.373   4.588   9.135 -0.2266  0.0094  0.1247
  133MPD2    H7 2038   2.413   4.677   9.107 -0.5579 -0.0291 -0.4801
  134TCq2    C1 2039   2.434   4.541   9.248  0.2049  0.4977 -0.9681
  134TCq2    O2 2040   2.399   4.448   9.325 -0.3460 -0.2741  0.0413
  134TCq2    C2 2041   2.531   4.641   9.290  0.1927 -0.6068  1.0901
  134TCq2    C3 2042   2.572   0.012   9.202  0.0354 -1.0907  0.8697
  134TCq2    C4 2043   2.637   0.125   9.239  0.0410 -0.5831 -0.1341
  134TCq2    C5 2044   2.651   0.146   9.372  0.0736  0.0329  0.0171
  134TCq2    C6 2045   2.611   0.052   9.465 -0.6236  0.1522 -1.1092
  134TCq2    C7 2046   2.566   4.657   9.423  0.2057 -0.6029  0.7944
  134TCq2    C8 2047   2.671   0.071   9.596 -0.3614  0.2866  0.2075
  134TCq2    O4 2048   2.780   0.120   9.611 -0.4845 -0.5564  0.4857
  134TCq2    C9 2049   2.694   0.211   9.138 -0.2059  0.8251 -0.1018
  134TCq2    O5 2050   2.749   0.315   9.184 -0.1600  0.6002  0.2773
  134TCq2    O6 2051   2.659   0.185   9.018  0.3484 -0.4125  0.1941
  134TCq2    H2 2052   2.548   0.003   9.097 -2.1326 -2.7410  1.4875
  134TCq2    H3 2053   2.707   0.234   9.402  1.2520 -1.2673  1.5975
  134TCq2    H4 2054   2.545   4.573   9.489  0.3225 -2.4479 -1.5097
  135MPD2     C 2055   4.078   0.568   8.880 -0.1105  0.6252 -0.2151
  135MPD2    C1 2056   4.074   0.446   8.935  0.9844  0.2727  0.5483
  135MPD2    C2 2057   4.169   0.348   8.900  0.1861 -0.1203 -0.2000
  135MPD2    C3 2058   4.261   0.379   8.799 -0.1111  0.6138 -0.1762
  135MPD2    C4 2059   4.264   0.510   8.746 -0.1862  1.1046 -0.0358
  135MPD2    C5 2060   4.175   0.601   8.787 -0.0495  0.3338 -0.0265
  135MPD2     H 2061   4.160   0.245   8.933 -0.7135 -0.3146 -1.0452
  135MPD2    H1 2062   4.341   0.533   8.674  0.8430  0.8975  1.0015
  135MPD2    H2 2063   3.995   0.637   8.896 -0.1409 -0.0987  2.6865
  135MPD2    H3 2064   4.179   0.698   8.738  2.6071  0.4129  0.3998
  135MPD2     N 2065   4.348   0.282   8.737  0.9700  0.5784  0.0892
  135MPD2    H5 2066   4.397   0.317   8.655  0.5580  2.5783  0.6865
  135MPD2    N1 2067   3.970   0.420   9.027 -0.2048 -0.0198  0.3097
  135MPD2    H7 2068   3.914   0.501   9.051  1.3786  1.3089 -0.4515
  136TCq2    C1 2069   3.959   0.309   9.113  0.4980 -0.0589  0.0011
  136TCq2    O2 2070   4.038   0.216   9.122 -0.1443 -0.5615  0.2845
  136TCq2    C2 2071   3.845   0.329   9.199  0.2621  0.8321 -0.0233
  136TCq2    C3 2072   3.737   0.404   9.158  0.4276  0.2516 -0.1548
  136TCq2    C4 2073   3.631   0.417   9.252 -0.3252  0.6333 -0.1068
  136TCq2    C5 2074   3.638   0.367   9.379 -0.0442 -0.4461  0.7624
  136TCq2    C6 2075   3.749   0.296   9.415 -0.2812 -0.9500  0.1904
  136TCq2    C7 2076   3.849   0.274   9.320 -0.0599 -0.5630  0.0924
  136TCq2    C8 2077   3.755   0.250   9.557  0.3798 -0.5913  0.2545
  136TCq2    O4 2078   3.859   0.201   9.599  0.0744 -0.0565 -0.0504
  136TCq2    C9 2079   3.529   0.502   9.214  0.6209 -0.1850 -0.3146
  136TCq2    O5 2080   3.531   0.546   9.095  0.3710 -0.0236  0.5876
  136TCq2    O6 2081   3.436   0.527   9.299  0.0024 -0.1870  0.3342
  136TCq2    H2 2082   3.732   0.453   9.062  0.7092  0.8419  0.1322
  136TCq2    H3 2083   3.564   0.399   9.452  0.8835  0.9652  1.0745
  136TCq2    H4 2084   3.943   0.231   9.355 -0.1440 -0.4319  0.4701
  137MPD2     C 2085   4.009   3.690   9.168  0.6249  0.9253 -0.2382
  137MPD2    C1 2086   3.971   3.822   9.165 -0.1766  0.1742 -0.1484
  137MPD2    C2 2087   3.906   3.874   9.279 -0.9668  0.1021 -0.2093
  137MPD2    C3 2088   3.869   3.788   9.384 -0.0356  0.3700 -0.1914
  137MPD2    C4 2089   3.893   3.653   9.369 -0.9618 -0.2313 -0.2028
  137MPD2    C5 2090   3.985   3.607   9.275 -0.0671  0.8103  0.3831
  137MPD2     H 2091   3.883   3.980   9.284 -1.8726 -0.3830  5.7699
  137MPD2    H1 2092   3.855   3.577   9.435 -0.8000 -0.5867 -0.5227
  137MPD2    H2 2093   4.045   3.650   9.074  2.0522 -1.9195  1.5254
  137MPD2    H3 2094   4.011   3.503   9.257 -3.4639  0.4185 -2.2734
  137MPD2     N 2095   3.818   3.851   9.499  0.5978 -0.1506 -0.2093
  137MPD2    H5 2096   3.822   3.953   9.500 -0.0745 -0.0762 -2.8555
  137MPD2    N1 2097   4.005   3.904   9.054 -0.3829 -0.2243 -0.2428
  137MPD2    H7 2098   4.072   3.873   8.984  0.8296 -1.6987  1.5932
  138TCq2    C1 2099   3.952   4.033   9.029  0.1820 -0.7250 -0.2749
  138TCq2    O2 2100   3.855   4.086   9.077  0.2522 -0.6719 -0.4472
  138TCq2    C2 2101   4.029   4.094   8.916 -0.7226  0.5371  0.2041
  138TCq2    C3 2102   4.135   4.027   8.858  0.3044 -0.9974  0.7038
  138TCq2    C4 2103   4.193   4.083   8.746 -0.0632  0.0959 -0.0625
  138TCq2    C5 2104   4.137   4.194   8.691  0.4074  0.2498  1.4586
  138TCq2    C6 2105   4.035   4.257   8.753 -0.2614 -0.1094 -0.6849
  138TCq2    C7 2106   3.985   4.213   8.873  0.4805  0.4637 -0.3449
  138TCq2    C8 2107   3.968   4.366   8.681 -0.0120 -0.0774  0.6303
  138TCq2    O4 2108   4.011   4.404   8.573 -0.5000 -0.2905 -0.3219
  138TCq2    C9 2109   4.296   4.017   8.671 -0.2263 -0.4567 -0.7748
  138TCq2    O5 2110   4.323   3.904   8.716 -0.1808 -0.1364  0.1926
  138TCq2    O6 2111   4.340   4.058   8.563 -0.0742 -0.9464  0.7139
  138TCq2    H2 2112   4.183   3.944   8.909  0.5281 -2.0045 -1.1330
  138TCq2    H3 2113   4.176   4.232   8.597 -1.3552 -1.9637 -0.1560
  138TCq2    H4 2114   3.911   4.264   8.932 -0.1349 -2.7289  1.6419
  139TMC2    C1 2115   3.488   3.275  13.063 -0.2126 -0.7448  0.3348
  139TMC2    C2 2116   3.421   3.253  12.946 -0.7328 -0.2162  0.3348
  139TMC2    C3 2117   3.290   3.302  12.939 -0.3084 -0.1493 -0.5477
  139TMC2    C4 2118   3.436   3.333  13.179  0.0292 -0.4056  0.2773
  139TMC2    C5 2119   3.309   3.368  13.168  0.0029  0.2800  0.0750
  139TMC2    C6 2120   3.233   3.357  13.055 -0.1444 -0.0069  0.3905
  139TMC2     C 2121   3.600   3.187  13.074 -0.0677  0.0452  0.1827
  139TMC2     O 2122   3.596   3.087  13.004  0.3060  0.5907 -0.4216
  139TMC2     H 2123   3.466   3.196  12.865  2.0194 -0.2726  1.8966
  139TMC2    H1 2124   3.491   3.344  13.271 -0.5635 -0.8072  0.6772
  139TMC2    H2 2125   3.128   3.385  13.061 -0.6387 -1.0495 -3.5683
  139TMC2    C7 2126   3.226   3.399  13.287  0.7427  0.3483  0.7051
  139TMC2    C8 2127   3.204   3.241  12.834 -0.1581 -0.1518 -0.4956
  139TMC2    O1 2128   3.120   3.453  13.261  0.7551 -0.3417  0.4420
  139TMC2    O2 2129   3.219   3.123  12.814 -0.0955 -0.1350 -0.6566
  139TMC2    O5 2130   3.089   3.308  12.829  0.3457  0.2081 -0.4744
  139TMC2    H5 2131   3.106   3.403  12.845  1.3678  0.0300 -0.5021
  140MPD2     C 2132   3.889   3.203  13.294  0.3897  0.1769  0.1568
  140MPD2    C1 2133   3.799   3.142  13.217 -0.4935 -0.0307  0.0492
  140MPD2    C2 2134   3.821   3.011  13.179  0.3647  0.5759 -0.7870
  140MPD2    C3 2135   3.928   2.935  13.236  0.1819  0.2655  0.2380
  140MPD2    C4 2136   3.993   2.996  13.340  0.1234  1.2455 -0.3941
  140MPD2    C5 2137   3.980   3.129  13.364 -0.1443 -0.0678 -1.6087
  140MPD2     H 2138   3.743   2.964  13.120 -1.9040  2.3751  0.7921
  140MPD2    H1 2139   4.081   2.959  13.393 -1.6847  1.4986  2.8122
  140MPD2    H2 2140   3.870   3.306  13.323 -0.6726  0.4682 -1.5632
  140MPD2    H3 2141   4.048   3.188  13.424  0.7018 -0.8347 -1.8140
  140MPD2     N 2142   3.944   2.797  13.213 -1.0519 -0.7025 -0.1192
  140MPD2    H5 2143   3.884   2.765  13.138 -3.3881  1.6585  0.7245
  140MPD2    N1 2144   3.700   3.229  13.165 -0.3319 -0.2494 -0.2164
  140MPD2    H7 2145   3.714   3.328  13.183 -0.2374 -0.4674  0.9271
  141TCq2    C1 2146   4.215   4.076  14.323 -1.1488  0.0403  0.3795
  141TCq2    O2 2147   4.162   4.184  14.294  0.6166 -0.1522  0.3508
  141TCq2    C2 2148   4.212   4.030  14.463 -0.9604 -0.1799 -0.5047
  141TCq2    C3 2149   4.236   3.901  14.500 -0.0214  1.3276  0.0624
  141TCq2    C4 2150   4.198   3.861  14.626 -0.1636  0.8515 -0.0903
  141TCq2    C5 2151   4.180   3.950  14.730  0.3554 -0.7408  0.2275
  141TCq2    C6 2152   4.160   4.080  14.694  0.2956  0.1101  0.0256
  141TCq2    C7 2153   4.182   4.123  14.559  0.7076  0.0294 -0.0314
  141TCq2    C8 2154   4.176   4.178  14.798  0.5085  0.5912 -0.3412
  141TCq2    O4 2155   4.236   4.133  14.897 -0.1532 -0.5893  0.9258
  141TCq2    C9 2156   4.211   3.722  14.661  0.1639  1.2171  0.1205
  141TCq2    O5 2157   4.242   3.642  14.568  0.0456 -0.1449 -0.6844
  141TCq2    O6 2158   4.169   3.688  14.775  0.6362  0.1856  0.6941
  141TCq2    H2 2159   4.259   3.823  14.428  1.1712  1.0480  0.7505
  141TCq2    H3 2160   4.144   3.917  14.826 -1.5737  0.4509 -0.0782
  141TCq2    H4 2161   4.157   4.226  14.536  0.3525 -0.0239  0.1149
  142MPD2     C 2162   1.586   1.883  10.231  0.1594  0.5353  0.1745
  142MPD2    C1 2163   1.520   1.883  10.113  0.0864  0.2638 -0.3326
  142MPD2    C2 2164   1.558   1.941  10.001 -0.3199  0.3344  0.1841
  142MPD2    C3 2165   1.674   2.017  10.004  0.2985  0.3586 -0.3730
  142MPD2    C4 2166   1.754   2.005  10.117 -0.0506  0.5443  0.1318
  142MPD2    C5 2167   1.710   1.938  10.228 -0.0922  0.4145 -0.1516
  142MPD2     H 2168   1.505   1.926   9.908 -0.7568 -1.2411  0.6832
  142MPD2    H1 2169   1.851   2.055  10.113  0.7683 -1.1390 -1.1552
  142MPD2    H2 2170   1.541   1.844  10.321  0.5481  0.9695  0.5614
  142MPD2    H3 2171   1.770   1.943  10.318  0.3547  1.0546 -0.4848
  142MPD2     N 2172   1.715   2.106   9.898  0.4608 -0.2001 -0.4221
  142MPD2    H5 2173   1.809   2.143   9.910  0.6404 -0.5233 -0.7980
  142MPD2    N1 2174   1.407   1.794  10.118  0.0142 -0.3471  0.4416
  142MPD2    H7 2175   1.391   1.744  10.205 -1.6511 -1.3648 -0.4559
  143TCq2    C1 2176   1.644   2.126   9.778  0.9631 -0.1692  0.3558
  143TCq2    O2 2177   1.533   2.080   9.750  0.0020  0.1872 -0.0963
  143TCq2    C2 2178   1.722   2.219   9.694  0.0298  0.4431 -0.1169
  143TCq2    C3 2179   1.847   2.261   9.731  0.4631 -0.0948 -0.3768
  143TCq2    C4 2180   1.915   2.360   9.669  0.0196 -0.7765  0.1739
  143TCq2    C5 2181   1.850   2.429   9.568  0.0962 -0.1199  1.0448
  143TCq2    C6 2182   1.718   2.387   9.543  0.3922 -0.1149  0.0119
  143TCq2    C7 2183   1.651   2.285   9.604  0.7366  0.3648 -0.5206
  143TCq2    C8 2184   1.654   2.467   9.442 -0.1218  0.4965 -0.5575
  143TCq2    O4 2185   1.724   2.545   9.377 -0.8024  0.4252  0.3666
  143TCq2    C9 2186   2.050   2.393   9.714  0.0718  0.3414  0.0169
  143TCq2    O5 2187   2.080   2.357   9.832 -0.4667 -0.0851 -0.3765
  143TCq2    O6 2188   2.126   2.447   9.629 -0.1593  0.1937  0.1246
  143TCq2    H2 2189   1.898   2.201   9.805  1.1415 -0.3758 -1.0653
  143TCq2    H3 2190   1.905   2.515   9.531 -0.6552 -0.2058 -0.2650
  143TCq2    H4 2191   1.549   2.256   9.585  0.1593  1.4551  0.9468
  144MPD2     C 2192   4.108   2.577   0.152 -0.2579  0.4645 -0.4238
  144MPD2    C1 2193   4.134   2.458   0.112  1.1458  0.3769  0.5402
  144MPD2    C2 2194   4.230   2.377   0.174  0.5083 -0.3576  0.5427
  144MPD2    C3 2195   4.304   2.417   0.282  0.2001 -0.1528  0.1222
  144MPD2    C4 2196   4.268   2.542   0.323  0.6663  0.6543  0.0926
  144MPD2    C5 2197   4.171   2.625   0.258 -0.2046 -0.2234 -0.3569
  144MPD2     H 2198   4.238   2.276   0.134 -0.5972  0.7401 -2.4322
  144MPD2    H1 2199   4.313   2.583   0.413  0.3360  1.4099 -0.0920
  144MPD2    H2 2200   4.040   2.645   0.102 -0.2528 -1.2596 -2.7483
  144MPD2    H3 2201   4.147   2.724   0.295 -1.3881 -0.3774 -0.7038
  144MPD2     N 2202   4.404   2.343   0.362 -0.2565 -0.6530 -0.0467
  144MPD2    H5 2203   4.446   2.384   0.446 -0.0446 -2.7476  0.8569
  144MPD2    N1 2204   4.051   2.397   0.021  0.2101  0.1451  0.5607
  144MPD2    H7 2205   4.064   2.298   0.006  2.9961  0.5789 -0.0075
  145TCq2    C1 2206   4.442   2.217   0.326  0.7973 -0.2117  0.8867
  145TCq2    O2 2207   4.424   2.162   0.216  0.1000 -0.2807 -0.5207
  145TCq2    C2 2208   4.545   2.162   0.414 -0.1306 -0.0885 -0.3268
  145TCq2    C3 2209   4.634   2.079   0.354  0.5952  0.0890 -0.1806
  145TCq2    C4 2210   0.021   2.048   0.434  0.4730 -0.5864  0.5896
  145TCq2    C5 2211   0.043   2.094   0.560 -0.0605  0.1711  0.1990
  145TCq2    C6 2212   4.672   2.176   0.614  0.0265  0.2522  0.2224
  145TCq2    C7 2213   4.564   2.216   0.539 -0.0473  0.1171  0.5389
  145TCq2    C8 2214   4.692   2.226   0.753 -0.0754 -0.3762 -0.1425
  145TCq2    O4 2215   0.020   2.147   0.833  0.7514  0.0798 -0.6677
  145TCq2    C9 2216   0.118   1.961   0.374  0.3863  0.4143 -0.5500
  145TCq2    O5 2217   0.094   1.916   0.256 -0.0576 -0.2946 -0.0408
  145TCq2    O6 2218   0.209   1.933   0.455  0.0671 -0.0196 -0.0131
  145TCq2    H2 2219   4.622   2.045   0.252  1.4919 -1.8469  0.3682
  145TCq2    H3 2220   0.129   2.066   0.620 -0.8246  0.9503  1.6644
  145TCq2    H4 2221   4.482   2.271   0.584  0.1051  2.3972 -2.0128
  146TMC2    C1 2222   1.291   0.641  12.239 -0.1264 -0.7147  0.1416
  146TMC2    C2 2223   1.251   0.680  12.118  0.1906 -0.5976  0.4636
  146TMC2    C3 2224   1.276   0.605  12.007  0.4188 -0.0436 -0.9358
  146TMC2    C4 2225   1.372   0.524  12.251 -0.5106 -0.0380  0.3418
  146TMC2    C5 2226   1.374   0.436  12.144 -0.4836 -0.0663 -0.1851
  146TMC2    C6 2227   1.325   0.476  12.024 -0.0359 -0.0568  0.3265
  146TMC2     C 2228   1.224   0.699  12.352 -0.4210 -0.3718  0.0350
  146TMC2     O 2229   1.157   0.798  12.324 -0.0071  0.3092 -0.4832
  146TMC2     H 2230   1.187   0.765  12.096 -0.1730 -1.1457 -0.5981
  146TMC2    H1 2231   1.419   0.504  12.347  1.8293  0.1786 -0.7705
  146TMC2    H2 2232   1.340   0.407  11.941 -0.1325 -0.0722  0.3217
  146TMC2    C7 2233   1.469   0.331  12.135 -0.3892 -0.2331 -0.2822
  146TMC2    C8 2234   1.182   0.628  11.897  0.3048 -0.2791 -0.1923
  146TMC2    O1 2235   1.511   0.300  12.025 -0.1559  0.1600  0.0514
  146TMC2    O2 2236   1.101   0.717  11.878  0.1553 -0.0706  0.1949
  146TMC2    O5 2237   1.218   0.544  11.795  0.2504 -0.1978  0.3033
  146TMC2    H5 2238   1.295   0.487  11.815  0.4134 -0.7644 -2.0118
  147MPD2     C 2239   1.821   0.003  12.300 -0.1313  1.1511 -0.0698
  147MPD2    C1 2240   1.762   0.064  12.410  0.1371 -0.1011  0.0999
  147MPD2    C2 2241   1.660   0.155  12.388 -0.2390  0.6929  0.9456
  147MPD2    C3 2242   1.598   0.176  12.268  1.2666 -0.5677 -1.1309
  147MPD2    C4 2243   1.657   0.106  12.156  0.9137  0.7565 -0.2884
  147MPD2    C5 2244   1.765   0.015  12.178  0.0490  0.2554  0.1544
  147MPD2     H 2245   1.620   0.206  12.475 -0.6725 -1.7505  2.1636
  147MPD2    H1 2246   1.624   0.122  12.054  2.7960  0.3332 -0.9592
  147MPD2    H2 2247   1.912   4.669  12.310 -0.6045  0.2340 -0.9260
  147MPD2    H3 2248   1.813   4.689  12.094 -1.4649 -1.3775  0.2437
  147MPD2     N 2249   1.510   0.281  12.259 -0.5969 -0.0526 -0.5406
  147MPD2    H5 2250   1.478   0.326  12.344 -1.2872 -0.6881 -0.4677
  147MPD2    N1 2251   1.811   0.039  12.542  0.4675 -0.1738  0.1381
  147MPD2    H7 2252   1.890   4.698  12.543  0.5587 -0.0616  0.0831
  148MPD2     C 2253   1.460   4.118  10.062  0.0832 -0.0205 -0.1406
  148MPD2    C1 2254   1.455   3.998  10.123  1.0937  0.4816  0.2186
  148MPD2    C2 2255   1.442   3.881  10.048 -0.5953 -0.1832 -0.5964
  148MPD2    C3 2256   1.444   3.884   9.905  0.0566 -0.5063 -0.2588
  148MPD2    C4 2257   1.457   4.007   9.842  0.3460 -0.5375 -0.3322
  148MPD2    C5 2258   1.465   4.123   9.923  0.3031 -0.5793 -0.0031
  148MPD2     H 2259   1.429   3.787  10.101  0.2364  1.6157  2.7720
  148MPD2    H1 2260   1.462   4.024   9.735 -0.6459  0.1943 -0.2641
  148MPD2    H2 2261   1.462   4.212  10.116 -0.2317 -0.6087  0.8968
  148MPD2    H3 2262   1.473   4.222   9.880  1.9459  0.9136  3.7259
  148MPD2     N 2263   1.447   3.764   9.826  0.3010 -0.4901  0.0297
  148MPD2    H5 2264   1.452   3.777   9.726 -1.8041  0.0741 -0.0057
  148MPD2    N1 2265   1.476   3.979  10.262  0.1891  0.2165 -0.0045
  148MPD2    H7 2266   1.492   3.886  10.298  0.6448  0.6731  0.9618
  149TCq2    C1 2267   1.464   4.077  10.361  0.3942  0.5581  0.5185
  149TCq2    O2 2268   1.454   4.195  10.344  0.5056 -0.3040  0.3246
  149TCq2    C2 2269   1.498   4.028  10.495 -0.3203  0.3118  0.7708
  149TCq2    C3 2270   1.488   4.125  10.595  0.0891 -0.3136  0.4823
  149TCq2    C4 2271   1.554   4.095  10.714 -1.3264  0.2968  0.5033
  149TCq2    C5 2272   1.636   3.989  10.729  0.4439 -0.0373 -0.3873
  149TCq2    C6 2273   1.644   3.898  10.630 -0.1279 -0.4707  0.6238
  149TCq2    C7 2274   1.567   3.912  10.517  0.4631  0.3153 -1.0064
  149TCq2    C8 2275   1.765   3.822  10.619  1.0716  0.2107 -1.0097
  149TCq2    O4 2276   1.750   3.709  10.580  0.7073 -0.6576  0.1692
  149TCq2    C9 2277   1.573   4.206  10.813  0.5793  0.0897 -0.0217
  149TCq2    O5 2278   1.688   4.215  10.876  0.2223  0.6199  0.0793
  149TCq2    O6 2279   1.464   4.257  10.850 -0.1389 -0.3085 -0.5292
  149TCq2    H2 2280   1.428   4.215  10.594 -0.8477 -0.9552 -0.6447
  149TCq2    H3 2281   1.708   3.988  10.810  0.0064 -1.0262 -0.0082
  149TCq2    H4 2282   1.566   3.831  10.445 -0.6414 -1.5316  1.0813
  150MPD2     C 2283   3.256   3.159  11.975 -0.6926  0.4619  0.0123
  150MPD2    C1 2284   3.237   3.295  11.947 -0.0328 -0.7121  0.5427
  150MPD2    C2 2285   3.298   3.393  12.026 -0.3751 -0.2485 -0.3464
  150MPD2    C3 2286   3.401   3.352  12.117  0.4052  0.1710 -0.5493
  150MPD2    C4 2287   3.417   3.218  12.139  0.1601  0.1921 -0.3436
  150MPD2    C5 2288   3.342   3.124  12.072 -0.8569 -0.8733 -0.5531
  150MPD2     H 2289   3.281   3.497  12.003 -1.0631 -0.0983  0.8082
  150MPD2    H1 2290   3.483   3.185  12.218  0.2528  1.3979  0.0859
  150MPD2    H2 2291   3.193   3.083  11.930  0.7202 -0.8334  0.2530
  150MPD2    H3 2292   3.354   3.022  12.107 -1.4431 -1.1188 -1.0791
  150MPD2     N 2293   3.476   3.456  12.190 -0.2312 -0.0882 -0.0846
  150MPD2    H5 2294   3.444   3.552  12.177  0.6994  0.4545  1.6066
  150MPD2    N1 2295   3.133   3.321  11.852  0.1114 -0.2279  0.0164
  150MPD2    H7 2296   3.095   3.238  11.807 -2.6223  1.1631 -0.2537
  151TCq2    C1 2297   3.592   3.439  12.266  0.0358  0.0652 -0.7295
  151TCq2    O2 2298   3.649   3.336  12.269  0.6296  0.0270  0.6552
  151TCq2    C2 2299   3.648   3.568  12.325 -0.6820  0.3941 -0.0342
  151TCq2    C3 2300   3.620   3.689  12.273 -0.3116  0.2891  0.9034
  151TCq2    C4 2301   3.692   3.791  12.320  0.6213  0.3024 -0.7228
  151TCq2    C5 2302   3.789   3.774  12.417  0.2964 -0.3143  0.5251
  151TCq2    C6 2303   3.815   3.646  12.460 -0.4309  0.1610  0.0287
  151TCq2    C7 2304   3.746   3.540  12.411  0.4398 -0.5910 -0.0564
  151TCq2    C8 2305   3.935   3.629  12.542  0.4564  0.1282  0.3379
  151TCq2    O4 2306   4.016   3.720  12.570  0.8597  0.2298 -0.0350
  151TCq2    C9 2307   3.692   3.915  12.242 -0.0010 -0.2446  0.1563
  151TCq2    O5 2308   3.734   4.020  12.294  0.2658  0.2399  0.1470
  151TCq2    O6 2309   3.661   3.898  12.120 -0.5938  0.1067 -0.1328
  151TCq2    H2 2310   3.548   3.713  12.195  1.2464 -1.1163 -0.9718
  151TCq2    H3 2311   3.845   3.859  12.453 -0.4461  0.1457  0.5912
  151TCq2    H4 2312   3.744   3.439  12.451  0.7169 -0.0309  1.3748
  152MPD2     C 2313   2.782   2.848  12.262 -0.4848 -0.8649  0.7069
  152MPD2    C1 2314   2.823   2.978  12.296  0.3318 -0.3112 -0.1720
  152MPD2    C2 2315   2.734   3.081  12.294  0.7002 -0.6673 -0.6707
  152MPD2    C3 2316   2.600   3.061  12.257 -0.1335 -0.3916  0.2797
  152MPD2    C4 2317   2.557   2.935  12.236 -0.2900  0.1788  1.3837
  152MPD2    C5 2318   2.649   2.828  12.237 -0.3389  0.4261  0.7223
  152MPD2     H 2319   2.757   3.184  12.317  1.0770 -0.7454 -0.7031
  152MPD2    H1 2320   2.452   2.913  12.219 -0.3076  1.5695 -0.2822
  152MPD2    H2 2321   2.850   2.766  12.243  0.4997  0.9231 -3.4051
  152MPD2    H3 2322   2.609   2.729  12.216 -1.8563  1.5691 -1.8996
  152MPD2     N 2323   2.526   3.180  12.237 -0.6854  0.4662 -0.1577
  152MPD2    H5 2324   2.591   3.257  12.225  0.3441 -0.3301  0.3764
  152MPD2    N1 2325   2.960   2.998  12.310  0.0600  0.2072 -0.5289
  152MPD2    H7 2326   3.022   2.918  12.307  1.5185  1.2281  2.1856
  153TCq2    C1 2327   3.020   3.117  12.353 -0.0970  0.4811  1.2647
  153TCq2    O2 2328   2.970   3.225  12.363  0.2312  0.1837 -0.0950
  153TCq2    C2 2329   3.157   3.102  12.407  0.0825 -0.2217 -0.4380
  153TCq2    C3 2330   3.242   2.996  12.384 -0.1620 -0.0391  0.6123
  153TCq2    C4 2331   3.369   3.003  12.427  0.2621 -0.3891  0.1852
  153TCq2    C5 2332   3.415   3.117  12.482 -0.0003  1.0952  0.3718
  153TCq2    C6 2333   3.329   3.219  12.511 -0.1779  0.1734  0.0234
  153TCq2    C7 2334   3.201   3.214  12.466  0.2564  0.4053  0.7131
  153TCq2    C8 2335   3.382   3.354  12.548 -0.1560 -0.7465 -0.3639
  153TCq2    O4 2336   3.321   3.460  12.545  0.1064  0.1943 -0.1223
  153TCq2    C9 2337   3.454   2.895  12.396 -0.0389  0.1784 -0.0692
  153TCq2    O5 2338   3.410   2.778  12.376  0.4577  0.1680  0.5132
  153TCq2    O6 2339   3.578   2.917  12.391 -0.4829 -0.2281  0.4717
  153TCq2    H2 2340   3.222   2.911  12.321  1.5287 -0.7523  1.0542
  153TCq2    H3 2341   3.513   3.110  12.528  0.2138 -0.6523 -0.3566
  153TCq2    H4 2342   3.132   3.298  12.477 -0.0461  0.4723 -1.7769
  154MPD2     C 2343   3.913   3.303   0.339  0.4208  0.7353 -0.9706
  154MPD2    C1 2344   3.977   3.391   0.416  0.6120  0.0169 -0.3677
  154MPD2    C2 2345   3.911   3.511   0.447  0.3480  0.0057 -0.0807
  154MPD2    C3 2346   3.785   3.541   0.404 -0.3922  0.8926 -0.2547
  154MPD2    C4 2347   3.721   3.449   0.327 -0.4593  0.0020 -0.3113
  154MPD2    C5 2348   3.787   3.330   0.299 -0.7521  0.2269  0.3932
  154MPD2     H 2349   3.954   3.584   0.515 -1.4529  2.7498 -1.8587
  154MPD2    H1 2350   3.621   3.466   0.288 -1.7199 -3.5222  1.4080
  154MPD2    H2 2351   3.951   3.202   0.328 -0.1351  0.3056  0.8620
  154MPD2    H3 2352   3.736   3.258   0.236  0.9223 -0.2053 -0.4621
  154MPD2     N 2353   3.722   3.659   0.460 -0.4557 -0.2511  0.3940
  154MPD2    H5 2354   3.784   3.721   0.511 -0.5978  0.2987 -0.1086
  154MPD2    N1 2355   4.104   3.358   0.455 -0.0689  0.5491 -0.1998
  154MPD2    H7 2356   4.135   3.265   0.427  2.1079  0.2187  3.3138
  155TCq2    C1 2357   4.187   3.448   0.511  0.2553  0.2136 -0.9004
  155TCq2    O2 2358   4.170   3.564   0.546  0.4475  0.5255 -0.0192
  155TCq2    C2 2359   4.320   3.401   0.498  0.4841  0.1074  0.2999
  155TCq2    C3 2360   4.411   3.503   0.483 -0.3414 -0.6086 -0.3251
  155TCq2    C4 2361   4.540   3.476   0.509 -0.6429 -0.0909  0.5411
  155TCq2    C5 2362   4.584   3.357   0.552 -0.1722  0.7220  0.4040
  155TCq2    C6 2363   4.488   3.265   0.583 -0.2874  0.6669  0.9987
  155TCq2    C7 2364   4.355   3.282   0.556  0.5478 -0.3502  0.2413
  155TCq2    C8 2365   4.525   3.136   0.640  0.3164  0.2226  0.1206
  155TCq2    O4 2366   4.468   3.038   0.595 -0.1623 -0.4704  0.3710
  155TCq2    C9 2367   4.637   3.570   0.487 -0.0939 -0.2290 -1.0815
  155TCq2    O5 2368   0.031   3.528   0.486  0.4512  0.0962 -0.0298
  155TCq2    O6 2369   4.606   3.689   0.455 -0.4425 -0.3075  0.2428
  155TCq2    H2 2370   4.387   3.606   0.458  1.0123  0.0668  1.1387
  155TCq2    H3 2371   4.690   3.349   0.570 -0.0745  2.0201  0.3946
  155TCq2    H4 2372   4.280   3.211   0.591 -2.3528  1.6327 -1.9123
  156MPD2     C 2373   3.499   0.619  12.126  0.3397 -0.1768 -0.3751
  156MPD2    C1 2374   3.413   0.661  12.034 -0.0538 -0.1234  0.0926
  156MPD2    C2 2375   3.275   0.654  12.058  0.3517 -0.6335 -0.1641
  156MPD2    C3 2376   3.223   0.608  12.181 -0.6867 -0.8728 -0.4298
  156MPD2    C4 2377   3.316   0.568  12.273  0.3093 -0.5079 -0.3362
  156MPD2    C5 2378   3.451   0.564  12.241 -0.1531 -0.1346  0.3695
  156MPD2     H 2379   3.217   0.669  11.967 -1.3046  3.4401  1.5496
  156MPD2    H1 2380   3.297   0.527  12.371  0.6354 -1.3021 -0.6081
  156MPD2    H2 2381   3.606   0.613  12.105  0.6779  2.3978  0.6631
  156MPD2    H3 2382   3.526   0.529  12.310 -0.7015 -0.7691  0.6425
  156MPD2     N 2383   3.087   0.597  12.201 -0.0231  0.0878  0.1632
  156MPD2    H5 2384   3.025   0.630  12.128  0.8926  0.4465 -0.4453
  156MPD2    N1 2385   3.468   0.703  11.909 -0.6923 -0.1271 -0.1832
  156MPD2    H7 2386   3.566   0.692  11.888 -0.4476 -0.1552  1.0141
  157TCq2    C1 2387   3.397   0.782  11.825  0.0516 -0.3154 -0.2360
  157TCq2    O2 2388   3.295   0.842  11.839 -0.5611 -0.3016 -0.3646
  157TCq2    C2 2389   3.458   0.783  11.687  0.7705  0.7089  0.6610
  157TCq2    C3 2390   3.551   0.688  11.654 -0.0148 -0.0380  0.1997
  157TCq2    C4 2391   3.603   0.683  11.527  0.7346  0.3040 -0.3804
  157TCq2    C5 2392   3.562   0.770  11.433  0.1240  0.4377 -0.1027
  157TCq2    C6 2393   3.479   0.870  11.469 -0.4369  0.3424 -0.0976
  157TCq2    C7 2394   3.417   0.877  11.594 -0.2845  0.3370  0.0116
  157TCq2    C8 2395   3.473   0.989  11.373  0.1630 -0.4173 -0.0928
  157TCq2    O4 2396   3.556   1.007  11.288 -0.6109 -0.5670 -0.1312
  157TCq2    C9 2397   3.684   0.572  11.500  0.0822 -0.4344 -0.3027
  157TCq2    O5 2398   3.754   0.574  11.396  0.3092 -0.3539  0.3474
  157TCq2    O6 2399   3.664   0.470  11.567 -0.2494  0.5716 -0.3413
  157TCq2    H2 2400   3.596   0.612  11.718  0.5560 -0.3125 -0.5168
  157TCq2    H3 2401   3.612   0.767  11.337  1.3487 -0.8557  0.5804
  157TCq2    H4 2402   3.349   0.959  11.615 -0.4559  0.2585 -0.2341
  158TMC2    C1 2403   3.573   4.541  13.651 -0.2861  0.1445  0.2071
  158TMC2    C2 2404   3.605   4.671  13.667 -0.4322 -0.5518  0.3370
  158TMC2    C3 2405   3.500   0.039  13.655  0.4746 -0.2076 -0.6036
  158TMC2    C4 2406   3.444   4.506  13.617  0.0151 -0.0617  0.2105
  158TMC2    C5 2407   3.342   4.597  13.609 -0.5356 -0.5575 -0.6029
  158TMC2    C6 2408   3.372   0.007  13.626  0.3240 -0.7089 -0.1303
  158TMC2     C 2409   3.688   4.454  13.626  0.7228 -0.1585 -0.3594
  158TMC2     O 2410   3.796   4.500  13.598 -0.1867  0.6184  0.0733
  158TMC2     H 2411   3.707   4.707  13.677 -0.8844  0.9306 -0.3232
  158TMC2    H1 2412   3.419   4.401  13.608  0.0378 -0.1654  1.3677
  158TMC2    H2 2413   3.297   0.086  13.622 -1.4520 -2.3161  1.4712
  158TMC2    C7 2414   3.215   4.553  13.543 -0.4594 -0.2238 -0.0960
  158TMC2    C8 2415   3.524   0.178  13.671  1.0516  0.3772  0.6262
  158TMC2    O1 2416   3.159   4.646  13.486 -0.7526  0.1724 -0.8059
  158TMC2    O2 2417   3.472   0.265  13.598 -0.2645 -0.0810 -0.1051
  158TMC2    O5 2418   3.609   0.187  13.776 -0.4525 -0.5052  0.0454
  158TMC2    H5 2419   3.603   0.111  13.839  4.1515 -2.6261 -2.0381
  159MPD2     C 2420   3.901   4.020  13.768 -0.4288 -0.0241 -0.3783
  159MPD2    C1 2421   3.762   4.006  13.788 -0.3288 -0.2024  0.0145
  159MPD2    C2 2422   3.690   4.120  13.758  0.0900  0.3667  0.1406
  159MPD2    C3 2423   3.750   4.230  13.703  0.7339 -0.1157 -0.1836
  159MPD2    C4 2424   3.889   4.235  13.679  1.2815  0.2557 -0.3907
  159MPD2    C5 2425   3.965   4.127  13.719 -1.5352 -0.0303  0.8332
  159MPD2     H 2426   3.583   4.109  13.775 -0.0606  1.8201  0.1172
  159MPD2    H1 2427   3.935   4.321  13.632  1.5327  0.3335 -0.0024
  159MPD2    H2 2428   3.975   3.946  13.796  1.6652  2.5543  0.9399
  159MPD2    H3 2429   4.073   4.123  13.713 -1.6700  0.9110 -2.3000
  159MPD2     N 2430   3.654   4.333  13.679  0.4148  0.3949 -0.2466
  159MPD2    H5 2431   3.559   4.315  13.709  0.9287 -1.7847  0.0479
  159MPD2    N1 2432   3.714   3.890  13.865 -0.1226 -0.4283 -0.0194
  159MPD2    H7 2433   3.775   3.818  13.902 -2.2286 -1.9640  0.5122
  160TMC2    C1 2434   2.376   2.964   1.340 -0.7629 -0.3993  0.1305
  160TMC2    C2 2435   2.463   2.894   1.263 -0.0599 -0.4079  0.2915
  160TMC2    C3 2436   2.587   2.955   1.239  0.7810 -0.5086  0.4406
  160TMC2    C4 2437   2.412   3.080   1.395  0.1189 -0.0572 -0.7123
  160TMC2    C5 2438   2.535   3.125   1.379  0.5002 -0.2799 -0.5061
  160TMC2    C6 2439   2.621   3.078   1.285  0.4207  0.2952 -0.3330
  160TMC2     C 2440   2.258   2.896   1.394 -0.1903  0.5324  0.6800
  160TMC2     O 2441   2.223   2.931   1.503 -0.1735 -0.5147  0.4259
  160TMC2     H 2442   2.450   2.788   1.246  4.1551 -0.7743 -0.8101
  160TMC2    H1 2443   2.333   3.129   1.452 -0.5475 -0.0244 -1.6751
  160TMC2    H2 2444   2.722   3.114   1.276  0.1394  1.1049 -0.2534
  160TMC2    C7 2445   2.552   3.264   1.424 -0.5265 -0.6896 -0.1293
  160TMC2    C8 2446   2.675   2.899   1.136  0.5952  0.5640  0.7231
  160TMC2    O1 2447   2.458   3.320   1.471  0.5850  0.0384  0.3720
  160TMC2    O2 2448   2.789   2.925   1.111  0.0174  0.0378  0.0910
  160TMC2    O5 2449   2.595   2.828   1.056 -0.4398 -0.4443  0.2944
  160TMC2    H5 2450   2.504   2.825   1.093 -1.1313  1.1462 -1.2691
  161MPD2     C 2451   2.028   2.711   1.460 -0.0656 -0.4547 -0.0075
  161MPD2    C1 2452   2.080   2.730   1.336  0.1846  0.3800  0.5168
  161MPD2    C2 2453   2.007   2.666   1.229 -0.1304 -0.4503 -0.5864
  161MPD2    C3 2454   1.888   2.603   1.243 -0.2131 -0.3124  0.2383
  161MPD2    C4 2455   1.840   2.593   1.375 -0.1239  0.0000  1.4117
  161MPD2    C5 2456   1.909   2.652   1.479  0.3984  0.2563 -0.5778
  161MPD2     H 2457   2.060   2.670   1.134 -2.1509  2.3428 -1.5975
  161MPD2    H1 2458   1.744   2.545   1.391 -0.3380 -0.0390 -0.0425
  161MPD2    H2 2459   2.086   2.746   1.545  0.4384 -0.7556 -0.2292
  161MPD2    H3 2460   1.875   2.647   1.581 -0.5826  0.1110 -0.9088
  161MPD2     N 2461   1.803   2.545   1.142 -0.0983 -0.0875 -0.0711
  161MPD2    H5 2462   1.724   2.492   1.179  0.0399 -1.0311 -1.1171
  161MPD2    N1 2463   2.192   2.808   1.310  0.3281  0.2053 -0.0261
  161MPD2    H7 2464   2.226   2.797   1.215  1.2490  1.1198  0.1932
  162TMC2    C1 2465   2.226   4.390   1.281  0.2211  0.3171  0.0259
  162TMC2    C2 2466   2.296   4.487   1.347 -0.5694 -0.0274 -0.1710
  162TMC2    C3 2467   2.292   4.495   1.478 -1.0941  0.4382 -0.2488
  162TMC2    C4 2468   2.136   4.309   1.348 -0.7516  0.0415  0.2564
  162TMC2    C5 2469   2.134   4.329   1.487  0.3625 -0.1991  0.5355
  162TMC2    C6 2470   2.212   4.422   1.552 -0.0162 -0.3634  0.0795
  162TMC2     C 2471   2.221   4.394   1.139  0.0818  0.1028 -0.6174
  162TMC2     O 2472   2.164   4.297   1.094 -0.1074 -0.3388 -0.0750
  162TMC2     H 2473   2.370   4.552   1.303 -0.6794  0.8043  0.8697
  162TMC2    H1 2474   2.063   4.245   1.300  1.9137 -2.9946  0.2747
  162TMC2    H2 2475   2.196   4.430   1.659 -0.2047 -1.5695  0.1447
  162TMC2    C7 2476   2.017   4.267   1.557 -0.2023  0.2807  0.1173
  162TMC2    C8 2477   2.353   4.608   1.541 -0.0064  0.8410  0.5101
  162TMC2    O1 2478   1.976   4.322   1.659  0.0871  0.1185 -0.1348
  162TMC2    O2 2479   2.395   4.708   1.480  0.0789 -0.1831 -0.0121
  162TMC2    O5 2480   2.423   4.563   1.642  0.3372  0.1994  0.3777
  162TMC2    H5 2481   2.420   4.466   1.654 -1.4696  0.1100 -0.7548
  163MPD2     C 2482   2.228   4.657   0.695 -0.1334  0.1074 -0.3802
  163MPD2    C1 2483   2.184   4.527   0.720  0.3510  0.1227  0.5219
  163MPD2    C2 2484   2.195   4.475   0.852 -0.0045  0.2761 -0.0031
  163MPD2    C3 2485   2.250   4.552   0.952  0.2448 -0.2486  0.4113
  163MPD2    C4 2486   2.310   4.670   0.913  0.0787 -0.1834 -0.0433
  163MPD2    C5 2487   2.299   0.001   0.787 -0.1469  0.1726 -0.5634
  163MPD2     H 2488   2.161   4.377   0.884 -2.1470  1.3892  1.2077
  163MPD2    H1 2489   2.361   0.008   0.987  0.5015  1.5339 -1.7464
  163MPD2    H2 2490   2.217   4.693   0.594 -1.0646 -2.5931 -1.2403
  163MPD2    H3 2491   2.334   0.102   0.769 -0.2241  0.2858 -0.0842
  163MPD2     N 2492   2.266   4.507   1.084 -0.2338  0.0487  0.2571
  163MPD2    H5 2493   2.310   4.577   1.143  0.5741  1.3722 -1.9006
  163MPD2    N1 2494   2.119   4.458   0.618  0.0569 -0.6975 -0.6744
  163MPD2    H7 2495   2.092   4.502   0.530 -0.2969  2.5859  1.0541
  164TCq2    C1 2496   2.277   3.331  11.040  0.7845 -0.2391 -0.2405
  164TCq2    O2 2497   2.208   3.261  11.117 -0.4907  0.3799  0.0987
  164TCq2    C2 2498   2.288   3.477  11.081 -0.5301  0.0023 -0.3456
  164TCq2    C3 2499   2.391   3.547  11.030 -0.0689 -0.1025  0.0738
  164TCq2    C4 2500   2.369   3.671  10.979 -0.4018  0.1867 -0.2416
  164TCq2    C5 2501   2.243   3.724  10.981  0.0320 -0.0063 -0.6448
  164TCq2    C6 2502   2.148   3.651  11.042 -0.1476 -0.6203  0.7449
  164TCq2    C7 2503   2.164   3.529  11.095 -0.2897  0.1300  0.5677
  164TCq2    C8 2504   2.017   3.708  11.071  0.4800 -0.2112  0.2201
  164TCq2    O4 2505   1.987   3.805  11.007 -0.0154 -0.0912 -0.2983
  164TCq2    C9 2506   2.482   3.751  10.918 -0.7944 -0.0143 -0.0153
  164TCq2    O5 2507   2.566   3.681  10.853  0.3301 -0.2838  0.4211
  164TCq2    O6 2508   2.497   3.868  10.953  0.9462 -0.2989 -0.1971
  164TCq2    H2 2509   2.489   3.509  11.005  0.3510  0.5291  0.7280
  164TCq2    H3 2510   2.220   3.823  10.943 -4.4714 -0.6895  0.2691
  164TCq2    H4 2511   2.082   3.461  11.114  0.5964 -0.3649  2.6499
  165MPD2     C 2512   2.834   1.063   1.093 -0.2696  0.1189  0.1975
  165MPD2    C1 2513   2.911   1.133   1.182  0.1661  0.3002  0.4719
  165MPD2    C2 2514   2.862   1.248   1.238  0.1302 -0.0578  0.1318
  165MPD2    C3 2515   2.735   1.289   1.199 -0.3366  0.0412  0.2004
  165MPD2    C4 2516   2.662   1.212   1.115 -0.1129 -0.5656  0.2669
  165MPD2    C5 2517   2.704   1.097   1.058 -0.0550  0.8869 -0.4068
  165MPD2     H 2518   2.916   1.310   1.308  0.2534  1.3824 -1.2491
  165MPD2    H1 2519   2.560   1.247   1.105  0.4269  0.8295 -0.4195
  165MPD2    H2 2520   2.877   0.974   1.049  0.7922  1.6678 -1.9226
  165MPD2    H3 2521   2.645   1.053   0.979  0.1457  0.4959 -0.3368
  165MPD2     N 2522   2.673   1.418   1.237 -0.5477  0.0527  0.0253
  165MPD2    H5 2523   2.579   1.434   1.204  0.2401  3.9785 -0.2446
  165MPD2    N1 2524   3.042   1.084   1.207  0.0326 -0.2045  0.6178
  165MPD2    H7 2525   3.075   1.020   1.135 -1.7087 -0.6684  0.2281
  166TCq2    C1 2526   2.744   1.522   1.305 -0.3088 -0.0248  0.2166
  166TCq2    O2 2527   2.862   1.529   1.349  0.0811 -0.0502  0.6935
  166TCq2    C2 2528   2.660   1.640   1.314  0.1794  0.5279 -0.1459
  166TCq2    C3 2529   2.522   1.624   1.317  0.1779 -0.1841  0.2444
  166TCq2    C4 2530   2.443   1.733   1.335  0.6904  0.4105 -0.4806
  166TCq2    C5 2531   2.503   1.857   1.353 -0.0777  0.0946 -1.0331
  166TCq2    C6 2532   2.640   1.868   1.346  0.1434 -0.4297 -0.2371
  166TCq2    C7 2533   2.718   1.759   1.326  0.0589 -0.0526 -0.8347
  166TCq2    C8 2534   2.706   1.993   1.312  0.2582 -0.1930 -0.0478
  166TCq2    O4 2535   2.821   1.990   1.268 -0.4270 -0.1342 -0.4359
  166TCq2    C9 2536   2.298   1.723   1.341  0.3720 -0.5856  0.3661
  166TCq2    O5 2537   2.252   1.612   1.300  0.2541 -0.1159  0.8742
  166TCq2    O6 2538   2.231   1.818   1.388  0.6720 -0.1148  0.2470
  166TCq2    H2 2539   2.468   1.530   1.314 -1.1271  0.6201 -1.7350
  166TCq2    H3 2540   2.438   1.942   1.370  2.8585  1.7605  1.8257
  166TCq2    H4 2541   2.826   1.773   1.325 -0.0555  0.8232 -0.1495
  167TMC2    C1 2542   1.050   3.663  12.559  0.0848 -0.1071 -0.0437
  167TMC2    C2 2543   0.949   3.698  12.654 -0.1783 -0.1689 -0.1889
  167TMC2    C3 2544   0.918   3.599  12.743  0.2695  0.4351  0.1033
  167TMC2    C4 2545   1.123   3.550  12.573 -0.2704  0.3446 -0.6902
  167TMC2    C5 2546   1.085   3.458  12.666 -0.3749 -0.2844  0.3606
  167TMC2    C6 2547   0.974   3.479  12.743 -0.0133  0.5776 -0.8616
  167TMC2     C 2548   1.081   3.735  12.440 -0.2150  0.2949 -1.0580
  167TMC2     O 2549   1.124   3.674  12.342 -0.0560 -0.3675 -0.1210
  167TMC2     H 2550   0.886   3.784  12.639  1.3921  1.2699  1.5729
  167TMC2    H1 2551   1.212   3.541  12.511 -0.2346  2.8548 -1.0171
  167TMC2    H2 2552   0.945   3.397  12.807 -1.5513  0.6768 -1.4328
  167TMC2    C7 2553   1.142   3.323  12.655 -0.6565 -0.0567 -0.1832
  167TMC2    C8 2554   0.806   3.618  12.834 -0.3471  0.7037  0.3266
  167TMC2    O1 2555   1.128   3.243  12.749 -0.2102 -0.0311 -0.4733
  167TMC2    O2 2556   0.735   3.532  12.874  0.8171  0.0104 -0.0084
  167TMC2    O5 2557   0.787   3.751  12.843 -0.4578 -0.2894 -0.2853
  167TMC2    H5 2558   0.870   3.803  12.829 -1.4624  1.5301  0.5567
  168MPD2     C 2559   1.115   4.091  12.371  0.2013  0.5089 -0.1133
  168MPD2    C1 2560   1.074   3.968  12.349  0.3552 -0.0188  0.9096
  168MPD2    C2 2561   1.061   3.929  12.218  0.3652  0.2719  0.0892
  168MPD2    C3 2562   1.077   4.013  12.113 -0.0961  0.7963 -0.5164
  168MPD2    C4 2563   1.116   4.141  12.139  0.5024 -0.0568 -0.3578
  168MPD2    C5 2564   1.137   4.178  12.272 -0.1542  0.1290 -0.2946
  168MPD2     H 2565   1.050   3.821  12.210  0.3473  0.5717 -3.7413
  168MPD2    H1 2566   1.133   4.209  12.056  0.5731  0.7835  0.3533
  168MPD2    H2 2567   1.149   4.122  12.470 -0.7666  3.0327 -0.5732
  168MPD2    H3 2568   1.169   4.281  12.279  0.8550 -0.0747 -1.9283
  168MPD2     N 2569   1.053   3.964  11.981 -0.4483 -0.1141  0.3540
  168MPD2    H5 2570   1.090   4.026  11.909 -3.0254 -1.8341 -2.4629
  168MPD2    N1 2571   1.073   3.872  12.457  0.0163 -0.0969 -0.9878
  168MPD2    H7 2572   1.073   3.913  12.550 -1.4687 -0.8756 -0.6552
  169MPD1     C 2573   3.374   2.501   9.820 -0.0411 -0.0916  0.3474
  169MPD1    C1 2574   3.386   2.422   9.709 -1.0900  0.2652  0.4405
  169MPD1    C2 2575   3.514   2.384   9.668  0.0095 -0.1847  0.6736
  169MPD1    C3 2576   3.627   2.434   9.735 -0.0145  0.2799 -0.0663
  169MPD1    C4 2577   3.609   2.517   9.839  0.8011 -0.4220 -1.2645
  169MPD1    C5 2578   3.479   2.548   9.882 -0.5770  0.4202  0.0388
  169MPD1     H 2579   3.527   2.314   9.586  0.2587  0.0582  0.5081
  169MPD1    H1 2580   3.693   2.561   9.892 -0.9549  1.7580 -0.2985
  169MPD1    H2 2581   3.280   2.535   9.862  0.6977  1.7645  0.4871
  169MPD1    H3 2582   3.473   2.619   9.964  0.1805  0.8931 -0.3234
  169MPD1     N 2583   3.755   2.394   9.683 -1.0824  0.1517  0.8536
  169MPD1    H5 2584   3.760   2.318   9.615 -1.2930  1.7188 -0.9184
  169MPD1    N1 2585   3.269   2.370   9.646  0.1720  0.6152 -0.3732
  169MPD1    H6 2586   3.194   2.437   9.630 -0.9517 -0.3832  0.7718
  169MPD1    H7 2587   3.298   2.337   9.554  0.1790 -0.0103 -0.1456
  170MPD1     C 2588   2.619   1.664  12.489  0.2075  0.2704 -0.3395
  170MPD1    C1 2589   2.589   1.791  12.522 -0.4995  0.7276 -0.3278
  170MPD1    C2 2590   2.487   1.813  12.607 -0.5872  0.0558 -0.3134
  170MPD1    C3 2591   2.418   1.715  12.674 -0.8267  0.4837  0.4592
  170MPD1    C4 2592   2.454   1.583  12.649 -0.1044  0.3717 -0.0879
  170MPD1    C5 2593   2.557   1.558  12.557 -0.1748 -0.8472  0.5747
  170MPD1     H 2594   2.466   1.912  12.645  2.3355  1.2267 -1.8133
  170MPD1    H1 2595   2.404   1.496  12.692 -0.4860  0.0773 -1.1199
  170MPD1    H2 2596   2.698   1.646  12.416  1.6963  2.2051  0.8218
  170MPD1    H3 2597   2.579   1.454  12.534  1.7628  0.3726 -2.9932
  170MPD1     N 2598   2.314   1.758  12.765  0.4473  0.0546  0.6190
  170MPD1    H5 2599   2.290   1.856  12.756 -1.1299 -0.2977  1.0886
  170MPD1    N1 2600   2.652   1.896  12.466  0.2284  1.0161  0.1995
  170MPD1    H6 2601   2.605   1.986  12.468 -0.3899  0.6871  0.4824
  170MPD1    H7 2602   2.679   1.889  12.368  0.0338  2.2191  0.0631
  171MPD1     C 2603   0.334   3.166  15.256 -0.2786  0.2644  0.4053
  171MPD1    C1 2604   0.418   3.103  15.170  0.5703 -0.1080  0.1366
  171MPD1    C2 2605   0.480   2.991  15.219  0.1827 -0.4702  0.5011
  171MPD1    C3 2606   0.452   2.944  15.351  0.0092  0.0038  0.6094
  171MPD1    C4 2607   0.368   3.007  15.428  0.3972 -0.0657 -0.0778
  171MPD1    C5 2608   0.303   3.118  15.378 -0.5871 -0.0912  0.3821
  171MPD1     H 2609   0.552   2.944  15.153  0.8306  3.6917 -1.7929
  171MPD1    H1 2610   0.352   2.971  15.529  2.1127  1.7614  0.8357
  171MPD1    H2 2611   0.267   3.242  15.218  0.0027  0.7755  0.9374
  171MPD1    H3 2612   0.228   3.167  15.440  1.1938  2.0321  0.8560
  171MPD1     N 2613   0.523   2.834  15.398 -0.6227 -0.0353 -0.1029
  171MPD1    H5 2614   0.510   2.823  15.498 -2.5235  0.8971 -0.2589
  171MPD1    N1 2615   0.430   3.137  15.035 -0.1420 -0.1721 -0.2468
  171MPD1    H6 2616   0.394   3.232  15.028 -1.8654 -0.7558  0.5340
  171MPD1    H7 2617   0.522   3.125  14.995 -0.1997 -1.4219  0.0060
  172MPD1     C 2618   4.038   1.857  17.288  0.8251  0.6217  0.8996
  172MPD1    C1 2619   4.100   1.926  17.187 -0.2376 -0.3747  0.2759
  172MPD1    C2 2620   4.185   2.025  17.221  0.3838  0.3810 -0.1005
  172MPD1    C3 2621   4.243   2.033  17.347 -1.1085  0.9709  0.2409
  172MPD1    C4 2622   4.184   1.953  17.444 -0.3671 -0.0858  0.2408
  172MPD1    C5 2623   4.076   1.874  17.415 -0.7725  0.1336  0.1094
  172MPD1     H 2624   4.232   2.082  17.142  1.5024 -0.6373 -0.1719
  172MPD1    H1 2625   4.213   1.951  17.549  2.9409 -0.0350 -0.6560
  172MPD1    H2 2626   3.952   1.794  17.270  2.5851 -1.6200  0.3182
  172MPD1    H3 2627   4.028   1.812  17.490  0.4337 -1.9583 -0.8607
  172MPD1     N 2628   4.354   2.121  17.369 -1.2077  0.4184 -0.1769
  172MPD1    H5 2629   4.377   2.185  17.294 -1.8533  1.5580  0.5825
  172MPD1    N1 2630   4.036   1.917  17.065  0.4955 -0.7377  0.0940
  172MPD1    H6 2631   4.097   1.948  16.989  0.9191 -0.3319  0.5984
  172MPD1    H7 2632   4.006   1.820  17.058 -1.6157 -0.1844  1.3670
  173MPD1     C 2633   1.252   1.602  14.032 -0.1215 -0.3451  0.4148
  173MPD1    C1 2634   1.169   1.490  14.045  0.4906  0.2644 -0.3597
  173MPD1    C2 2635   1.060   1.508  14.132  0.0603 -0.5953  0.7217
  173MPD1    C3 2636   1.041   1.622  14.202  0.5187  0.8333  0.1618
  173MPD1    C4 2637   1.114   1.735  14.176  0.1544  0.0673  0.7640
  173MPD1    C5 2638   1.231   1.716  14.097  0.1597 -0.4719  0.0748
  173MPD1     H 2639   0.977   1.439  14.120  0.2820 -0.7507  0.0660
  173MPD1    H1 2640   1.088   1.829  14.221  0.8280 -0.5510  2.4501
  173MPD1    H2 2641   1.337   1.598  13.965  0.0534 -0.5103  0.6435
  173MPD1    H3 2642   1.291   1.800  14.063 -0.6466 -0.4639 -1.2863
  173MPD1     N 2643   0.924   1.630  14.276  0.1596 -0.5984  0.0688
  173MPD1    H5 2644   0.866   1.548  14.291 -0.5679 -0.7673 -3.5540
  173MPD1    N1 2645   1.190   1.362  13.988  0.2871 -1.3359 -0.2340
  173MPD1    H6 2646   1.238   1.367  13.898 -0.1006 -0.0775 -0.3755
  173MPD1    H7 2647   1.097   1.323  13.978  0.1953 -1.0825 -0.3656
  174MPD1     C 2648   0.815   0.892  14.268 -0.1465 -0.4118  0.1737
  174MPD1    C1 2649   0.848   0.998  14.186 -0.3150  0.0416  0.4489
  174MPD1    C2 2650   0.791   1.122  14.204 -0.1949 -0.0444 -0.2241
  174MPD1    C3 2651   0.693   1.130  14.304 -0.9154  0.5857 -0.4971
  174MPD1    C4 2652   0.634   1.021  14.366 -0.7696 -0.2898 -1.5595
  174MPD1    C5 2653   0.706   0.903  14.361 -0.0700  0.3337 -0.7999
  174MPD1     H 2654   0.827   1.208  14.148 -0.1983 -1.3119 -2.1684
  174MPD1    H1 2655   0.546   1.030  14.429  2.0646  0.6418  2.1836
  174MPD1    H2 2656   0.874   0.801  14.271  0.5259  0.0196  0.1476
  174MPD1    H3 2657   0.670   0.813  14.409  0.3920  0.8361  0.5005
  174MPD1     N 2658   0.647   1.257  14.348 -0.1479  0.4343  0.8742
  174MPD1    H5 2659   0.583   1.259  14.426  1.3552 -1.1976  2.1694
  174MPD1    N1 2660   0.953   0.976  14.090 -0.3856  0.8875 -0.3030
  174MPD1    H6 2661   0.935   1.037  14.010  0.6916  0.8977 -0.5388
  174MPD1    H7 2662   0.975   0.884  14.051  1.0470  0.4506  1.5346
  175MPD1     C 2663   4.165   2.618  17.137  0.4257  0.1030  0.0318
  175MPD1    C1 2664   4.045   2.680  17.147  0.0706 -0.0141  0.3284
  175MPD1    C2 2665   4.014   2.770  17.045 -0.5211 -0.6857 -0.9622
  175MPD1    C3 2666   4.078   2.764  16.921  0.0832 -0.4779  0.1140
  175MPD1    C4 2667   4.186   2.686  16.910  0.3963  0.5731 -0.2472
  175MPD1    C5 2668   4.235   2.617  17.016 -0.7624  0.1035  0.4876
  175MPD1     H 2669   3.923   2.828  17.044  0.1131  0.3075 -1.5133
  175MPD1    H1 2670   4.228   2.659  16.813  0.2651 -0.1826 -0.0859
  175MPD1    H2 2671   4.200   2.553  17.217  0.1721  0.3187  0.3196
  175MPD1    H3 2672   4.319   2.550  17.001 -1.8065 -0.2937 -3.5780
  175MPD1     N 2673   4.037   2.834  16.806 -0.8436  0.3974 -0.3696
  175MPD1    H5 2674   4.095   2.818  16.724  0.8338  1.5681  0.6068
  175MPD1    N1 2675   3.991   2.700  17.271 -0.2146  1.2270 -0.0891
  175MPD1    H6 2676   3.998   2.617  17.329 -0.0850  0.2946 -1.4202
  175MPD1    H7 2677   3.891   2.716  17.261 -0.3690  0.0121 -0.5073
  176MPD1     C 2678   1.578   4.475  17.123 -0.4245  0.1394 -0.0349
  176MPD1    C1 2679   1.578   4.608  17.075 -0.4842  0.3041  0.4920
  176MPD1    C2 2680   1.574   4.641  16.945 -0.1921 -0.1648  0.5856
  176MPD1    C3 2681   1.589   4.544  16.846 -0.9607 -0.3313 -0.4598
  176MPD1    C4 2682   1.593   4.413  16.889  0.3565  0.8075  0.2664
  176MPD1    C5 2683   1.584   4.375  17.018 -0.2409 -0.3077  0.2383
  176MPD1     H 2684   1.569   0.020  16.911  0.5894 -0.2173  0.3027
  176MPD1    H1 2685   1.609   4.334  16.817 -2.2792 -0.1486  0.7467
  176MPD1    H2 2686   1.562   4.434  17.222 -2.1086  1.1169  0.0900
  176MPD1    H3 2687   1.585   4.271  17.046  0.4207 -0.6044 -0.8818
  176MPD1     N 2688   1.582   4.580  16.709 -0.1151  0.1673 -0.8409
  176MPD1    H5 2689   1.548   4.675  16.702 -0.2540  0.1781 -0.0375
  176MPD1    N1 2690   1.548   4.709  17.163 -0.6686 -0.0660 -0.5888
  176MPD1    H6 2691   1.570   4.692  17.261  0.0810  1.2673 -0.5332
  176MPD1    H7 2692   1.598   0.071  17.137  1.4405 -0.9344  0.6490
  177MPD1     C 2693   0.397   3.834  10.611 -0.7184 -1.0437 -0.0365
  177MPD1    C1 2694   0.271   3.887  10.602 -0.3627 -0.5199 -0.2139
  177MPD1    C2 2695   0.229   3.929  10.481  0.1628  0.1672 -0.2232
  177MPD1    C3 2696   0.298   3.908  10.363 -0.0122  0.6939 -0.1495
  177MPD1    C4 2697   0.425   3.858  10.380 -0.2313  0.0204 -0.1991
  177MPD1    C5 2698   0.467   3.818  10.501  0.2482  0.6486 -0.1791
  177MPD1     H 2699   0.128   3.967  10.470 -0.2759 -0.7120  0.7884
  177MPD1    H1 2700   0.492   3.840  10.297 -0.0827  2.9181 -0.6828
  177MPD1    H2 2701   0.445   3.794  10.699  0.7958 -1.3032 -0.9748
  177MPD1    H3 2702   0.564   3.768  10.497 -0.0534  0.0615 -0.0709
  177MPD1     N 2703   0.240   3.940  10.241  0.3724  0.2634  0.0781
  177MPD1    H5 2704   0.150   3.985  10.253 -0.2017 -0.2797 -2.2897
  177MPD1    N1 2705   0.199   3.919  10.717 -0.5029 -0.0313  0.2099
  177MPD1    H6 2706   0.219   3.864  10.800 -1.1188  0.3214  0.5954
  177MPD1    H7 2707   0.098   3.929  10.712 -0.4948 -0.6268 -1.0155
  178MPD1     C 2708   1.416   1.413  17.491  0.0297  0.2060 -0.0943
  178MPD1    C1 2709   1.393   1.375  17.365  0.1008 -0.3094 -0.3566
  178MPD1    C2 2710   1.471   1.273  17.302 -0.4426  0.3141  0.7308
  178MPD1    C3 2711   1.576   1.225  17.371  0.7079  0.1010 -0.2786
  178MPD1    C4 2712   1.605   1.274  17.491 -0.7975  0.0036  0.1396
  178MPD1    C5 2713   1.525   1.367  17.548  0.0957  0.1475 -0.3448
  178MPD1     H 2714   1.453   1.238  17.201  0.7244  3.1497 -0.4419
  178MPD1    H1 2715   1.684   1.227  17.549 -0.5380  1.0921  0.6732
  178MPD1    H2 2716   1.351   1.477  17.550 -0.1110 -0.2910  0.2932
  178MPD1    H3 2717   1.553   1.397  17.649 -2.3830 -0.0653  0.4050
  178MPD1     N 2718   1.664   1.114  17.325  0.1087  0.4544 -0.3899
  178MPD1    H5 2719   1.741   1.087  17.385 -0.1965 -1.1174 -0.7173
  178MPD1    N1 2720   1.276   1.415  17.299  0.2044 -0.1079  0.5398
  178MPD1    H6 2721   1.286   1.397  17.199  0.0802  0.7962  0.3610
  178MPD1    H7 2722   1.263   1.516  17.302  2.2256  0.1956 -0.6868
  179MPD1     C 2723   1.235   4.057  15.489 -0.4352  0.3725  1.1849
  179MPD1    C1 2724   1.277   3.958  15.571  0.4322  0.1727 -0.0257
  179MPD1    C2 2725   1.338   3.843  15.511 -0.2926 -0.7157  0.5428
  179MPD1    C3 2726   1.323   3.817  15.379  1.0576 -0.3340 -0.5540
  179MPD1    C4 2727   1.262   3.913  15.294 -0.5852 -0.4420  0.1822
  179MPD1    C5 2728   1.219   4.032  15.355  0.1675 -0.3486 -0.2874
  179MPD1     H 2729   1.378   3.771  15.582 -0.8102  1.6830  3.2584
  179MPD1    H1 2730   1.253   3.891  15.188 -0.9400 -1.1858  0.3626
  179MPD1    H2 2731   1.218   4.156  15.528 -1.3876  0.8683 -0.5136
  179MPD1    H3 2732   1.180   4.109  15.289 -1.2219 -0.4475  0.4386
  179MPD1     N 2733   1.385   3.699  15.321  0.7970 -0.2023 -0.1611
  179MPD1    H5 2734   1.383   3.693  15.219  3.6041 -0.0781 -0.2306
  179MPD1    N1 2735   1.301   3.985  15.709 -0.6878  0.0672 -0.0218
  179MPD1    H6 2736   1.230   4.051  15.741 -0.1400  0.6230  0.0430
  179MPD1    H7 2737   1.296   3.901  15.767  1.0869  1.4683  2.1133
  180MPD1     C 2738   1.838   3.898  14.691  0.1833  0.0213 -0.2921
  180MPD1    C1 2739   1.780   3.950  14.578 -0.7025 -0.3171 -0.6895
  180MPD1    C2 2740   1.721   4.072  14.570 -0.4944  0.2030 -0.1903
  180MPD1    C3 2741   1.723   4.149  14.682  0.1213  0.9604 -0.2270
  180MPD1    C4 2742   1.789   4.103  14.802  0.3087 -0.7874 -0.4757
  180MPD1    C5 2743   1.844   3.976  14.805 -0.6044 -0.4715  0.1157
  180MPD1     H 2744   1.679   4.108  14.477 -1.5081  1.0100  0.5727
  180MPD1    H1 2745   1.793   4.152  14.898 -3.5002 -1.1108 -0.1777
  180MPD1    H2 2746   1.880   3.799  14.686 -2.0122 -1.0099  1.8649
  180MPD1    H3 2747   1.895   3.942  14.895  0.0904 -1.1986 -0.5627
  180MPD1     N 2748   1.661   4.280  14.673 -0.1735  0.2762 -0.2811
  180MPD1    H5 2749   1.624   4.306  14.582  0.5428 -1.6599 -1.1256
  180MPD1    N1 2750   1.775   3.867  14.468  0.4819 -0.2085  0.1547
  180MPD1    H6 2751   1.858   3.812  14.450  0.7130 -0.0559  0.7553
  180MPD1    H7 2752   1.755   3.913  14.379  1.0015 -0.2116  0.0384
  181MPD1     C 2753   4.188   1.026  10.768 -0.8657 -0.9432 -0.2831
  181MPD1    C1 2754   4.271   1.136  10.748  0.1018 -0.2431  0.3709
  181MPD1    C2 2755   4.315   1.172  10.625 -0.6819 -0.2615 -0.3131
  181MPD1    C3 2756   4.300   1.091  10.513 -0.1200  0.4936 -0.9197
  181MPD1    C4 2757   4.230   0.971  10.529  0.3118  0.0163  0.3442
  181MPD1    C5 2758   4.174   0.944  10.655  0.7287  0.0108 -0.5507
  181MPD1     H 2759   4.371   1.264  10.622 -1.2776  0.0319 -1.9569
  181MPD1    H1 2760   4.210   0.904  10.446  0.1542 -0.2446  0.5902
  181MPD1    H2 2761   4.149   0.992  10.863  1.6176 -1.7220  0.4546
  181MPD1    H3 2762   4.120   0.851  10.664 -2.4767  2.0181  1.2474
  181MPD1     N 2763   4.354   1.122  10.387 -0.0594  0.2235 -0.2658
  181MPD1    H5 2764   4.336   1.056  10.312  2.0713 -0.1928 -0.3950
  181MPD1    N1 2765   4.280   1.230  10.852 -0.2995  0.3662  0.6110
  181MPD1    H6 2766   4.370   1.277  10.860  0.6540 -1.3633  0.1460
  181MPD1    H7 2767   4.266   1.192  10.946 -1.3202 -0.7679 -0.0073
  182MPD1     C 2768   4.305   1.952   1.681 -0.2762 -0.1304  1.0769
  182MPD1    C1 2769   4.343   1.906   1.553  0.8221 -0.3656  0.1511
  182MPD1    C2 2770   4.234   1.876   1.474 -0.3785  0.8120 -0.0714
  182MPD1    C3 2771   4.099   1.886   1.514  0.1821  0.3641 -0.0786
  182MPD1    C4 2772   4.073   1.938   1.633 -0.1524  0.6338 -0.5311
  182MPD1    C5 2773   4.175   1.977   1.715  0.1217 -0.4975 -0.4519
  182MPD1     H 2774   4.271   1.845   1.377 -1.9897  1.6631 -0.9529
  182MPD1    H1 2775   3.970   1.948   1.667  0.5581  0.9842  1.4791
  182MPD1    H2 2776   4.382   1.960   1.757  1.4608  0.2907 -0.7190
  182MPD1    H3 2777   4.147   2.005   1.816  1.1089 -0.3073 -0.2286
  182MPD1     N 2778   3.984   1.857   1.435 -0.6826  0.9155  0.0883
  182MPD1    H5 2779   3.892   1.881   1.468 -0.3147  2.9874 -0.3686
  182MPD1    N1 2780   4.477   1.868   1.517  0.5709  0.5169  0.3269
  182MPD1    H6 2781   4.543   1.942   1.541 -0.3975  0.7046  2.4601
  182MPD1    H7 2782   4.491   1.838   1.421  1.7930  2.9653 -0.2712
  183MPD1     C 2783   1.142   1.609   9.650 -0.2133  1.0538 -0.1849
  183MPD1    C1 2784   1.044   1.695   9.616 -0.1605  1.6197 -0.1007
  183MPD1    C2 2785   0.916   1.646   9.588  0.1673  0.1630 -0.1862
  183MPD1    C3 2786   0.891   1.511   9.601 -0.2460  0.4664 -0.5959
  183MPD1    C4 2787   0.992   1.430   9.640  0.1497  0.3099  0.8376
  183MPD1    C5 2788   1.119   1.475   9.660 -0.2967 -0.1189  0.6520
  183MPD1     H 2789   0.835   1.710   9.555 -0.8162 -1.8123 -1.5707
  183MPD1    H1 2790   0.977   1.323   9.634 -0.7467  0.5558 -1.5452
  183MPD1    H2 2791   1.237   1.653   9.678  0.5697 -1.1371  0.5955
  183MPD1    H3 2792   1.186   1.401   9.701 -1.3575 -0.6561  1.4094
  183MPD1     N 2793   0.763   1.461   9.571  0.4073  0.2412 -0.2076
  183MPD1    H5 2794   0.692   1.527   9.539  1.4702  1.0994 -0.7755
  183MPD1    N1 2795   1.074   1.826   9.578 -0.0050 -0.7299 -0.1606
  183MPD1    H6 2796   1.156   1.866   9.624 -1.1451  1.2427  0.1805
  183MPD1    H7 2797   1.000   1.890   9.608  0.0005 -1.0521  0.5528
  184MPD1     C 2798   4.674   3.539   9.052  0.1351 -0.4546 -0.3047
  184MPD1    C1 2799   4.539   3.555   9.076  0.1311 -0.6571 -0.6275
  184MPD1    C2 2800   4.490   3.643   9.173  0.0584 -0.2566  0.4164
  184MPD1    C3 2801   4.584   3.716   9.251 -0.1979  0.2470  0.9864
  184MPD1    C4 2802   4.720   3.686   9.230  0.3343 -0.5196 -0.3357
  184MPD1    C5 2803   0.040   3.606   9.126 -0.3483  0.5948  0.2848
  184MPD1     H 2804   4.387   3.655   9.205 -0.5185  0.3568 -1.7080
  184MPD1    H1 2805   0.079   3.742   9.273  1.3184 -0.8697 -1.7864
  184MPD1    H2 2806   4.711   3.486   8.966  0.4884 -1.0595  0.2223
  184MPD1    H3 2807   0.145   3.601   9.100 -0.2680 -1.3838  1.0175
  184MPD1     N 2808   4.553   3.805   9.354 -0.0056  0.7304 -0.3096
  184MPD1    H5 2809   4.624   3.813   9.426 -0.4202 -1.8048  0.3872
  184MPD1    N1 2810   4.461   3.489   8.977 -0.5575 -0.7255  0.4628
  184MPD1    H6 2811   4.368   3.473   9.014 -1.1538 -0.5338 -0.9611
  184MPD1    H7 2812   4.506   3.411   8.930  1.3273  1.5397 -1.4915
  185MPD1     C 2813   3.932   4.665   9.391 -0.7041 -0.0253  0.2650
  185MPD1    C1 2814   3.880   4.553   9.457 -0.2239  0.1190 -0.2514
  185MPD1    C2 2815   3.969   4.448   9.490 -0.8136 -0.2148  0.1435
  185MPD1    C3 2816   4.107   4.452   9.464 -0.0481 -0.1562  0.2267
  185MPD1    C4 2817   4.153   4.568   9.409 -0.5148 -1.4519  0.6765
  185MPD1    C5 2818   4.070   4.670   9.380 -0.6484  0.4038  0.4630
  185MPD1     H 2819   3.926   4.355   9.524 -0.9745 -0.9360 -2.0712
  185MPD1    H1 2820   4.258   4.594   9.395 -0.2531 -2.3729  0.9391
  185MPD1    H2 2821   3.859   0.013   9.354 -1.2866  1.4805  4.2511
  185MPD1    H3 2822   4.119   0.031   9.332 -0.5172 -0.9612 -1.7826
  185MPD1     N 2823   4.198   4.352   9.493 -0.0178  0.6247 -0.4749
  185MPD1    H5 2824   4.295   4.372   9.471  0.0337 -0.0095 -0.8229
  185MPD1    N1 2825   3.739   4.538   9.461  0.4602 -0.2940 -0.4887
  185MPD1    H6 2826   3.690   4.624   9.482  0.2652 -0.3032 -0.9267
  185MPD1    H7 2827   3.721   4.484   9.545  1.4093 -0.2229 -0.2309
  186MPD1     C 2828   2.429   3.954  15.321  0.5075  1.1471  0.8686
  186MPD1    C1 2829   2.340   3.869  15.382  0.1758 -0.2975  0.5465
  186MPD1    C2 2830   2.303   3.896  15.513 -0.0999  0.3415 -0.1988
  186MPD1    C3 2831   2.347   4.008  15.583  0.3975  0.3408 -0.6247
  186MPD1    C4 2832   2.435   4.090  15.515  0.1356 -0.1535  0.3048
  186MPD1    C5 2833   2.481   4.061  15.392 -0.2869  1.0766  0.4617
  186MPD1     H 2834   2.244   3.827  15.572  1.0480 -1.0733 -0.6967
  186MPD1    H1 2835   2.457   4.183  15.566 -1.3617  0.0355  0.5940
  186MPD1    H2 2836   2.453   3.944  15.215 -0.2283  1.4606  0.6752
  186MPD1    H3 2837   2.552   4.130  15.348  1.5491  0.0000  1.7397
  186MPD1     N 2838   2.322   4.028  15.720  0.4205 -0.4253 -0.0619
  186MPD1    H5 2839   2.371   4.103  15.767  0.5865  0.1580 -1.1673
  186MPD1    N1 2840   2.303   3.748  15.332 -0.0211 -0.1642  0.7016
  186MPD1    H6 2841   2.297   3.766  15.232  2.2364 -1.8663  0.2504
  186MPD1    H7 2842   2.220   3.711  15.377 -1.0635  2.4226  0.9024
  187MPD1     C 2843   2.018   0.989  16.728 -0.0789 -0.7889  0.3125
  187MPD1    C1 2844   1.920   0.921  16.657 -0.1915  1.0299 -0.3656
  187MPD1    C2 2845   1.788   0.926  16.699  0.4031 -0.5246  0.0469
  187MPD1    C3 2846   1.746   1.007  16.800  0.0500 -0.3466  0.0234
  187MPD1    C4 2847   1.839   1.090  16.859 -0.3615 -0.5527 -0.3398
  187MPD1    C5 2848   1.975   1.073  16.828  0.4822 -0.1302  0.6404
  187MPD1     H 2849   1.714   0.858  16.659  1.9367 -0.8936 -2.1340
  187MPD1    H1 2850   1.806   1.163  16.932  1.2158  0.5567 -0.7206
  187MPD1    H2 2851   2.123   0.965  16.718  1.0312  3.3413  1.8853
  187MPD1    H3 2852   2.054   1.130  16.876  1.9096 -1.7652  0.2274
  187MPD1     N 2853   1.615   1.014  16.842  0.4078  0.1497 -0.7503
  187MPD1    H5 2854   1.602   1.077  16.921  0.8502  1.6174 -1.8487
  187MPD1    N1 2855   1.975   0.839  16.555  0.3418 -0.2080 -0.5635
  187MPD1    H6 2856   1.914   0.800  16.484  2.4999 -0.8618 -2.0482
  187MPD1    H7 2857   2.068   0.868  16.526  0.3580 -1.7079 -2.0303
  188MPD1     C 2858   2.493   0.581   9.065  0.4947 -0.5354 -0.3104
  188MPD1    C1 2859   2.450   0.481   8.983 -0.4937 -0.0791  0.1780
  188MPD1    C2 2860   2.396   0.372   9.049 -0.0344  0.5579  0.1125
  188MPD1    C3 2861   2.360   0.374   9.186  0.5249  0.4795 -0.2327
  188MPD1    C4 2862   2.400   0.482   9.265 -0.3094 -0.1104 -0.4756
  188MPD1    C5 2863   2.460   0.586   9.201 -0.4523  0.0513 -0.3929
  188MPD1     H 2864   2.370   0.286   8.988  3.4538 -0.1641 -0.3590
  188MPD1    H1 2865   2.376   0.476   9.371  1.6974 -0.4909 -0.0364
  188MPD1    H2 2866   2.544   0.672   9.034  0.3413  0.0473  1.1734
  188MPD1    H3 2867   2.484   0.672   9.262 -0.0800 -1.3513  1.4243
  188MPD1     N 2868   2.283   0.281   9.255 -0.1860  0.5441  0.1022
  188MPD1    H5 2869   2.289   0.298   9.355  0.9168  0.6009  0.0301
  188MPD1    N1 2870   2.513   0.467   8.852  0.6002  0.2543 -0.2312
  188MPD1    H6 2871   2.525   0.546   8.789  2.1022  0.3273  0.1489
  188MPD1    H7 2872   2.476   0.398   8.787 -3.2859  1.2480  0.9233
  189MPD1     C 2873   2.535   2.490   0.468 -0.1036 -0.2223 -0.3394
  189MPD1    C1 2874   2.426   2.407   0.455 -0.4711  0.0286 -0.5064
  189MPD1    C2 2875   2.364   2.413   0.332 -0.0177  0.3681 -0.1455
  189MPD1    C3 2876   2.394   2.514   0.243 -0.5992 -0.9782  0.2813
  189MPD1    C4 2877   2.488   2.608   0.264  0.1009 -0.8351 -0.2220
  189MPD1    C5 2878   2.562   2.586   0.371  0.1635 -0.0458  0.4301
  189MPD1     H 2879   2.303   2.332   0.293 -1.3585  0.5632  1.5382
  189MPD1    H1 2880   2.523   2.687   0.199 -1.5378  1.5072  1.7074
  189MPD1    H2 2881   2.612   2.482   0.543 -0.4357 -0.8605 -0.0640
  189MPD1    H3 2882   2.642   2.658   0.385 -0.0423 -0.0015  1.4307
  189MPD1     N 2883   2.323   2.507   0.120 -0.2566 -0.4901  0.3107
  189MPD1    H5 2884   2.240   2.449   0.118 -1.5945  1.3964  0.0748
  189MPD1    N1 2885   2.406   2.307   0.549  0.5045 -0.4905  0.6608
  189MPD1    H6 2886   2.319   2.254   0.542 -0.1661  0.5563  1.0548
  189MPD1    H7 2887   2.411   2.351   0.640  1.1151 -0.7434  0.7467
  190MPD1     C 2888   1.479   0.388  15.415 -0.3163  0.1450  0.2059
  190MPD1    C1 2889   1.521   0.467  15.512  0.1141 -0.0730  0.5181
  190MPD1    C2 2890   1.662   0.476  15.520  0.5996 -0.4641  0.3877
  190MPD1    C3 2891   1.748   0.397  15.444 -0.5509 -0.3091 -0.8441
  190MPD1    C4 2892   1.697   0.319  15.347  0.4607 -0.1111 -0.5150
  190MPD1    C5 2893   1.558   0.308  15.341 -0.6560 -0.2996  0.4109
  190MPD1     H 2894   1.706   0.543  15.594  1.6076 -1.3307  0.5748
  190MPD1    H1 2895   1.748   0.257  15.274  1.1865  0.7778 -0.7603
  190MPD1    H2 2896   1.372   0.374  15.408 -0.2301 -0.8077  0.8443
  190MPD1    H3 2897   1.506   0.238  15.278 -1.8831  2.1187 -1.2697
  190MPD1     N 2898   1.892   0.403  15.475  0.2650  0.7504  0.1626
  190MPD1    H5 2899   1.920   0.464  15.551  0.8944  2.1143 -1.1850
  190MPD1    N1 2900   1.441   0.564  15.571 -0.5647  0.1765 -0.0801
  190MPD1    H6 2901   1.464   0.594  15.666 -1.6851  2.0763 -0.4035
  190MPD1    H7 2902   1.343   0.538  15.575 -0.2464 -1.0088 -0.0189
  191MPD1     C 2903   1.979   1.507  12.833  0.5020  0.4139  0.0494
  191MPD1    C1 2904   1.864   1.525  12.907 -0.1357  0.7775 -0.4922
  191MPD1    C2 2905   1.755   1.588  12.845 -0.6228  0.2957  0.2550
  191MPD1    C3 2906   1.761   1.622  12.712  0.0555 -0.0422 -1.2946
  191MPD1    C4 2907   1.882   1.620  12.646  0.1828  0.0192  0.5915
  191MPD1    C5 2908   1.988   1.561  12.708  0.4508 -0.9040 -0.3174
  191MPD1     H 2909   1.657   1.595  12.891 -1.5850  0.2979 -1.8225
  191MPD1    H1 2910   1.895   1.664  12.547  2.0927 -2.6033 -0.2935
  191MPD1    H2 2911   2.071   1.465  12.871 -0.1914  0.1539  1.4307
  191MPD1    H3 2912   2.081   1.562  12.653  1.3264 -0.5232  1.1767
  191MPD1     N 2913   1.643   1.668  12.647 -0.0717 -0.1993 -0.4837
  191MPD1    H5 2914   1.559   1.645  12.699  1.0496 -1.9679  0.5734
  191MPD1    N1 2915   1.846   1.464  13.029  0.6319 -0.3121 -0.2582
  191MPD1    H6 2916   1.769   1.509  13.078  0.2791 -1.5467  0.3138
  191MPD1    H7 2917   1.929   1.460  13.088  1.7014 -1.4550 -1.8488
  192MPD1     C 2918   0.850   1.701  12.942 -0.2109 -0.8528 -0.2832
  192MPD1    C1 2919   0.875   1.831  12.908 -0.5187 -0.0116  0.5339
  192MPD1    C2 2920   1.001   1.854  12.852  0.4070  0.2445  0.2350
  192MPD1    C3 2921   1.078   1.749  12.804  0.5483 -0.6001  0.4266
  192MPD1    C4 2922   1.048   1.617  12.838  0.4252  0.7128 -0.1284
  192MPD1    C5 2923   0.932   1.593  12.910  0.2861 -0.0443  0.8226
  192MPD1     H 2924   1.033   1.956  12.836  1.2989  0.3742  2.9767
  192MPD1    H1 2925   1.108   1.531  12.813  0.3590  0.9040 -0.9374
  192MPD1    H2 2926   0.758   1.673  12.991 -1.0784  0.8269 -0.9723
  192MPD1    H3 2927   0.905   1.493  12.941  1.1010 -0.3686  0.4696
  192MPD1     N 2928   1.190   1.775  12.728  0.8587  0.4574 -0.1480
  192MPD1    H5 2929   1.241   1.688  12.716 -1.1882 -0.6018 -1.0383
  192MPD1    N1 2930   0.784   1.932  12.960 -0.3372 -0.2679 -0.0631
  192MPD1    H6 2931   0.752   1.996  12.888  1.7990  0.0454 -0.7424
  192MPD1    H7 2932   0.691   1.896  12.981 -0.2153 -0.7804 -0.4097
  193MPD1     C 2933   0.423   2.453  15.952  0.1918  0.1606  0.1523
  193MPD1    C1 2934   0.514   2.396  16.036 -0.5167 -0.0582  0.2224
  193MPD1    C2 2935   0.609   2.477  16.095 -0.5046  0.4541  0.5147
  193MPD1    C3 2936   0.617   2.611  16.066  0.9069  0.6338  0.1627
  193MPD1    C4 2937   0.531   2.669  15.977  0.7132  0.4706  0.4883
  193MPD1    C5 2938   0.435   2.587  15.920  0.6151  0.5003  0.0080
  193MPD1     H 2939   0.669   2.419  16.164  0.8522  4.0998  2.3838
  193MPD1    H1 2940   0.526   2.776  15.962  0.4754  0.4401  0.3559
  193MPD1    H2 2941   0.339   2.401  15.907 -0.9403  1.3912  0.8530
  193MPD1    H3 2942   0.360   2.635  15.858  0.3500 -1.0189 -0.8534
  193MPD1     N 2943   0.704   2.699  16.130 -0.1127  0.0282  0.5012
  193MPD1    H5 2944   0.690   2.798  16.113 -0.0197 -0.3980 -2.0210
  193MPD1    N1 2945   0.489   2.269  16.091 -0.0276  0.1651  0.4621
  193MPD1    H6 2946   0.571   2.211  16.105  1.1685  1.8232  0.3055
  193MPD1    H7 2947   0.437   2.208  16.028 -0.7338  0.6821  0.5353
  194MPD1     C 2948   2.613   0.546  16.762 -0.3556 -0.6392  0.6900
  194MPD1    C1 2949   2.601   0.534  16.903 -0.3179  0.8607 -0.0517
  194MPD1    C2 2950   2.709   0.474  16.958  0.2460  0.2192 -0.3426
  194MPD1    C3 2951   2.823   0.436  16.893  0.4899  0.0125 -0.4219
  194MPD1    C4 2952   2.834   0.454  16.753 -0.0995  0.4980  0.6956
  194MPD1    C5 2953   2.725   0.512  16.691  0.5149  0.3224  0.1449
  194MPD1     H 2954   2.711   0.476  17.067  0.1417 -0.4844 -0.3278
  194MPD1    H1 2955   2.924   0.438  16.695 -0.3655  0.7585  0.2072
  194MPD1    H2 2956   2.541   0.605  16.707  1.3730  0.2447 -0.6374
  194MPD1    H3 2957   2.730   0.538  16.586  1.8128 -2.3372 -0.4531
  194MPD1     N 2958   2.933   0.383  16.972  0.5693  0.0623  0.4687
  194MPD1    H5 2959   2.923   0.375  17.072 -0.7191 -1.7987  0.1996
  194MPD1    N1 2960   2.499   0.594  16.978 -0.1782  0.5371 -0.4715
  194MPD1    H6 2961   2.403   0.593  16.944 -0.0832  0.9114 -0.7493
  194MPD1    H7 2962   2.483   0.547  17.067 -2.1697 -0.0844 -1.1579
  195MPD1     C 2963   0.721   4.115  17.468  0.6004  0.4441  0.6538
  195MPD1    C1 2964   0.843   4.171  17.435 -0.1124 -0.1421 -0.3764
  195MPD1    C2 2965   0.842   4.292  17.366  0.3145  0.4303 -0.3992
  195MPD1    C3 2966   0.720   4.348  17.321  0.1979 -0.0802 -0.1284
  195MPD1    C4 2967   0.600   4.289  17.363 -0.2510  0.1773  0.2941
  195MPD1    C5 2968   0.603   4.174  17.434  0.5405 -0.4730 -0.1412
  195MPD1     H 2969   0.937   4.342  17.353 -0.6003  2.1755 -0.3550
  195MPD1    H1 2970   0.504   4.339  17.356 -0.5547  0.0696  3.5501
  195MPD1    H2 2971   0.717   4.029  17.534  1.2909 -0.8054 -0.9496
  195MPD1    H3 2972   0.509   4.128  17.462 -0.0022 -0.0796 -1.3104
  195MPD1     N 2973   0.708   4.471  17.251  0.0904  0.4804  0.8664
  195MPD1    H5 2974   0.615   4.512  17.257  0.4796  1.3640  0.8308
  195MPD1    N1 2975   0.959   4.126  17.497 -0.1097  0.2067  0.2191
  195MPD1    H6 2976   0.949   4.029  17.526  1.6964 -0.7347 -2.3249
  195MPD1    H7 2977   1.046   4.135  17.445  0.2029 -0.3194  0.6522
  196MPD1     C 2978   4.427   1.674  17.254 -0.4175  0.1166  0.1845
  196MPD1    C1 2979   4.371   1.563  17.313  1.3197 -0.1211  0.2538
  196MPD1    C2 2980   4.375   1.541  17.444 -0.0087  0.0639 -0.2400
  196MPD1    C3 2981   4.426   1.639  17.530 -0.1964 -0.1700 -0.1281
  196MPD1    C4 2982   4.486   1.752  17.475 -0.2765  0.1555 -0.0106
  196MPD1    C5 2983   4.484   1.769  17.338  0.0053  0.2078  0.4925
  196MPD1     H 2984   4.326   1.456  17.491  1.4801 -0.8619 -0.3514
  196MPD1    H1 2985   4.533   1.824  17.542  3.1651  1.1624 -3.4809
  196MPD1    H2 2986   4.431   1.692  17.147  1.4773  0.1125  0.2569
  196MPD1    H3 2987   4.530   1.860  17.302  0.1577 -0.6340 -1.4123
  196MPD1     N 2988   4.406   1.633  17.668  0.1067  0.2126 -0.2290
  196MPD1    H5 2989   4.436   1.717   0.022 -0.9107  0.2798  0.3011
  196MPD1    N1 2990   4.330   1.462  17.224  0.1865  0.1458 -0.2883
  196MPD1    H6 2991   4.250   1.418  17.268 -0.7524  2.5712  0.4022
  196MPD1    H7 2992   4.298   1.493  17.133 -0.5701 -3.9391 -1.4241
  197MPD1     C 2993   4.492   3.477   0.131 -0.4270 -0.1944 -0.3455
  197MPD1    C1 2994   4.489   3.364   0.059 -0.0995 -0.3478 -0.1639
  197MPD1    C2 2995   4.428   3.376  17.628  0.6363 -0.8986 -0.0713
  197MPD1    C3 2996   4.362   3.494  17.588 -0.2517 -0.4099 -0.0459
  197MPD1    C4 2997   4.352   3.602  17.671 -0.2680 -0.1546  0.0706
  197MPD1    C5 2998   4.415   3.591   0.104 -0.8505 -0.7006  0.1657
  197MPD1     H 2999   4.448   3.299  17.554  0.3909 -1.0959  0.0663
  197MPD1    H1 3000   4.300   3.692  17.642 -0.0649  0.2554  0.9706
  197MPD1    H2 3001   4.532   3.477   0.232 -0.2109  0.7433 -0.4340
  197MPD1    H3 3002   4.411   3.668   0.180 -0.1737 -2.7426  2.2355
  197MPD1     N 3003   4.320   3.516  17.457 -0.1522  0.0509  0.1533
  197MPD1    H5 3004   4.296   3.611  17.430  0.4946  0.8217  2.2509
  197MPD1    N1 3005   4.591   3.266   0.079 -0.2848 -0.2291  0.1538
  197MPD1    H6 3006   4.580   3.186   0.018  1.3822 -0.5601  0.2800
  197MPD1    H7 3007   4.611   3.242   0.176  1.1668 -1.1300 -0.3662
  198MPD1     C 3008   0.905   1.706  15.456  0.3714  0.8097  0.0466
  198MPD1    C1 3009   0.942   1.750  15.576 -0.4554 -0.3450  0.0132
  198MPD1    C2 3010   1.079   1.771  15.601 -1.0360  0.2678  0.2974
  198MPD1    C3 3011   1.177   1.764  15.503  0.0180  0.1149 -0.2383
  198MPD1    C4 3012   1.131   1.748  15.372  0.4414 -0.9353 -0.0537
  198MPD1    C5 3013   1.000   1.720  15.357 -0.2364 -0.0972 -0.2329
  198MPD1     H 3014   1.110   1.805  15.699 -3.5909 -2.7772  2.1627
  198MPD1    H1 3015   1.194   1.751  15.284  1.1212 -0.6268  0.4424
  198MPD1    H2 3016   0.805   1.673  15.432  0.6063  0.5666 -0.5850
  198MPD1    H3 3017   0.975   1.706  15.252  2.7853 -1.5752 -0.7665
  198MPD1     N 3018   1.312   1.799  15.531 -0.5490 -0.0079 -0.2945
  198MPD1    H5 3019   1.338   1.804  15.629 -2.7727 -0.0644  0.2845
  198MPD1    N1 3020   0.850   1.741  15.682  0.5312 -0.3650 -0.3257
  198MPD1    H6 3021   0.760   1.777  15.651  0.3974  0.3975  0.9697
  198MPD1    H7 3022   0.874   1.794  15.765 -2.0089  0.4089 -0.0969
  199MPD1     C 3023   3.254   1.895  10.589  0.2135 -0.1129  0.2315
  199MPD1    C1 3024   3.215   1.765  10.566  0.0334  0.8172  0.1908
  199MPD1    C2 3025   3.263   1.694  10.457 -0.1847 -0.0976 -0.0847
  199MPD1    C3 3026   3.355   1.752  10.375  0.1192 -0.3465  0.3273
  199MPD1    C4 3027   3.387   1.883  10.396  0.4407  0.8436 -0.1021
  199MPD1    C5 3028   3.335   1.958  10.502  0.1132 -0.3290  0.0265
  199MPD1     H 3029   3.228   1.593  10.437 -2.8480  1.1809 -1.8565
  199MPD1    H1 3030   3.449   1.938  10.326  0.7228  1.8889  0.9718
  199MPD1    H2 3031   3.212   1.950  10.673 -0.3675  1.5786 -1.1692
  199MPD1    H3 3032   3.356   2.062  10.523  0.7522 -1.0099  2.7508
  199MPD1     N 3033   3.411   1.688  10.261  0.1935  0.1955  0.3885
  199MPD1    H5 3034   3.468   1.746  10.200 -2.1486 -0.2804 -2.1854
  199MPD1    N1 3035   3.120   1.709  10.654  0.2490  0.1326  0.1587
  199MPD1    H6 3036   3.123   1.746  10.749  0.8105 -0.0005  0.1964
  199MPD1    H7 3037   3.142   1.611  10.668 -2.3998 -0.1628  2.3099
  200MPD1     C 3038   2.088   2.093  14.760  0.6813  0.3525 -0.1235
  200MPD1    C1 3039   2.213   2.073  14.819  0.1343 -0.7081  0.0731
  200MPD1    C2 3040   2.328   2.101  14.746  1.2532 -0.2170 -0.1661
  200MPD1    C3 3041   2.315   2.150  14.618  0.3484  0.4113 -0.4936
  200MPD1    C4 3042   2.192   2.150  14.557  0.5657 -0.0643 -0.0353
  200MPD1    C5 3043   2.078   2.120  14.625  0.2175 -0.0167  0.1291
  200MPD1     H 3044   2.421   2.084  14.800  1.6979  0.7991 -0.6154
  200MPD1    H1 3045   2.180   2.194  14.458  1.5799  1.0356  0.3292
  200MPD1    H2 3046   2.000   2.082  14.822  0.3541  0.4981 -0.5583
  200MPD1    H3 3047   1.982   2.126  14.574  0.5689  1.5441 -0.3544
  200MPD1     N 3048   2.424   2.185  14.544  0.1542  0.1040 -1.1859
  200MPD1    H5 3049   2.414   2.207  14.445  2.9137  0.5334 -1.3501
  200MPD1    N1 3050   2.224   2.045  14.953  0.3888 -0.2614 -0.1592
  200MPD1    H6 3051   2.307   1.994  14.982  1.3889  0.0321 -2.5130
  200MPD1    H7 3052   2.138   2.007  14.991  0.4619  0.4811  0.7649
  201MPD1     C 3053   4.672   1.330  12.189 -0.3342 -0.2395 -1.0369
  201MPD1    C1 3054   4.640   1.196  12.183 -0.0735  0.4595 -0.3563
  201MPD1    C2 3055   4.669   1.110  12.284 -0.1941  0.2833 -0.6312
  201MPD1    C3 3056   0.027   1.158  12.394 -0.2081 -0.7019  0.4904
  201MPD1    C4 3057   0.064   1.293  12.395  0.0448  0.1034 -0.4024
  201MPD1    C5 3058   0.015   1.374  12.298  0.3711 -0.3543 -0.5684
  201MPD1     H 3059   4.648   1.003  12.279 -0.2882  0.4584 -3.5551
  201MPD1    H1 3060   0.109   1.353  12.474  0.8206 -0.1264 -0.6706
  201MPD1    H2 3061   4.641   1.390  12.104 -1.3317  0.1384 -0.4096
  201MPD1    H3 3062   0.047   1.477  12.300 -1.0667  0.1180 -1.6113
  201MPD1     N 3063   0.068   1.065  12.489 -0.0371 -0.2599  0.2788
  201MPD1    H5 3064   0.036   0.970  12.472 -2.3800  1.0793 -2.8792
  201MPD1    N1 3065   4.580   1.146  12.066  0.1701 -0.1415  0.1736
  201MPD1    H6 3066   4.549   1.220  12.003  1.5994  1.0232  0.8419
  201MPD1    H7 3067   4.505   1.081  12.088  0.7675 -1.8596 -2.7729
  202MPD1     C 3068   0.669   0.233   8.893  0.1458 -0.2444 -0.4729
  202MPD1    C1 3069   0.636   0.344   8.966 -0.0538 -0.7382  0.6542
  202MPD1    C2 3070   0.648   0.343   9.105 -0.4274 -0.0870 -0.6866
  202MPD1    C3 3071   0.706   0.231   9.169 -0.4256 -0.1189  0.0949
  202MPD1    C4 3072   0.756   0.128   9.094  0.2363 -0.6726 -0.4331
  202MPD1    C5 3073   0.729   0.131   8.958  0.1212 -0.4638 -0.6858
  202MPD1     H 3074   0.627   0.429   9.168  0.1288 -1.0676  0.8380
  202MPD1    H1 3075   0.794   0.031   9.124 -2.0459 -1.0806  1.1171
  202MPD1    H2 3076   0.644   0.221   8.788 -1.4552 -2.1519  0.1119
  202MPD1    H3 3077   0.761   0.043   8.902  2.6392 -0.0015 -0.0024
  202MPD1     N 3078   0.710   0.225   9.309 -0.5183 -0.1844 -0.2199
  202MPD1    H5 3079   0.694   0.312   9.359 -3.2454  0.4927 -2.2627
  202MPD1    N1 3080   0.540   0.433   8.910  0.0353  0.2807 -0.2149
  202MPD1    H6 3081   0.546   0.441   8.809 -0.4245 -0.8554 -0.3378
  202MPD1    H7 3082   0.566   0.521   8.954  1.9480 -0.4405  0.0744
  203MPD1     C 3083   3.214   1.677  11.484 -1.4117 -0.4886  0.1246
  203MPD1    C1 3084   3.353   1.676  11.477  0.2274 -0.0257 -0.4838
  203MPD1    C2 3085   3.418   1.583  11.550 -0.1449 -0.8350 -0.1337
  203MPD1    C3 3086   3.363   1.483  11.626 -0.1196 -0.3432  0.4993
  203MPD1    C4 3087   3.222   1.483  11.631  0.3617  0.8720  0.4697
  203MPD1    C5 3088   3.150   1.580  11.563  0.0318  0.0246 -0.6213
  203MPD1     H 3089   3.527   1.582  11.542 -0.1407  0.2062 -0.3074
  203MPD1    H1 3090   3.170   1.407  11.689  0.3397 -0.0301 -0.7060
  203MPD1    H2 3091   3.150   1.750  11.435 -1.4845  0.1072  1.0988
  203MPD1    H3 3092   3.042   1.581  11.560  0.0012 -0.1007  0.4199
  203MPD1     N 3093   3.431   1.379  11.691 -0.9333  0.1157 -0.4938
  203MPD1    H5 3094   3.531   1.381  11.674 -0.7954 -2.4071 -0.0664
  203MPD1    N1 3095   3.421   1.790  11.425 -0.2523  0.3809 -0.7585
  203MPD1    H6 3096   3.517   1.774  11.394  0.8308  0.9735  2.2748
  203MPD1    H7 3097   3.368   1.815  11.342 -0.0149  0.8955 -0.7564
  204MPD1     C 3098   3.526   3.153  16.996  0.8039  0.0105 -0.7522
  204MPD1    C1 3099   3.409   3.079  17.000 -0.2967  0.0560 -0.5315
  204MPD1    C2 3100   3.373   3.024  16.884  0.1452  0.3600 -0.0801
  204MPD1    C3 3101   3.432   3.053  16.762  0.2640 -0.1038  0.7864
  204MPD1    C4 3102   3.545   3.129  16.762  0.0989 -0.1104 -0.3195
  204MPD1    C5 3103   3.590   3.188  16.881  0.2430  0.0002 -0.6509
  204MPD1     H 3104   3.288   2.956  16.885 -0.3503  1.0057  0.7991
  204MPD1    H1 3105   3.605   3.160  16.677 -0.2298 -0.7756 -0.7893
  204MPD1    H2 3106   3.573   3.202  17.081  0.9549 -2.3547  0.5242
  204MPD1    H3 3107   3.687   3.235  16.874  0.9561 -1.3247  0.3411
  204MPD1     N 3108   3.383   2.989  16.645  0.1394  0.3236 -0.8204
  204MPD1    H5 3109   3.298   2.933  16.648  0.2488  0.1827 -0.1920
  204MPD1    N1 3110   3.361   3.035  17.126  0.4832  0.4031 -0.7307
  204MPD1    H6 3111   3.358   3.112  17.193  1.0829  0.3538 -0.6441
  204MPD1    H7 3112   3.267   2.997  17.118  0.0608  1.0484  1.1783
  205MPD1     C 3113   3.852   1.623  16.546  0.0245  0.3895  0.4161
  205MPD1    C1 3114   3.795   1.551  16.651 -0.5430  0.7018  0.5054
  205MPD1    C2 3115   3.692   1.614  16.714  0.0912 -0.3347 -0.8030
  205MPD1    C3 3116   3.639   1.736  16.670  0.2200 -0.9021 -0.0299
  205MPD1    C4 3117   3.682   1.789  16.552  0.8568  0.6745  0.7916
  205MPD1    C5 3118   3.790   1.733  16.496  0.2580  0.6887 -0.0204
  205MPD1     H 3119   3.659   1.573  16.808 -0.9527  3.1163  0.3304
  205MPD1    H1 3120   3.633   1.874  16.505  0.0754  0.1470  0.6509
  205MPD1    H2 3121   3.945   1.591  16.502 -0.3307  0.4801 -0.4021
  205MPD1    H3 3122   3.831   1.784  16.409  3.5820  2.4277  2.5637
  205MPD1     N 3123   3.538   1.808  16.734  0.0669 -0.1677 -0.4025
  205MPD1    H5 3124   3.509   1.893  16.688 -1.3577  0.3219  1.4026
  205MPD1    N1 3125   3.861   1.452  16.728  0.3472  0.0401  0.1814
  205MPD1    H6 3126   3.923   1.391  16.675  1.0866  0.4419  0.5982
  205MPD1    H7 3127   3.791   1.399  16.780 -1.3301  0.8778 -1.1945
  206MPD1     C 3128   3.867   4.717  15.576  0.0295  0.0705  0.3980
  206MPD1    C1 3129   3.834   4.604  15.651 -0.2849  0.3502  0.0940
  206MPD1    C2 3130   3.755   4.510  15.584  0.2671 -0.1412  0.3721
  206MPD1    C3 3131   3.719   4.510  15.456 -0.1196 -0.9054 -0.9103
  206MPD1    C4 3132   3.743   4.630  15.395 -0.3335  0.4335  0.3953
  206MPD1    C5 3133   3.812   0.007  15.452 -0.7473 -0.3465  0.3006
  206MPD1     H 3134   3.732   4.420  15.640  0.6988 -0.2129  0.4334
  206MPD1    H1 3135   3.696   4.650  15.300  0.5302 -2.8009 -0.7027
  206MPD1    H2 3136   3.934   0.066  15.621  0.5728 -0.2578  0.1212
  206MPD1    H3 3137   3.816   0.104  15.403 -1.2543 -0.5155 -0.0765
  206MPD1     N 3138   3.641   4.414  15.394 -0.6373 -0.2967 -0.6595
  206MPD1    H5 3139   3.626   4.423  15.294  2.1577  1.5305 -0.9192
  206MPD1    N1 3140   3.842   4.609  15.792  0.2927  0.2719 -0.0321
  206MPD1    H6 3141   3.923   4.658  15.828  0.3793  0.4318 -0.4494
  206MPD1    H7 3142   3.771   4.655  15.848  0.4196 -4.2930  3.8832
  207MPD1     C 3143   0.449   1.713   9.744 -0.3558 -0.5347  0.1221
  207MPD1    C1 3144   0.471   1.592   9.811 -0.5433  0.9104  0.0424
  207MPD1    C2 3145   0.598   1.571   9.872  0.5995  0.0298  0.8714
  207MPD1    C3 3146   0.707   1.661   9.860 -0.0989 -0.4578 -0.4313
  207MPD1    C4 3147   0.677   1.786   9.802 -0.7679 -0.1245  0.0302
  207MPD1    C5 3148   0.553   1.802   9.743 -0.1607 -0.3790 -0.2031
  207MPD1     H 3149   0.612   1.478   9.926  0.2676  0.0649  1.0177
  207MPD1    H1 3150   0.756   1.860   9.792 -0.8600 -0.3865 -2.5265
  207MPD1    H2 3151   0.353   1.731   9.697 -0.9511  3.3561  2.8322
  207MPD1    H3 3152   0.528   1.899   9.700  0.2276  0.2049  0.8831
  207MPD1     N 3153   0.838   1.640   9.911  0.1195  0.1074 -0.4757
  207MPD1    H5 3154   0.900   1.720   9.907  0.8469 -0.4846 -1.0742
  207MPD1    N1 3155   0.363   1.502   9.823 -0.2065 -0.1135  0.3006
  207MPD1    H6 3156   0.392   1.406   9.841 -3.3003 -0.8706  1.3606
  207MPD1    H7 3157   0.303   1.506   9.741 -0.6732 -2.6437  0.5016
  208MPD1     C 3158   3.694   1.083  17.187  0.1159 -0.2221 -0.4860
  208MPD1    C1 3159   3.739   1.215  17.188 -1.2042  0.6092  0.3105
  208MPD1    C2 3160   3.766   1.282  17.305  0.2492  0.2413  0.0657
  208MPD1    C3 3161   3.749   1.226  17.433  0.5173  0.3187  0.5788
  208MPD1    C4 3162   3.709   1.090  17.434  0.2027 -0.1414  0.1743
  208MPD1    C5 3163   3.680   1.025  17.309 -0.4930  0.2106 -0.3557
  208MPD1     H 3164   3.804   1.384  17.304  1.3773 -0.1702  0.8199
  208MPD1    H1 3165   3.679   1.038  17.524 -0.6235 -0.5238 -0.3216
  208MPD1    H2 3166   3.663   1.032  17.097 -1.0017  0.7713 -0.6669
  208MPD1    H3 3167   3.643   0.923  17.308  0.4100 -0.1698  2.7073
  208MPD1     N 3168   3.757   1.301  17.546 -0.8080  0.4265  0.6749
  208MPD1    H5 3169   3.777   1.399  17.525  1.4167 -0.0290  0.6484
  208MPD1    N1 3170   3.748   1.280  17.068  0.1306  0.3037  1.0424
  208MPD1    H6 3171   3.713   1.222  16.991  0.3876  2.1626 -0.4670
  208MPD1    H7 3172   3.703   1.371  17.065 -0.0808  0.0532 -3.9691
  209MPD1     C 3173   1.506   1.350  11.577 -0.4856  0.1005 -0.2437
  209MPD1    C1 3174   1.636   1.388  11.549  0.0162  0.0575 -0.1129
  209MPD1    C2 3175   1.689   1.336  11.433 -0.1457 -0.5907 -0.7231
  209MPD1    C3 3176   1.613   1.270  11.335  1.0322  0.3089 -0.0810
  209MPD1    C4 3177   1.488   1.228  11.372 -0.2361  0.4164  0.0257
  209MPD1    C5 3178   1.435   1.273  11.490 -0.4548  0.5720  0.6029
  209MPD1     H 3179   1.794   1.349  11.407 -0.7861  2.0679 -1.9320
  209MPD1    H1 3180   1.423   1.163  11.315 -2.3178  1.1430  1.5785
  209MPD1    H2 3181   1.453   1.384  11.665 -1.7866  1.0550 -1.3875
  209MPD1    H3 3182   1.341   1.228  11.521 -0.8741  1.0032 -0.0399
  209MPD1     N 3183   1.666   1.252  11.204  0.0215 -0.0988 -0.4772
  209MPD1    H5 3184   1.755   1.296  11.183 -0.1046 -0.5743 -1.9967
  209MPD1    N1 3185   1.721   1.447  11.643 -0.2316 -0.0305  0.1503
  209MPD1    H6 3186   1.669   1.498  11.714 -2.1702 -2.8255  0.7387
  209MPD1    H7 3187   1.791   1.507  11.600  0.6396  0.6793  2.5930
  210MPD1     C 3188   2.303   1.666  10.613 -0.4106  0.2192 -0.1019
  210MPD1    C1 3189   2.248   1.680  10.744  0.2842  0.0827 -0.0483
  210MPD1    C2 3190   2.162   1.577  10.779 -0.0512 -0.6112  0.1387
  210MPD1    C3 3191   2.119   1.480  10.688  0.0892  0.4328 -0.3717
  210MPD1    C4 3192   2.182   1.473  10.564  0.0913  0.5084  0.2505
  210MPD1    C5 3193   2.272   1.571  10.524 -0.2308 -0.4861  0.2495
  210MPD1     H 3194   2.129   1.575  10.883 -1.4787 -1.9655 -0.3501
  210MPD1    H1 3195   2.159   1.395  10.493 -1.7183 -0.1205  1.5230
  210MPD1    H2 3196   2.383   1.735  10.589  1.4056 -1.4643  1.1199
  210MPD1    H3 3197   2.306   1.575  10.421  2.5152 -0.8730  1.1285
  210MPD1     N 3198   2.023   1.370  10.718 -0.8889 -0.2651 -0.2066
  210MPD1    H5 3199   2.003   1.303  10.645 -1.8986 -0.8898  0.6552
  210MPD1    N1 3200   2.294   1.778  10.829  0.1959  0.3418 -0.4393
  210MPD1    H6 3201   2.318   1.861  10.775 -0.0329  0.6513 -0.0692
  210MPD1    H7 3202   2.219   1.807  10.891 -0.1284 -0.3174 -0.5272
  211MPD1     C 3203   3.832   1.040  16.553  0.0218 -0.5795  0.3918
  211MPD1    C1 3204   3.869   1.149  16.479  0.0251  0.3180  0.0214
  211MPD1    C2 3205   3.785   1.253  16.462  0.5639  0.9043  0.4586
  211MPD1    C3 3206   3.652   1.247  16.507  0.3230 -0.4386  0.2789
  211MPD1    C4 3207   3.612   1.136  16.573  0.4241 -0.5092 -0.1973
  211MPD1    C5 3208   3.709   1.038  16.604  0.0390 -0.5109  0.0974
  211MPD1     H 3209   3.826   1.339  16.409 -0.6808  1.7223  0.8179
  211MPD1    H1 3210   3.506   1.125  16.589  0.6847 -3.5165 -0.5865
  211MPD1    H2 3211   3.907   0.969  16.584  0.0755 -0.3375  0.8264
  211MPD1    H3 3212   3.688   0.956  16.672  0.4350 -2.1463 -1.7429
  211MPD1     N 3213   3.568   1.360  16.498  0.3177  0.0637  0.2370
  211MPD1    H5 3214   3.592   1.430  16.429  0.2555 -0.3760 -0.2297
  211MPD1    N1 3215   4.003   1.167  16.453  0.1610 -0.3604  0.0269
  211MPD1    H6 3216   4.030   1.219  16.370  0.2342 -1.6539 -0.7539
  211MPD1    H7 3217   4.051   1.078  16.447  1.2944  0.2557 -0.0690
  212MPD1     C 3218   3.322   4.546  16.239 -0.0428 -0.0809 -0.2566
  212MPD1    C1 3219   3.190   4.583  16.272 -0.2631 -0.0224  0.0522
  212MPD1    C2 3220   3.118   4.498  16.356 -0.1857  0.0517 -0.5148
  212MPD1    C3 3221   3.180   4.397  16.424  0.2470  0.0849  0.8301
  212MPD1    C4 3222   3.315   4.360  16.400  0.1531 -0.1154  0.6377
  212MPD1    C5 3223   3.380   4.434  16.302 -0.3143  0.6061 -0.2972
  212MPD1     H 3224   3.014   4.527  16.359 -0.1525  0.2832 -1.7812
  212MPD1    H1 3225   3.360   4.274  16.448 -0.1166 -0.1008  0.9166
  212MPD1    H2 3226   3.383   4.598  16.165 -0.6680  1.4484  0.3028
  212MPD1    H3 3227   3.484   4.413  16.280 -0.7291 -0.3426 -1.3885
  212MPD1     N 3228   3.110   4.322  16.512 -0.3499 -0.1630  0.2792
  212MPD1    H5 3229   3.152   4.236  16.545 -1.5311 -1.9857 -3.0625
  212MPD1    N1 3230   3.118   4.683  16.200  0.5668  0.3031  0.3411
  212MPD1    H6 3231   3.060   0.002  16.273 -1.3337  0.4468 -1.2329
  212MPD1    H7 3232   3.173   0.037  16.164 -2.1048  1.4115 -1.3920
  213MPD1     C 3233   1.452   1.649  15.958  1.2855 -0.2778  0.0707
  213MPD1    C1 3234   1.338   1.600  15.903 -1.0316 -0.5254 -0.6659
  213MPD1    C2 3235   1.364   1.548  15.779  0.0110  0.5895  0.4397
  213MPD1    C3 3236   1.487   1.518  15.727 -0.4440  0.4394 -0.6685
  213MPD1    C4 3237   1.599   1.560  15.795  0.2290  0.2284 -0.0980
  213MPD1    C5 3238   1.583   1.637  15.907  0.2007  0.2212 -0.0396
  213MPD1     H 3239   1.275   1.519  15.725 -0.4491  0.5182  1.2493
  213MPD1    H1 3240   1.704   1.544  15.772  0.1000 -1.1760  0.2819
  213MPD1    H2 3241   1.447   1.681  16.061 -0.1085  0.0538 -0.0950
  213MPD1    H3 3242   1.678   1.656  15.956  1.5518 -1.7857 -1.8569
  213MPD1     N 3243   1.488   1.437  15.613 -0.4989  0.3467  0.1623
  213MPD1    H5 3244   1.402   1.403  15.571 -0.7967  0.3054  0.8133
  213MPD1    N1 3245   1.211   1.652  15.946 -0.3271  0.1470  1.1233
  213MPD1    H6 3246   1.127   1.614  15.903  0.1645 -0.4435  0.6815
  213MPD1    H7 3247   1.205   1.640  16.047  0.2235 -0.2601  1.1065
  214MPD1     C 3248   1.947   0.594  15.105 -0.2476 -0.3549 -0.4479
  214MPD1    C1 3249   1.995   0.721  15.133 -0.3772 -0.1327 -0.1312
  214MPD1    C2 3250   1.905   0.815  15.181 -0.3763  0.2600 -0.1541
  214MPD1    C3 3251   1.784   0.777  15.232  0.3277  0.0297 -0.1553
  214MPD1    C4 3252   1.737   0.643  15.213 -0.1230 -0.3541 -0.3916
  214MPD1    C5 3253   1.820   0.555  15.145  0.3473 -0.0870  0.6463
  214MPD1     H 3254   1.939   0.917  15.198 -0.9926  0.3804  0.3562
  214MPD1    H1 3255   1.641   0.606  15.247  0.1424 -0.9121 -0.2450
  214MPD1    H2 3256   2.011   0.521  15.057 -1.4542 -1.5204 -0.2914
  214MPD1    H3 3257   1.794   0.453  15.117 -2.2553  0.3641  1.5086
  214MPD1     N 3258   1.699   0.868  15.294 -0.1909  0.3072 -0.4615
  214MPD1    H5 3259   1.608   0.828  15.316 -0.1971  2.0124  2.5974
  214MPD1    N1 3260   2.118   0.760  15.069 -0.0930  0.1307  0.2677
  214MPD1    H6 3261   2.169   0.830  15.123  2.6744 -2.1800  0.6479
  214MPD1    H7 3262   2.181   0.680  15.070 -0.3806 -0.0668  1.6964
  215MPD1     C 3263   0.673   1.190  11.029 -0.1386  0.3935  0.4365
  215MPD1    C1 3264   0.737   1.159  11.149 -0.2885  0.4514 -0.1479
  215MPD1    C2 3265   0.829   1.253  11.190 -0.2626  0.1741 -0.2563
  215MPD1    C3 3266   0.853   1.369  11.122  0.4253  0.1964  0.7398
  215MPD1    C4 3267   0.790   1.392  11.007 -0.2221 -0.5789  0.5515
  215MPD1    C5 3268   0.701   1.302  10.959 -0.2318 -0.3397 -0.1723
  215MPD1     H 3269   0.881   1.234  11.284  1.2889  2.1998 -0.7189
  215MPD1    H1 3270   0.805   1.478  10.943  0.6711 -2.2580 -1.4920
  215MPD1    H2 3271   0.595   1.128  10.987 -1.2370  1.8517  0.3189
  215MPD1    H3 3272   0.652   1.334  10.868 -0.6052 -2.4722 -0.7152
  215MPD1     N 3273   0.945   1.461  11.174  0.4707  0.0093  0.0256
  215MPD1    H5 3274   0.996   1.424  11.254 -0.9288 -0.9870  0.4486
  215MPD1    N1 3275   0.705   1.044  11.225  0.0340  0.4829 -0.1947
  215MPD1    H6 3276   0.692   0.958  11.172 -1.9403 -0.6629  2.1066
  215MPD1    H7 3277   0.779   1.027  11.294 -1.9435 -1.6591  1.3903
  216MPD1     C 3278   3.267   3.891  16.575  0.1509 -0.3942  0.3517
  216MPD1    C1 3279   3.245   3.986  16.674  0.1802 -0.5499  0.2340
  216MPD1    C2 3280   3.159   3.951  16.782  0.1540  0.2142 -0.1764
  216MPD1    C3 3281   3.118   3.819  16.802  0.0894  0.2250  0.2386
  216MPD1    C4 3282   3.141   3.732  16.699  0.3139  0.4391 -0.4045
  216MPD1    C5 3283   3.213   3.765  16.587 -0.4189  0.1354 -0.5140
  216MPD1     H 3284   3.130   4.021  16.859  0.9037  1.1152 -0.7191
  216MPD1    H1 3285   3.105   3.630  16.705 -0.5743  0.8681  1.6903
  216MPD1    H2 3286   3.304   3.920  16.478 -1.4648 -0.9749 -0.4356
  216MPD1    H3 3287   3.225   3.689  16.510  1.1973  0.7629 -0.8711
  216MPD1     N 3288   3.049   3.790  16.926 -0.9178  0.3386 -0.5330
  216MPD1    H5 3289   3.055   3.863  16.996  2.5838  0.9366 -1.4963
  216MPD1    N1 3290   3.283   4.119  16.654  0.3094  0.5408 -0.4894
  216MPD1    H6 3291   3.294   4.159  16.747  1.1079  1.1190 -0.8376
  216MPD1    H7 3292   3.377   4.119  16.615 -0.0285  0.3114 -1.3154
  217MPD1     C 3293   4.651   0.413   7.962 -0.0999 -0.3785 -0.7019
  217MPD1    C1 3294   4.660   0.274   7.970  0.3038 -0.3394 -0.1429
  217MPD1    C2 3295   4.666   0.217   8.099  0.1202 -0.4767 -0.4719
  217MPD1    C3 3296   4.641   0.293   8.213 -0.3357  0.4748 -0.2068
  217MPD1    C4 3297   4.629   0.428   8.202 -0.4097  0.7266 -0.5622
  217MPD1    C5 3298   4.629   0.488   8.075 -0.7712  0.1607 -0.2158
  217MPD1     H 3299   4.677   0.110   8.109 -1.9927 -0.6770 -0.2361
  217MPD1    H1 3300   4.600   0.479   8.294 -0.3074 -1.1651  0.5071
  217MPD1    H2 3301   4.652   0.457   7.863  2.1646  1.5823  0.2158
  217MPD1    H3 3302   4.601   0.592   8.078  0.1580  0.3775  0.9301
  217MPD1     N 3303   4.630   0.234   8.343 -0.0219  0.5189 -0.3987
  217MPD1    H5 3304   4.612   0.304   8.414 -1.6651 -1.2451  0.9225
  217MPD1    N1 3305   4.693   0.204   7.856  0.7052 -0.7271 -0.8411
  217MPD1    H6 3306   4.648   0.239   7.771 -2.0469  0.4036  1.0901
  217MPD1    H7 3307   4.666   0.106   7.859 -3.4868  0.3826 -1.9898
  218MPD1     C 3308   0.442   2.028  12.738 -0.1910 -0.5836  0.2969
  218MPD1    C1 3309   0.452   1.892  12.723 -0.2799  0.0421 -0.5190
  218MPD1    C2 3310   0.550   1.844  12.643 -0.3982  0.3585 -0.6469
  218MPD1    C3 3311   0.644   1.922  12.581  0.2327  0.2677 -0.7852
  218MPD1    C4 3312   0.634   2.053  12.596  0.1358 -0.4545  0.3777
  218MPD1    C5 3313   0.535   2.110  12.675 -0.5415  0.5110  0.7863
  218MPD1     H 3314   0.558   1.737  12.627  1.3658  0.1599  1.5776
  218MPD1    H1 3315   0.708   2.123  12.560 -0.0724  0.3323  1.4750
  218MPD1    H2 3316   0.365   2.070  12.801  0.4936  1.8927 -0.4988
  218MPD1    H3 3317   0.536   2.216  12.695 -0.7083  0.3321  1.7302
  218MPD1     N 3318   0.748   1.849  12.510 -0.3972  0.1251  0.3020
  218MPD1    H5 3319   0.758   1.748  12.519 -2.4716 -0.3090 -2.1937
  218MPD1    N1 3320   0.366   1.805  12.790 -0.0873  0.0715 -0.4423
  218MPD1    H6 3321   0.276   1.848  12.809 -0.4437 -1.1889  0.6955
  218MPD1    H7 3322   0.357   1.722  12.733 -1.7019 -0.7948  1.0757
  219MPD1     C 3323   0.689   1.467  11.705 -0.2919 -0.6652 -0.2056
  219MPD1    C1 3324   0.807   1.531  11.678 -0.5324 -0.0026 -0.0772
  219MPD1    C2 3325   0.860   1.604  11.780 -0.4196 -0.3021  0.1915
  219MPD1    C3 3326   0.801   1.617  11.905  0.7204 -0.4993 -0.4969
  219MPD1    C4 3327   0.681   1.559  11.927  0.2494 -0.0056 -0.4428
  219MPD1    C5 3328   0.630   1.484  11.828  0.1839 -0.3706  0.3322
  219MPD1     H 3329   0.958   1.648  11.768  0.1196 -1.3655  0.6409
  219MPD1    H1 3330   0.621   1.564  12.018  2.6082 -0.1572  1.1216
  219MPD1    H2 3331   0.648   1.400  11.630 -2.1684  1.1936 -0.8201
  219MPD1    H3 3332   0.534   1.436  11.840  0.0702 -0.1389  0.3504
  219MPD1     N 3333   0.863   1.691  12.013 -0.8433 -0.2728 -0.1073
  219MPD1    H5 3334   0.810   1.698  12.099  1.3162 -1.5522  1.3198
  219MPD1    N1 3335   0.878   1.504  11.561  0.3904  0.3887 -0.2372
  219MPD1    H6 3336   0.810   1.512  11.485  1.6399  2.8423 -1.0761
  219MPD1    H7 3337   0.952   1.573  11.554  1.5697 -0.9814 -1.2448
  220MPD1     C 3338   1.671   2.671   9.763  0.4479  0.2247 -0.7913
  220MPD1    C1 3339   1.750   2.630   9.864 -0.9459  0.4424 -0.2946
  220MPD1    C2 3340   1.689   2.530   9.947 -0.0110  0.0225 -0.0659
  220MPD1    C3 3341   1.572   2.468   9.914 -0.3518  0.0631  0.1113
  220MPD1    C4 3342   1.498   2.513   9.810  0.1972  0.7312  0.8665
  220MPD1    C5 3343   1.547   2.617   9.739 -0.4334 -0.4283  0.1199
  220MPD1     H 3344   1.744   2.488  10.030  1.6482  0.2127 -1.0794
  220MPD1    H1 3345   1.396   2.482   9.787 -0.5145  1.6461  2.8308
  220MPD1    H2 3346   1.704   2.735   9.681  0.2065 -0.5384 -1.4890
  220MPD1    H3 3347   1.487   2.652   9.656  1.5571 -0.0580 -1.1800
  220MPD1     N 3348   1.532   2.371  10.002 -0.6171 -0.0256 -0.5813
  220MPD1    H5 3349   1.595   2.334  10.073  0.1071 -0.8667 -1.6672
  220MPD1    N1 3350   1.854   2.704   9.908 -0.3390 -1.0012 -0.3817
  220MPD1    H6 3351   1.925   2.664   9.968 -1.3336  1.8217  2.6760
  220MPD1    H7 3352   1.893   2.753   9.828  1.4398 -2.2953 -0.3078
  221MPD1     C 3353   2.579   1.059  16.343  0.0684 -0.1591 -0.5463
  221MPD1    C1 3354   2.668   1.122  16.428  0.2119 -0.1605  0.6865
  221MPD1    C2 3355   2.800   1.115  16.389 -0.1939 -0.9472  1.3595
  221MPD1    C3 3356   2.836   1.061  16.265  0.0160 -0.0379 -0.2004
  221MPD1    C4 3357   2.744   1.005  16.183  0.4737  0.4044 -0.3963
  221MPD1    C5 3358   2.618   1.004  16.224  0.3507 -0.8923 -0.5309
  221MPD1     H 3359   2.879   1.147  16.456  0.6388  1.0097 -0.5427
  221MPD1    H1 3360   2.778   0.959  16.091  1.5579  1.8133 -0.6818
  221MPD1    H2 3361   2.478   1.038  16.375  0.1405 -2.1314 -1.6562
  221MPD1    H3 3362   2.541   0.952  16.168 -1.7757  1.3500  0.3033
  221MPD1     N 3363   2.968   1.066  16.213 -0.1918  0.1080 -0.7433
  221MPD1    H5 3364   2.988   1.034  16.119  0.5438  1.5803 -1.0790
  221MPD1    N1 3365   2.626   1.172  16.552 -0.1870  0.3362  0.1674
  221MPD1    H6 3366   2.696   1.243  16.575 -0.0692 -0.0204  0.9075
  221MPD1    H7 3367   2.528   1.198  16.547 -0.3342 -0.5211 -1.4070
  222MPD1     C 3368   3.216   4.438  16.805  0.4877 -0.4670  0.2048
  222MPD1    C1 3369   3.138   4.549  16.807 -0.1359  0.6027 -0.1328
  222MPD1    C2 3370   3.050   4.571  16.909 -0.7507  0.2955 -0.3187
  222MPD1    C3 3371   3.029   4.468  17.007  0.2246 -1.7259  0.3105
  222MPD1    C4 3372   3.099   4.352  16.992  0.1629  0.7088  0.9476
  222MPD1    C5 3373   3.190   4.335  16.892 -0.2025 -0.3608  0.0368
  222MPD1     H 3374   2.991   4.662  16.904  0.5027  1.1460  0.7494
  222MPD1    H1 3375   3.100   4.272  17.065 -0.7013 -0.5903 -0.4597
  222MPD1    H2 3376   3.292   4.428  16.729  0.8451 -1.4152  0.6859
  222MPD1    H3 3377   3.256   4.249  16.898  0.3572 -0.0972 -2.2774
  222MPD1     N 3378   2.948   4.474  17.122 -0.3238 -0.0393  0.3337
  222MPD1    H5 3379   2.957   4.394  17.184  1.6462  0.9874  1.3709
  222MPD1    N1 3380   3.160   4.648  16.712  0.2678 -0.1947 -0.3953
  222MPD1    H6 3381   3.204   4.611  16.628 -0.4657 -0.3776 -0.7027
  222MPD1    H7 3382   3.067   4.677  16.684  0.8438  1.0680 -0.9742
  223MPD1     C 3383   2.829   4.113   0.341 -0.0318  0.1669  0.1697
  223MPD1    C1 3384   2.783   4.243   0.366 -0.4044  0.7607 -1.0444
  223MPD1    C2 3385   2.794   4.332   0.265  0.9085  0.5003 -0.5100
  223MPD1    C3 3386   2.845   4.295   0.140 -0.3983 -0.4090 -0.3291
  223MPD1    C4 3387   2.887   4.165   0.119  0.1462 -0.1204  0.1876
  223MPD1    C5 3388   2.877   4.075   0.221 -0.5720 -0.9092 -0.3583
  223MPD1     H 3389   2.760   4.433   0.286 -0.5469  0.0789 -0.8626
  223MPD1    H1 3390   2.920   4.133   0.021 -0.6338 -1.0847  0.2425
  223MPD1    H2 3391   2.834   4.037   0.419 -0.0968 -0.5792 -0.5547
  223MPD1    H3 3392   2.899   3.970   0.207  1.0340 -0.7018  0.6893
  223MPD1     N 3393   2.836   4.399   0.045  0.3029  0.2283  0.2343
  223MPD1    H5 3394   2.785   4.483   0.068  0.4026  0.5967 -0.8981
  223MPD1    N1 3395   2.725   4.266   0.491 -0.5488  0.3997  0.3115
  223MPD1    H6 3396   2.639   4.214   0.508 -1.1509 -0.0433 -4.0500
  223MPD1    H7 3397   2.700   4.365   0.499 -0.5665  0.3753  0.5697
  224MPD1     C 3398   0.498   1.219   9.109 -0.2274 -0.1190 -0.1685
  224MPD1    C1 3399   0.584   1.111   9.121  0.2060  0.1781 -0.5710
  224MPD1    C2 3400   0.541   0.995   9.181  0.0258  0.4628  0.3857
  224MPD1    C3 3401   0.403   0.988   9.217 -0.9220  0.1276 -0.1978
  224MPD1    C4 3402   0.321   1.092   9.196  0.4075 -0.1620 -0.5120
  224MPD1    C5 3403   0.369   1.214   9.158 -0.3362  0.3947  0.0059
  224MPD1     H 3404   0.613   0.918   9.206 -0.0990  0.9454  2.2819
  224MPD1    H1 3405   0.216   1.088   9.223  0.4384  0.7448 -0.2456
  224MPD1    H2 3406   0.519   1.314   9.062  0.4271 -0.0167  0.3280
  224MPD1    H3 3407   0.304   1.299   9.139 -1.5193 -0.1045  1.7911
  224MPD1     N 3408   0.343   0.880   9.284  0.4758 -0.0170  0.1639
  224MPD1    H5 3409   0.242   0.891   9.295  0.5694 -0.1001  1.1061
  224MPD1    N1 3410   0.718   1.124   9.081  0.4576 -0.8815 -0.2711
  224MPD1    H6 3411   0.728   1.197   9.010  0.3842 -0.4649  0.1411
  224MPD1    H7 3412   0.756   1.039   9.042 -1.0834 -1.9720  0.6077
  225MPD1     C 3413   1.183   2.493  11.814 -0.3128  0.1316 -0.1661
  225MPD1    C1 3414   1.111   2.464  11.695 -0.0338 -0.2378  0.6820
  225MPD1    C2 3415   0.987   2.411  11.707  0.4505  0.2048 -0.0063
  225MPD1    C3 3416   0.935   2.395  11.834 -0.1088  0.2574  0.9081
  225MPD1    C4 3417   1.010   2.416  11.945  0.5109  0.6427  0.6857
  225MPD1    C5 3418   1.134   2.468  11.933  0.1116 -0.2539 -0.8509
  225MPD1     H 3419   0.922   2.395  11.621  0.6663 -1.5101  0.1609
  225MPD1    H1 3420   0.969   2.398  12.044 -3.0660 -2.6246 -1.3675
  225MPD1    H2 3421   1.274   2.552  11.803 -0.5343  0.4854 -0.1276
  225MPD1    H3 3422   1.195   2.477  12.023 -2.7050  0.6160  0.9910
  225MPD1     N 3423   0.802   2.358  11.852 -0.8126 -0.5781  0.1395
  225MPD1    H5 3424   0.767   2.384  11.943  0.1322 -0.4808  0.4794
  225MPD1    N1 3425   1.155   2.510  11.569 -0.5121  0.4760  0.5768
  225MPD1    H6 3426   1.255   2.496  11.558 -0.4048 -0.1612  2.3328
  225MPD1    H7 3427   1.104   2.474  11.488 -0.7761 -0.0835  0.9867
  226MPD1     C 3428   4.296   2.737   9.979 -0.0059 -0.1678 -0.1210
  226MPD1    C1 3429   4.413   2.716   9.913  0.5962 -0.5871  0.6721
  226MPD1    C2 3430   4.435   2.585   9.884 -0.3287 -0.3340  0.4366
  226MPD1    C3 3431   4.337   2.489   9.904  1.0224 -0.1886  0.1130
  226MPD1    C4 3432   4.206   2.521   9.958 -0.2416  0.4263  0.4462
  226MPD1    C5 3433   4.195   2.651   9.997  0.7933  1.0076  0.0260
  226MPD1     H 3434   4.524   2.552   9.831  0.1081  1.9701 -0.2958
  226MPD1    H1 3435   4.129   2.445   9.964  0.8509 -0.4315  3.0939
  226MPD1    H2 3436   4.265   2.838  10.004  2.4527  0.7419 -0.7875
  226MPD1    H3 3437   4.097   2.678  10.035  2.2729  2.6824  2.6558
  226MPD1     N 3438   4.376   2.359   9.860  1.0215 -0.5844 -0.4983
  226MPD1    H5 3439   4.470   2.351   9.822  0.2352 -0.1451 -2.5369
  226MPD1    N1 3440   4.518   2.806   9.892 -0.0666  1.0014  0.3137
  226MPD1    H6 3441   4.554   2.793   9.798 -1.2654  0.4220 -0.0673
  226MPD1    H7 3442   4.485   2.901   9.903  0.8218  1.0624  2.5509
  227MPD1     C 3443   4.087   1.304   9.753 -0.1684 -0.4643 -0.6897
  227MPD1    C1 3444   4.206   1.312   9.693  0.3084 -0.3411 -0.1742
  227MPD1    C2 3445   4.282   1.428   9.706  0.1837 -0.0470  1.2504
  227MPD1    C3 3446   4.230   1.532   9.776  0.0925 -0.1279 -0.5051
  227MPD1    C4 3447   4.113   1.521   9.842 -0.2415 -0.6222  0.0698
  227MPD1    C5 3448   4.042   1.408   9.830  0.0517 -0.0771  0.5333
  227MPD1     H 3449   4.381   1.441   9.664 -0.5400 -0.4833 -0.6039
  227MPD1    H1 3450   4.068   1.599   9.903  3.3712 -0.0487  1.9665
  227MPD1    H2 3451   4.018   1.222   9.739  0.6281 -1.2391 -0.1324
  227MPD1    H3 3452   3.943   1.399   9.872 -0.4419  0.2014 -0.5668
  227MPD1     N 3453   4.298   1.653   9.760 -0.5094 -0.1263 -0.5111
  227MPD1    H5 3454   4.365   1.653   9.684  0.3307  2.4212  0.2180
  227MPD1    N1 3455   4.240   1.212   9.600 -0.0856 -0.5177  0.4791
  227MPD1    H6 3456   4.337   1.213   9.568  0.3758 -1.7043  1.8374
  227MPD1    H7 3457   4.205   1.117   9.602 -1.2698 -0.1381 -2.3089
  228MPD1     C 3458   2.674   0.147  12.669 -0.6720  0.2389  0.0761
  228MPD1    C1 3459   2.579   0.240  12.631  0.4014 -0.3365  0.1189
  228MPD1    C2 3460   2.440   0.228  12.665 -0.0822 -0.2803 -0.2692
  228MPD1    C3 3461   2.395   0.128  12.751 -0.4840  0.6687 -0.2608
  228MPD1    C4 3462   2.493   0.037  12.793  0.0561  0.1147 -0.3516
  228MPD1    C5 3463   2.622   0.047  12.746 -0.0162  0.2629  0.3085
  228MPD1     H 3464   2.369   0.302  12.630  1.0026  0.7784 -0.2258
  228MPD1    H1 3465   2.476   4.685  12.869  1.0495  0.5672  0.3110
  228MPD1    H2 3466   2.779   0.153  12.644 -0.9787 -0.5667 -1.3989
  228MPD1    H3 3467   2.698   4.699  12.776  0.5448  0.4990 -0.5742
  228MPD1     N 3468   2.259   0.114  12.778 -0.7303 -0.5341 -0.3486
  228MPD1    H5 3469   2.200   0.181  12.729 -1.3980 -1.0802 -0.2919
  228MPD1    N1 3470   2.623   0.341  12.541 -0.6661  0.2810  0.4173
  228MPD1    H6 3471   2.562   0.422  12.539 -0.1251  0.6901  0.8264
  228MPD1    H7 3472   2.721   0.368  12.546 -0.5575 -0.4395  1.9805
  229MPD1     C 3473   2.239   3.896  14.935 -0.6340 -0.4198  0.0916
  229MPD1    C1 3474   2.141   3.833  15.006  0.5006  0.0842 -1.0506
  229MPD1    C2 3475   2.073   3.725  14.955 -0.2453 -0.6888  1.0528
  229MPD1    C3 3476   2.131   3.661  14.844  0.3462  0.2221 -0.3175
  229MPD1    C4 3477   2.237   3.719  14.780  0.3410 -0.1886 -0.3423
  229MPD1    C5 3478   2.291   3.829  14.824  0.0250  1.1897  0.1101
  229MPD1     H 3479   1.982   3.690  15.001 -0.5697  0.1584  1.0434
  229MPD1    H1 3480   2.293   3.675  14.699  3.3908  1.2603  0.9830
  229MPD1    H2 3481   2.286   3.985  14.975 -1.5277  1.1968 -2.3980
  229MPD1    H3 3482   2.374   3.870  14.767  0.1853 -0.9996 -1.2451
  229MPD1     N 3483   2.092   3.530  14.806 -0.2598  0.5043 -0.0173
  229MPD1    H5 3484   2.138   3.484  14.728  1.7133  0.9944  0.8571
  229MPD1    N1 3485   2.082   3.896  15.120  0.5645 -0.7247 -0.3101
  229MPD1    H6 3486   2.137   3.965  15.172 -1.2430  0.4919  0.0003
  229MPD1    H7 3487   2.031   3.844  15.190 -1.4405  2.3521  0.5326
  230MPD1     C 3488   1.394   2.686  14.759 -0.7137 -0.4951 -0.4202
  230MPD1    C1 3489   1.511   2.640  14.812  0.6683 -0.5616  0.1032
  230MPD1    C2 3490   1.605   2.735  14.841  0.5675  0.2364 -1.1497
  230MPD1    C3 3491   1.592   2.871  14.815  0.2249  0.0576 -0.7567
  230MPD1    C4 3492   1.474   2.917  14.764  0.7893  0.1750 -0.0048
  230MPD1    C5 3493   1.380   2.820  14.736 -0.0643 -0.2512  0.2955
  230MPD1     H 3494   1.705   2.708  14.871 -0.6844 -0.3071  2.5085
  230MPD1    H1 3495   1.457   3.019  14.730 -0.1710 -0.6230 -1.8792
  230MPD1    H2 3496   1.315   2.619  14.725 -2.7935  1.3942  0.6414
  230MPD1    H3 3497   1.291   2.843  14.679  0.4392  1.5111  0.2164
  230MPD1     N 3498   1.700   2.957  14.853  0.4420  0.0185  0.2133
  230MPD1    H5 3499   1.783   2.916  14.896  0.1028 -1.5093 -0.5798
  230MPD1    N1 3500   1.546   2.505  14.803  0.2487 -0.1021  0.0871
  230MPD1    H6 3501   1.601   2.493  14.888  2.9907  0.4236 -1.6435
  230MPD1    H7 3502   1.465   2.443  14.804 -0.0820  0.3358  0.2970
  231MPD1     C 3503   4.464   0.598  15.630  0.0115  0.3171 -0.5811
  231MPD1    C1 3504   4.589   0.611  15.688  0.0660 -0.0156 -0.3605
  231MPD1    C2 3505   4.679   0.697  15.628  0.5467 -0.1434 -0.0680
  231MPD1    C3 3506   4.648   0.762  15.506  0.7322 -0.0934 -0.4809
  231MPD1    C4 3507   4.524   0.747  15.456 -1.4451 -0.2537  0.7402
  231MPD1    C5 3508   4.428   0.679  15.524 -0.4117  0.0040  0.0626
  231MPD1     H 3509   0.057   0.704  15.666 -1.4202  1.6829  4.7130
  231MPD1    H1 3510   4.487   0.790  15.364 -3.0818  0.2640  1.6563
  231MPD1    H2 3511   4.390   0.536  15.678  0.6070  0.6266  0.7238
  231MPD1    H3 3512   4.325   0.685  15.490 -0.8069  1.5448  1.5276
  231MPD1     N 3513   0.016   0.830  15.424 -0.5836  0.2154  0.2240
  231MPD1    H5 3514   4.701   0.859  15.335 -1.0262  0.1442  0.3889
  231MPD1    N1 3515   4.604   0.557  15.815  0.0429 -0.2588 -0.3542
  231MPD1    H6 3516   4.564   0.463  15.819 -0.7805  0.0109 -2.1366
  231MPD1    H7 3517   4.702   0.548  15.839 -0.2068  0.8161  1.0851
  232MPD1     C 3518   2.612   3.725  17.017 -0.9082  0.3559 -0.3261
  232MPD1    C1 3519   2.585   3.598  16.995 -0.3831  0.9539 -0.8272
  232MPD1    C2 3520   2.476   3.543  17.062  0.1528  0.1402 -0.0668
  232MPD1    C3 3521   2.415   3.608  17.167 -0.0660 -0.6369 -0.3465
  232MPD1    C4 3522   2.440   3.738  17.194 -0.2041  0.8121 -0.1333
  232MPD1    C5 3523   2.537   3.794  17.116 -0.1751 -0.2097 -0.0544
  232MPD1     H 3524   2.445   3.439  17.062  0.7453 -0.0511 -3.3987
  232MPD1    H1 3525   2.391   3.799  17.269 -0.3092 -0.9829  1.2781
  232MPD1    H2 3526   2.689   3.788  16.974 -0.2485  0.0105  0.3390
  232MPD1    H3 3527   2.542   3.903  17.111 -0.8189 -0.1754  0.0470
  232MPD1     N 3528   2.326   3.529  17.247  0.4758 -0.3191  0.2649
  232MPD1    H5 3529   2.297   3.439  17.213  1.2728 -0.5762  0.2542
  232MPD1    N1 3530   2.648   3.543  16.879  0.0046 -0.1254  0.9934
  232MPD1    H6 3531   2.655   3.441  16.884 -3.1931 -0.3774  0.0816
  232MPD1    H7 3532   2.744   3.573  16.864 -0.0953  1.1594  2.9572
  233MPD1     C 3533   2.235   2.491   0.803  0.1030  0.1574  0.5459
  233MPD1    C1 3534   2.365   2.538   0.800  0.5666  0.2340  0.0907
  233MPD1    C2 3535   2.462   2.444   0.824 -0.5964 -0.0644 -0.6218
  233MPD1    C3 3536   2.430   2.311   0.860 -0.3171  0.4181  0.4833
  233MPD1    C4 3537   2.302   2.272   0.848 -0.1940 -0.2358 -0.0010
  233MPD1    C5 3538   2.200   2.365   0.815 -0.2098  0.3733  0.1512
  233MPD1     H 3539   2.564   2.476   0.839 -0.3051 -0.1814 -2.4202
  233MPD1    H1 3540   2.275   2.169   0.870 -0.5180 -0.1742 -0.1072
  233MPD1    H2 3541   2.151   2.559   0.799  1.6291  2.0008 -0.7177
  233MPD1    H3 3542   2.093   2.349   0.820 -0.2586  0.2891 -1.0888
  233MPD1     N 3543   2.525   2.217   0.903  1.0203  0.4011  0.0187
  233MPD1    H5 3544   2.500   2.118   0.912  2.4407  0.0304 -0.1187
  233MPD1    N1 3545   2.387   2.679   0.796 -0.0464 -0.3114 -0.6123
  233MPD1    H6 3546   2.318   2.728   0.739 -2.2752 -1.1933  1.3233
  233MPD1    H7 3547   2.480   2.709   0.769  0.4851  0.4077  2.1155
  234MPD1     C 3548   0.866   3.640   9.576 -0.1562  0.9324  0.2960
  234MPD1    C1 3549   0.741   3.640   9.642 -0.0383 -0.2864  1.0362
  234MPD1    C2 3550   0.657   3.749   9.611  0.6377 -0.0336  0.1801
  234MPD1    C3 3551   0.693   3.838   9.513 -0.4831  0.1088 -0.7049
  234MPD1    C4 3552   0.808   3.821   9.434  0.9086  0.5418 -0.3785
  234MPD1    C5 3553   0.886   3.712   9.463 -0.4784 -0.1289  0.1338
  234MPD1     H 3554   0.562   3.763   9.662 -0.4066  1.2564 -2.1567
  234MPD1    H1 3555   0.845   3.889   9.358  1.9956  0.5349  0.1447
  234MPD1    H2 3556   0.945   3.575   9.611 -1.8571 -2.3071 -1.9524
  234MPD1    H3 3557   0.982   3.706   9.412  0.0087  0.7360  0.9327
  234MPD1     N 3558   0.609   3.943   9.491  0.2217 -0.2518  0.5285
  234MPD1    H5 3559   0.532   3.960   9.555  0.0524  1.5454 -0.1414
  234MPD1    N1 3560   0.713   3.550   9.744  1.1334 -0.1504 -0.0518
  234MPD1    H6 3561   0.615   3.522   9.748  0.2330  3.0561  0.7679
  234MPD1    H7 3562   0.762   3.463   9.726 -0.5276 -0.7343 -1.7061
  235MPD1     C 3563   1.300   4.558   8.080  0.1148  0.1810 -0.4848
  235MPD1    C1 3564   1.422   4.597   8.141  0.2762  0.8693  0.4606
  235MPD1    C2 3565   1.483   4.516   8.231  0.3026  0.9229 -0.3413
  235MPD1    C3 3566   1.432   4.398   8.263 -0.0860  0.0330  0.1282
  235MPD1    C4 3567   1.314   4.358   8.201 -0.8106 -0.1579 -0.1164
  235MPD1    C5 3568   1.246   4.442   8.122 -0.0669  0.6926  0.3855
  235MPD1     H 3569   1.574   4.553   8.278 -0.1441  0.7239  0.6821
  235MPD1    H1 3570   1.261   4.266   8.223  0.8939 -1.2552 -0.5712
  235MPD1    H2 3571   1.252   4.624   8.009  0.0118  0.9468  0.2935
  235MPD1    H3 3572   1.159   4.400   8.073 -0.0428 -1.4586  2.2180
  235MPD1     N 3573   1.500   4.317   8.355 -0.3733 -0.0064  0.9481
  235MPD1    H5 3574   1.596   4.339   8.381 -0.5944  0.5098  1.3176
  235MPD1    N1 3575   1.477   0.005   8.111  0.3268  0.2040 -0.1273
  235MPD1    H6 3576   1.577   4.716   8.116  0.4002  1.3323  0.9485
  235MPD1    H7 3577   1.449   0.028   8.016  2.1355 -2.5720 -1.3285
  236MPD1     C 3578   1.735   3.403   8.946 -0.5537  0.0674  0.4276
  236MPD1    C1 3579   1.689   3.523   9.000 -0.0358 -0.5815 -0.9456
  236MPD1    C2 3580   1.651   3.534   9.133  0.2971 -0.2102 -0.4159
  236MPD1    C3 3581   1.642   3.422   9.214  0.2654 -0.7781 -0.2784
  236MPD1    C4 3582   1.686   3.311   9.154  0.0560 -0.6616  0.0901
  236MPD1    C5 3583   1.726   3.291   9.028  0.0030 -0.2511  0.7179
  236MPD1     H 3584   1.616   3.625   9.181 -0.2693 -0.4438 -0.3875
  236MPD1    H1 3585   1.695   3.223   9.216 -0.6368 -1.2660 -0.6672
  236MPD1    H2 3586   1.777   3.379   8.849  0.3464 -0.5089  0.9681
  236MPD1    H3 3587   1.770   3.196   9.000 -0.8574 -0.7695  1.1266
  236MPD1     N 3588   1.585   3.416   9.341 -0.3054  0.0600  0.0753
  236MPD1    H5 3589   1.585   3.327   9.389 -0.1071 -0.0973 -0.2126
  236MPD1    N1 3590   1.714   3.637   8.933 -0.1236  0.2831  0.8924
  236MPD1    H6 3591   1.706   3.614   8.834 -0.4181 -0.9151  1.1945
  236MPD1    H7 3592   1.639   3.703   8.951 -0.5697  0.0933 -0.2246
  237MPD1     C 3593   0.464   1.606  15.013 -0.5589 -0.6583 -0.1262
  237MPD1    C1 3594   0.364   1.555  15.086 -0.4111 -0.4995  0.7179
  237MPD1    C2 3595   0.235   1.566  15.029 -0.5390 -0.2970 -0.2817
  237MPD1    C3 3596   0.214   1.635  14.914 -0.4472 -1.1417  0.0683
  237MPD1    C4 3597   0.318   1.697  14.852 -0.1034 -0.7868  0.0216
  237MPD1    C5 3598   0.444   1.681  14.902 -0.5327  0.1669 -0.2078
  237MPD1     H 3599   0.155   1.503  15.068 -0.5679  0.1634  0.3979
  237MPD1    H1 3600   0.302   1.760  14.766 -1.5351 -2.1527 -0.7167
  237MPD1    H2 3601   0.568   1.603  15.045 -1.0567 -2.8572  1.2691
  237MPD1    H3 3602   0.523   1.726  14.842 -1.6058  1.4516 -0.6632
  237MPD1     N 3603   0.086   1.647  14.855 -0.1144  0.3766  0.7153
  237MPD1    H5 3604   0.074   1.704  14.772 -1.9985 -1.6139 -0.3972
  237MPD1    N1 3605   0.387   1.483  15.198 -0.0108  0.0337  0.3799
  237MPD1    H6 3606   0.478   1.513  15.231  0.6598 -2.2598  0.6164
  237MPD1    H7 3607   0.315   1.502  15.268 -0.1172 -0.4127  0.3915
  238MPD1     C 3608   1.944   1.441  15.066  0.5570 -0.2223 -0.0529
  238MPD1    C1 3609   1.816   1.406  15.109  0.8960  0.2852 -0.7939
  238MPD1    C2 3610   1.763   1.288  15.068 -0.1863  0.6939  0.1102
  238MPD1    C3 3611   1.841   1.198  14.997 -0.7360  0.4893 -0.6167
  238MPD1    C4 3612   1.966   1.235  14.961  0.0979 -0.0794 -0.1479
  238MPD1    C5 3613   2.018   1.357  14.984 -0.0452 -0.2096 -0.1051
  238MPD1     H 3614   1.657   1.277  15.088 -0.0586 -1.6930 -0.5387
  238MPD1    H1 3615   2.028   1.167  14.904  0.9942  0.0440  0.6753
  238MPD1    H2 3616   1.980   1.539  15.094  2.2599 -1.0821  0.7655
  238MPD1    H3 3617   2.118   1.393  14.965 -0.0581 -0.5374 -0.7843
  238MPD1     N 3618   1.805   1.060  14.968 -0.4627  0.1391 -0.3038
  238MPD1    H5 3619   1.880   1.013  14.920 -0.2214  0.4969 -0.2740
  238MPD1    N1 3620   1.730   1.500  15.167  0.2139  0.2586 -0.0372
  238MPD1    H6 3621   1.781   1.565  15.225 -1.1573  2.7768 -1.6510
  238MPD1    H7 3622   1.665   1.454  15.231  1.5825 -0.9897  0.4625
  239MPD1     C 3623   1.930   1.116  14.441  0.5085 -0.2538 -0.1838
  239MPD1    C1 3624   1.993   1.233  14.474 -0.0740 -0.2519  0.3633
  239MPD1    C2 3625   2.023   1.318  14.365  0.2341 -0.1363  1.1237
  239MPD1    C3 3626   1.973   1.298  14.236 -0.8425  0.1586  0.2581
  239MPD1    C4 3627   1.899   1.194  14.206  0.2869 -1.1772  0.3759
  239MPD1    C5 3628   1.881   1.105  14.314  0.2117 -0.3045  0.5166
  239MPD1     H 3629   2.089   1.402  14.386 -1.7737  1.6326  0.3487
  239MPD1    H1 3630   1.849   1.174  14.112 -1.3227 -2.6166  1.5355
  239MPD1    H2 3631   1.914   1.037  14.514  1.5223  1.1898  1.5888
  239MPD1    H3 3632   1.830   1.010  14.298 -1.2151  0.5951 -0.2296
  239MPD1     N 3633   1.984   1.402  14.144  0.3762  0.4560 -0.4880
  239MPD1    H5 3634   1.927   1.403  14.059 -2.5585  0.8147  1.4949
  239MPD1    N1 3635   2.027   1.261  14.606 -0.5589  0.2968 -0.5813
  239MPD1    H6 3636   1.967   1.222  14.678 -0.9158 -1.3369 -1.7632
  239MPD1    H7 3637   2.030   1.360  14.629  0.5389 -0.0965  0.9944
  240MPD1     C 3638   1.332   1.308  13.386  0.0804 -0.3295 -0.7765
  240MPD1    C1 3639   1.301   1.194  13.459  0.4620 -0.2721  0.1092
  240MPD1    C2 3640   1.323   1.196  13.590 -1.0498 -0.1996 -0.0246
  240MPD1    C3 3641   1.377   1.303  13.657 -0.6418 -0.1120 -0.3554
  240MPD1    C4 3642   1.394   1.420  13.591 -0.4882  0.1327  0.1596
  240MPD1    C5 3643   1.371   1.419  13.452  0.8416  0.1456 -0.1205
  240MPD1     H 3644   1.322   1.101  13.643  0.3989 -0.3619 -0.2749
  240MPD1    H1 3645   1.441   1.510  13.628 -2.0690  0.9279  0.2199
  240MPD1    H2 3646   1.310   1.306  13.280 -0.0459 -0.0427 -0.7553
  240MPD1    H3 3647   1.420   1.497  13.395  2.3057 -0.4354  0.3324
  240MPD1     N 3648   1.418   1.283  13.794 -0.7191  0.0355 -0.4571
  240MPD1    H5 3649   1.393   1.194  13.835 -0.0837 -0.5496 -1.3307
  240MPD1    N1 3650   1.280   1.074  13.392  0.2150  0.0060 -0.1967
  240MPD1    H6 3651   1.242   1.095  13.300 -0.3792 -1.9590 -0.4025
  240MPD1    H7 3652   1.367   1.021  13.389 -0.3787 -0.9125 -1.0621
  241MPD1     C 3653   1.935   1.599  14.719  0.3484 -0.0442  0.6827
  241MPD1    C1 3654   1.962   1.628  14.590  0.2987  0.4074 -0.6318
  241MPD1    C2 3655   1.858   1.596  14.498  0.2251  0.2996 -0.0860
  241MPD1    C3 3656   1.762   1.502  14.525 -0.2330 -0.6873 -0.3379
  241MPD1    C4 3657   1.758   1.452  14.649  0.5013 -0.1817 -0.7367
  241MPD1    C5 3658   1.836   1.514  14.747  0.3119  0.6729  0.0929
  241MPD1     H 3659   1.880   1.615  14.393  0.1377  0.9765  0.0197
  241MPD1    H1 3660   1.687   1.378  14.684  0.5083  0.4642  0.6577
  241MPD1    H2 3661   1.998   1.633  14.801  1.1294 -2.2304  0.9741
  241MPD1    H3 3662   1.824   1.484  14.851  1.1250 -0.1663 -0.0594
  241MPD1     N 3663   1.692   1.433  14.430 -0.5137  0.1235 -0.5915
  241MPD1    H5 3664   1.630   1.358  14.460 -0.5569  0.2810 -0.2851
  241MPD1    N1 3665   2.068   1.713  14.559 -0.1924 -0.4191  0.4278
  241MPD1    H6 3666   2.143   1.706  14.628 -1.4275  1.0487  1.9299
  241MPD1    H7 3667   2.108   1.697  14.467  1.1516 -0.2867  0.9815
  242MPD1     C 3668   1.632   4.640  15.586  0.3769  0.6056 -0.2329
  242MPD1    C1 3669   1.500   4.608  15.560 -0.5787  0.0330  1.3131
  242MPD1    C2 3670   1.467   4.502  15.475  0.6983  0.5365 -0.3234
  242MPD1    C3 3671   1.569   4.431  15.404  0.1446  0.3094  0.4318
  242MPD1    C4 3672   1.704   4.482  15.420 -0.8642 -0.2844  0.7670
  242MPD1    C5 3673   1.736   4.579  15.520  0.4916 -0.6729 -0.4246
  242MPD1     H 3674   1.364   4.470  15.465  1.0046 -0.2566 -0.9413
  242MPD1    H1 3675   1.787   4.430  15.374 -0.0374  0.3146  1.5840
  242MPD1    H2 3676   1.659   4.700  15.672 -0.6734  2.1773 -0.9830
  242MPD1    H3 3677   1.841   4.598  15.540  0.1502  1.1256 -0.3194
  242MPD1     N 3678   1.552   4.319  15.320  0.6140 -0.0254  0.1945
  242MPD1    H5 3679   1.639   4.271  15.300  1.0267  0.2384  1.3708
  242MPD1    N1 3680   1.393   4.643  15.650  0.2435 -0.1663 -0.4196
  242MPD1    H6 3681   1.405   0.020  15.665 -0.8175 -0.2081  0.7741
  242MPD1    H7 3682   1.297   4.629  15.618  0.3174  0.0498 -0.7377
  243MPD1     C 3683   3.539   4.137  17.051  0.6055  0.5855  0.3422
  243MPD1    C1 3684   3.524   4.099  16.921  0.3352  0.3186 -0.3133
  243MPD1    C2 3685   3.503   3.966  16.890  1.0099 -0.4663  0.0873
  243MPD1    C3 3686   3.479   3.873  16.989  0.1348  0.1129 -1.2084
  243MPD1    C4 3687   3.499   3.917  17.120  0.4268  0.3713 -0.2568
  243MPD1    C5 3688   3.537   4.043  17.145  1.6064 -0.0442 -0.1675
  243MPD1     H 3689   3.517   3.923  16.792  1.2841 -0.0951 -0.0357
  243MPD1    H1 3690   3.494   3.841  17.197 -1.3818 -0.0173 -0.7631
  243MPD1    H2 3691   3.553   4.240  17.082 -0.8365  0.9373 -0.1587
  243MPD1    H3 3692   3.546   4.072  17.250 -0.9728 -0.0829  0.0757
  243MPD1     N 3693   3.451   3.741  16.950  0.2592  0.8600 -0.1334
  243MPD1    H5 3694   3.440   3.724  16.850  0.8937  2.5816 -0.5000
  243MPD1    N1 3695   3.513   4.199  16.814 -0.3552 -0.4600 -0.2558
  243MPD1    H6 3696   3.546   4.162  16.725 -0.6332  0.8189 -0.8908
  243MPD1    H7 3697   3.546   4.291  16.841 -0.3278 -0.7998  0.8897
  244MPD1     C 3698   2.869   2.977  17.348  0.4194 -0.2375  0.6671
  244MPD1    C1 3699   2.975   3.033  17.417  0.4821 -0.0251 -0.4634
  244MPD1    C2 3700   3.056   3.125  17.348 -0.9555  0.6931 -0.3420
  244MPD1    C3 3701   3.038   3.138  17.211  0.0382 -1.0739 -0.2832
  244MPD1    C4 3702   2.934   3.078  17.148 -0.3948  0.7287 -0.0021
  244MPD1    C5 3703   2.848   3.004  17.218  0.2420  0.6075  0.0999
  244MPD1     H 3704   3.138   3.181  17.392 -1.1513 -0.2472  1.2043
  244MPD1    H1 3705   2.915   3.083  17.042  0.8352 -1.2545 -0.3100
  244MPD1    H2 3706   2.799   2.916  17.404 -0.4972 -0.7330 -1.0188
  244MPD1    H3 3707   2.764   2.952  17.173 -0.9513  2.0085  0.7211
  244MPD1     N 3708   3.127   3.219  17.138 -0.2782 -0.7742 -0.7957
  244MPD1    H5 3709   3.209   3.248  17.191  0.7117 -0.6197 -2.4126
  244MPD1    N1 3710   2.974   3.016  17.552 -0.1397  0.0248 -0.4053
  244MPD1    H6 3711   2.947   2.923  17.583  0.1121  1.0641  3.0162
  244MPD1    H7 3712   3.062   3.042  17.597  1.2030 -4.1273 -0.6483
  245MPD1     C 3713   4.525   3.119  13.285 -0.9202  0.0835 -0.1533
  245MPD1    C1 3714   4.473   3.185  13.396  0.3249  0.4282 -0.6791
  245MPD1    C2 3715   4.547   3.298  13.430  0.5666 -0.2384 -0.0519
  245MPD1    C3 3716   4.649   3.347  13.351  0.0321  0.4570  0.5625
  245MPD1    C4 3717   4.697   3.271  13.246  0.5730 -0.8263 -0.6244
  245MPD1    C5 3718   4.630   3.158  13.211 -0.0756 -0.2760 -0.7100
  245MPD1     H 3719   4.526   3.360  13.516  0.2241 -1.1389  0.5090
  245MPD1    H1 3720   0.059   3.308  13.190  0.6714 -1.2928 -0.7804
  245MPD1    H2 3721   4.487   3.021  13.260 -0.9700 -0.0381  0.3939
  245MPD1    H3 3722   4.671   3.099  13.130  1.3249  0.6726 -0.7047
  245MPD1     N 3723   4.711   3.466  13.392  0.4516  0.0095  0.0697
  245MPD1    H5 3724   4.676   3.503  13.479  1.8554 -0.4907  0.8482
  245MPD1    N1 3725   4.384   3.120  13.482 -0.4948 -0.5020  0.3865
  245MPD1    H6 3726   4.332   3.044  13.438 -2.4793  1.8787 -1.3534
  245MPD1    H7 3727   4.323   3.194  13.514 -0.6796 -0.4964  0.0210
  246MPD1     C 3728   2.638   0.017  10.096  0.2081 -0.3190 -0.1523
  246MPD1    C1 3729   2.520   4.700  10.045 -0.2647 -0.2922 -0.0293
  246MPD1    C2 3730   2.498   4.715   9.910  0.3012  0.4475  0.1323
  246MPD1    C3 3731   2.605   0.025   9.826 -0.4638 -0.2714 -0.1016
  246MPD1    C4 3732   2.724   0.068   9.887  0.3884  0.1788  0.1498
  246MPD1    C5 3733   2.739   0.074  10.020  0.2020 -0.3177 -0.4127
  246MPD1     H 3734   2.404   4.701   9.860 -0.2448 -2.1344  1.8959
  246MPD1    H1 3735   2.800   0.123   9.833  2.0885  0.1007  2.4700
  246MPD1    H2 3736   2.656   0.005  10.202  1.7970 -0.2493 -0.4178
  246MPD1    H3 3737   2.831   0.111  10.064 -0.2912  1.8025 -1.1621
  246MPD1     N 3738   2.580   0.028   9.687  0.0201  0.3364  0.0509
  246MPD1    H5 3739   2.498   4.713   9.643 -1.0751  1.1978  1.3406
  246MPD1    N1 3740   2.417   4.657  10.126  0.9608  0.1118  0.1846
  246MPD1    H6 3741   2.453   4.617  10.212 -2.5925  1.3450  2.2547
  246MPD1    H7 3742   2.376   4.571  10.091 -2.3852  1.9221 -0.4373
  247MPD1     C 3743   4.598   2.272  15.539 -0.1301  0.1241 -0.8814
  247MPD1    C1 3744   4.463   2.258  15.580  0.0919  0.5689  0.4055
  247MPD1    C2 3745   4.391   2.373  15.612  0.5480 -0.3006  0.1255
  247MPD1    C3 3746   4.449   2.503  15.618 -0.0187 -0.1158 -0.3770
  247MPD1    C4 3747   4.583   2.507  15.593  0.1231  0.4627  0.3495
  247MPD1    C5 3748   4.644   2.400  15.540  0.1282 -0.5609  0.1596
  247MPD1     H 3749   4.289   2.346  15.638  0.6238 -1.8882 -1.2771
  247MPD1    H1 3750   4.636   2.600  15.579  0.4970  0.4914  1.9989
  247MPD1    H2 3751   4.657   2.190  15.500  0.2416  0.5407 -1.1895
  247MPD1    H3 3752   0.019   2.418  15.498  1.0231  0.8671  2.8616
  247MPD1     N 3753   4.390   2.630  15.652  0.9535  0.6672  0.7546
  247MPD1    H5 3754   4.458   2.704  15.661  2.3511 -0.7584  1.9930
  247MPD1    N1 3755   4.403   2.136  15.577  0.1521  0.2681 -0.1850
  247MPD1    H6 3756   4.311   2.112  15.614 -0.1251  1.2819 -0.2320
  247MPD1    H7 3757   4.471   2.062  15.593  0.7970  1.0189  0.5267
  248MPD1     C 3758   0.043   2.837   0.971 -0.0366  0.1444  0.8165
  248MPD1    C1 3759   0.037   2.963   1.030  0.5312 -0.5788  0.1719
  248MPD1    C2 3760   4.699   3.063   0.948 -0.1660 -0.3615  0.3177
  248MPD1    C3 3761   4.646   3.035   0.825 -0.7009  0.1004  0.4325
  248MPD1    C4 3762   4.653   2.909   0.772  0.8829  0.3592 -0.3417
  248MPD1    C5 3763   4.708   2.815   0.849  0.2848  0.9090 -0.3156
  248MPD1     H 3764   4.689   3.162   0.989 -0.0224  0.0458 -0.6303
  248MPD1    H1 3765   4.616   2.884   0.674 -3.4367  1.8996  0.8731
  248MPD1    H2 3766   0.087   2.751   1.022 -0.8753 -0.6269  0.2389
  248MPD1    H3 3767   4.700   2.716   0.805 -1.1339  0.0021  1.9227
  248MPD1     N 3768   4.606   3.147   0.752  0.4589  0.6151 -0.1169
  248MPD1    H5 3769   4.619   3.236   0.798  1.6584 -0.4210  1.5600
  248MPD1    N1 3770   0.095   2.993   1.155 -0.2554  0.1960 -0.2133
  248MPD1    H6 3771   0.050   3.077   1.191 -1.0393 -0.1087 -0.4608
  248MPD1    H7 3772   0.084   2.912   1.216 -0.8837  1.5417  1.4508
  249MPD1     C 3773   2.293   0.777  10.541  0.5576 -0.0149 -0.5989
  249MPD1    C1 3774   2.270   0.876  10.454  0.1349  0.6617 -0.6388
  249MPD1    C2 3775   2.142   0.907  10.410 -0.2285 -0.1378  0.3275
  249MPD1    C3 3776   2.037   0.839  10.467  0.5248  0.2816  0.9451
  249MPD1    C4 3777   2.056   0.742  10.559  0.4873  0.0675  0.2158
  249MPD1    C5 3778   2.183   0.704  10.585  0.4525 -0.0493  0.1938
  249MPD1     H 3779   2.122   0.982  10.334  0.2738 -1.0187 -0.6797
  249MPD1    H1 3780   1.977   0.692  10.615  2.1781 -0.3811  2.2044
  249MPD1    H2 3781   2.388   0.767  10.591  0.9703 -0.8170 -1.5341
  249MPD1    H3 3782   2.201   0.625  10.657  0.4457  1.4572  1.8423
  249MPD1     N 3783   1.906   0.884  10.441 -0.2051  0.3533  0.6371
  249MPD1    H5 3784   1.902   0.955  10.368 -0.5298 -0.3977 -0.0756
  249MPD1    N1 3785   2.383   0.929  10.388 -0.0099 -0.2528 -0.5931
  249MPD1    H6 3786   2.459   0.943  10.455 -0.3922 -0.0209 -0.2003
  249MPD1    H7 3787   2.356   1.020  10.350  0.9332 -0.0010 -0.6701
  250MPD2     C 3788   2.647   2.344  12.160  0.2386  0.0118  0.6299
  250MPD2    C1 3789   2.709   2.244  12.232  0.1310 -0.2247 -0.3827
  250MPD2    C2 3790   2.722   2.115  12.191 -0.1032  0.0730  0.1548
  250MPD2    C3 3791   2.673   2.081  12.066  0.2524  0.2514 -0.3458
  250MPD2    C4 3792   2.620   2.179  11.986  0.1379  0.4942  0.7422
  250MPD2    C5 3793   2.619   2.312  12.029  0.1209  0.1178 -0.4745
  250MPD2     H 3794   2.769   2.037  12.250  3.0149 -0.4775 -3.0834
  250MPD2    H1 3795   2.586   2.153  11.886 -1.8105  3.9911  0.4770
  250MPD2    H2 3796   2.642   2.448  12.187  0.3597  0.0868  0.3655
  250MPD2    H3 3797   2.577   2.389  11.965 -1.4603 -0.2392  0.1364
  250MPD2     N 3798   2.658   1.951  12.015 -0.2695 -0.1061 -0.0364
  250MPD2    H5 3799   2.633   1.941  11.917  2.2662  0.4847 -0.7472
  250MPD2    N1 3800   2.757   2.291  12.358 -0.2179  0.4456  0.3437
  250MPD2    H7 3801   2.728   2.383  12.391 -0.5847  0.1221  0.9384
  251TMC3    C1 3802   2.895   2.293  12.552 -0.1021  0.4122 -0.1321
  251TMC3    C2 3803   2.800   2.351  12.628  0.1316  0.0619 -0.7293
  251TMC3    C3 3804   2.836   2.387  12.754  0.0240  0.1309 -0.0272
  251TMC3    C4 3805   3.014   2.256  12.606  0.6378  0.5759 -0.2239
  251TMC3    C5 3806   3.048   2.290  12.737 -1.1045 -0.8709 -0.5882
  251TMC3    C6 3807   2.959   2.359  12.808 -0.2329 -0.4855 -0.6381
  251TMC3     C 3808   2.851   2.219  12.434  0.5870 -0.5865  0.1428
  251TMC3     O 3809   2.924   2.130  12.397 -0.4497 -0.1518  0.0167
  251TMC3     H 3810   2.703   2.380  12.590  1.4083  2.4283 -2.2251
  251TMC3    H1 3811   3.088   2.203  12.547 -1.3760 -0.9750 -1.3274
  251TMC3    H2 3812   2.985   2.381  12.911  0.0053 -1.9014 -0.3896
  251TMC3    C7 3813   3.179   2.298  12.788 -0.2512 -0.4073 -0.4408
  251TMC3    C8 3814   2.764   2.497  12.825 -0.3715  0.0873 -0.1976
  251TMC3    O1 3815   3.195   2.341  12.901  0.2463  0.1859  0.6086
  251TMC3    O2 3816   2.771   2.503  12.946  0.1073  0.1991  0.3122
  252TMC3    C1 3817   3.980   2.388   9.647  0.7853 -0.2639  0.1404
  252TMC3    C2 3818   4.070   2.477   9.602 -0.2709 -0.4350 -0.2460
  252TMC3    C3 3819   4.183   2.430   9.539  0.2946 -0.6205 -0.1307
  252TMC3    C4 3820   3.985   2.254   9.615 -0.1808  0.1012 -0.5763
  252TMC3    C5 3821   4.104   2.208   9.557 -0.0865  0.4942  0.0568
  252TMC3    C6 3822   4.201   2.292   9.510 -0.2896 -0.4240  0.0727
  252TMC3     C 3823   3.871   2.447   9.725 -0.0372 -0.0222 -0.3877
  252TMC3     O 3824   3.894   2.549   9.783 -0.5586  0.0383  0.1327
  252TMC3     H 3825   4.063   2.581   9.631  0.1822 -0.6463  0.6385
  252TMC3    H1 3826   3.911   2.187   9.657  0.5880  0.2082  0.9456
  252TMC3    H2 3827   4.287   2.252   9.456  0.1065  0.1096  0.3081
  252TMC3    C7 3828   4.113   2.063   9.541  0.2070 -0.4439 -0.4098
  252TMC3    C8 3829   4.288   2.519   9.508  0.1887 -0.4638 -0.3052
  252TMC3    O1 3830   4.206   2.017   9.479 -0.1229  0.1600  0.4586
  252TMC3    O2 3831   4.391   2.466   9.467  0.4480 -0.1437  0.5353
  253MPD2     C 3832   4.620   1.825  15.241  0.2578  0.4225  0.1465
  253MPD2    C1 3833   4.561   1.948  15.219 -0.1520 -0.2755  0.1621
  253MPD2    C2 3834   4.648   2.051  15.192 -0.4954  0.0702  0.4648
  253MPD2    C3 3835   0.060   2.035  15.159 -0.4353 -0.0847  0.1854
  253MPD2    C4 3836   0.111   1.907  15.161  0.5204 -0.9850  0.6474
  253MPD2    C5 3837   0.028   1.803  15.198 -0.1902  0.5772 -0.3509
  253MPD2     H 3838   4.592   2.144  15.188 -1.4453 -0.5329 -0.1140
  253MPD2    H1 3839   0.215   1.889  15.140  0.1996  2.1671 -3.4996
  253MPD2    H2 3840   4.571   1.735  15.274 -1.2441  1.2082  0.0589
  253MPD2    H3 3841   0.069   1.703  15.210  2.8047  1.8113 -0.1326
  253MPD2     N 3842   0.144   2.139  15.127 -0.1945 -0.8748 -0.0685
  253MPD2    H5 3843   0.239   2.110  15.105  0.1183 -1.7608  2.5229
  253MPD2    N1 3844   4.422   1.963  15.230  0.3198  0.2775  0.0052
  253MPD2    H7 3845   4.388   2.055  15.205 -0.7751 -0.1273  0.0147
  254TMC3    C1 3846   0.241   2.332  15.191 -0.3803 -0.4963 -0.1980
  254TMC3    C2 3847   0.225   2.462  15.197 -0.0354 -0.7351 -0.0710
  254TMC3    C3 3848   0.255   2.525  15.312 -0.2310 -0.0326 -0.2667
  254TMC3    C4 3849   0.310   2.257  15.289  0.0300 -0.2416 -0.0877
  254TMC3    C5 3850   0.341   2.323  15.404 -0.1720  0.2137 -0.0068
  254TMC3    C6 3851   0.303   2.454  15.413 -0.6430  0.0782  0.2203
  254TMC3     C 3852   0.115   2.267  15.157 -0.2682 -0.2263  0.0569
  254TMC3     O 3853   0.009   2.328  15.158  0.7692 -0.2701 -0.3210
  254TMC3     H 3854   0.184   2.525  15.120  2.6158  0.3413 -0.6025
  254TMC3    H1 3855   0.355   2.162  15.264 -1.0088 -0.2558 -1.9160
  254TMC3    H2 3856   0.324   2.506  15.505 -5.2132  0.8563  0.8404
  254TMC3    C7 3857   0.328   2.248  15.526  0.4346  0.0899  0.3014
  254TMC3    C8 3858   0.185   2.646  15.348 -0.1071 -0.9367 -0.3095
  254TMC3    O1 3859   0.364   2.295  15.633  0.4288 -0.1167 -0.6717
  254TMC3    O2 3860   0.220   2.719  15.438  0.6888 -0.1858 -0.0912
  255MPD2     C 3861   3.024   4.047  10.136  0.4185  0.2995 -0.4095
  255MPD2    C1 3862   3.109   4.146  10.093  0.1592  0.3194  0.2347
  255MPD2    C2 3863   3.232   4.119  10.039 -0.0275 -0.5253  0.4846
  255MPD2    C3 3864   3.283   3.989  10.033 -0.1775  0.0929  0.0823
  255MPD2    C4 3865   3.206   3.891  10.081 -0.1986 -0.3934  0.2804
  255MPD2    C5 3866   3.076   3.921  10.124 -0.6260  0.2105 -0.1368
  255MPD2     H 3867   3.298   4.199  10.005  0.9802 -1.3474  0.5137
  255MPD2    H1 3868   3.232   3.786  10.085  0.9067 -0.1119  0.2307
  255MPD2    H2 3869   2.921   4.067  10.162 -0.0229 -1.4420 -0.8148
  255MPD2    H3 3870   3.020   3.838  10.165 -0.4139  1.0344  1.7910
  255MPD2     N 3871   3.415   3.979   9.988  0.0630  0.0800  0.2452
  255MPD2    H5 3872   3.479   4.057   9.985 -0.9500  0.9569  1.4568
  255MPD2    N1 3873   3.055   4.272  10.103  0.0095 -0.0894  0.1019
  255MPD2    H7 3874   2.956   4.281  10.126  0.1329  1.1303  0.1298
  256TMC3    C1 3875   3.061   4.510  10.072  0.3453 -0.5027 -0.5303
  256TMC3    C2 3876   3.131   4.613  10.124 -0.1229  0.2302  0.2310
  256TMC3    C3 3877   3.142   4.721  10.037  0.3830 -0.0616 -0.3359
  256TMC3    C4 3878   3.005   4.513   9.948  0.5637 -0.3036  0.0172
  256TMC3    C5 3879   3.020   4.622   9.874  0.8061  0.1865  0.5989
  256TMC3    C6 3880   3.083   0.010   9.917  0.4442  0.8588  0.9419
  256TMC3     C 3881   3.130   4.385  10.101  0.5052 -0.3365  0.1854
  256TMC3     O 3882   3.251   4.400  10.098  0.1513  0.6848  0.1642
  256TMC3     H 3883   3.184   4.612  10.218 -0.3387 -2.6210  0.3244
  256TMC3    H1 3884   2.977   4.424   9.892  2.7889  0.2568 -2.0082
  256TMC3    H2 3885   3.102   0.100   9.860  0.5195  0.9448  1.1038
  256TMC3    C7 3886   2.980   4.618   9.732  0.8406  0.7393  0.5217
  256TMC3    C8 3887   3.272   0.061  10.059 -0.3739  0.1021 -0.5410
  256TMC3    O1 3888   3.053   4.664   9.648 -0.6736 -0.2739 -0.8496
  256TMC3    O2 3889   3.322   0.055  10.172 -0.1890  0.1741  0.3993
  257MPD2     C 3890   2.011   2.500  12.682  0.5771  0.0953 -0.1193
  257MPD2    C1 3891   2.031   2.393  12.601  0.6234 -0.4973  0.1471
  257MPD2    C2 3892   2.048   2.273  12.659  0.1444 -0.6373 -0.6481
  257MPD2    C3 3893   2.010   2.252  12.788  0.1953 -0.7975  0.2233
  257MPD2    C4 3894   1.973   2.360  12.867  0.1615  0.0884  0.1681
  257MPD2    C5 3895   1.979   2.487  12.811  0.0444  0.3698  0.5804
  257MPD2     H 3896   2.089   2.188  12.607  0.1793 -0.1536 -1.4088
  257MPD2    H1 3897   1.958   2.340  12.972 -0.2860 -0.3455  0.0255
  257MPD2    H2 3898   2.015   2.602  12.645 -1.5884 -0.0848 -0.8189
  257MPD2    H3 3899   1.971   2.574  12.875  1.0067  0.9649 -0.1041
  257MPD2     N 3900   2.024   2.119  12.836  0.0874  0.1672 -0.0924
  257MPD2    H5 3901   2.057   2.051  12.768 -2.3330 -2.4386  1.3453
  257MPD2    N1 3902   2.036   2.417  12.460 -0.1267  0.1121  0.3829
  257MPD2    H7 3903   2.046   2.512  12.425 -1.1055  0.7086  1.7603
  258TMC3    C1 3904   2.039   1.943  12.993  0.4921 -0.4839  0.0858
  258TMC3    C2 3905   2.112   1.866  12.902 -0.0233 -0.4116  0.5121
  258TMC3    C3 3906   2.168   1.751  12.954 -0.1999  0.4501 -0.2233
  258TMC3    C4 3907   2.017   1.896  13.119 -0.1029  0.1647 -0.2405
  258TMC3    C5 3908   2.062   1.770  13.155 -0.0960  0.2693 -0.7031
  258TMC3    C6 3909   2.145   1.700  13.069 -0.1230 -0.3401 -0.4680
  258TMC3     C 3910   1.997   2.079  12.965  1.0072  0.2584  0.2412
  258TMC3     O 3911   1.944   2.143  13.054  0.0912  0.5930  0.2831
  258TMC3     H 3912   2.113   1.888  12.796 -1.4744  2.7730  1.1337
  258TMC3    H1 3913   1.954   1.956  13.184 -0.2834 -0.9692  0.6292
  258TMC3    H2 3914   2.194   1.611  13.109 -1.7370 -0.3970  1.3868
  258TMC3    C7 3915   2.020   1.722  13.281  0.0156 -0.3377  0.1398
  258TMC3    C8 3916   2.261   1.676  12.867  0.0271  0.2663  0.3544
  258TMC3    O1 3917   1.917   1.768  13.330  0.1422 -0.6973  0.3720
  258TMC3    O2 3918   2.299   1.561  12.896  0.3057 -0.7964  0.5978
  259MPD2     C 3919   0.574   3.557   0.636 -0.1368  0.5552 -0.6886
  259MPD2    C1 3920   0.680   3.632   0.662  0.2038  0.0649  0.2441
  259MPD2    C2 3921   0.791   3.626   0.581  0.5318 -0.0314  0.1088
  259MPD2    C3 3922   0.801   3.544   0.472  0.0538 -0.1722 -1.2124
  259MPD2    C4 3923   0.691   3.467   0.447  0.1690  0.3470 -0.0539
  259MPD2    C5 3924   0.577   3.474   0.523 -0.3649  0.9141 -0.3829
  259MPD2     H 3925   0.874   3.690   0.609  0.5538 -0.8713  1.9351
  259MPD2    H1 3926   0.674   3.397   0.365 -1.5568  2.6489 -1.6668
  259MPD2    H2 3927   0.479   3.559   0.689  0.0725  1.7866 -0.3419
  259MPD2    H3 3928   0.486   3.424   0.493 -0.4336 -0.7756  2.6573
  259MPD2     N 3929   0.915   3.549   0.391  0.9771  0.0130  0.5565
  259MPD2    H5 3930   0.986   3.620   0.402 -0.5180  1.4988  0.5580
  259MPD2    N1 3931   0.678   3.696   0.792 -0.2208  0.0207 -0.1792
  259MPD2    H7 3932   0.592   3.679   0.843 -0.5242 -0.6184 -0.8890
  260TMC3    C1 3933   1.062   3.485   0.213  0.1640  0.4445  0.2181
  260TMC3    C2 3934   1.178   3.521   0.284 -0.3227 -0.9133 -0.1096
  260TMC3    C3 3935   1.290   3.532   0.206 -0.4974 -0.6430 -0.4048
  260TMC3    C4 3936   1.052   3.470   0.080 -0.3027  0.4216 -0.2220
  260TMC3    C5 3937   1.170   3.466   0.015 -0.2455 -0.5684  0.0867
  260TMC3    C6 3938   1.290   3.507   0.069  0.7581  0.4896 -0.2593
  260TMC3     C 3939   0.936   3.458   0.285  0.0656  0.2358  0.5690
  260TMC3     O 3940   0.862   3.367   0.240  0.0191  0.0436  0.4536
  260TMC3     H 3941   1.181   3.522   0.393 -0.3639 -0.9217 -0.1083
  260TMC3    H1 3942   0.959   3.432   0.040  0.8244 -1.1690 -1.3124
  260TMC3    H2 3943   1.374   3.530   0.003 -0.6682 -0.6479 -2.4585
  260TMC3    C7 3944   1.179   3.413  17.573  0.3342  0.7599  0.1370
  260TMC3    C8 3945   1.412   3.557   0.277 -0.0423 -0.8840 -0.5180
  260TMC3    O1 3946   1.287   3.388  17.523 -0.0294 -0.4511  0.1576
  260TMC3    O2 3947   1.415   3.573   0.397 -0.1660  0.1780 -0.5782
  261MPD2     C 3948   2.837   1.591  11.395  0.1816  0.0570  0.0652
  261MPD2    C1 3949   2.825   1.702  11.476 -0.2804 -0.2199 -0.1358
  261MPD2    C2 3950   2.850   1.827  11.418 -0.4752 -0.4411 -0.0004
  261MPD2    C3 3951   2.869   1.843  11.282 -0.6479 -0.3911  0.1400
  261MPD2    C4 3952   2.860   1.731  11.204  0.5557  0.6650  0.1489
  261MPD2    C5 3953   2.847   1.608  11.259  0.2410 -0.1339  0.2469
  261MPD2     H 3954   2.865   1.909  11.487  0.4668 -0.8185  0.2500
  261MPD2    H1 3955   2.880   1.742  11.098  0.9614 -0.5982  0.0905
  261MPD2    H2 3956   2.838   1.488  11.430  0.7776  0.5428  1.4443
  261MPD2    H3 3957   2.853   1.517  11.200 -0.1181  1.1614 -1.7996
  261MPD2     N 3958   2.898   1.970  11.211  0.3121  0.2806  0.6817
  261MPD2    H5 3959   2.922   1.966  11.113 -0.5190  2.2332  0.4133
  261MPD2    N1 3960   2.800   1.688  11.610 -0.2664  0.2249  0.0895
  261MPD2    H7 3961   2.796   1.775  11.662  1.3542  0.6633 -0.5461
  262TMC3    C1 3962   2.923   2.196  11.194 -0.0700 -0.3751 -0.3931
  262TMC3    C2 3963   2.858   2.317  11.214 -0.2716 -0.0653 -0.6949
  262TMC3    C3 3964   2.921   2.432  11.159 -0.4118 -0.8998  0.1075
  262TMC3    C4 3965   3.020   2.181  11.101  1.9005  0.5115  0.0706
  262TMC3    C5 3966   3.070   2.294  11.046  0.1010 -0.9224 -0.2519
  262TMC3    C6 3967   3.026   2.419  11.073 -0.1026  0.5315  0.8312
  262TMC3     C 3968   2.890   2.088  11.275 -0.3691  0.4521 -0.2595
  262TMC3     O 3969   2.845   2.115  11.390  0.4923  0.2245 -0.2202
  262TMC3     H 3970   2.782   2.319  11.291  0.2704 -2.1359 -0.1191
  262TMC3    H1 3971   3.071   2.087  11.085  1.0325 -0.1188  1.0435
  262TMC3    H2 3972   3.066   2.506  11.021  2.7805 -1.8668 -0.9500
  262TMC3    C7 3973   3.162   2.278  10.933  0.7835  0.3738 -0.0224
  262TMC3    C8 3974   2.901   2.565  11.216 -0.1158  0.3518 -0.1094
  262TMC3    O1 3975   3.146   2.168  10.879  0.3480 -0.2149 -0.3004
  262TMC3    O2 3976   2.982   2.663  11.186  0.0872 -0.2031 -0.5821
  263MPD2     C 3977   3.985   1.458  11.053 -0.1705  0.3089  0.1312
  263MPD2    C1 3978   4.112   1.513  11.055 -0.2233 -0.5979  0.3052
  263MPD2    C2 3979   4.140   1.617  10.978  0.3621  0.1209  0.0509
  263MPD2    C3 3980   4.042   1.680  10.904  0.2891 -0.0886 -0.1379
  263MPD2    C4 3981   3.920   1.625  10.896 -0.4372 -0.4819 -1.0151
  263MPD2    C5 3982   3.890   1.514  10.976 -0.7257 -0.1155  0.1507
  263MPD2     H 3983   4.234   1.672  10.973  0.0671  0.4945 -1.2678
  263MPD2    H1 3984   3.838   1.662  10.835  0.7951  0.3972 -2.1326
  263MPD2    H2 3985   3.955   1.378  11.119 -2.5474 -0.4211 -1.8377
  263MPD2    H3 3986   3.790   1.473  10.965 -0.0331 -1.6957 -0.3357
  263MPD2     N 3987   4.079   1.793  10.831 -0.2688 -0.4036  0.7021
  263MPD2    H5 3988   4.178   1.814  10.834 -0.3787  0.2755 -0.6867
  263MPD2    N1 3989   4.209   1.449  11.128  0.5467  0.1825 -0.0347
  263MPD2    H7 3990   4.182   1.380  11.197  2.2182 -1.2771 -0.8582
  264TMC3    C1 3991   4.062   1.996  10.724 -0.1929 -0.2348  0.9264
  264TMC3    C2 3992   4.010   2.117  10.755 -0.2565  0.0514 -0.4082
  264TMC3    C3 3993   4.067   2.219  10.698  0.0256 -0.1834  0.3742
  264TMC3    C4 3994   4.170   1.977  10.649  0.2978  0.3073  0.2482
  264TMC3    C5 3995   4.228   2.084  10.599 -0.1546  0.3708  0.2654
  264TMC3    C6 3996   4.179   2.206  10.623  0.3629 -0.4846 -0.2213
  264TMC3     C 3997   3.991   1.879  10.777 -0.5646  0.5760 -0.7273
  264TMC3     O 3998   3.867   1.893  10.797  0.0091 -0.0071  0.0832
  264TMC3     H 3999   3.921   2.125  10.816 -0.0053  0.2636 -0.0747
  264TMC3    H1 4000   4.212   1.878  10.636  2.4372  1.4342 -1.4220
  264TMC3    H2 4001   4.213   2.295  10.571  0.9750 -0.8451 -0.4401
  264TMC3    C7 4002   4.355   2.070  10.537  0.6416  0.8562  0.0062
  264TMC3    C8 4003   4.030   2.355  10.739  0.2069  0.1691 -0.3469
  264TMC3    O1 4004   4.380   1.962  10.493  0.1281  0.2358  0.5887
  264TMC3    O2 4005   4.078   2.448  10.672  0.1338  0.0866  0.2324
  265MPD2     C 4006   0.641   2.017  15.214  0.8552  0.3059  0.0509
  265MPD2    C1 4007   0.713   2.124  15.169 -0.0688  0.3306 -0.0881
  265MPD2    C2 4008   0.781   2.117  15.051  0.2920 -0.3522 -0.6105
  265MPD2    C3 4009   0.781   2.003  14.979  0.3754 -0.5190 -0.1954
  265MPD2    C4 4010   0.720   1.893  15.031 -0.6196  0.4203  0.3280
  265MPD2    C5 4011   0.641   1.902  15.144 -0.3500  0.5343  0.2721
  265MPD2     H 4012   0.833   2.203  15.011 -1.8615  0.9411 -0.6093
  265MPD2    H1 4013   0.721   1.797  14.980 -1.4505  0.7977 -0.3861
  265MPD2    H2 4014   0.577   2.020  15.301 -0.5504  0.2160 -0.9794
  265MPD2    H3 4015   0.580   1.819  15.179  0.5594 -0.3284 -0.1854
  265MPD2     N 4016   0.870   1.973  14.875 -0.4578 -0.4755 -0.4884
  265MPD2    H5 4017   0.875   1.877  14.840  2.0659 -1.0342  1.4794
  265MPD2    N1 4018   0.717   2.248  15.234 -0.9815  0.1244  0.0762
  265MPD2    H7 4019   0.780   2.317  15.195 -1.0161 -1.1783 -2.2423
  266TMC3    C1 4020   0.685   2.405  15.422  0.1310  0.6149  0.1637
  266TMC3    C2 4021   0.699   2.423  15.557  0.5668 -0.3356  0.2189
  266TMC3    C3 4022   0.687   2.547  15.615 -0.6411 -0.0137  0.2582
  266TMC3    C4 4023   0.646   2.507  15.344 -0.1335  0.0564 -0.3456
  266TMC3    C5 4024   0.640   2.630  15.404  0.0084 -0.3023 -0.1929
  266TMC3    C6 4025   0.668   2.658  15.533  0.0959  0.1593  0.3373
  266TMC3     C 4026   0.679   2.268  15.368  0.2927  0.3777 -0.3491
  266TMC3     O 4027   0.656   2.180  15.451  0.4701 -0.4534 -0.3032
  266TMC3     H 4028   0.709   2.335  15.619 -1.2657 -0.6566  0.0504
  266TMC3    H1 4029   0.611   2.488  15.242 -2.8487 -1.6015  0.8829
  266TMC3    H2 4030   0.657   2.757  15.577 -1.7910 -0.6497  1.7313
  266TMC3    C7 4031   0.575   2.734  15.323 -0.3135  0.2891 -0.3820
  266TMC3    C8 4032   0.767   2.562  15.737 -0.5607 -0.4691  0.0876
  266TMC3    O1 4033   0.570   2.719  15.200 -0.5380  0.2391  0.4054
  266TMC3    O2 4034   0.816   2.458  15.782 -0.5860 -0.2408 -0.5255
  267MPD2     C 4035   3.523   3.985  17.597 -0.0252 -0.1311 -0.0587
  267MPD2    C1 4036   3.395   3.966  17.632 -0.1956  0.3101 -0.7524
  267MPD2    C2 4037   3.319   3.875  17.558 -0.0933  0.4705 -0.1934
  267MPD2    C3 4038   3.377   3.787  17.467  0.7808 -0.7236 -0.0560
  267MPD2    C4 4039   3.514   3.805  17.446  0.5328  0.3029  0.5732
  267MPD2    C5 4040   3.582   3.911  17.505  0.1512 -0.1427  0.0401
  267MPD2     H 4041   3.217   3.855  17.588 -0.7821  0.6176 -2.4792
  267MPD2    H1 4042   3.562   3.737  17.375 -0.0432 -0.7224  1.1655
  267MPD2    H2 4043   3.587   4.059  17.645  2.8835 -2.2407 -0.7162
  267MPD2    H3 4044   3.689   3.927  17.498  0.0486 -0.3142 -2.0554
  267MPD2     N 4045   3.296   3.708  17.388  0.4461 -0.8803 -0.4348
  267MPD2    H5 4046   3.331   3.662  17.305  0.8160 -0.5926 -0.4349
  267MPD2    N1 4047   3.342   4.041   0.045  0.0643 -0.1818 -0.4838
  267MPD2    H7 4048   3.395   4.124   0.072 -0.6356 -0.3552  1.4008
  268TMC3    C1 4049   3.223   4.097   0.234 -0.2186 -0.4163  0.2396
  268TMC3    C2 4050   3.222   4.229   0.193  0.0155 -0.3908  0.0869
  268TMC3    C3 4051   3.172   4.325   0.282  0.4797  0.0444  0.1530
  268TMC3    C4 4052   3.192   4.057   0.361  0.5114 -0.3036 -0.7892
  268TMC3    C5 4053   3.163   4.159   0.451  0.3684  0.6028  0.0584
  268TMC3    C6 4054   3.149   4.288   0.413  0.0557 -0.5341  0.2902
  268TMC3     C 4055   3.241   3.997   0.127 -0.5927 -0.2003 -0.2604
  268TMC3     O 4056   3.192   3.884   0.142 -0.3409 -0.1222 -0.5282
  268TMC3     H 4057   3.237   4.254   0.089 -1.1598 -1.8120 -0.4211
  268TMC3    H1 4058   3.177   3.952   0.380 -0.5220 -0.0639 -0.2733
  268TMC3    H2 4059   3.112   4.361   0.484 -1.0800 -0.0522 -0.7900
  268TMC3    C7 4060   3.204   4.128   0.585 -0.0207 -0.1436  0.5731
  268TMC3    C8 4061   3.151   4.468   0.251  0.0457 -0.5363 -0.0489
  268TMC3    O1 4062   3.203   4.007   0.609 -0.0473 -0.6139  0.2225
  268TMC3    O2 4063   3.148   4.536   0.353  0.0609  0.5411  0.2675
  269MPD2     C 4064   3.501   2.218  15.747  0.1610  0.2504  0.1976
  269MPD2    C1 4065   3.370   2.266  15.763  0.4059 -0.7020 -1.0506
  269MPD2    C2 4066   3.343   2.398  15.728  0.2942 -0.7978 -0.1226
  269MPD2    C3 4067   3.429   2.463  15.642 -0.0725  0.6244  0.4365
  269MPD2    C4 4068   3.552   2.408  15.613 -0.2069  0.1381  0.0165
  269MPD2    C5 4069   3.589   2.293  15.677  0.5410  0.0999 -0.1972
  269MPD2     H 4070   3.251   2.450  15.750  0.0613 -1.0914 -0.4020
  269MPD2    H1 4071   3.620   2.457  15.545 -1.0311 -0.0161 -0.9244
  269MPD2    H2 4072   3.543   2.130  15.794  1.2340 -0.9108 -2.9774
  269MPD2    H3 4073   3.687   2.249  15.663  0.6469  0.5396 -0.8321
  269MPD2     N 4074   3.398   2.593  15.598 -0.5144 -0.2134  0.5669
  269MPD2    H5 4075   3.324   2.637  15.651 -0.7600  0.6869 -0.5236
  269MPD2    N1 4076   3.279   2.186  15.832 -0.5643 -0.3955  0.1843
  269MPD2    H7 4077   3.325   2.101  15.860 -1.3079 -0.4678  1.2023
  270TMC3    C1 4078   3.081   2.087  15.907  0.2609 -0.3926 -0.5196
  270TMC3    C2 4079   2.957   2.064  15.846 -0.3698 -0.2061 -0.2862
  270TMC3    C3 4080   2.912   1.937  15.843  0.2667 -0.1307  0.4980
  270TMC3    C4 4081   3.161   1.983  15.944 -0.1964  0.6245  0.3685
  270TMC3    C5 4082   3.109   1.855  15.940  0.0254  0.5142  0.0910
  270TMC3    C6 4083   2.978   1.830  15.896  0.1186 -0.3961  0.3820
  270TMC3     C 4084   3.144   2.209  15.860  0.3874 -0.2862 -0.0124
  270TMC3     O 4085   3.078   2.308  15.839  0.1009  0.0432 -0.0446
  270TMC3     H 4086   2.888   2.141  15.812 -0.4673 -0.7936 -1.4015
  270TMC3    H1 4087   3.265   1.995  15.970  0.2657 -1.1903 -0.6035
  270TMC3    H2 4088   2.927   1.735  15.898 -1.2214  0.2802 -1.5907
  270TMC3    C7 4089   3.214   1.753  15.933  0.3822 -0.0955 -0.5229
  270TMC3    C8 4090   2.833   1.902  15.724  0.5335  0.2886  0.5118
  270TMC3    O1 4091   3.337   1.778  15.942  0.0908  0.0243 -0.7112
  270TMC3    O2 4092   2.709   1.909  15.730 -0.0218 -0.4664  0.1459
  271MPD2     C 4093   2.738   1.987  14.063  0.5336  0.0542 -0.8135
  271MPD2    C1 4094   2.622   1.929  14.098  0.4903  0.2583  0.1392
  271MPD2    C2 4095   2.504   1.979  14.043  0.3446  0.1983  0.3215
  271MPD2    C3 4096   2.517   2.064  13.936  0.0393 -0.1748 -0.3997
  271MPD2    C4 4097   2.640   2.114  13.894  0.6576  0.4800 -0.1726
  271MPD2    C5 4098   2.750   2.083  13.965  0.2898  0.4959 -0.3730
  271MPD2     H 4099   2.410   1.936  14.076 -0.0471 -1.0711 -2.4196
  271MPD2    H1 4100   2.652   2.186  13.814 -2.2736  1.0104 -0.1250
  271MPD2    H2 4101   2.833   1.969  14.113  1.3255  1.2733 -1.8672
  271MPD2    H3 4102   2.849   2.116  13.937  0.5251 -0.1934 -0.3684
  271MPD2     N 4103   2.411   2.112  13.858  0.0744 -0.0144 -0.2078
  271MPD2    H5 4104   2.438   2.175  13.784  2.4096 -1.0756 -0.2633
  271MPD2    N1 4105   2.609   1.838  14.196 -0.1721 -0.2644  0.0083
  271MPD2    H7 4106   2.518   1.817  14.236 -0.2684 -1.2865 -0.7282
  272TMC3    C1 4107   2.702   1.685  14.356 -0.5070  0.0401  0.1727
  272TMC3    C2 4108   2.813   1.610  14.375  0.1958 -0.0998  0.1400
  272TMC3    C3 4109   2.864   1.604  14.509  0.1944 -0.0001  0.1190
  272TMC3    C4 4110   2.654   1.767  14.459 -0.4141 -0.3978 -0.0195
  272TMC3    C5 4111   2.698   1.750  14.585 -0.9126 -0.0917 -0.5073
  272TMC3    C6 4112   2.798   1.659  14.617  0.2708 -0.5392 -0.4115
  272TMC3     C 4113   2.720   1.760  14.232 -0.2168  0.0966 -0.3047
  272TMC3     O 4114   2.829   1.745  14.179  0.4089 -0.1051 -0.5881
  272TMC3     H 4115   2.863   1.567  14.289 -0.1101  1.2765 -0.7256
  272TMC3    H1 4116   2.567   1.829  14.441 -0.8371 -1.0370 -0.1436
  272TMC3    H2 4117   2.830   1.645  14.719 -0.6336  0.6135  0.0356
  272TMC3    C7 4118   2.609   1.814  14.682  0.0893 -0.1544  0.3853
  272TMC3    C8 4119   3.004   1.574  14.527  0.5018 -0.8586  0.4244
  272TMC3    O1 4120   2.495   1.776  14.672 -0.2898 -0.2562 -0.4908
  272TMC3    O2 4121   3.069   1.570  14.426  0.5509  0.0545 -0.0079
  273MPD2     C 4122   0.388   0.710  11.533 -0.0759  0.1021 -0.0135
  273MPD2    C1 4123   0.295   0.608  11.500 -0.2064 -0.5467 -0.5565
  273MPD2    C2 4124   0.287   0.570  11.365 -0.1232 -0.0124 -0.3641
  273MPD2    C3 4125   0.377   0.619  11.280  0.2663 -0.1696  0.4023
  273MPD2    C4 4126   0.466   0.720  11.311 -0.0206  0.0191 -0.0641
  273MPD2    C5 4127   0.462   0.764  11.439  0.6865  0.4160  0.6013
  273MPD2     H 4128   0.209   0.502  11.333 -1.7072  1.4977  0.3217
  273MPD2    H1 4129   0.524   0.770  11.235  0.1839  0.2036  0.2156
  273MPD2    H2 4130   0.390   0.748  11.635  0.3928  3.3123 -1.2265
  273MPD2    H3 4131   0.519   0.851  11.467 -0.5905  0.8398  1.8875
  273MPD2     N 4132   0.374   0.589  11.145 -0.1889 -0.5144  0.6542
  273MPD2    H5 4133   0.450   0.627  11.089 -2.2119  1.1424 -0.9557
  273MPD2    N1 4134   0.229   0.544  11.604  0.3206  0.7989  0.2585
  273MPD2    H7 4135   0.243   0.578  11.699  0.0322  1.2818  0.1310
  274TMC3    C1 4136   0.292   0.539  10.933 -0.4011  0.8901  0.5703
  274TMC3    C2 4137   0.227   0.465  10.847  0.1390  0.1639  0.4323
  274TMC3    C3 4138   0.236   0.501  10.712 -0.0032  0.9616  0.2508
  274TMC3    C4 4139   0.342   0.664  10.902 -0.2403 -0.2866  0.1864
  274TMC3    C5 4140   0.341   0.698  10.768 -0.3018  0.3778  0.7658
  274TMC3    C6 4141   0.290   0.619  10.671 -0.3975  0.1735 -0.3333
  274TMC3     C 4142   0.281   0.513  11.079  0.1033 -0.3085 -0.4635
  274TMC3     O 4143   0.186   0.447  11.114  0.1622  0.3160 -0.5247
  274TMC3     H 4144   0.194   0.365  10.874  1.1651  0.3567  2.4147
  274TMC3    H1 4145   0.384   0.733  10.975 -0.1600  1.6764 -1.7350
  274TMC3    H2 4146   0.266   0.665  10.575 -3.5409  0.6977  0.7021
  274TMC3    C7 4147   0.325   0.840  10.764 -0.6550 -0.1123 -0.2115
  274TMC3    C8 4148   0.148   0.440  10.622 -0.9150 -1.0105  0.8212
  274TMC3    O1 4149   0.375   0.902  10.672  0.2555  0.0408  0.2849
  274TMC3    O2 4150   0.172   0.452  10.504 -0.6927 -1.1920  0.5238
  275MPD2     C 4151   4.053   2.959  14.293  0.2684  0.4317 -0.1080
  275MPD2    C1 4152   4.013   2.915  14.416  0.1420  0.3057  0.0798
  275MPD2    C2 4153   3.880   2.874  14.422 -1.3418  0.4731  0.6154
  275MPD2    C3 4154   3.797   2.870  14.318 -0.0814  0.7366 -0.1468
  275MPD2    C4 4155   3.849   2.882  14.194  0.9330  0.1366  0.3008
  275MPD2    C5 4156   3.975   2.930  14.181  0.3978 -0.5200  0.3347
  275MPD2     H 4157   3.832   2.842  14.514 -0.4300 -1.0511  0.5571
  275MPD2    H1 4158   3.782   2.885  14.109  2.2640 -0.0026 -0.7326
  275MPD2    H2 4159   4.148   3.011  14.285  0.0144  0.7878 -0.8328
  275MPD2    H3 4160   4.014   2.960  14.084  1.2019  0.8265  1.0719
  275MPD2     N 4161   3.661   2.833  14.322 -0.3096 -0.2774  0.6609
  275MPD2    H5 4162   3.625   2.836  14.227 -1.8099  1.7982  1.2999
  275MPD2    N1 4163   4.075   2.926  14.539 -0.6491  0.2389 -0.1114
  275MPD2    H7 4164   4.021   2.894  14.619  2.8198 -0.8547  1.8146
  276TMC3    C1 4165   4.240   2.968  14.702 -0.3382  0.4117  0.1844
  276TMC3    C2 4166   4.163   2.892  14.791 -0.1357 -0.5217  0.2562
  276TMC3    C3 4167   4.178   2.918  14.928 -0.5805 -0.1045  0.1083
  276TMC3    C4 4168   4.333   3.058  14.743 -0.7680 -0.5235  1.1325
  276TMC3    C5 4169   4.343   3.075  14.879  0.1104  0.0187  0.4237
  276TMC3    C6 4170   4.262   3.012  14.972 -0.5224 -0.1326  0.1407
  276TMC3     C 4171   4.195   2.983  14.563 -0.3249  0.5067  0.4308
  276TMC3     O 4172   4.269   3.043  14.488 -0.0935  0.8457  0.3380
  276TMC3     H 4173   4.088   2.818  14.767 -0.1597 -0.2327 -0.5543
  276TMC3    H1 4174   4.389   3.111  14.667  1.0440 -0.2119  2.6750
  276TMC3    H2 4175   4.266   3.030  15.079  0.5471  0.4599 -0.0045
  276TMC3    C7 4176   4.453   3.155  14.938  0.1605  0.2333 -0.8651
  276TMC3    C8 4177   4.087   2.851  15.011  0.1404 -0.2823  0.2483
  276TMC3    O1 4178   4.444   3.179  15.061  0.3725 -0.3564 -0.1243
  276TMC3    O2 4179   4.053   2.919  15.110 -0.2090  0.3203 -0.7556
  277MPD2     C 4180   1.481   2.030  12.922 -0.9510 -0.1446  0.5283
  277MPD2    C1 4181   1.354   2.063  12.970  0.3686  0.5125  0.1027
  277MPD2    C2 4182   1.283   1.966  13.034 -0.6698 -0.0063 -0.0205
  277MPD2    C3 4183   1.323   1.826  13.038 -0.1964  0.3206 -0.1305
  277MPD2    C4 4184   1.460   1.806  13.000  0.0972  0.0843  0.4488
  277MPD2    C5 4185   1.530   1.910  12.943 -0.4420 -0.8665  0.0023
  277MPD2     H 4186   1.185   1.995  13.070  1.4523  4.3068  2.2703
  277MPD2    H1 4187   1.515   1.716  13.022 -3.6808 -2.0370  1.1004
  277MPD2    H2 4188   1.535   2.117  12.885 -1.2781 -1.3749 -2.7734
  277MPD2    H3 4189   1.635   1.895  12.921 -0.4463 -3.6911  1.9355
  277MPD2     N 4190   1.242   1.734  13.102  0.8012  0.6466 -0.0847
  277MPD2    H5 4191   1.150   1.761  13.136 -0.4017  0.1428 -2.9325
  277MPD2    N1 4192   1.305   2.192  12.963 -0.7720 -0.0740 -0.6370
  277MPD2    H7 4193   1.370   2.264  12.932  1.4260 -2.1191 -0.7719
  278TMC3    C1 4194   1.156   1.543  13.181 -0.5463 -0.3664  0.6790
  278TMC3    C2 4195   1.119   1.421  13.140 -0.2463 -0.2644 -0.3636
  278TMC3    C3 4196   0.994   1.374  13.173 -0.0141  0.3760 -0.2849
  278TMC3    C4 4197   1.078   1.615  13.269 -0.5204  0.5427 -0.0773
  278TMC3    C5 4198   0.954   1.565  13.311  0.4858  0.5451 -1.1485
  278TMC3    C6 4199   0.906   1.451  13.247  0.3387 -0.4613 -0.7320
  278TMC3     C 4200   1.282   1.605  13.134  0.0264  0.7893 -0.4235
  278TMC3     O 4201   1.389   1.543  13.123 -0.5409 -0.5320 -0.1435
  278TMC3     H 4202   1.184   1.362  13.077  2.2776  0.8208  1.2077
  278TMC3    H1 4203   1.121   1.707  13.307 -0.3271  1.4626 -2.5654
  278TMC3    H2 4204   0.817   1.407  13.292  1.9240 -1.7339  1.1524
  278TMC3    C7 4205   0.886   1.635  13.416  0.4324  0.6113 -0.2899
  278TMC3    C8 4206   0.979   1.229  13.168 -0.2705  0.1368  0.0479
  278TMC3    O1 4207   0.931   1.749  13.437 -0.5953  0.3156 -0.1029
  278TMC3    O2 4208   1.081   1.159  13.174 -0.4959  0.0544 -0.0275
  279MPD2     C 4209   4.548   2.410  16.905  0.0411  0.1707  0.4067
  279MPD2    C1 4210   4.615   2.481  17.005  0.0955 -0.1752  0.2859
  279MPD2    C2 4211   4.718   2.571  16.973  0.7949  0.0596  0.0462
  279MPD2    C3 4212   0.038   2.589  16.840  0.0371  0.3988 -0.0985
  279MPD2    C4 4213   4.703   2.501  16.755 -0.6475  0.2821  0.4545
  279MPD2    C5 4214   4.598   2.426  16.779  0.0771 -0.4252  0.2862
  279MPD2     H 4215   0.036   2.628  17.056 -1.0608  1.1537  0.2428
  279MPD2    H1 4216   0.011   2.502  16.651 -0.1905  0.7162  0.5966
  279MPD2    H2 4217   4.469   2.340  16.931  0.3294  0.0989  1.0981
  279MPD2    H3 4218   4.550   2.364  16.704 -1.6823 -0.6770  1.6292
  279MPD2     N 4219   0.150   2.659  16.800  0.4559 -0.7768 -0.2479
  279MPD2    H5 4220   0.173   2.627  16.707  2.6997  2.2880 -0.7473
  279MPD2    N1 4221   4.569   2.457  17.134 -0.1877 -0.4626  0.5155
  279MPD2    H7 4222   4.488   2.397  17.142 -1.3689  0.8904 -1.4401
  280TMC3    C1 4223   4.565   2.459  17.370  0.4034 -0.1876 -0.4203
  280TMC3    C2 4224   4.516   2.333  17.368 -0.2400  0.7133  0.6405
  280TMC3    C3 4225   4.508   2.261  17.486 -0.2828 -0.4182 -0.6367
  280TMC3    C4 4226   4.594   2.520  17.489  0.9870 -0.0056 -0.4975
  280TMC3    C5 4227   4.590   2.450  17.605 -0.4291  0.1839  0.0421
  280TMC3    C6 4228   4.544   2.324  17.606 -0.1598  0.4127 -0.2583
  280TMC3     C 4229   4.602   2.525  17.246  0.3210 -0.2230 -0.7025
  280TMC3     O 4230   4.678   2.622  17.255  0.2566 -0.6120  0.4461
  280TMC3     H 4231   4.515   2.279  17.274 -2.8965  0.1773  0.9898
  280TMC3    H1 4232   4.636   2.619  17.482  1.9776 -0.2528  1.8162
  280TMC3    H2 4233   4.540   2.277   0.009 -1.1965 -2.1448 -1.5296
  280TMC3    C7 4234   4.580   2.523   0.040  0.0003  0.1733 -0.0193
  280TMC3    C8 4235   4.417   2.148  17.492  0.2686  0.2525 -0.1583
  280TMC3    O1 4236   4.622   2.470   0.142  0.2313  0.6282  0.1201
  280TMC3    O2 4237   4.402   2.097  17.601 -0.2950  0.8282 -0.0038
  281TMC3    C1 4238   3.964   2.565  13.240 -0.5165  0.2757 -0.4425
  281TMC3    C2 4239   3.922   2.552  13.113  0.1530  0.2820  0.4081
  281TMC3    C3 4240   3.847   2.441  13.077 -0.2880 -0.2722 -0.3880
  281TMC3    C4 4241   3.925   2.476  13.336 -0.9491 -0.4790 -0.3091
  281TMC3    C5 4242   3.836   2.378  13.296 -0.2611  0.1323 -0.0448
  281TMC3    C6 4243   3.795   2.357  13.173 -0.5580 -0.1391  0.2101
  281TMC3     C 4244   3.988   2.699  13.294  0.0404 -0.0208  0.1351
  281TMC3     O 4245   4.041   2.711  13.402  0.2607 -0.5647  0.8647
  281TMC3     H 4246   3.989   2.584  13.033 -2.2644  3.1309 -0.4557
  281TMC3    H1 4247   3.939   2.494  13.442 -0.8591  0.3453 -0.4536
  281TMC3    H2 4248   3.734   2.272  13.144 -0.5369 -0.3350  0.7454
  281TMC3    C7 4249   3.801   2.273  13.376  0.2253  0.1353  0.0292
  281TMC3    C8 4250   3.799   2.421  12.942  0.9399 -0.0774  0.4844
  281TMC3    O1 4251   3.878   2.179  13.377 -0.0137 -0.6329 -0.0824
  281TMC3    O2 4252   3.859   2.484  12.857  0.2820 -0.3599  0.2201
  282MPD2     C 4253   1.046   3.615  15.181 -0.0292  0.2645  0.8622
  282MPD2    C1 4254   0.921   3.672  15.197  0.8029  0.7768  0.8964
  282MPD2    C2 4255   0.832   3.701  15.104  0.9412  0.5004  0.6211
  282MPD2    C3 4256   0.863   3.664  14.973  0.0928 -0.3154 -0.3553
  282MPD2    C4 4257   0.984   3.607  14.952 -0.0536  0.0698  0.2399
  282MPD2    C5 4258   1.079   3.589  15.050  0.0180 -0.5302  0.2036
  282MPD2     H 4259   0.738   3.748  15.130  0.5129  0.7694 -1.4066
  282MPD2    H1 4260   1.015   3.595  14.850  1.0219 -1.6246  0.7779
  282MPD2    H2 4261   1.102   3.592  15.270  1.6825  3.2898  0.5740
  282MPD2    H3 4262   1.179   3.554  15.028  0.8009  2.4625 -0.9615
  282MPD2     N 4263   0.773   3.694  14.867 -0.5451  0.6593 -0.3091
  282MPD2    H5 4264   0.679   3.725  14.892 -0.3138  1.2815 -0.2326
  282MPD2    N1 4265   0.878   3.717  15.323  0.2624  0.0591  0.2097
  282MPD2    H7 4266   0.786   3.760  15.332  0.1870  0.0849 -0.7321
  283TMC3    C1 4267   0.863   3.742  15.554 -0.2855 -0.8527 -0.2260
  283TMC3    C2 4268   0.929   3.758  15.674 -0.1051  0.0001 -0.4498
  283TMC3    C3 4269   0.860   3.816  15.778  0.1586  1.1932  0.4645
  283TMC3    C4 4270   0.726   3.749  15.545 -0.3696 -0.1599  0.6291
  283TMC3    C5 4271   0.661   3.807  15.651  0.2755 -0.0242  0.0020
  283TMC3    C6 4272   0.727   3.841  15.766 -0.0185  0.0599 -0.8538
  283TMC3     C 4273   0.933   3.683  15.445 -0.1979  0.3319  0.0122
  283TMC3     O 4274   1.021   3.605  15.477 -0.5313 -0.2032  0.0200
  283TMC3     H 4275   1.037   3.755  15.673 -0.1062 -1.0291  1.7223
  283TMC3    H1 4276   0.669   3.708  15.463  1.1106  1.9055 -1.4263
  283TMC3    H2 4277   0.670   3.893  15.842 -0.0317  0.9333 -1.4541
  283TMC3    C7 4278   0.529   3.756  15.673  0.0139  0.1438 -0.7645
  283TMC3    C8 4279   0.943   3.926  15.827 -0.4287 -0.5346 -0.0347
  283TMC3    O1 4280   0.453   3.829  15.737  0.7423  0.1864  0.1524
  283TMC3    O2 4281   1.030   3.902  15.910 -0.2945 -0.5419  0.0132
  284MPD2     C 4282   4.062   3.467  11.724 -0.1348  0.3993 -0.5057
  284MPD2    C1 4283   4.200   3.463  11.715 -0.4681 -0.3996 -0.1778
  284MPD2    C2 4284   4.276   3.382  11.801 -0.0046  0.2581 -0.2594
  284MPD2    C3 4285   4.223   3.297  11.894  0.5123  0.4022  0.2363
  284MPD2    C4 4286   4.087   3.293  11.899 -1.4777 -0.4550 -0.2197
  284MPD2    C5 4287   4.008   3.383  11.821 -0.6719  0.2915 -0.1157
  284MPD2     H 4288   4.384   3.385  11.788 -0.3344  0.9264 -2.8974
  284MPD2    H1 4289   4.034   3.221  11.960  0.1179 -0.7483  0.8038
  284MPD2    H2 4290   3.997   3.533  11.668  0.9498  2.9984  1.3099
  284MPD2    H3 4291   3.902   3.371  11.840 -1.1279  3.5657 -0.6215
  284MPD2     N 4292   4.308   3.208  11.962 -0.6018  0.4995  0.3000
  284MPD2    H5 4293   4.399   3.196  11.919 -1.1598 -2.0135 -0.1213
  284MPD2    N1 4294   4.278   3.536  11.628  0.6428 -0.1409  0.1883
  284MPD2    H7 4295   4.377   3.513  11.639  1.4260  2.1160 -2.2324
  285TMC3    C1 4296   4.348   3.648  11.433  0.8378 -0.3684 -0.2706
  285TMC3    C2 4297   4.429   3.542  11.417  0.1576 -0.1748  0.0297
  285TMC3    C3 4298   4.556   3.562  11.363 -0.2629 -0.4238  0.1781
  285TMC3    C4 4299   4.392   3.782  11.418 -0.1290 -0.3921  0.7536
  285TMC3    C5 4300   4.512   3.791  11.345 -0.8635  0.3362  0.9864
  285TMC3    C6 4301   4.600   3.684  11.324 -0.6892 -0.1434  0.1083
  285TMC3     C 4302   4.236   3.620  11.526  0.9726  0.0750 -0.3535
  285TMC3     O 4303   4.120   3.648  11.492  0.0810 -0.1038 -0.6877
  285TMC3     H 4304   4.382   3.445  11.414  0.1845 -0.1599 -0.8216
  285TMC3    H1 4305   4.323   3.862  11.440 -1.2313 -0.6571 -1.6454
  285TMC3    H2 4306   4.695   3.698  11.275 -1.0262 -1.3374 -0.9001
  285TMC3    C7 4307   4.575   3.916  11.350  0.4264 -0.4055 -0.2588
  285TMC3    C8 4308   4.621   3.443  11.314 -0.2885  0.5150 -0.2045
  285TMC3    O1 4309   4.692   3.915  11.386 -0.4055 -0.3537 -0.2986
  285TMC3    O2 4310   4.548   3.346  11.310 -0.1082 -0.4882  0.5753
  286MPD2     C 4311   3.849   2.310   1.456  0.7743 -0.1956 -0.1895
  286MPD2    C1 4312   3.799   2.274   1.331  0.1721 -0.6265  0.1186
  286MPD2    C2 4313   3.880   2.207   1.237  0.3323  0.3829 -0.6291
  286MPD2    C3 4314   4.004   2.161   1.278  0.0683 -0.5823 -0.5765
  286MPD2    C4 4315   4.055   2.212   1.399  0.3095 -0.2816  0.1132
  286MPD2    C5 4316   3.984   2.280   1.488  0.3172  0.6173 -0.2787
  286MPD2     H 4317   3.838   2.178   1.141  0.0470 -2.3284  0.3209
  286MPD2    H1 4318   4.161   2.198   1.413  0.4189 -1.3591 -1.6691
  286MPD2    H2 4319   3.800   2.374   1.527  4.4180 -0.2249  2.3413
  286MPD2    H3 4320   4.034   2.309   1.580  0.2556 -2.1147  0.6159
  286MPD2     N 4321   4.088   2.082   1.198 -0.2363  0.4363 -0.7879
  286MPD2    H5 4322   4.171   2.041   1.238 -1.2201 -0.8705 -0.0712
  286MPD2    N1 4323   3.669   2.319   1.288 -0.0226  0.5424  0.1755
  286MPD2    H7 4324   3.636   2.327   1.193 -2.4012  1.7927  1.1025
  287TMC3    C1 4325   4.158   1.942   1.013  0.1750  0.1245 -0.2267
  287TMC3    C2 4326   4.136   1.874   0.894 -0.2636 -0.2897  0.9748
  287TMC3    C3 4327   4.221   1.774   0.858  0.5303  0.0445  0.1926
  287TMC3    C4 4328   4.272   1.919   1.085 -0.1635  0.5746 -0.8490
  287TMC3    C5 4329   4.342   1.806   1.057 -0.2094 -0.2723 -0.6033
  287TMC3    C6 4330   4.323   1.732   0.943  0.2037 -0.0686  0.3546
  287TMC3     C 4331   4.064   2.041   1.070  0.0132  0.6371  0.0213
  287TMC3     O 4332   3.965   2.065   0.998 -0.4197 -0.2811  0.4464
  287TMC3     H 4333   4.053   1.906   0.833  1.4363  0.9008 -0.7012
  287TMC3    H1 4334   4.298   1.972   1.176  0.1432 -1.3805  0.1832
  287TMC3    H2 4335   4.388   1.655   0.903  1.8254  1.6252 -0.2774
  287TMC3    C7 4336   4.464   1.790   1.133  0.1306  0.3997 -0.2351
  287TMC3    C8 4337   4.199   1.692   0.738 -0.0298 -0.3290 -0.0139
  287TMC3    O1 4338   4.479   1.816   1.252 -0.3339  0.0303  0.2959
  287TMC3    O2 4339   4.269   1.595   0.715  0.0878  0.0852  0.3970
  288TMC3    C1 4340   0.643   1.490  14.393 -0.5165  0.0270 -0.1401
  288TMC3    C2 4341   0.666   1.467  14.525 -0.1413 -0.4275  0.1656
  288TMC3    C3 4342   0.734   1.562  14.600 -0.4168  0.5868 -0.9429
  288TMC3    C4 4343   0.677   1.613  14.340 -0.2166  0.4789  0.0350
  288TMC3    C5 4344   0.755   1.696  14.413 -0.1106 -1.2290 -0.3750
  288TMC3    C6 4345   0.783   1.678  14.544  0.6124  0.4266  0.1440
  288TMC3     C 4346   0.674   1.376  14.299  0.2350  0.1611 -0.0582
  288TMC3     O 4347   0.732   1.409  14.198  0.2445  0.7687  1.2135
  288TMC3     H 4348   0.637   1.370  14.564 -0.4877 -0.3054  0.2118
  288TMC3    H1 4349   0.668   1.634  14.234 -0.9762 -1.2690 -0.2412
  288TMC3    H2 4350   0.846   1.750  14.596  0.8210 -0.3665  0.9913
  288TMC3    C7 4351   0.880   1.736  14.355  0.2148  0.2571  0.2386
  288TMC3    C8 4352   0.754   1.558  14.743 -0.5185 -0.1188 -0.5706
  288TMC3    O1 4353   0.923   1.843  14.397  0.7295 -0.3394  0.6032
  288TMC3    O2 4354   0.801   1.658  14.800  0.1941  0.4591  0.2067
  289MPD2     C 4355   1.442   0.732  14.255 -1.5097  0.2582  0.4620
  289MPD2    C1 4356   1.378   0.809  14.163 -0.7702  0.1663 -0.2475
  289MPD2    C2 4357   1.254   0.762  14.117  0.2704 -0.0471 -0.7680
  289MPD2    C3 4358   1.203   0.640  14.156 -0.1291  0.1719  0.5093
  289MPD2    C4 4359   1.273   0.563  14.245  0.2031 -0.9227 -0.3390
  289MPD2    C5 4360   1.394   0.604  14.291 -0.1360  0.5851 -0.5201
  289MPD2     H 4361   1.197   0.822  14.047 -0.9646  0.0887  0.3568
  289MPD2    H1 4362   1.237   0.467  14.281 -0.8781 -0.7577 -0.9675
  289MPD2    H2 4363   1.541   0.763  14.284 -1.4560  1.0069 -0.5119
  289MPD2    H3 4364   1.451   0.539  14.356  1.3616  1.7628 -0.6675
  289MPD2     N 4365   1.077   0.596  14.103 -0.6293 -0.0365  0.0265
  289MPD2    H5 4366   1.045   0.514  14.154 -2.7084  0.1598 -0.9541
  289MPD2    N1 4367   1.424   0.942  14.130  0.2939  0.2182  0.4509
  289MPD2    H7 4368   1.369   0.997  14.064 -0.8720 -1.7724 -0.2126
  290TMC3    C1 4369   0.860   0.593  14.000  0.1759  0.2017 -0.3399
  290TMC3    C2 4370   0.769   0.700  13.966 -0.3120  0.7055  0.0755
  290TMC3    C3 4371   0.633   0.686  14.007  0.3178  0.4525  0.0705
  290TMC3    C4 4372   0.824   0.473  14.064 -0.0752  0.1769 -0.5876
  290TMC3    C5 4373   0.691   0.467  14.090  1.3510 -0.6021 -0.0179
  290TMC3    C6 4374   0.601   0.568  14.071  0.0839  0.0896  0.4866
  290TMC3     C 4375   0.998   0.650  14.003  0.0729 -0.1905  0.3708
  290TMC3     O 4376   1.013   0.750  13.935 -0.1872  0.1262  0.2946
  290TMC3     H 4377   0.798   0.777  13.897 -0.1245 -2.0823 -2.9750
  290TMC3    H1 4378   0.896   0.401  14.100 -0.6124 -0.3373 -0.5488
  290TMC3    H2 4379   0.499   0.550  14.102 -0.2804 -1.0895 -1.3351
  290TMC3    C7 4380   0.670   0.395  14.214 -0.0625 -0.1252  0.7847
  290TMC3    C8 4381   0.530   0.784  13.982  0.4429  0.3189 -0.5325
  290TMC3    O1 4382   0.587   0.438  14.298  0.0831 -0.4789  0.3828
  290TMC3    O2 4383   0.416   0.744  13.983  0.2094 -0.4296 -0.0582
  291MPD2     C 4384   0.228   0.607  17.300  0.2658  0.3751 -0.2258
  291MPD2    C1 4385   0.200   0.483  17.336 -0.3590 -0.5127  0.7937
  291MPD2    C2 4386   0.279   0.382  17.287 -0.2084 -0.0912  0.0573
  291MPD2    C3 4387   0.398   0.407  17.217 -0.0151 -0.2336 -0.2914
  291MPD2    C4 4388   0.420   0.541  17.182 -0.5370  0.4605  0.1713
  291MPD2    C5 4389   0.337   0.643  17.223 -0.0760  0.2491  0.3174
  291MPD2     H 4390   0.260   0.283  17.328  1.3947 -0.1758  0.6332
  291MPD2    H1 4391   0.512   0.575  17.136 -0.5716  1.5795  0.9298
  291MPD2    H2 4392   0.185   0.702  17.330  0.8926  0.6943 -0.3317
  291MPD2    H3 4393   0.351   0.745  17.188 -1.9004 -0.3664 -2.1817
  291MPD2     N 4394   0.482   0.302  17.161  0.1618 -0.3984  0.3070
  291MPD2    H5 4395   0.554   0.332  17.095 -0.7725 -0.1444 -0.5926
  291MPD2    N1 4396   0.088   0.452  17.413 -0.2236 -0.0213 -0.4083
  291MPD2    H7 4397   0.076   0.352  17.428 -1.8510  0.3910  1.1037
  292TMC3    C1 4398   4.622   0.472  17.549 -0.5496 -0.2206 -0.8366
  292TMC3    C2 4399   4.550   0.555  17.635 -0.2308 -0.0972 -0.0208
  292TMC3    C3 4400   4.474   0.500   0.036  0.4198 -0.0583  0.2470
  292TMC3    C4 4401   4.620   0.334  17.566  0.5274 -0.3393  0.2737
  292TMC3    C5 4402   4.526   0.283  17.660  0.0980 -0.1843 -0.1798
  292TMC3    C6 4403   4.455   0.363   0.055  0.4892  0.1813 -0.4620
  292TMC3     C 4404   4.717   0.541  17.461  0.0270  0.0728  0.7033
  292TMC3     O 4405   4.707   0.662  17.446  0.3540 -0.3799  0.4428
  292TMC3     H 4406   4.564   0.663  17.628 -0.0788 -0.0183  1.4505
  292TMC3    H1 4407   4.675   0.272  17.496 -0.3940  1.2321 -1.8225
  292TMC3    H2 4408   4.380   0.312   0.116  1.4384 -2.0322 -1.1527
  292TMC3    C7 4409   4.507   0.142  17.654  0.7417 -0.4773  0.4392
  292TMC3    C8 4410   4.438   0.590   0.140 -0.5900  0.0875  0.5782
  292TMC3    O1 4411   4.601   0.083  17.612 -0.0635  0.3086 -0.0300
  292TMC3    O2 4412   4.422   0.708   0.110  0.0215 -0.0375  0.0529
  293MPD2     C 4413   2.395   2.509  12.381  0.0083  0.2722  0.0010
  293MPD2    C1 4414   2.394   2.383  12.429  0.0776 -0.3249  0.1816
  293MPD2    C2 4415   2.396   2.367  12.565  0.2451  0.1885 -0.1909
  293MPD2    C3 4416   2.392   2.478  12.650  0.0243  0.7651 -0.5066
  293MPD2    C4 4417   2.389   2.603  12.592  0.1038 -0.2093 -0.5885
  293MPD2    C5 4418   2.394   2.619  12.458  0.4676  0.2174 -0.8249
  293MPD2     H 4419   2.374   2.269  12.606  0.2097 -0.6656 -2.2324
  293MPD2    H1 4420   2.369   2.689  12.656  0.0409 -0.4772 -0.2520
  293MPD2    H2 4421   2.399   2.535  12.275 -2.9459 -0.1156 -0.2026
  293MPD2    H3 4422   2.409   2.714  12.407  1.5324 -0.5761 -1.9990
  293MPD2     N 4423   2.375   2.457  12.785 -0.5337 -0.3752 -0.5624
  293MPD2    H5 4424   2.374   2.359  12.813 -0.6819 -0.0468  0.5788
  293MPD2    N1 4425   2.379   2.278  12.335 -0.4407  0.8546 -0.3043
  293MPD2    H7 4426   2.341   2.299  12.243 -2.8017 -1.1915  0.2045
  294TMC3    C1 4427   2.336   2.056  12.271  0.2396  0.1209 -0.4184
  294TMC3    C2 4428   2.280   1.940  12.320 -0.1294 -0.3277 -0.4899
  294TMC3    C3 4429   2.206   1.868  12.234  0.3833  0.1545 -0.4069
  294TMC3    C4 4430   2.334   2.087  12.140  0.3745  0.3186  0.4466
  294TMC3    C5 4431   2.275   1.995  12.061  0.0687  0.5934 -0.0585
  294TMC3    C6 4432   2.210   1.881  12.100 -0.2158 -0.1620 -0.5145
  294TMC3     C 4433   2.392   2.145  12.368 -0.1787  0.0354 -0.0329
  294TMC3     O 4434   2.415   2.091  12.477 -0.0785  0.2199  0.1014
  294TMC3     H 4435   2.275   1.920  12.427  4.1699 -1.2613 -0.4937
  294TMC3    H1 4436   2.377   2.176  12.095  2.2584  0.1129  1.8197
  294TMC3    H2 4437   2.144   1.826  12.034  1.6174 -2.4499 -0.4095
  294TMC3    C7 4438   2.250   2.027  11.923 -0.9441 -0.1778  0.3932
  294TMC3    C8 4439   2.151   1.750  12.294  0.5383  0.2203 -1.2012
  294TMC3    O1 4440   2.267   2.140  11.886 -0.1054  0.2892  0.0983
  294TMC3    O2 4441   2.101   1.757  12.403  0.0828  0.3481  0.9394
  295MPD2     C 4442   2.527   0.344   0.869  0.5406 -0.5836  0.4525
  295MPD2    C1 4443   2.628   0.356   0.768  0.4399 -0.4164  0.4134
  295MPD2    C2 4444   2.742   0.279   0.776  0.4788 -0.6949  0.0797
  295MPD2    C3 4445   2.758   0.185   0.875  0.1264  0.4134 -0.4548
  295MPD2    C4 4446   2.652   0.162   0.963 -0.3010 -0.9084 -0.1826
  295MPD2    C5 4447   2.547   0.250   0.964 -1.2204 -0.1977 -0.6927
  295MPD2     H 4448   2.822   0.306   0.708 -0.9682  1.2326 -0.8784
  295MPD2    H1 4449   2.651   0.083   1.038 -0.4795 -0.3799  0.3739
  295MPD2    H2 4450   2.445   0.414   0.885  1.1837  0.0028  1.2221
  295MPD2    H3 4451   2.470   0.221   1.035  0.3184  0.2670  1.1392
  295MPD2     N 4452   2.884   0.119   0.898  0.2203 -0.9015  0.1511
  295MPD2    H5 4453   2.881   0.053   0.974 -0.1279 -0.4633  0.5134
  295MPD2    N1 4454   2.622   0.452   0.665 -0.2590  0.0093  0.0127
  295MPD2    H7 4455   2.681   0.436   0.584 -0.5260  1.7727 -0.5330
  296TMC3    C1 4456   3.113   0.077   0.865 -0.0632  0.6977  0.3947
  296TMC3    C2 4457   3.230   0.153   0.865 -0.1626  0.2519 -0.0620
  296TMC3    C3 4458   3.341   0.094   0.909 -0.7967 -0.5631  0.7389
  296TMC3    C4 4459   3.097   4.678   0.927  0.4762 -0.4451  0.3457
  296TMC3    C5 4460   3.220   4.627   0.980  0.6008 -0.6335 -0.2290
  296TMC3    C6 4461   3.343   4.697   0.971 -0.1507  0.0685  0.1005
  296TMC3     C 4462   2.997   0.141   0.813 -0.8871  0.1579 -0.3026
  296TMC3     O 4463   3.025   0.216   0.720 -0.3071  0.2760 -0.0538
  296TMC3     H 4464   3.238   0.252   0.819  0.1437  0.5338  0.6059
  296TMC3    H1 4465   3.005   4.622   0.922  1.2357 -1.5804 -0.9547
  296TMC3    H2 4466   3.430   4.646   1.012 -0.4335  1.5462  2.4995
  296TMC3    C7 4467   3.210   4.536   1.090  0.1391  0.1772  0.0165
  296TMC3    C8 4468   3.461   0.166   0.911  0.4707  0.6248 -0.6665
  296TMC3    O1 4469   3.288   4.550   1.185 -0.1854  0.2267 -0.4240
  296TMC3    O2 4470   3.570   0.110   0.940 -0.4725  0.4731 -0.3589
  297MPD2     C 4471   4.265   2.831  16.146 -0.1603  0.0843 -1.0999
  297MPD2    C1 4472   4.276   2.965  16.188 -0.2701 -0.7508  0.1907
  297MPD2    C2 4473   4.391   3.034  16.158 -0.2837  0.1404  0.1042
  297MPD2    C3 4474   4.500   2.973  16.093  0.7830 -0.6767  0.1252
  297MPD2    C4 4475   4.488   2.839  16.051  0.5960 -0.7455 -0.0537
  297MPD2    C5 4476   4.369   2.770  16.076 -0.0518  0.5537  1.3448
  297MPD2     H 4477   4.412   3.137  16.183  0.4269  0.1674 -0.5986
  297MPD2    H1 4478   4.567   2.783  16.003  0.4955 -1.8982  1.1014
  297MPD2    H2 4479   4.183   2.764  16.166 -0.7442  1.1680  0.1299
  297MPD2    H3 4480   4.360   2.669  16.038 -0.6519  1.9442 -2.1747
  297MPD2     N 4481   4.617   3.053  16.087  0.1239  0.3492 -0.5544
  297MPD2    H5 4482   4.620   3.150  16.117  1.0365  0.8515 -2.2382
  297MPD2    N1 4483   4.185   3.028  16.279 -0.6943 -0.3544 -0.3581
  297MPD2    H7 4484   4.204   3.125  16.302  1.7414 -1.6016  2.8159
  298TMC3    C1 4485   4.053   3.027  16.474 -0.2894  0.3812  0.1105
  298TMC3    C2 4486   3.989   2.941  16.564  0.6083  0.8110  0.1593
  298TMC3    C3 4487   3.935   3.001  16.668 -0.4789  0.4534  0.0574
  298TMC3    C4 4488   4.054   3.166  16.480 -0.9381 -0.0005 -0.1188
  298TMC3    C5 4489   3.982   3.218  16.584  0.0919  0.2467  0.3119
  298TMC3    C6 4490   3.930   3.135  16.680 -0.2991  0.5264  0.6831
  298TMC3     C 4491   4.095   2.962  16.358 -0.3580 -0.7090  0.7988
  298TMC3     O 4492   4.055   2.850  16.353  0.4068  0.2716 -0.2866
  298TMC3     H 4493   3.985   2.833  16.566  2.7827  0.7304 -0.1677
  298TMC3    H1 4494   4.087   3.220  16.392 -0.7430 -0.2350 -0.1907
  298TMC3    H2 4495   3.877   3.185  16.761 -1.0411  1.6935 -0.5300
  298TMC3    C7 4496   3.990   3.361  16.615 -0.0541  0.1233  0.1857
  298TMC3    C8 4497   3.938   2.933  16.792  0.0816 -0.0665 -0.0767
  298TMC3    O1 4498   3.944   3.396  16.725 -0.1178 -0.0220  0.2550
  298TMC3    O2 4499   3.866   2.981  16.877  0.8380 -0.2778 -0.6951
  299MPD2     C 4500   1.362   2.567  10.344  0.8157  0.1519 -0.3916
  299MPD2    C1 4501   1.281   2.516  10.446  0.3631 -0.0287  0.2071
  299MPD2    C2 4502   1.166   2.442  10.414 -0.5440 -0.3875  1.5577
  299MPD2    C3 4503   1.122   2.421  10.286  0.6997 -0.0264 -0.6816
  299MPD2    C4 4504   1.196   2.485  10.190  0.1087 -0.0470 -0.7774
  299MPD2    C5 4505   1.309   2.545  10.216 -0.1038 -0.4470 -0.1736
  299MPD2     H 4506   1.099   2.408  10.492 -0.4875 -1.9351  0.9417
  299MPD2    H1 4507   1.176   2.467  10.085 -0.5712  0.7511 -0.7813
  299MPD2    H2 4508   1.457   2.616  10.361  0.1540  0.8089  1.4333
  299MPD2    H3 4509   1.370   2.572  10.131 -1.4698 -0.9040 -1.2971
  299MPD2     N 4510   1.005   2.345  10.260 -0.3651 -0.6199  0.5735
  299MPD2    H5 4511   0.991   2.338  10.160  1.1754  1.0458  0.2428
  299MPD2    N1 4512   1.328   2.528  10.582  0.0709 -0.0826  0.1659
  299MPD2    H7 4513   1.407   2.590  10.593  1.1031 -1.1801 -1.1340
  300TMC3    C1 4514   0.820   2.203  10.292  0.5173 -0.7574  0.8459
  300TMC3    C2 4515   0.760   2.268  10.183 -0.3660  0.6276  0.1964
  300TMC3    C3 4516   0.619   2.281  10.186 -0.2311 -0.2767 -0.1096
  300TMC3    C4 4517   0.743   2.138  10.382  0.2135 -0.5128 -0.0204
  300TMC3    C5 4518   0.614   2.179  10.389  0.3358  0.3837  0.1110
  300TMC3    C6 4519   0.550   2.251  10.301 -0.2461  0.5802  0.4174
  300TMC3     C 4520   0.940   2.259  10.349  0.3358  1.1986  0.4605
  300TMC3     O 4521   0.980   2.227  10.456  0.1776  0.2093 -0.3185
  300TMC3     H 4522   0.819   2.301  10.098 -1.2915 -1.0309 -1.0895
  300TMC3    H1 4523   0.788   2.086  10.466  1.6692 -0.9105 -1.0411
  300TMC3    H2 4524   0.442   2.256  10.307 -0.4798  0.7676 -3.4874
  300TMC3    C7 4525   0.537   2.129  10.500 -0.2077 -1.0440 -0.4330
  300TMC3    C8 4526   0.567   2.375  10.087  0.1693 -0.3707 -0.7529
  300TMC3    O1 4527   0.568   2.019  10.546  0.2417 -0.3866 -0.1887
  300TMC3    O2 4528   0.646   2.443  10.026 -0.2241 -0.1932  0.4527
  301MPD2     C 4529   2.231   2.865   0.506  0.3455  0.2904 -0.4827
  301MPD2    C1 4530   2.126   2.936   0.557  0.1470  0.4289 -0.0221
  301MPD2    C2 4531   2.010   2.861   0.561 -0.4446  0.8382 -0.2629
  301MPD2    C3 4532   1.999   2.726   0.539  0.3139  0.1388 -0.1122
  301MPD2    C4 4533   2.112   2.659   0.497  0.3524  0.6775  0.2071
  301MPD2    C5 4534   2.227   2.731   0.477 -0.4302  0.0255 -0.4368
  301MPD2     H 4535   1.928   2.920   0.603 -0.2024  1.0321 -0.0592
  301MPD2    H1 4536   2.130   2.552   0.490 -1.3983  0.0973  4.6083
  301MPD2    H2 4537   2.329   2.910   0.509 -0.0744  1.2631 -1.2308
  301MPD2    H3 4538   2.317   2.676   0.454  1.5940  1.9794  2.8012
  301MPD2     N 4539   1.887   2.642   0.580 -0.2319 -0.0289 -0.2048
  301MPD2    H5 4540   1.906   2.544   0.596  0.0769 -0.4358 -3.1750
  301MPD2    N1 4541   2.127   3.070   0.612 -0.1802  0.1168  0.6907
  301MPD2    H7 4542   2.045   3.096   0.665 -0.6291  0.8261 -0.3718
  302TMC3    C1 4543   1.683   2.618   0.713  0.6412  0.3009  0.2162
  302TMC3    C2 4544   1.758   2.537   0.797  0.3198  1.0013 -0.4348
  302TMC3    C3 4545   1.717   2.524   0.928  0.2239  0.6771 -0.1823
  302TMC3    C4 4546   1.565   2.672   0.757 -0.4775 -0.1690 -0.8231
  302TMC3    C5 4547   1.535   2.659   0.889 -0.4329  0.3984  0.0241
  302TMC3    C6 4548   1.599   2.572   0.970 -0.2874 -0.1092 -0.4694
  302TMC3     C 4549   1.762   2.700   0.615  0.4502  0.3251 -0.0266
  302TMC3     O 4550   1.717   2.806   0.584 -0.4663 -0.4486  0.4561
  302TMC3     H 4551   1.838   2.476   0.756 -1.8546 -1.7405 -0.5557
  302TMC3    H1 4552   1.514   2.745   0.696  1.1960 -0.1160 -2.1545
  302TMC3    H2 4553   1.570   2.564   1.074 -0.5997 -1.6193 -0.6739
  302TMC3    C7 4554   1.416   2.720   0.934 -0.0962 -0.4700 -0.6667
  302TMC3    C8 4555   1.835   2.546   1.009 -0.0082  0.1153  0.3461
  302TMC3    O1 4556   1.350   2.660   1.017 -0.2287  0.8238  0.3340
  302TMC3    O2 4557   1.929   2.591   0.951 -0.1767 -0.1088  0.3087
  303MPD2     C 4558   2.952   0.300  10.216 -1.1811  0.0107  0.5526
  303MPD2    C1 4559   2.824   0.325  10.267  0.1390  0.0702 -0.2376
  303MPD2    C2 4560   2.760   0.440  10.232  0.6027 -0.5723 -0.3991
  303MPD2    C3 4561   2.819   0.528  10.139  0.1554  0.5515  0.0345
  303MPD2    C4 4562   2.941   0.496  10.076 -0.2328  0.4561  0.1514
  303MPD2    C5 4563   3.007   0.386  10.119 -0.3874 -0.6081  0.0369
  303MPD2     H 4564   2.659   0.466  10.260  1.4159  0.2422  1.7990
  303MPD2    H1 4565   2.979   0.559   9.997 -0.4859  1.3815  0.7751
  303MPD2    H2 4566   3.002   0.208  10.242 -1.1122 -0.5748 -1.6408
  303MPD2    H3 4567   3.106   0.368  10.077 -0.7798 -4.4999  0.7971
  303MPD2     N 4568   2.755   0.647  10.087 -0.2098  0.8989  0.2413
  303MPD2    H5 4569   2.808   0.716  10.033  0.0267 -0.3253 -1.0822
  303MPD2    N1 4570   2.770   0.235  10.363 -0.0179  0.0628 -0.1898
  303MPD2    H7 4571   2.819   0.150  10.388 -0.1776 -0.7908 -2.7301
  304TMC3    C1 4572   2.628   0.155  10.528 -0.7115  0.2707 -0.0005
  304TMC3    C2 4573   2.540   0.194  10.627  0.1770  0.0819 -0.1381
  304TMC3    C3 4574   2.462   0.102  10.691  0.5451  0.3414 -0.3125
  304TMC3    C4 4575   2.637   0.022  10.490 -0.1283  1.3494  0.2584
  304TMC3    C5 4576   2.548   4.653  10.551 -0.0784  0.6991 -0.2632
  304TMC3    C6 4577   2.465   4.697  10.652  0.7163 -0.6578  0.4372
  304TMC3     C 4578   2.665   0.264  10.445  0.1388 -0.3529 -0.2019
  304TMC3     O 4579   2.584   0.355  10.445 -0.3992 -0.0617  0.2548
  304TMC3     H 4580   2.545   0.295  10.666 -0.9374  0.3393 -0.6648
  304TMC3    H1 4581   2.703   4.703  10.415 -0.6588  2.7546 -0.9925
  304TMC3    H2 4582   2.407   4.627  10.710  0.2983  0.0703  0.8863
  304TMC3    C7 4583   2.470   4.571  10.458  0.2061 -0.0704 -0.3191
  304TMC3    C8 4584   2.330   0.145  10.725  0.1319  0.1762  0.6041
  304TMC3    O1 4585   2.525   4.534  10.357  0.2655  0.0738 -0.3173
  304TMC3    O2 4586   2.237   0.065  10.721 -0.1339 -0.3016 -0.5144
  305MPD2     C 4587   0.855   4.128  13.606 -0.0155 -0.3833  0.0011
  305MPD2    C1 4588   0.869   4.001  13.650  0.0423 -0.5897  0.8270
  305MPD2    C2 4589   0.895   3.899  13.558 -0.2159  0.0480  0.7149
  305MPD2    C3 4590   0.903   3.925  13.419 -0.0015  1.0222  1.1188
  305MPD2    C4 4591   0.905   4.055  13.382 -0.1702 -0.3245  0.0940
  305MPD2    C5 4592   0.878   4.156  13.473  0.0988 -0.6474 -0.0531
  305MPD2     H 4593   0.905   3.797  13.595  4.2075  1.2281  2.7677
  305MPD2    H1 4594   0.913   4.085  13.278 -1.4056  0.5389  0.2358
  305MPD2    H2 4595   0.840   4.209  13.675  1.1122 -0.0535 -0.1361
  305MPD2    H3 4596   0.881   4.257  13.434 -0.1760 -0.5796  0.1012
  305MPD2     N 4597   0.919   3.819  13.321 -0.5212 -0.5493  0.2931
  305MPD2    H5 4598   0.950   3.848  13.229 -0.1043 -0.4236  0.4744
  305MPD2    N1 4599   0.857   3.979  13.785  0.4368 -0.4917 -0.2846
  305MPD2    H7 4600   0.816   4.057  13.834  1.6930  0.6674 -1.0601
  306TMC3    C1 4601   0.909   3.883  13.994 -0.8165  0.2303  0.3474
  306TMC3    C2 4602   0.916   3.763  14.065 -0.4872  0.6700 -0.3078
  306TMC3    C3 4603   1.003   3.742  14.170 -0.5843 -0.6660  0.0164
  306TMC3    C4 4604   1.009   3.977  14.020  0.2555 -0.5255 -0.5804
  306TMC3    C5 4605   1.094   3.956  14.127  0.4179  0.7384  0.0723
  306TMC3    C6 4606   1.093   3.845  14.199  0.4700  0.2197  0.3728
  306TMC3     C 4607   0.892   3.861  13.857 -0.2976  0.0967 -0.4147
  306TMC3     O 4608   0.940   3.756  13.822  0.2567 -0.0120 -0.0403
  306TMC3     H 4609   0.861   3.691  14.004 -0.7250 -0.6027  1.4149
  306TMC3    H1 4610   1.015   4.056  13.947  0.5557  1.3911  1.5087
  306TMC3    H2 4611   1.159   3.824  14.282  2.4385 -0.9498 -1.4788
  306TMC3    C7 4612   1.155   4.077  14.180  0.0572  0.5214 -0.3952
  306TMC3    C8 4613   1.024   3.612  14.231  0.2671  0.9657  0.3476
  306TMC3    O1 4614   1.134   4.187  14.121  0.5379  0.4187  0.0622
  306TMC3    O2 4615   1.128   3.598  14.295  0.1971 -0.0706 -0.4209
  307MPD2     C 4616   3.709   2.065   0.335  0.5127 -0.5672  0.0417
  307MPD2    C1 4617   3.614   2.097   0.240 -0.1197  0.2997 -0.5712
  307MPD2    C2 4618   3.516   2.192   0.268  0.0387  0.3105 -0.1600
  307MPD2    C3 4619   3.519   2.255   0.391 -0.2056 -0.0070 -0.8203
  307MPD2    C4 4620   3.609   2.220   0.484 -0.1088 -0.4152 -0.7599
  307MPD2    C5 4621   3.702   2.123   0.454 -0.8917  0.5318  0.4391
  307MPD2     H 4622   3.456   2.225   0.184 -1.9535 -0.6176  0.9140
  307MPD2    H1 4623   3.600   2.251   0.587 -0.1087 -1.6294 -0.4003
  307MPD2    H2 4624   3.779   1.984   0.319  3.0312  1.9272 -1.4289
  307MPD2    H3 4625   3.771   2.090   0.531 -1.0096 -0.3930  0.1372
  307MPD2     N 4626   3.430   2.365   0.392 -0.4788 -0.0965  0.1343
  307MPD2    H5 4627   3.385   2.395   0.307 -1.0501  0.0288  0.4798
  307MPD2    N1 4628   3.615   2.048   0.110 -0.3648  0.1818  0.3274
  307MPD2    H7 4629   3.539   2.064   0.044  0.2158 -3.1031 -1.1748
  308TMC3    C1 4630   3.177   2.703   0.573 -0.4956 -0.3531  0.4829
  308TMC3    C2 4631   3.192   2.779   0.458  0.0263 -0.6111 -0.2892
  308TMC3    C3 4632   3.276   2.734   0.364  0.1988 -0.5530 -0.2163
  308TMC3    C4 4633   3.238   2.585   0.592  0.3585 -0.4796  0.9781
  308TMC3    C5 4634   3.321   2.544   0.491  0.5325 -0.4601 -0.4932
  308TMC3    C6 4635   3.346   2.618   0.379  0.0430  0.3860 -0.0933
  308TMC3     C 4636   3.053   2.720   0.648  0.4225 -0.3185  0.2980
  308TMC3     O 4637   3.027   2.652   0.748  0.2470 -0.4699 -0.1632
  308TMC3     H 4638   3.142   2.875   0.449 -1.9641 -1.6696 -0.5516
  308TMC3    H1 4639   3.229   2.525   0.682 -0.5610 -0.2721  1.0307
  308TMC3    H2 4640   3.427   2.605   0.307 -0.6658 -0.5405 -0.7309
  308TMC3    C7 4641   3.383   2.418   0.504  0.2802 -0.0496  0.5782
  308TMC3    C8 4642   3.313   2.829   0.259 -0.2018  0.3465  0.5256
  308TMC3    O1 4643   3.399   2.372   0.617  0.0495 -0.4764  0.0110
  308TMC3    O2 4644   3.312   2.947   0.285 -0.4730 -0.7386  0.3064
  309MPD2     C 4645   2.535   2.309  16.765  0.3887  0.2349  0.3607
  309MPD2    C1 4646   2.502   2.405  16.672 -0.4290 -0.0404  0.3073
  309MPD2    C2 4647   2.381   2.472  16.688 -0.4072  0.1010 -1.0367
  309MPD2    C3 4648   2.305   2.464  16.802  0.9400  0.4372  0.1135
  309MPD2    C4 4649   2.353   2.391  16.900 -0.0194 -0.2221 -0.7121
  309MPD2    C5 4650   2.462   2.311  16.882  0.1782 -0.1267  0.1172
  309MPD2     H 4651   2.353   2.540  16.608 -4.8135 -2.2408 -1.4845
  309MPD2    H1 4652   2.294   2.382  16.991 -0.3152 -1.5868 -1.0486
  309MPD2    H2 4653   2.625   2.248  16.763 -0.7938 -1.4765  0.1959
  309MPD2    H3 4654   2.489   2.238  16.958 -0.9656  0.4543  1.0820
  309MPD2     N 4655   2.186   2.542  16.829 -0.2880 -0.1264 -0.1036
  309MPD2    H5 4656   2.139   2.524  16.917  3.7961  0.3284  2.2124
  309MPD2    N1 4657   2.606   2.420  16.571  0.3420 -0.1581  0.2556
  309MPD2    H7 4658   2.671   2.343  16.561  0.2006 -0.0790 -1.2010
  310TMC3    C1 4659   2.710   2.521  16.378 -0.5548  0.4503  0.0205
  310TMC3    C2 4660   2.746   2.640  16.312 -0.3978  0.0068 -0.5405
  310TMC3    C3 4661   2.860   2.637  16.226  0.1013 -0.7108  0.2387
  310TMC3    C4 4662   2.784   2.404  16.360  0.5692  0.0209 -0.5022
  310TMC3    C5 4663   2.899   2.410  16.272  0.0787 -0.1589 -0.1135
  310TMC3    C6 4664   2.938   2.527  16.209 -1.0545 -0.6021  0.2954
  310TMC3     C 4665   2.617   2.532  16.489  0.4986  1.0088 -0.5753
  310TMC3     O 4666   2.560   2.640  16.503  0.3364  0.5487  0.3124
  310TMC3     H 4667   2.707   2.736  16.343 -0.5601 -0.6526  1.2836
  310TMC3    H1 4668   2.740   2.310  16.390  0.9732  0.5364  1.6763
  310TMC3    H2 4669   3.016   2.515  16.134 -0.8620  3.0650 -0.1106
  310TMC3    C7 4670   2.988   2.295  16.291  0.6441  0.0977 -0.6942
  310TMC3    C8 4671   2.885   2.759  16.149  0.6649  0.6233 -0.1625
  310TMC3    O1 4672   2.944   2.195  16.350  0.6717  0.0137 -0.0140
  310TMC3    O2 4673   2.988   2.783  16.091 -0.5177  0.3324 -0.8042
  311MPD2     C 4674   0.100   3.070  12.640  0.7041  0.6754  0.6309
  311MPD2    C1 4675   0.112   3.186  12.721  0.1250 -0.0242 -1.2017
  311MPD2    C2 4676   0.018   3.214  12.820  0.2497 -0.2025 -0.1861
  311MPD2    C3 4677   4.627   3.128  12.838  0.4497  0.4060  0.1536
  311MPD2    C4 4678   4.628   3.011  12.762  0.5205  0.5625  0.6438
  311MPD2    C5 4679   4.723   2.983  12.668  1.2363 -0.1576 -0.4515
  311MPD2     H 4680   0.027   3.307  12.876 -0.6096  0.1626 -0.6627
  311MPD2    H1 4681   4.547   2.940  12.774  1.0300 -0.3578 -1.3588
  311MPD2    H2 4682   0.177   3.058  12.565  0.6854 -0.8052  0.8542
  311MPD2    H3 4683   0.001   2.894  12.606  0.3031  0.9252 -2.0343
  311MPD2     N 4684   4.518   3.180  12.912 -0.1967 -0.2400  0.1681
  311MPD2    H5 4685   4.534   3.264  12.966  0.1698  0.0801 -0.4401
  311MPD2    N1 4686   0.217   3.277  12.714 -0.0240  0.0881  0.5859
  311MPD2    H7 4687   0.209   3.349  12.785 -1.6433  0.2236  0.2702
  312TMC3    C1 4688   4.288   3.207  12.958  0.4948 -0.1176 -0.4221
  312TMC3    C2 4689   4.161   3.184  12.912  0.0004 -0.3998 -0.4687
  312TMC3    C3 4690   4.065   3.253  12.966  0.0476  0.0442  0.5472
  312TMC3    C4 4691   4.315   3.298  13.052  0.4636  0.2901  0.2184
  312TMC3    C5 4692   4.207   3.352  13.119  0.1825  0.2079 -0.1629
  312TMC3    C6 4693   4.080   3.335  13.070  0.0345  0.1193 -0.2677
  312TMC3     C 4694   4.391   3.130  12.902  0.1911 -0.4274  0.0743
  312TMC3     O 4695   4.359   3.036  12.834 -0.0683 -0.3114 -0.4121
  312TMC3     H 4696   4.140   3.100  12.846 -2.3119  1.3723 -1.9902
  312TMC3    H1 4697   4.415   3.317  13.089  0.6457  1.7681 -1.0174
  312TMC3    H2 4698   4.002   3.376  13.133  1.2085  0.5619  0.8983
  312TMC3    C7 4699   4.235   3.430  13.242  0.0607  0.1133 -0.2572
  312TMC3    C8 4700   3.944   3.265  12.889 -0.5839 -0.2222 -0.2482
  312TMC3    O1 4701   4.152   3.425  13.331 -0.2573 -0.1521 -0.1610
  312TMC3    O2 4702   3.918   3.183  12.804  0.1077  0.1279 -0.1739
  313MPD2     C 4703   4.660   2.941  10.642 -0.4618 -0.0012 -0.8078
  313MPD2    C1 4704   4.526   2.900  10.659  0.7124 -0.3321 -0.3659
  313MPD2    C2 4705   4.483   2.798  10.581  0.0556  0.4518  0.0268
  313MPD2    C3 4706   4.564   2.739  10.489  0.6934 -0.0404  0.0112
  313MPD2    C4 4707   4.695   2.772  10.477 -0.4303  0.5321  0.3543
  313MPD2    C5 4708   0.021   2.877  10.553 -0.4261  0.3913 -0.7277
  313MPD2     H 4709   4.381   2.763  10.587  0.5952 -0.9698  1.0863
  313MPD2    H1 4710   0.038   2.717  10.412  0.7823 -0.2756  2.2550
  313MPD2    H2 4711   4.705   3.022  10.698 -1.2648 -0.3124  0.2703
  313MPD2    H3 4712   0.123   2.909  10.540  0.0513 -0.5861  0.5305
  313MPD2     N 4713   4.507   2.635  10.417  0.4691  0.2090  0.1450
  313MPD2    H5 4714   4.425   2.586  10.449  0.6362 -0.0479  0.1831
  313MPD2    N1 4715   4.434   2.970  10.740  0.2625  0.3378 -0.7006
  313MPD2    H7 4716   4.341   2.933  10.758  0.5525  0.1478  0.4223
  314TMC3    C1 4717   4.350   3.138  10.875  0.0718 -0.0974 -0.1302
  314TMC3    C2 4718   4.398   3.229  10.967  0.2207 -0.4557 -0.4184
  314TMC3    C3 4719   4.347   3.354  10.970 -0.3254  0.1434 -0.2878
  314TMC3    C4 4720   4.239   3.165  10.796  0.2977 -1.1476  0.7697
  314TMC3    C5 4721   4.187   3.295  10.804 -0.4340 -0.0159 -0.3989
  314TMC3    C6 4722   4.234   3.388  10.898 -0.4696 -0.0627 -0.0366
  314TMC3     C 4723   4.461   3.092  10.798  0.0719  0.4720 -0.0440
  314TMC3     O 4724   4.563   3.157  10.801  0.3348 -0.2907 -0.3660
  314TMC3     H 4725   4.490   3.211  11.020 -0.9576  1.3622  2.2340
  314TMC3    H1 4726   4.221   3.104  10.708 -0.0463  0.7476 -0.4714
  314TMC3    H2 4727   4.200   3.491  10.898  0.8973  0.3656  3.0965
  314TMC3    C7 4728   4.110   3.349  10.698 -0.3438  0.0460  0.3102
  314TMC3    C8 4729   4.440   3.460  10.986 -0.1494  0.5810  0.4113
  314TMC3    O1 4730   4.021   3.425  10.726 -0.2025  0.5057  1.3115
  314TMC3    O2 4731   4.413   3.565  11.044  0.2963 -0.2818 -0.3547
  315MPD2     C 4732   3.663   2.789  17.260  0.2269 -0.2884  0.1166
  315MPD2    C1 4733   3.690   2.759  17.395 -0.2704  0.6694 -0.0522
  315MPD2    C2 4734   3.761   2.847  17.481 -0.5651  0.2191 -0.0783
  315MPD2    C3 4735   3.806   2.965  17.434  1.0964 -0.5330 -0.8994
  315MPD2    C4 4736   3.772   3.002  17.304 -0.3009  0.0055 -0.5011
  315MPD2    C5 4737   3.697   2.914  17.224  0.3089  0.5456 -0.2004
  315MPD2     H 4738   3.785   2.815  17.581 -1.6445 -1.4367 -0.3453
  315MPD2    H1 4739   3.793   3.098  17.257 -0.3442  0.4277  0.3504
  315MPD2    H2 4740   3.610   2.725  17.191 -1.2863 -0.8744  1.8420
  315MPD2    H3 4741   3.683   2.950  17.122 -0.7554 -0.5460 -0.4394
  315MPD2     N 4742   3.874   3.054  17.518 -0.3685  0.3750  0.0254
  315MPD2    H5 4743   3.902   3.018  17.608  0.2085  0.6339 -0.0451
  315MPD2    N1 4744   3.671   2.625  17.450 -0.4992 -0.0187 -0.7004
  315MPD2    H7 4745   3.720   2.616  17.539  0.3762  1.2110 -1.0586
  316TMC3    C1 4746   3.972   3.243  17.601 -0.3964 -0.1845  0.0070
  316TMC3    C2 4747   4.081   3.180  17.659 -0.0238  0.1654  0.1016
  316TMC3    C3 4748   4.148   3.245   0.061 -0.1729 -0.0003  0.3018
  316TMC3    C4 4749   3.946   3.373  17.629  0.5060 -0.2345 -0.4179
  316TMC3    C5 4750   4.011   3.441   0.039 -0.5059  0.0363  0.4698
  316TMC3    C6 4751   4.106   3.372   0.107 -0.2577 -0.5299 -0.0148
  316TMC3     C 4752   3.905   3.186  17.489  0.0578 -0.1357  0.2618
  316TMC3     O 4753   3.872   3.257  17.398  0.0918 -0.5901 -0.2579
  316TMC3     H 4754   4.103   3.079  17.629  0.7568  0.1108  0.8460
  316TMC3    H1 4755   3.889   3.432  17.557 -0.4145  1.0054  1.3249
  316TMC3    H2 4756   4.158   3.426   0.186  0.7780 -2.3343  0.5186
  316TMC3    C7 4757   4.006   3.586   0.042  0.2982  0.8856 -0.3771
  316TMC3    C8 4758   4.236   3.164   0.150  0.1543 -0.2975  0.4711
  316TMC3    O1 4759   4.065   3.631   0.140  0.4834 -0.3717 -0.5861
  316TMC3    O2 4760   4.243   3.193   0.265 -0.4733  0.1062 -0.3798
  317MPD2     C 4761   1.106   0.780  12.607  0.3204  0.1227  0.7061
  317MPD2    C1 4762   1.181   0.663  12.589  0.0791  0.3537  0.1110
  317MPD2    C2 4763   1.223   0.603  12.706 -0.3475  0.5236 -0.3090
  317MPD2    C3 4764   1.186   0.657  12.829 -0.2451  0.1794 -0.3113
  317MPD2    C4 4765   1.099   0.766  12.840  0.4658  0.2525  0.7844
  317MPD2    C5 4766   1.062   0.826  12.728  0.4105  0.2068  0.0119
  317MPD2     H 4767   1.297   0.525  12.710  0.5916  1.4938  1.7558
  317MPD2    H1 4768   1.078   0.817  12.934 -1.0278  0.6890  0.2087
  317MPD2    H2 4769   1.069   0.845  12.529 -2.7724  0.6502  2.6023
  317MPD2    H3 4770   0.990   0.907  12.739  0.5090  0.4330 -0.9660
  317MPD2     N 4771   1.225   0.589  12.946  0.0426  0.6223 -0.1080
  317MPD2    H5 4772   1.257   0.493  12.941 -2.1977 -0.1322 -0.2058
  317MPD2    N1 4773   1.242   0.624  12.467  0.2086  0.4328  0.5577
  317MPD2    H7 4774   1.294   0.537  12.470 -0.7677 -0.1721 -0.2068
  318TMC3    C1 4775   1.246   0.545  13.173  0.1990  0.3278  0.3046
  318TMC3    C2 4776   1.217   0.413  13.156 -0.1664  0.2836 -0.5099
  318TMC3    C3 4777   1.270   0.323  13.241 -0.2386 -0.1517 -0.9357
  318TMC3    C4 4778   1.336   0.586  13.270 -0.4851 -0.3351 -0.1734
  318TMC3    C5 4779   1.401   0.483  13.341  0.0860 -0.2252 -0.1520
  318TMC3    C6 4780   1.364   0.353  13.328 -0.4323 -0.0982  0.0186
  318TMC3     C 4781   1.211   0.637  13.070 -0.4050  0.9434 -0.0396
  318TMC3     O 4782   1.190   0.748  13.109 -0.5755  0.1223  0.0925
  318TMC3     H 4783   1.143   0.380  13.084 -0.4861  0.1169 -0.1081
  318TMC3    H1 4784   1.363   0.691  13.278  0.9408 -0.5380 -2.2208
  318TMC3    H2 4785   1.409   0.276  13.391 -0.4549 -0.3899 -0.3194
  318TMC3    C7 4786   1.507   0.518  13.431 -0.0619 -0.8082  0.1373
  318TMC3    C8 4787   1.249   0.184  13.208 -0.6191 -0.5033 -0.2104
  318TMC3    O1 4788   1.528   0.634  13.464  0.3022  0.3807 -0.8908
  318TMC3    O2 4789   1.347   0.111  13.221  0.1724  0.1114 -0.5048
  319MPD2     C 4790   1.747   2.406  16.751 -0.0235  0.0200 -0.4574
  319MPD2    C1 4791   1.739   2.272  16.712  0.2082 -0.5773  0.2952
  319MPD2    C2 4792   1.637   2.228  16.624  0.1701 -0.2143  0.3784
  319MPD2    C3 4793   1.540   2.312  16.569 -0.0666 -0.7809  0.8742
  319MPD2    C4 4794   1.552   2.444  16.611 -0.0276  0.1820  0.1776
  319MPD2    C5 4795   1.649   2.488  16.698  0.1339  0.0897  1.0788
  319MPD2     H 4796   1.630   2.121  16.610 -1.5185  0.1777 -1.7248
  319MPD2    H1 4797   1.471   2.506  16.573  0.1618  1.1900  1.4129
  319MPD2    H2 4798   1.817   2.444  16.824 -1.6841 -0.5434  1.4097
  319MPD2    H3 4799   1.649   2.591  16.731 -2.2168  0.5085 -0.2570
  319MPD2     N 4800   1.438   2.277  16.481  0.4899 -0.6112  0.1498
  319MPD2    H5 4801   1.377   2.350  16.445 -0.1722 -1.3175 -0.1733
  319MPD2    N1 4802   1.832   2.172  16.761 -0.3134 -0.6078  1.0538
  319MPD2    H7 4803   1.840   2.079  16.721 -2.4368 -0.3137 -0.0627
  320TMC3    C1 4804   1.297   2.144  16.349 -0.8932  0.1163 -0.7716
  320TMC3    C2 4805   1.306   2.225  16.244 -0.0716  0.2647 -0.0184
  320TMC3    C3 4806   1.209   2.222  16.145 -1.1447 -0.3345  0.6370
  320TMC3    C4 4807   1.197   2.050  16.365  0.1120 -0.0177 -0.3791
  320TMC3    C5 4808   1.102   2.049  16.269  0.3319 -0.0096 -0.7769
  320TMC3    C6 4809   1.102   2.133  16.157  0.0283  0.2541 -0.9456
  320TMC3     C 4810   1.391   2.152  16.455  0.3025 -0.8240 -0.8585
  320TMC3     O 4811   1.407   2.052  16.523 -0.1556  0.4025 -0.8553
  320TMC3     H 4812   1.397   2.281  16.224 -0.9471  1.6056 -0.3103
  320TMC3    H1 4813   1.199   1.976  16.444  0.6404 -1.1273 -1.4411
  320TMC3    H2 4814   1.020   2.131  16.086 -0.2591  0.3496 -0.6160
  320TMC3    C7 4815   1.032   1.920  16.260  0.2100  0.2974 -0.3081
  320TMC3    C8 4816   1.235   2.285  16.013 -0.7295  0.3143  0.5944
  320TMC3    O1 4817   0.914   1.909  16.243  0.7818  0.2233 -0.2116
  320TMC3    O2 4818   1.298   2.389  16.019 -0.0804 -0.2286  0.9233
  321TMC3    C1 4819   2.018   2.085  16.891 -0.2176  0.0542 -0.2849
  321TMC3    C2 4820   2.135   2.111  16.958 -0.4116 -0.0936 -0.1388
  321TMC3    C3 4821   2.208   2.003  17.001 -0.1896  0.0602 -0.8997
  321TMC3    C4 4822   1.966   1.959  16.867  0.5451  0.4733 -0.2938
  321TMC3    C5 4823   2.045   1.861  16.916 -0.4723  0.3020 -0.6155
  321TMC3    C6 4824   2.171   1.877  16.955  0.8634  0.2696  0.2130
  321TMC3     C 4825   1.932   2.200  16.854  0.4415 -0.3559  0.4664
  321TMC3     O 4826   1.964   2.309  16.900 -0.2804  0.3408  0.6689
  321TMC3     H 4827   2.166   2.211  16.984 -1.4382  0.2044 -0.0515
  321TMC3    H1 4828   1.858   1.951  16.857  0.6471 -0.4300 -0.6614
  321TMC3    H2 4829   2.227   1.790  16.989  1.7031  0.3469 -0.9686
  321TMC3    C7 4830   1.959   1.776  16.999  0.1328  0.3189 -0.2848
  321TMC3    C8 4831   2.232   2.003  17.151 -0.4850  0.0139  0.1172
  321TMC3    O1 4832   1.845   1.755  16.959 -0.3066  0.1660  0.8452
  321TMC3    O2 4833   2.237   1.890  17.189  0.1136  0.6428 -0.5320
  322MPD2     C 4834   1.087   3.267  13.366  0.0645 -0.2915  0.5468
  322MPD2    C1 4835   1.029   3.208  13.473  0.2296 -0.4513  0.5103
  322MPD2    C2 4836   1.024   3.070  13.480 -0.0963  0.7718  0.3691
  322MPD2    C3 4837   1.081   2.996  13.375  0.4659  0.1877 -0.2313
  322MPD2    C4 4838   1.140   3.066  13.269  0.1185 -1.2228 -0.5116
  322MPD2    C5 4839   1.150   3.197  13.268  0.4468 -0.2029  0.5957
  322MPD2     H 4840   0.992   3.022  13.572 -0.7896 -2.6169 -1.6397
  322MPD2    H1 4841   1.177   3.012  13.182 -0.9877  0.4610 -2.0211
  322MPD2    H2 4842   1.092   3.374  13.354 -3.0505 -0.0560  1.4260
  322MPD2    H3 4843   1.207   3.251  13.193  0.7749  0.4717  1.3273
  322MPD2     N 4844   1.097   2.854  13.374  0.0381 -0.1997  0.2410
  322MPD2    H5 4845   1.055   2.804  13.451 -0.4749 -0.4643 -0.2097
  322MPD2    N1 4846   0.987   3.299  13.580 -0.1556  0.3189 -0.3723
  322MPD2    H7 4847   1.032   3.390  13.587  0.5219  0.0693 -1.4019
  323TMC3    C1 4848   0.963   3.314  13.802 -0.1891 -0.3989 -0.1295
  323TMC3    C2 4849   1.027   3.430  13.801  0.2975 -0.4215  0.0148
  323TMC3    C3 4850   1.122   3.456  13.887  0.4291  0.3331  0.3307
  323TMC3    C4 4851   0.994   3.222  13.895  0.1588  0.3314 -0.2394
  323TMC3    C5 4852   1.104   3.240  13.972  0.5147 -0.0993  0.0873
  323TMC3    C6 4853   1.160   3.367  13.987  0.1757  0.1858  0.3715
  323TMC3     C 4854   0.908   3.264  13.689 -0.3226  0.0317  0.0972
  323TMC3     O 4855   0.825   3.167  13.693  0.7417 -0.3350  0.9824
  323TMC3     H 4856   1.017   3.499  13.717  0.1583 -0.1010  0.2921
  323TMC3    H1 4857   0.959   3.124  13.865  2.5684 -0.1428 -1.4486
  323TMC3    H2 4858   1.230   3.392  14.065  2.3458 -2.6776 -0.6617
  323TMC3    C7 4859   1.182   3.123  14.003  0.6495  0.2754  0.7978
  323TMC3    C8 4860   1.226   3.553  13.864 -0.3378  0.0666 -0.2085
  323TMC3    O1 4861   1.127   3.017  13.969 -0.0449  0.3752 -0.0437
  323TMC3    O2 4862   1.335   3.524  13.910  0.6200  0.5266 -0.3497
  324MPD2     C 4863   2.920   4.411  13.923 -0.1329  1.3088 -0.4118
  324MPD2    C1 4864   3.000   4.491  14.004 -0.5192 -0.2012  0.4015
  324MPD2    C2 4865   2.952   4.564  14.111 -0.1750 -0.3476  0.1830
  324MPD2    C3 4866   2.820   4.532  14.147 -0.2230 -0.6047 -0.1287
  324MPD2    C4 4867   2.742   4.444  14.075  0.5140 -0.4390  0.3096
  324MPD2    C5 4868   2.788   4.399  13.955 -0.4487  0.0569 -0.1447
  324MPD2     H 4869   3.017   4.629  14.168  1.7637 -0.3579 -1.9770
  324MPD2    H1 4870   2.640   4.426  14.105 -0.0394 -0.1929 -1.4419
  324MPD2    H2 4871   2.954   4.369  13.829 -1.8170 -1.3000  0.1664
  324MPD2    H3 4872   2.718   4.342  13.895  0.2919 -0.0906 -0.8594
  324MPD2     N 4873   2.767   4.579  14.266 -0.2071  0.6726 -0.2152
  324MPD2    H5 4874   2.675   4.539  14.284 -0.4745  1.3282 -0.1370
  324MPD2    N1 4875   3.140   4.497  13.977  1.0572 -0.1819  0.3497
  324MPD2    H7 4876   3.187   4.572  14.027  1.3550 -0.8785  1.1253
  325TMC3    C1 4877   2.730   4.670  14.468 -0.5220 -0.3906 -0.2462
  325TMC3    C2 4878   2.658   4.559  14.494 -0.2049  0.1670 -0.1866
  325TMC3    C3 4879   2.537   4.575  14.539 -0.0316  0.1648  0.2869
  325TMC3    C4 4880   2.669   0.072  14.494  0.4256 -0.4383  0.0167
  325TMC3    C5 4881   2.539   0.082  14.545  0.3092  0.6229 -0.3829
  325TMC3    C6 4882   2.469   4.691  14.565  0.1947 -0.0926 -0.0605
  325TMC3     C 4883   2.822   4.662  14.359  0.0679 -0.3841 -0.1227
  325TMC3     O 4884   2.924   0.004  14.345  0.5209  0.2142 -0.4421
  325TMC3     H 4885   2.699   4.460  14.477 -0.2990  0.0541  0.2369
  325TMC3    H1 4886   2.720   0.156  14.448 -0.7395  0.2723  0.0148
  325TMC3    H2 4887   2.364   4.685  14.592 -0.6841  0.0223 -3.3459
  325TMC3    C7 4888   2.461   0.203  14.522  0.5192  0.2860 -0.2047
  325TMC3    C8 4889   2.459   4.477  14.476  0.1708 -0.1249 -0.0286
  325TMC3    O1 4890   2.512   0.285  14.445  0.2986  0.1991  0.3476
  325TMC3    O2 4891   2.488   4.451  14.359 -0.0754  0.3025 -0.1508
  326MPD2     C 4892   4.225   0.622  11.147 -0.2888  0.0856  0.1236
  326MPD2    C1 4893   4.213   0.626  11.011  0.5797 -0.2455 -0.5788
  326MPD2    C2 4894   4.300   0.702  10.932  0.4514 -0.2072 -0.1581
  326MPD2    C3 4895   4.391   0.785  10.996 -0.0183 -0.3692 -0.4779
  326MPD2    C4 4896   4.397   0.790  11.134  0.1544  0.3888 -0.0406
  326MPD2    C5 4897   4.320   0.701  11.206  1.1386  0.1821 -0.1639
  326MPD2     H 4898   4.296   0.710  10.824  2.1898  1.1085 -0.1322
  326MPD2    H1 4899   4.477   0.847  11.181  1.0014 -2.0100  1.4203
  326MPD2    H2 4900   4.162   0.565  11.215  0.6187 -0.1023  0.8118
  326MPD2    H3 4901   4.322   0.719  11.312  1.0747 -0.6465 -0.0236
  326MPD2     N 4902   4.478   0.866  10.930  0.0626 -0.3417  0.4627
  326MPD2    H5 4903   4.525   0.936  10.987  1.7059  1.2180 -2.7902
  326MPD2    N1 4904   4.122   0.555  10.938  0.2229  0.5201 -0.2988
  326MPD2    H7 4905   4.133   0.545  10.837  2.0512  0.6584 -0.1056
  327TMC3    C1 4906   3.976   0.389  10.890  0.4742  0.1136 -0.0275
  327TMC3    C2 4907   3.857   0.401  10.826 -0.6921  0.4286  0.6203
  327TMC3    C3 4908   3.848   0.348  10.704  1.2962  0.0068  0.0271
  327TMC3    C4 4909   4.070   0.296  10.844 -0.2560 -0.5987 -0.4481
  327TMC3    C5 4910   4.049   0.226  10.727  0.6081 -0.4575  0.1713
  327TMC3    C6 4911   3.942   0.261  10.646  0.2737 -0.7284  0.2202
  327TMC3     C 4912   4.020   0.483  10.987 -0.2380  0.0187 -0.4189
  327TMC3     O 4913   3.949   0.493  11.087 -0.6322 -0.1917 -0.0724
  327TMC3     H 4914   3.789   0.473  10.870  0.9497  2.9220 -0.8634
  327TMC3    H1 4915   4.145   0.260  10.912  1.7934  3.5485 -0.5016
  327TMC3    H2 4916   3.941   0.229  10.543 -3.4010 -0.8341  0.2806
  327TMC3    C7 4917   4.167   0.177  10.650  0.3642 -0.7404  0.2986
  327TMC3    C8 4918   3.754   0.399  10.608 -0.1663  0.3387 -0.0748
  327TMC3    O1 4919   4.142   0.110  10.549 -0.2414  0.5778 -0.5710
  327TMC3    O2 4920   3.785   0.392  10.489 -0.8309  0.7703  0.3902
  328MPD2     C 4921   1.771   0.411  16.470 -0.1450 -0.5285  0.3987
  328MPD2    C1 4922   1.649   0.360  16.424  0.0107  0.0174 -0.0373
  328MPD2    C2 4923   1.535   0.439  16.436  0.2639  0.1568 -0.0086
  328MPD2    C3 4924   1.541   0.574  16.488  0.0731 -0.3168  0.3640
  328MPD2    C4 4925   1.661   0.621  16.532 -0.4502  0.1362 -0.0120
  328MPD2    C5 4926   1.775   0.541  16.513  0.4336  0.8558  0.8272
  328MPD2     H 4927   1.439   0.403  16.400 -0.5227  0.2762  1.9806
  328MPD2    H1 4928   1.677   0.727  16.545  0.1433 -0.2075  2.1329
  328MPD2    H2 4929   1.858   0.347  16.479 -1.6587 -2.8915 -1.7703
  328MPD2    H3 4930   1.872   0.572  16.551  0.0685  0.6607  1.8931
  328MPD2     N 4931   1.428   0.660  16.490  0.7699 -0.3270 -0.3948
  328MPD2    H5 4932   1.449   0.757  16.514  1.8792 -0.2848 -1.5701
  328MPD2    N1 4933   1.649   0.225  16.384 -0.6580  0.0428  0.4586
  328MPD2    H7 4934   1.737   0.177  16.370 -0.2407  1.0276 -0.2706
  329TMC3    C1 4935   1.566   0.011  16.328 -0.3534  0.0435  0.1837
  329TMC3    C2 4936   1.461   4.678  16.262 -0.4855 -0.4651 -0.6730
  329TMC3    C3 4937   1.402   4.564  16.304  0.5714  0.5792  0.3429
  329TMC3    C4 4938   1.612   4.675  16.443  0.0779  0.3576 -0.4254
  329TMC3    C5 4939   1.546   4.559  16.480  0.0607  0.1674 -0.0784
  329TMC3    C6 4940   1.451   4.496  16.407  0.0190  0.3311  0.7010
  329TMC3     C 4941   1.536   0.151  16.348 -0.2733 -0.4743  0.1297
  329TMC3     O 4942   1.423   0.196  16.326  0.1818 -0.0185  0.3601
  329TMC3     H 4943   1.406   0.015  16.190  0.0366  1.3186  0.4330
  329TMC3    H1 4944   1.686   4.721  16.507 -0.5433 -1.2851  1.4830
  329TMC3    H2 4945   1.396   4.409  16.440 -1.9789  0.9561 -1.0216
  329TMC3    C7 4946   1.571   4.493  16.604 -0.5696  0.9028 -0.1198
  329TMC3    C8 4947   1.255   4.586  16.307  0.0326  0.3896 -0.0594
  329TMC3    O1 4948   1.571   4.370  16.607 -0.4096 -0.5528  0.1282
  329TMC3    O2 4949   1.196   4.575  16.198  0.1975 -0.3566 -0.1322
  330TMC3    C1 4950   0.208   3.979   9.788  0.5357  0.4147 -0.0093
  330TMC3    C2 4951   0.075   3.960   9.786  0.2957  0.1075 -0.8316
  330TMC3    C3 4952   0.017   3.924   9.903  0.3485 -0.5898  0.1117
  330TMC3    C4 4953   0.283   3.975   9.903 -0.6894  0.4611 -0.2962
  330TMC3    C5 4954   0.216   3.947  10.016  0.6800 -0.4478 -0.0916
  330TMC3    C6 4955   0.084   3.911  10.022  0.1758 -0.4071 -0.2274
  330TMC3     C 4956   0.278   3.964   9.664 -0.3226  0.2862  0.2512
  330TMC3     O 4957   0.394   3.928   9.668 -0.0519  0.3995  0.1795
  330TMC3     H 4958   0.010   3.946   9.700  1.7439  0.7049 -2.0120
  330TMC3    H1 4959   0.391   3.988   9.902 -0.3632 -2.1235  0.9507
  330TMC3    H2 4960   0.027   3.880  10.109 -0.5672 -0.4204 -0.7155
  330TMC3    C7 4961   0.301   3.903  10.123  0.3812  0.0873 -0.1761
  330TMC3    C8 4962   4.599   3.914   9.914 -0.1066 -0.0026  0.4182
  330TMC3    O1 4963   0.396   3.833  10.088  0.3226  0.0901 -0.2001
  330TMC3    O2 4964   4.551   3.976  10.009  0.1537 -0.0973  0.4032
  331MPD2     C 4965   2.474   3.724  12.963  0.0714  0.2595 -0.0075
  331MPD2    C1 4966   2.564   3.781  12.875  0.1383 -0.7647 -0.1129
  331MPD2    C2 4967   2.561   3.743  12.737 -0.4076 -0.4407  0.5382
  331MPD2    C3 4968   2.454   3.667  12.692 -0.6030  0.0298 -0.2378
  331MPD2    C4 4969   2.362   3.623  12.786  0.2489  0.2858 -0.1668
  331MPD2    C5 4970   2.369   3.652  12.915 -0.8434 -0.6130  1.0836
  331MPD2     H 4971   2.640   3.778  12.672 -2.8637  0.3735 -1.9619
  331MPD2    H1 4972   2.276   3.564  12.756 -0.6937  1.4474  0.2043
  331MPD2    H2 4973   2.490   3.732  13.070  1.4260  0.0172 -0.1980
  331MPD2    H3 4974   2.296   3.615  12.986 -2.0172  0.7379  0.5810
  331MPD2     N 4975   2.441   3.643  12.554  0.3974 -0.3174  0.2306
  331MPD2    H5 4976   2.529   3.655  12.504  0.8287  1.0393  1.3229
  331MPD2    N1 4977   2.669   3.850  12.928 -0.2355  0.6206  0.1408
  331MPD2    H7 4978   2.676   3.832  13.027 -2.0500  1.9613  0.5218
  332TMC3    C1 4979   2.362   3.531  12.354  0.1464  0.1558  0.4562
  332TMC3    C2 4980   2.435   3.598  12.266  0.0660  0.5630  0.4915
  332TMC3    C3 4981   2.471   3.529  12.152 -0.4186  0.3300 -0.7099
  332TMC3    C4 4982   2.324   3.398  12.330  0.4686 -0.0814  0.2396
  332TMC3    C5 4983   2.360   3.333  12.217 -0.1419 -0.6459  0.7103
  332TMC3    C6 4984   2.438   3.398  12.124 -0.1806  0.2370 -0.6032
  332TMC3     C 4985   2.342   3.563  12.492  0.4658  0.4906 -0.1507
  332TMC3     O 4986   2.238   3.514  12.534  0.3740 -0.0753  0.4299
  332TMC3     H 4987   2.477   3.695  12.293 -0.4235  0.5600  1.2412
  332TMC3    H1 4988   2.250   3.345  12.389  1.4086 -2.3951 -0.6700
  332TMC3    H2 4989   2.467   3.343  12.034 -2.8702  0.4094 -1.5948
  332TMC3    C7 4990   2.388   3.198  12.239  0.2424 -0.7143 -0.0585
  332TMC3    C8 4991   2.552   3.611  12.061 -0.4317 -0.1624 -0.1977
  332TMC3    O1 4992   2.304   3.112  12.271  0.3089  0.2031 -0.2739
  332TMC3    O2 4993   2.624   3.696  12.116  0.2192  0.2960  0.0525
  333MPD2     C 4994   2.825   3.668  11.089 -1.0551 -0.2062 -0.4544
  333MPD2    C1 4995   2.850   3.589  10.979  0.2904 -0.1594  0.3949
  333MPD2    C2 4996   2.811   3.453  10.994  0.2379  0.7821 -0.0403
  333MPD2    C3 4997   2.743   3.407  11.106  0.0742  0.1545 -0.0392
  333MPD2    C4 4998   2.707   3.496  11.210 -0.2669  0.1069 -0.3525
  333MPD2    C5 4999   2.760   3.623  11.202  0.2670  0.0832 -0.2654
  333MPD2     H 5000   2.826   3.381  10.914  0.4774 -0.4470  1.1171
  333MPD2    H1 5001   2.650   3.464  11.296 -1.2672 -0.3487 -1.1821
  333MPD2    H2 5002   2.854   3.772  11.094 -0.1480 -0.5616  1.9234
  333MPD2    H3 5003   2.718   3.700  11.265  2.5209 -0.5470  1.9989
  333MPD2     N 5004   2.711   3.268  11.120  0.3600 -0.5162  0.6241
  333MPD2    H5 5005   2.753   3.205  11.052 -1.3007 -0.2908 -0.6241
  333MPD2    N1 5006   2.917   3.651  10.873 -0.2994  0.2103  0.6770
  333MPD2    H7 5007   2.950   3.746  10.885  0.6975 -0.0678  0.2123
  334TMC3    C1 5008   3.007   3.682  10.658 -0.2224  0.1301 -0.1116
  334TMC3    C2 5009   3.054   3.633  10.539 -0.1810  0.0095  0.0250
  334TMC3    C3 5010   3.101   3.728  10.449  0.6648 -0.5830 -0.3740
  334TMC3    C4 5011   3.018   3.822  10.688 -0.3667  0.4850 -0.6909
  334TMC3    C5 5012   3.051   3.906  10.583  0.1670 -0.3030  0.1464
  334TMC3    C6 5013   3.091   3.868  10.464  0.0047  0.1255  0.3177
  334TMC3     C 5014   2.944   3.588  10.750 -0.2612  0.6417 -0.3366
  334TMC3     O 5015   2.917   3.472  10.721 -0.1212 -0.1812 -0.2181
  334TMC3     H 5016   3.071   3.528  10.518 -0.5039  0.0467 -0.4186
  334TMC3    H1 5017   2.984   3.862  10.783 -1.2944  0.5368 -1.0408
  334TMC3    H2 5018   3.121   3.936  10.385 -0.2636 -1.2809 -0.9796
  334TMC3    C7 5019   3.028   4.048  10.598  0.3565  0.0208 -0.4581
  334TMC3    C8 5020   3.208   3.681  10.362 -0.2145 -0.6180  0.4691
  334TMC3    O1 5021   3.052   4.101  10.705 -0.0866  0.0480  0.1704
  334TMC3    O2 5022   3.210   3.561  10.347  0.3753 -0.0712  0.2247
  335TMC3    C1 5023   1.743   0.945  17.175  0.4034 -0.1125  0.1963
  335TMC3    C2 5024   1.691   0.839  17.111 -0.4112 -0.2560 -0.4820
  335TMC3    C3 5025   1.778   0.743  17.075 -0.0275 -0.0694 -0.6928
  335TMC3    C4 5026   1.875   0.967  17.209 -0.2676 -0.2410  0.0455
  335TMC3    C5 5027   1.956   0.867  17.161 -0.3237 -0.2641  1.1842
  335TMC3    C6 5028   1.913   0.749  17.102 -0.4436 -0.4030  0.4607
  335TMC3     C 5029   1.650   1.048  17.202  0.2316  0.4539  0.8338
  335TMC3     O 5030   1.548   1.048  17.133  0.2564  0.5384  0.6003
  335TMC3     H 5031   1.583   0.831  17.111 -0.2673 -2.2751 -1.2576
  335TMC3    H1 5032   1.909   1.068  17.231  0.6244 -0.8080  1.2971
  335TMC3    H2 5033   1.980   0.673  17.065  0.6349  0.3870  0.7761
  335TMC3    C7 5034   2.098   0.884  17.188  0.8409  0.1477  0.6755
  335TMC3    C8 5035   1.722   0.629  17.006  0.6481 -0.0513  0.2465
  335TMC3    O1 5036   2.171   0.813  17.123  0.1894  0.0297 -0.3544
  335TMC3    O2 5037   1.606   0.641  16.973  0.4350 -0.2766 -0.4079
  336MPD2     C 5038   1.679   3.070  15.762 -0.1251  0.0838  0.7974
  336MPD2    C1 5039   1.641   3.007  15.643 -0.5449  0.0866  0.1476
  336MPD2    C2 5040   1.624   2.870  15.637  0.6684  0.0131  0.3410
  336MPD2    C3 5041   1.671   2.793  15.744 -0.2392  0.1181  0.0640
  336MPD2    C4 5042   1.731   2.860  15.851 -0.0213 -0.5823  0.6396
  336MPD2    C5 5043   1.729   2.993  15.861 -0.1717 -0.1197 -0.2857
  336MPD2     H 5044   1.572   2.834  15.549  1.3259  2.9502 -1.2417
  336MPD2    H1 5045   1.769   2.807  15.938  1.7979  1.3026  0.9983
  336MPD2    H2 5046   1.676   3.176  15.782 -0.8530  0.6931 -2.6297
  336MPD2    H3 5047   1.749   3.042  15.956 -2.1312  2.7246 -1.3408
  336MPD2     N 5048   1.658   2.654  15.751 -0.0671  0.1814  0.1721
  336MPD2    H5 5049   1.701   2.605  15.829 -2.1502 -3.1384 -0.7374
  336MPD2    N1 5050   1.586   3.074  15.532  0.5198  0.4313  0.5095
  336MPD2    H7 5051   1.546   3.012  15.463  1.8485  0.3016 -0.1508
  337TMC3    C1 5052   1.508   3.270  15.416  0.2575  0.5066 -0.2406
  337TMC3    C2 5053   1.378   3.225  15.415 -0.3440 -0.8753  0.1055
  337TMC3    C3 5054   1.293   3.307  15.347  0.2163  0.4779 -0.7459
  337TMC3    C4 5055   1.549   3.395  15.367 -0.1172 -0.3366 -0.6527
  337TMC3    C5 5056   1.457   3.477  15.305 -0.4889  0.5524  0.8527
  337TMC3    C6 5057   1.331   3.426  15.289  0.2997 -0.3297 -0.7033
  337TMC3     C 5058   1.594   3.211  15.516  0.2588  0.1013  0.4832
  337TMC3     O 5059   1.662   3.291  15.582 -0.1600  0.1929 -0.2633
  337TMC3     H 5060   1.345   3.130  15.455  2.3555 -0.8642  2.3682
  337TMC3    H1 5061   1.645   3.429  15.405 -0.8851  0.6554  0.4205
  337TMC3    H2 5062   1.264   3.481  15.224 -1.1110  0.1293  1.1246
  337TMC3    C7 5063   1.449   3.598  15.386  0.2774  0.0099  0.0630
  337TMC3    C8 5064   1.152   3.267  15.353 -0.0441  0.4659  0.3377
  337TMC3    O1 5065   1.469   3.576  15.505  0.1624  0.5972  0.1292
  337TMC3    O2 5066   1.105   3.227  15.454 -0.1241  0.4923 -0.1761
  338MPD2     C 5067   1.964   3.383   0.477 -0.1301 -0.5717 -0.1262
  338MPD2    C1 5068   1.951   3.272   0.394  0.2532 -0.2133 -0.5844
  338MPD2    C2 5069   1.840   3.205   0.394 -0.0345 -0.2911 -0.0048
  338MPD2    C3 5070   1.737   3.237   0.471  0.4264 -0.4811 -0.2586
  338MPD2    C4 5071   1.738   3.345   0.549 -0.2582  0.2204  0.6817
  338MPD2    C5 5072   1.856   3.414   0.555  0.4386 -0.4122 -0.5629
  338MPD2     H 5073   1.833   3.121   0.326  1.5161 -1.1461  0.9132
  338MPD2    H1 5074   1.651   3.372   0.607  1.6626  4.3912  1.5994
  338MPD2    H2 5075   2.051   3.448   0.471  1.0563 -2.1507 -0.0339
  338MPD2    H3 5076   1.859   3.500   0.621 -0.2683  0.0195 -1.0959
  338MPD2     N 5077   1.624   3.159   0.435  0.1570  0.4676 -0.4214
  338MPD2    H5 5078   1.640   3.092   0.360  2.4491  1.6432 -0.9958
  338MPD2    N1 5079   2.055   3.223   0.306 -0.7851 -0.1941 -0.1899
  338MPD2    H7 5080   2.039   3.137   0.256 -0.0349  0.3660 -1.3890
  339TMC3    C1 5081   1.401   3.113   0.393  0.2053  0.1123 -0.2726
  339TMC3    C2 5082   1.408   2.976   0.401 -0.7292 -0.1542  0.1179
  339TMC3    C3 5083   1.388   2.903   0.290  0.1117  0.2524 -0.1029
  339TMC3    C4 5084   1.381   3.173   0.271 -0.3030 -0.5220  0.1122
  339TMC3    C5 5085   1.367   3.095   0.159  0.5433 -0.1208 -0.4699
  339TMC3    C6 5086   1.351   2.956   0.168 -0.2646  0.6365  0.8623
  339TMC3     C 5087   1.499   3.172   0.480  0.4419  0.0260  0.2899
  339TMC3     O 5088   1.467   3.264   0.549 -0.1520  0.1949 -0.1211
  339TMC3     H 5089   1.427   2.934   0.499 -1.8740  0.2367  0.5083
  339TMC3    H1 5090   1.376   3.281   0.269 -3.1356 -0.6922 -1.8952
  339TMC3    H2 5091   1.352   2.886   0.084 -0.8428  0.5141  0.9586
  339TMC3    C7 5092   1.431   3.151   0.040  0.2626 -0.4100  0.4605
  339TMC3    C8 5093   1.379   2.754   0.298  0.1820  0.2495 -0.3060
  339TMC3    O1 5094   1.490   3.260   0.062 -0.1608  0.0008 -0.3173
  339TMC3    O2 5095   1.406   2.691   0.197  0.8079  0.2058  0.7723
  340MPD2     C 5096   2.751   4.360   9.363 -0.3009 -0.1787  0.2542
  340MPD2    C1 5097   2.852   4.450   9.357 -0.5056 -0.1486 -0.4944
  340MPD2    C2 5098   2.896   4.502   9.476  0.7558 -0.6438 -0.0552
  340MPD2    C3 5099   2.838   4.468   9.599 -0.0493  0.3407  0.6414
  340MPD2    C4 5100   2.739   4.378   9.602 -0.4240  0.0371 -0.2432
  340MPD2    C5 5101   2.692   4.325   9.484 -0.5756  0.8115  0.2229
  340MPD2     H 5102   2.961   4.588   9.468 -1.6302  1.0374 -1.2662
  340MPD2    H1 5103   2.689   4.357   9.696  1.0812  3.1589  1.2717
  340MPD2    H2 5104   2.700   4.311   9.281 -0.4106 -0.3657  0.4341
  340MPD2    H3 5105   2.613   4.251   9.491  0.7383 -0.6621 -0.3792
  340MPD2     N 5106   2.871   4.528   9.715 -0.1554  0.0536 -0.2172
  340MPD2    H5 5107   2.827   4.499   9.802 -0.6982  0.5676 -0.3208
  340MPD2    N1 5108   2.911   4.488   9.235 -0.1782 -0.3725 -0.2807
  340MPD2    H7 5109   2.854   4.464   9.155 -2.1486  1.8249  0.4609
  341TMC3    C1 5110   3.063   4.585   9.094 -0.3280 -1.0175  0.2528
  341TMC3    C2 5111   2.969   4.634   9.001 -1.0902  0.6701 -0.0118
  341TMC3    C3 5112   3.020   4.657   8.872  0.5940 -0.0028  0.0733
  341TMC3    C4 5113   3.198   4.580   9.069 -0.4185  0.3229 -0.0099
  341TMC3    C5 5114   3.240   4.619   8.946 -0.0159  0.7605  0.0953
  341TMC3    C6 5115   3.154   4.647   8.845 -0.2518  0.5938 -0.4234
  341TMC3     C 5116   3.029   4.561   9.235  0.2133  0.1293 -0.1026
  341TMC3     O 5117   3.126   4.553   9.307 -0.0169 -0.3103 -0.0710
  341TMC3     H 5118   2.864   4.637   9.028 -0.7736  4.0687  0.8645
  341TMC3    H1 5119   3.282   4.561   9.136 -0.7461 -2.3056 -0.3697
  341TMC3    H2 5120   3.180   4.652   8.740  0.1313 -0.8087 -0.3879
  341TMC3    C7 5121   3.375   4.578   8.904  0.4294  0.2608 -0.1407
  341TMC3    C8 5122   2.925   4.717   8.772 -0.2905  0.0010 -0.7947
  341TMC3    O1 5123   3.436   4.503   8.978 -0.0597  0.5473  0.0324
  341TMC3    O2 5124   2.806   4.707   8.795 -0.6228  0.0978  0.4023
  342MPD2     C 5125   4.639   3.406  17.265  0.4714  0.0746  0.6938
  342MPD2    C1 5126   4.633   3.473  17.145 -0.1527  0.3749  0.2738
  342MPD2    C2 5127   4.611   3.612  17.156  0.1051  0.1956 -0.2177
  342MPD2    C3 5128   4.604   3.682  17.279  0.6098  0.1333  0.1516
  342MPD2    C4 5129   4.624   3.607  17.394 -0.0589 -0.3582  0.2360
  342MPD2    C5 5130   4.646   3.468  17.384  0.5247  0.1395 -0.6784
  342MPD2     H 5131   4.598   3.671  17.066 -1.4799  2.1637  1.3063
  342MPD2    H1 5132   4.635   3.659  17.488 -0.3267  0.0059  0.0633
  342MPD2    H2 5133   4.661   3.300  17.275  0.2233  0.0819  1.2773
  342MPD2    H3 5134   4.686   3.414  17.468  1.4813 -1.7964 -2.3853
  342MPD2     N 5135   4.577   3.824  17.292  0.8890 -0.6298 -0.0100
  342MPD2    H5 5136   4.566   3.869  17.382 -0.5278  0.2658 -0.6119
  342MPD2    N1 5137   4.655   3.419  17.012 -0.1019 -0.3906  0.1542
  342MPD2    H7 5138   4.640   3.486  16.938  0.5894 -0.7228 -0.2828
  343TMC3    C1 5139   0.038   3.263  16.858 -0.4938  0.3287  0.6851
  343TMC3    C2 5140   0.076   3.382  16.801  0.0456 -0.3918  0.7850
  343TMC3    C3 5141   0.096   3.375  16.665  0.6307 -0.5351  0.6273
  343TMC3    C4 5142   0.017   3.148  16.796  0.3707 -0.0535  0.5971
  343TMC3    C5 5143   0.021   3.149  16.664 -0.2895  1.1353 -0.3426
  343TMC3    C6 5144   0.058   3.265  16.599 -0.3986  0.7811 -0.3890
  343TMC3     C 5145   4.702   3.287  16.992  0.1311 -0.0088 -0.4351
  343TMC3     O 5146   4.705   3.195  17.070  0.0746  0.0648 -0.4771
  343TMC3     H 5147   0.108   3.475  16.849  1.3892 -0.9795  1.0459
  343TMC3    H1 5148   4.709   3.055  16.842  0.7918  0.6668  2.3418
  343TMC3    H2 5149   0.068   3.263  16.491 -4.9067  0.6581 -0.7690
  343TMC3    C7 5150   0.087   3.041  16.603 -0.3058  0.2220 -1.0373
  343TMC3    C8 5151   0.210   3.446  16.607 -0.3526  0.8398  0.2714
  343TMC3    O1 5152   0.197   3.063  16.552 -0.5263 -0.2133  0.3893
  343TMC3    O2 5153   0.233   3.558  16.645  0.2160  0.0134  0.0747
  344MPD2     C 5154   1.990   2.474  10.738 -0.5465 -0.2625  0.0019
  344MPD2    C1 5155   1.904   2.581  10.752  0.1880 -0.4918  0.2954
  344MPD2    C2 5156   1.942   2.701  10.699  0.0095  0.0372  0.2429
  344MPD2    C3 5157   2.064   2.722  10.639 -0.5423 -0.0206 -0.5358
  344MPD2    C4 5158   2.143   2.614  10.620 -0.1576  0.1576  1.0151
  344MPD2    C5 5159   2.104   2.490  10.670 -0.4869  0.4708  0.0271
  344MPD2     H 5160   1.871   2.781  10.717  1.9331  1.3540  2.0132
  344MPD2    H1 5161   2.247   2.615  10.589 -0.8503 -1.9430 -1.4129
  344MPD2    H2 5162   1.959   2.375  10.771 -0.3831 -0.8407 -1.5911
  344MPD2    H3 5163   2.159   2.397  10.658 -1.8687 -0.0543 -2.2444
  344MPD2     N 5164   2.103   2.848  10.585 -0.0231 -1.2880  0.3591
  344MPD2    H5 5165   2.190   2.842  10.533  0.2872  0.8285  0.6498
  344MPD2    N1 5166   1.773   2.572  10.810 -0.3760 -0.3700 -0.1886
  344MPD2    H7 5167   1.714   2.655  10.807 -0.0541 -0.1866 -1.9576
  345TMC3    C1 5168   2.126   3.085  10.580  0.7713 -0.0916  0.5800
  345TMC3    C2 5169   2.129   3.184  10.672  1.0717  0.2460 -0.4483
  345TMC3    C3 5170   2.199   3.296  10.630 -0.5253  0.0162 -0.3014
  345TMC3    C4 5171   2.178   3.087  10.452 -0.1233 -0.5073  0.2685
  345TMC3    C5 5172   2.248   3.203  10.423 -0.5996 -0.0916 -0.3819
  345TMC3    C6 5173   2.273   3.300  10.515 -0.5392 -0.5789 -0.5831
  345TMC3     C 5174   2.052   2.967  10.631 -0.0096 -0.0072  0.0832
  345TMC3     O 5175   1.957   2.992  10.707  0.0727 -0.5820 -0.2756
  345TMC3     H 5176   2.087   3.176  10.772  0.3338  2.7994 -0.5721
  345TMC3    H1 5177   2.127   3.024  10.381 -0.7349 -0.7074  0.8798
  345TMC3    H2 5178   2.307   3.398  10.482 -1.2154  0.7076  2.5720
  345TMC3    C7 5179   2.209   3.269  10.297  0.3980  0.5431  0.3610
  345TMC3    C8 5180   2.139   3.423  10.672  0.4031 -0.4453 -0.2310
  345TMC3    O1 5181   2.155   3.376  10.306  0.0947  0.1772 -0.1670
  345TMC3    O2 5182   2.027   3.417  10.725  0.1047  0.2368 -0.3051
  346MPD2     C 5183   1.102   4.628  14.098 -0.7424 -0.4464  0.7349
  346MPD2    C1 5184   1.204   4.544  14.066  0.0285 -0.1600 -0.2118
  346MPD2    C2 5185   1.309   4.523  14.149 -0.3405  0.1988  0.5493
  346MPD2    C3 5186   1.319   4.606  14.263 -0.4471 -0.2549  0.6456
  346MPD2    C4 5187   1.213   4.695  14.292 -0.0097  0.6780  0.8721
  346MPD2    C5 5188   1.099   4.691  14.221  0.2248  0.1612 -0.2673
  346MPD2     H 5189   1.389   4.453  14.129  0.0024 -0.2657  3.5945
  346MPD2    H1 5190   1.213   0.038  14.378  1.3178  2.1068 -0.2262
  346MPD2    H2 5191   1.010   4.634  14.040 -1.9624  0.0203  2.7152
  346MPD2    H3 5192   1.019   0.037  14.245  1.0312  1.8827 -2.5310
  346MPD2     N 5193   1.432   4.596  14.353  0.1054 -0.2370 -0.0832
  346MPD2    H5 5194   1.493   4.516  14.341 -0.4768 -0.8133  0.8203
  346MPD2    N1 5195   1.198   4.478  13.940  0.0306 -0.2599  0.0010
  346MPD2    H7 5196   1.278   4.416  13.931 -0.5061 -0.8549 -0.6339
  347TMC3    C1 5197   1.568   4.640  14.539  0.1441 -0.2221  0.5362
  347TMC3    C2 5198   1.653   0.017  14.570  0.2466  0.3713 -0.0911
  347TMC3    C3 5199   1.741   0.001  14.671 -0.8882 -0.0242 -0.0066
  347TMC3    C4 5200   1.571   4.520  14.609 -0.4261  0.0848  0.2934
  347TMC3    C5 5201   1.658   4.507  14.714  0.9474 -0.0896 -0.0491
  347TMC3    C6 5202   1.740   4.613  14.745  1.1687 -0.6646  0.3682
  347TMC3     C 5203   1.451   4.677  14.466 -0.0019  0.1947  0.1725
  347TMC3     O 5204   1.408   0.064  14.499 -0.2187  0.1417  0.1489
  347TMC3     H 5205   1.643   0.099  14.500 -0.5144  1.5853  1.4559
  347TMC3    H1 5206   1.493   4.446  14.601 -1.7317  1.4748  0.0093
  347TMC3    H2 5207   1.791   4.604  14.840 -1.0505 -0.4945  1.5617
  347TMC3    C7 5208   1.700   4.378  14.762 -0.2314  0.4461 -0.1517
  347TMC3    C8 5209   1.855   0.085  14.695 -0.1347 -0.0163  0.3064
  347TMC3    O1 5210   1.776   4.372  14.857  1.0282 -0.1673 -0.1675
  347TMC3    O2 5211   1.928   0.061  14.789  0.0134  0.7633 -0.0202
  348MPD2     C 5212   4.391   3.761  11.937  0.0399  0.1415  0.2305
  348MPD2    C1 5213   4.484   3.860  11.939 -0.2725  0.2577  0.3929
  348MPD2    C2 5214   4.473   3.972  11.859 -0.2728  0.4922  0.7271
  348MPD2    C3 5215   4.370   3.991  11.769 -0.3066 -0.4020 -0.5414
  348MPD2    C4 5216   4.272   3.891  11.761  0.3154 -0.0311  0.0471
  348MPD2    C5 5217   4.285   3.779  11.845  0.5386 -0.4122  0.6803
  348MPD2     H 5218   4.547   4.050  11.876  0.1173  0.2622  0.0745
  348MPD2    H1 5219   4.183   3.887  11.698 -0.0111 -2.9578  0.6628
  348MPD2    H2 5220   4.401   3.674  12.002 -0.5330  0.4012  0.6688
  348MPD2    H3 5221   4.209   3.704  11.825  0.6421 -0.2655 -0.2299
  348MPD2     N 5222   4.363   4.113  11.698 -0.5029  0.2696 -0.0905
  348MPD2    H5 5223   4.421   4.193  11.722  1.2221 -1.8255  2.6975
  348MPD2    N1 5224   4.591   3.864  12.036 -0.2899 -0.3785  0.8028
  348MPD2    H7 5225   4.617   3.958  12.064  0.9867 -0.3826 -0.3472
  349TMC3    C1 5226   0.041   3.788  12.166 -0.0097 -0.0577 -0.1430
  349TMC3    C2 5227   0.111   3.679  12.215 -0.0892 -0.0554  0.4067
  349TMC3    C3 5228   0.245   3.674  12.210 -0.5637  0.4862 -0.8197
  349TMC3    C4 5229   0.111   3.894  12.122 -0.7752 -0.2322 -0.1425
  349TMC3    C5 5230   0.248   3.892  12.130  0.5935 -0.6076  0.2748
  349TMC3    C6 5231   0.320   3.785  12.175  0.3369  0.4587 -1.2508
  349TMC3     C 5232   4.640   3.752  12.102  0.0807 -0.7137 -0.2763
  349TMC3     O 5233   4.634   3.636  12.064  0.1452 -0.2995  0.9496
  349TMC3     H 5234   0.055   3.594  12.254 -0.0261 -0.0926  0.4152
  349TMC3    H1 5235   0.066   3.982  12.078  0.2227  0.2890 -0.1004
  349TMC3    H2 5236   0.428   3.775  12.171  0.3713 -0.1604  1.2680
  349TMC3    C7 5237   0.312   4.019  12.093 -0.5001 -0.1976  0.3134
  349TMC3    C8 5238   0.316   3.546  12.242 -0.0912 -0.3126  0.3089
  349TMC3    O1 5239   0.238   4.117  12.085 -0.1868  0.1311 -0.5801
  349TMC3    O2 5240   0.280   3.486  12.340  0.0671  0.2883 -0.5889
  350MPD2     C 5241   4.700   1.725   9.897 -0.4448  0.8573  0.2357
  350MPD2    C1 5242   4.613   1.708   9.997  0.3184 -0.0361 -0.0232
  350MPD2    C2 5243   4.559   1.813  10.063  0.0830 -0.8050 -0.2754
  350MPD2    C3 5244   4.601   1.939  10.018 -0.2955 -0.4484 -0.5240
  350MPD2    C4 5245   4.699   1.957   9.924  0.5675  0.5284 -0.3170
  350MPD2    C5 5246   0.022   1.848   9.863 -0.0834  0.3369  0.6269
  350MPD2     H 5247   4.494   1.804  10.150  0.0338 -2.0987 -0.4463
  350MPD2    H1 5248   4.720   2.055   9.882 -0.4032  0.4920 -0.9095
  350MPD2    H2 5249   0.023   1.642   9.845 -1.8982 -0.3479  0.8973
  350MPD2    H3 5250   0.108   1.857   9.796 -0.3394 -0.5201  0.1931
  350MPD2     N 5251   4.536   2.049  10.078 -0.2345 -0.3445  0.9831
  350MPD2    H5 5252   4.467   2.030  10.151  0.8519 -0.6280  1.9425
  350MPD2    N1 5253   4.572   1.578  10.032  0.1150  0.0310  0.0952
  350MPD2    H7 5254   4.509   1.571  10.112  0.3878  0.7202  0.3646
  351TMC3    C1 5255   4.529   1.349  10.021  0.8493  0.3294  0.7346
  351TMC3    C2 5256   4.520   1.233   9.952 -0.2998 -0.2951  0.2546
  351TMC3    C3 5257   4.500   1.113  10.015  0.1283 -0.0013  0.7987
  351TMC3    C4 5258   4.515   1.347  10.159  0.2461  0.8081  1.0684
  351TMC3    C5 5259   4.487   1.226  10.222  0.2935  0.6073 -0.1792
  351TMC3    C6 5260   4.478   1.102  10.150  0.0652  0.0023 -0.0256
  351TMC3     C 5261   4.586   1.462   9.959 -0.1731  0.4605  0.1138
  351TMC3     O 5262   4.632   1.445   9.847  0.1248  0.1977 -0.1236
  351TMC3     H 5263   4.546   1.228   9.847 -1.7210  0.6384 -0.1290
  351TMC3    H1 5264   4.522   1.436  10.220  4.0889 -0.1882  2.0888
  351TMC3    H2 5265   4.485   1.008  10.203 -2.0237  0.7535  1.5779
  351TMC3    C7 5266   4.434   1.233  10.355 -0.5203  0.5873 -0.3012
  351TMC3    C8 5267   4.535   1.004   9.933 -0.3026  0.2073 -0.1497
  351TMC3    O1 5268   4.466   1.329  10.426  0.0280 -0.3170 -0.2887
  351TMC3    O2 5269   4.598   1.018   9.831 -0.6272 -1.1020 -0.9098
  352MPD2     C 5270   2.820   3.861   0.682  0.4379  0.2480  0.5960
  352MPD2    C1 5271   2.726   3.866   0.780 -0.2525  0.1209  0.4758
  352MPD2    C2 5272   2.640   3.760   0.801  0.4076  0.3343  0.3635
  352MPD2    C3 5273   2.647   3.655   0.712  0.7887 -0.2625  0.3746
  352MPD2    C4 5274   2.756   3.646   0.627 -0.1442  0.1478  0.0259
  352MPD2    C5 5275   2.847   3.744   0.621 -0.3661 -0.4324 -0.2185
  352MPD2     H 5276   2.568   3.753   0.882 -1.7706  0.8891 -1.5144
  352MPD2    H1 5277   2.770   3.553   0.574  0.5073  0.6832 -0.7273
  352MPD2    H2 5278   2.883   3.947   0.662 -0.7637  0.7811 -0.8964
  352MPD2    H3 5279   2.926   3.742   0.546  0.4819  0.8982  0.6387
  352MPD2     N 5280   2.547   3.555   0.701 -0.5967 -0.2700  0.3759
  352MPD2    H5 5281   2.570   3.468   0.653 -0.7393 -0.6997  1.0884
  352MPD2    N1 5282   2.729   3.982   0.858 -0.8226  0.6586  0.1549
  352MPD2    H7 5283   2.781   4.059   0.817 -0.9069  1.3469  1.3444
  353TMC3    C1 5284   2.323   3.473   0.761  0.2528 -0.2408 -0.8112
  353TMC3    C2 5285   2.343   3.357   0.692  0.5127  0.3865 -0.5387
  353TMC3    C3 5286   2.229   3.272   0.691 -0.5823 -0.5673  0.1706
  353TMC3    C4 5287   2.216   3.499   0.838  0.4027  0.9840  0.3030
  353TMC3    C5 5288   2.106   3.412   0.839 -0.1625  0.2519 -0.3350
  353TMC3    C6 5289   2.109   3.306   0.755 -0.5583  0.0600 -0.2194
  353TMC3     C 5290   2.417   3.582   0.756 -0.4114  0.0141  1.1851
  353TMC3     O 5291   2.375   3.694   0.780  0.1689  0.1797 -0.3944
  353TMC3     H 5292   2.430   3.347   0.629  0.3538  0.7241 -0.8054
  353TMC3    H1 5293   2.207   3.598   0.883 -0.0857  0.0622  2.2390
  353TMC3    H2 5294   2.024   3.238   0.758 -0.3739 -0.0844  1.5241
  353TMC3    C7 5295   1.973   3.459   0.875 -0.2758  0.4229  0.0638
  353TMC3    C8 5296   2.244   3.147   0.629  0.2334  0.3785  0.3363
  353TMC3    O1 5297   1.877   3.391   0.852 -0.5970  0.1922  0.0736
  353TMC3    O2 5298   2.353   3.130   0.574  0.1100 -0.4022  0.1517
  354TMC3    C1 5299   3.501   0.589  12.963 -0.3483 -0.0303 -0.0468
  354TMC3    C2 5300   3.467   0.679  12.866 -0.3891 -0.0650 -0.0987
  354TMC3    C3 5301   3.523   0.661  12.741 -0.7833  0.0237  0.2737
  354TMC3    C4 5302   3.581   0.481  12.933 -0.5180  0.0137 -0.2408
  354TMC3    C5 5303   3.641   0.475  12.805  0.1486  0.0160 -1.5155
  354TMC3    C6 5304   3.605   0.559  12.707  1.1040  0.4165  0.1301
  354TMC3     C 5305   3.463   0.592  13.104 -0.5008 -0.2936  0.1748
  354TMC3     O 5306   3.490   0.490  13.168  0.4141  0.7079  0.8191
  354TMC3     H 5307   3.414   0.771  12.890  0.4802  0.5767 -0.6215
  354TMC3    H1 5308   3.651   0.453  13.011 -1.2689 -0.1979  0.3635
  354TMC3    H2 5309   3.636   0.545  12.604  2.7567  0.1668  0.6635
  354TMC3    C7 5310   3.779   0.424  12.807  0.9779 -1.0358  0.2745
  354TMC3    C8 5311   3.497   0.755  12.633 -0.1278  0.6224 -0.2294
  354TMC3    O1 5312   3.799   0.319  12.869 -0.2178  0.7055  0.1841
  354TMC3    O2 5313   3.579   0.758  12.544  0.3484  0.4779 -0.1435
  355MPD2     C 5314   4.040   1.611  11.426 -0.6891 -0.1060  0.1717
  355MPD2    C1 5315   4.172   1.637  11.464  0.4816 -0.4074 -0.5904
  355MPD2    C2 5316   4.231   1.550  11.550  0.1789  0.6986 -0.4785
  355MPD2    C3 5317   4.170   1.439  11.608 -0.0363 -0.0238 -0.3528
  355MPD2    C4 5318   4.035   1.415  11.572  0.8713  0.2822 -0.5278
  355MPD2    C5 5319   3.977   1.508  11.481 -0.4587 -0.2654  0.0269
  355MPD2     H 5320   4.332   1.565  11.586 -0.0679 -1.7455  1.2491
  355MPD2    H1 5321   3.976   1.332  11.609  4.3322 -1.6886  0.6300
  355MPD2    H2 5322   3.991   1.667  11.348  0.0150  1.9348  1.2176
  355MPD2    H3 5323   3.877   1.495  11.439  0.1512  0.8083 -1.7322
  355MPD2     N 5324   4.230   1.332  11.677 -0.4196  0.3789  0.0273
  355MPD2    H5 5325   4.175   1.248  11.691  0.8761 -0.5795 -0.5940
  355MPD2    N1 5326   4.239   1.752  11.407  0.4470  0.1315 -0.2499
  355MPD2    H7 5327   4.184   1.817  11.352 -0.8013 -1.5526 -0.9836
  356TMC3    C1 5328   4.456   1.417  11.714  0.7599  0.0664  0.2943
  356TMC3    C2 5329   4.537   1.427  11.606 -0.1293 -0.6575  0.2921
  356TMC3    C3 5330   4.645   1.512  11.606 -0.2960 -0.6152 -0.4710
  356TMC3    C4 5331   4.481   1.497  11.819 -0.3099 -0.4487 -0.4717
  356TMC3    C5 5332   4.583   1.586  11.811 -0.7310  0.1078  0.5303
  356TMC3    C6 5333   4.668   1.596  11.710 -0.4249 -0.1957  0.4650
  356TMC3     C 5334   4.361   1.311  11.717  0.3655  0.0743  0.1243
  356TMC3     O 5335   4.407   1.203  11.744 -0.1556  0.2710 -0.5561
  356TMC3     H 5336   4.536   1.344  11.536 -1.8600  0.2359 -0.7468
  356TMC3    H1 5337   4.427   1.478  11.911 -1.9493 -1.6111 -1.6625
  356TMC3    H2 5338   0.042   1.642  11.724  0.9649 -2.7252 -1.0246
  356TMC3    C7 5339   4.623   1.657  11.930  0.6510 -0.5783  0.4539
  356TMC3    C8 5340   4.717   1.539  11.482  0.4504  0.3790  0.6236
  356TMC3    O1 5341   4.585   1.615  12.038 -0.5933  0.2218  0.1438
  356TMC3    O2 5342   0.016   1.437  11.413 -0.0652 -0.4656 -0.4656
  357MPD2     C 5343   3.373   1.949   1.449 -0.2101  0.3703  0.4445
  357MPD2    C1 5344   3.407   1.969   1.321  0.3221 -0.1174 -0.1450
  357MPD2    C2 5345   3.313   2.023   1.233  0.1989  0.4949  0.6086
  357MPD2    C3 5346   3.173   2.024   1.267 -0.3371  0.8086  0.6128
  357MPD2    C4 5347   3.140   1.989   1.390 -0.2824 -0.0064  0.5104
  357MPD2    C5 5348   3.242   1.949   1.477 -0.7022 -0.2991 -0.5869
  357MPD2     H 5349   3.350   2.071   1.143 -0.0431  0.5889  0.5572
  357MPD2    H1 5350   3.037   1.981   1.423 -0.5441  2.7752  0.3547
  357MPD2    H2 5351   3.450   1.915   1.517 -0.3150 -0.5314  0.1165
  357MPD2    H3 5352   3.219   1.908   1.575 -0.3506 -0.0701 -0.4074
  357MPD2     N 5353   3.070   2.057   1.175  0.0172  0.0716  0.9565
  357MPD2    H5 5354   2.975   2.040   1.207  0.1318  0.2419  1.3783
  357MPD2    N1 5355   3.539   1.950   1.281  0.2605  0.1317 -0.2924
  357MPD2    H7 5356   3.600   1.899   1.344  0.7963  1.2065  0.0635
  358TMC3    C1 5357   3.717   1.919   1.129  0.6625 -0.3270 -0.2099
  358TMC3    C2 5358   3.720   1.841   1.014 -0.3091 -0.3341  0.0538
  358TMC3    C3 5359   3.807   1.735   1.017 -0.2928 -0.3305 -0.7009
  358TMC3    C4 5360   3.782   1.892   1.251  0.1792  0.4558 -0.0005
  358TMC3    C5 5361   3.872   1.795   1.235 -0.2441 -0.1633  0.1765
  358TMC3    C6 5362   3.887   1.710   1.124 -0.2000  0.6386 -0.5748
  358TMC3     C 5363   3.589   1.974   1.149 -0.3773  0.4898  0.7956
  358TMC3     O 5364   3.533   2.006   1.045  0.2956  0.4436  0.0020
  358TMC3     H 5365   3.659   1.863   0.927  0.6015 -0.2669 -0.5671
  358TMC3    H1 5366   3.787   1.975   1.319 -0.5685  0.2183  0.3438
  358TMC3    H2 5367   3.952   1.624   1.133  1.3094  2.1297  2.6574
  358TMC3    C7 5368   3.996   1.803   1.308 -0.1058  0.1454  0.2811
  358TMC3    C8 5369   3.822   1.663   0.894 -0.2589  1.0225  1.3085
  358TMC3    O1 5370   4.098   1.779   1.243  0.0391 -0.5009  0.1835
  358TMC3    O2 5371   3.742   1.703   0.808 -0.0866  0.3089 -0.3210
  359MPD2     C 5372   4.377   0.236  12.103  0.9187 -0.3405  0.2749
  359MPD2    C1 5373   4.488   0.165  12.133 -0.5260 -0.0465 -0.1158
  359MPD2    C2 5374   4.492   0.076  12.239 -0.1515  0.0575 -0.4928
  359MPD2    C3 5375   4.389   0.075  12.329 -0.5482  0.3621  0.3992
  359MPD2    C4 5376   4.288   0.163  12.302 -0.3386  0.3444  0.7039
  359MPD2    C5 5377   4.277   0.245  12.196  0.7669  0.1515  0.4471
  359MPD2     H 5378   4.574   0.004  12.241  1.3361  1.7302 -1.3589
  359MPD2    H1 5379   4.209   0.168  12.376 -1.1932 -0.4025 -0.1509
  359MPD2    H2 5380   4.369   0.300  12.016  0.0825 -1.2990 -0.3567
  359MPD2    H3 5381   4.192   0.311  12.187 -1.2606 -2.1496  2.7607
  359MPD2     N 5382   4.376   4.711  12.441 -0.8884 -0.0049  0.1201
  359MPD2    H5 5383   4.297   4.721  12.505 -1.5911 -0.9338 -0.6043
  359MPD2    N1 5384   4.589   0.164  12.038 -0.0666  0.7832 -0.8109
  359MPD2    H7 5385   4.671   0.110  12.063 -0.8866 -1.0171 -2.0019
  360TMC3    C1 5386   0.002   0.240  11.865 -0.1394 -0.5047  0.1237
  360TMC3    C2 5387   0.112   0.216  11.945 -0.3997 -0.0625 -0.0186
  360TMC3    C3 5388   0.235   0.254  11.890 -0.5400  0.1089 -0.4838
  360TMC3    C4 5389   0.010   0.316  11.752 -0.8879 -0.1960 -0.1048
  360TMC3    C5 5390   0.127   0.375  11.712  0.1103  0.8293 -0.4299
  360TMC3    C6 5391   0.240   0.350  11.787  0.1087  0.4470  0.5281
  360TMC3     C 5392   4.595   0.236  11.921 -0.0676  0.1197 -0.1082
  360TMC3     O 5393   4.505   0.292  11.856 -0.1997  0.3650 -0.2646
  360TMC3     H 5394   0.112   0.135  12.017 -1.1158  1.7647  2.0715
  360TMC3    H1 5395   4.652   0.332  11.682 -1.2664  0.1436  0.4186
  360TMC3    H2 5396   0.337   0.364  11.741 -0.9079  2.1984 -1.0708
  360TMC3    C7 5397   0.149   0.440  11.588 -0.2737  0.0273 -0.7086
  360TMC3    C8 5398   0.353   0.207  11.962 -0.1980  1.2500  0.3367
  360TMC3    O1 5399   0.076   0.409  11.495  0.0843 -0.1365  0.1410
  360TMC3    O2 5400   0.329   0.171  12.076  0.5162  0.5146  0.2543
  361MPD2     C 5401   1.038   4.302  16.901  0.4724  0.0603 -0.3709
  361MPD2    C1 5402   1.068   4.265  16.771  0.4822 -0.7926  0.0822
  361MPD2    C2 5403   1.188   4.207  16.744  0.6562 -0.0123  0.7465
  361MPD2    C3 5404   1.268   4.171  16.848 -0.7659 -0.1325  0.0645
  361MPD2    C4 5405   1.237   4.209  16.977 -0.0262  0.0336 -0.0529
  361MPD2    C5 5406   1.122   4.273  17.007 -0.0327  0.1475  0.2961
  361MPD2     H 5407   1.223   4.168  16.649 -0.8843 -0.7920  0.5022
  361MPD2    H1 5408   1.311   4.185  17.053 -1.4644 -1.1099  0.9800
  361MPD2    H2 5409   0.942   4.342  16.932 -0.1406 -2.2873  0.7786
  361MPD2    H3 5410   1.110   4.305  17.110  0.8245  0.3082  0.3462
  361MPD2     N 5411   1.389   4.092  16.839  0.0129  0.3246  0.1267
  361MPD2    H5 5412   1.434   4.068  16.927  0.6762 -2.2984 -0.9135
  361MPD2    N1 5413   0.981   4.277  16.660 -0.3619 -0.4640  0.3761
  361MPD2    H7 5414   1.012   4.229  16.576  0.2141 -2.2491  1.6052
  362TMC3    C1 5415   0.767   4.307  16.547 -0.8742 -0.4565  0.4766
  362TMC3    C2 5416   0.630   4.326  16.563  0.3439  0.1377 -0.6815
  362TMC3    C3 5417   0.538   4.290  16.469 -0.1021 -0.1647 -0.5993
  362TMC3    C4 5418   0.815   4.273  16.429  0.0264  0.7769 -1.0026
  362TMC3    C5 5419   0.727   4.228  16.336 -0.7240 -0.2288  0.2920
  362TMC3    C6 5420   0.589   4.227  16.359 -0.2232 -0.0850  0.0220
  362TMC3     C 5421   0.851   4.331  16.667 -0.4943 -0.4327  0.0261
  362TMC3     O 5422   0.787   4.377  16.763 -0.2213 -0.1015 -0.5393
  362TMC3     H 5423   0.592   4.358  16.659 -1.8404  0.3597 -1.6146
  362TMC3    H1 5424   0.922   4.261  16.419  0.2626  0.7032  1.5687
  362TMC3    H2 5425   0.516   4.191  16.288 -0.4759 -0.8819  0.6881
  362TMC3    C7 5426   0.765   4.230  16.197 -0.0058  0.0301  0.1694
  362TMC3    C8 5427   0.421   4.225  16.524 -0.7585 -0.8948  0.0776
  362TMC3    O1 5428   0.875   4.270  16.165  0.2027  0.5428 -0.4643
  362TMC3    O2 5429   0.405   4.105  16.505 -0.0904 -1.0631 -0.5032
  363TMC3    C1 5430   0.575   1.306   9.576 -0.0416  0.5125 -0.8420
  363TMC3    C2 5431   0.531   1.183   9.614  0.1283  0.6055  0.5593
  363TMC3    C3 5432   0.398   1.153   9.587  0.7189 -0.1211  0.4118
  363TMC3    C4 5433   0.496   1.408   9.522  0.5568 -0.2053  0.4550
  363TMC3    C5 5434   0.362   1.371   9.500 -0.5728 -0.5173 -0.0110
  363TMC3    C6 5435   0.317   1.245   9.536  0.3363 -0.1018 -0.5039
  363TMC3     C 5436   0.721   1.333   9.601  0.3431 -0.3283 -1.0382
  363TMC3     O 5437   0.776   1.240   9.661  0.5638  0.4518  0.1054
  363TMC3     H 5438   0.599   1.110   9.655  0.7441  0.2562 -1.1193
  363TMC3    H1 5439   0.532   1.509   9.538 -1.0108  0.9011 -3.1050
  363TMC3    H2 5440   0.211   1.224   9.527  0.2771  0.2009 -0.4839
  363TMC3    C7 5441   0.266   1.479   9.520 -0.2854 -0.1438  0.1178
  363TMC3    C8 5442   0.341   1.042   9.651  0.1830  0.9504  0.3888
  363TMC3    O1 5443   0.173   1.465   9.599 -0.1505 -0.0999 -0.2462
  363TMC3    O2 5444   0.222   1.047   9.685  0.5591  0.5413  0.1070
  364MPD2     C 5445   3.379   0.727  10.470  0.3004  0.1125  0.0824
  364MPD2    C1 5446   3.476   0.667  10.395 -0.5045  0.3896  0.0189
  364MPD2    C2 5447   3.557   0.572  10.457  0.1494  0.8929 -0.3001
  364MPD2    C3 5448   3.549   0.544  10.596  0.1839  0.6441 -0.1924
  364MPD2    C4 5449   3.447   0.606  10.663  0.4531 -0.3668  0.2088
  364MPD2    C5 5450   3.360   0.695  10.605 -0.1509  0.2279 -0.3805
  364MPD2     H 5451   3.639   0.531  10.398 -0.1508 -1.8796  1.2045
  364MPD2    H1 5452   3.424   0.595  10.768 -2.8024  4.3868 -0.0084
  364MPD2    H2 5453   3.315   0.806  10.432 -0.8358 -2.4402 -3.3714
  364MPD2    H3 5454   3.283   0.747  10.661 -2.3238 -1.1603 -2.0612
  364MPD2     N 5455   3.631   0.451  10.663 -0.0909  0.2719 -0.0059
  364MPD2    H5 5456   3.619   0.443  10.763  1.2932  3.0491  0.4079
  364MPD2    N1 5457   3.511   0.724  10.266  0.3937 -0.0464  1.1952
  364MPD2    H7 5458   3.469   0.817  10.262  1.4488  0.3704 -0.2564
  365TMC3    C1 5459   3.621   0.770  10.061  0.0682 -0.3101  0.3150
  365TMC3    C2 5460   3.626   0.720   9.928  0.0068  0.2829  0.1736
  365TMC3    C3 5461   3.589   0.810   9.834  0.1915 -0.2173  0.1692
  365TMC3    C4 5462   3.611   0.906  10.092 -0.3028  0.2440  0.0982
  365TMC3    C5 5463   3.578   0.993   9.988  0.0740 -0.0230  0.3643
  365TMC3    C6 5464   3.554   0.943   9.861  0.6599  0.8842 -0.5857
  365TMC3     C 5465   3.591   0.673  10.165  0.0146 -0.0844  0.0582
  365TMC3     O 5466   3.609   0.550  10.156 -0.0043 -0.2981  0.1759
  365TMC3     H 5467   3.631   0.613   9.910 -2.6431  0.1716  0.0975
  365TMC3    H1 5468   3.650   0.940  10.187  1.8353 -0.1076 -0.6557
  365TMC3    H2 5469   3.539   1.017   9.783  0.6557  0.1302 -1.3037
  365TMC3    C7 5470   3.619   1.133   9.998  0.6515  0.3830  0.1877
  365TMC3    C8 5471   3.637   0.785   9.698 -0.2474  0.1468 -0.1759
  365TMC3    O1 5472   3.662   1.187   9.897  0.2295  0.3631 -0.2693
  365TMC3    O2 5473   3.567   0.828   9.610  0.2094 -0.1913 -0.2035
  366MPD2     C 5474   1.126   2.195  15.193 -0.7194 -0.3856  0.0412
  366MPD2    C1 5475   1.237   2.268  15.138 -0.0628 -0.1718  0.0738
  366MPD2    C2 5476   1.341   2.193  15.082  0.3985 -0.7044  0.1887
  366MPD2    C3 5477   1.320   2.059  15.064  0.2745 -0.3419  0.1592
  366MPD2    C4 5478   1.208   1.992  15.099  0.3857  0.9065  0.4027
  366MPD2    C5 5479   1.116   2.057  15.180 -0.7732 -0.5541  0.0529
  366MPD2     H 5480   1.436   2.234  15.049  0.1970 -1.3420 -1.1724
  366MPD2    H1 5481   1.194   1.885  15.088  1.5953  0.9261 -1.4016
  366MPD2    H2 5482   1.049   2.250  15.245  0.0985  0.9847 -0.1964
  366MPD2    H3 5483   1.025   2.007  15.210 -0.0385 -2.5639 -1.0633
  366MPD2     N 5484   1.429   1.998  14.989 -0.9948 -0.7915 -0.3193
  366MPD2    H5 5485   1.518   2.047  14.981 -0.9134 -1.1127 -1.3197
  366MPD2    N1 5486   1.228   2.409  15.157 -0.2250  0.3717 -0.0004
  366MPD2    H7 5487   1.132   2.423  15.188 -0.8086 -1.1009 -1.1276
  367TMC3    C1 5488   1.297   2.636  15.140  0.2563 -0.3439 -0.0636
  367TMC3    C2 5489   1.396   2.719  15.175 -0.3703  0.4306  0.1115
  367TMC3    C3 5490   1.394   2.853  15.138 -0.5144 -0.6663  0.2148
  367TMC3    C4 5491   1.184   2.682  15.079 -0.3094  0.4543  0.1994
  367TMC3    C5 5492   1.181   2.818  15.059 -0.5511  0.3848 -0.1686
  367TMC3    C6 5493   1.283   2.903  15.079  0.0564 -0.5825  0.1861
  367TMC3     C 5494   1.332   2.495  15.131  0.0487  1.1127 -0.2549
  367TMC3     O 5495   1.448   2.457  15.120 -0.2507 -0.4644 -0.1464
  367TMC3     H 5496   1.481   2.692  15.237  0.0748  0.3123 -0.5534
  367TMC3    H1 5497   1.096   2.624  15.053 -1.5245  1.2811  2.4690
  367TMC3    H2 5498   1.265   3.010  15.086  1.2420 -0.3561 -0.1143
  367TMC3    C7 5499   1.096   2.859  14.946  0.3253  0.6651 -0.6839
  367TMC3    C8 5500   1.488   2.936  15.218 -0.3118 -0.1733  0.0194
  367TMC3    O1 5501   1.082   2.979  14.935  0.1863  1.1350  0.8338
  367TMC3    O2 5502   1.491   2.915  15.339  0.3723  0.4187 -0.1046
  368MPD2     C 5503   3.231   3.780  13.436 -0.0558 -0.6873 -0.0313
  368MPD2    C1 5504   3.257   3.890  13.363 -0.3756 -0.3168 -0.4378
  368MPD2    C2 5505   3.383   3.948  13.355  0.5282  0.4209  0.3387
  368MPD2    C3 5506   3.490   3.888  13.426  0.4285 -0.1268  0.1848
  368MPD2    C4 5507   3.467   3.769  13.494 -0.3847 -0.6529  0.7928
  368MPD2    C5 5508   3.343   3.714  13.497 -0.0860  0.4440  0.2692
  368MPD2     H 5509   3.397   4.034  13.290 -0.5302 -0.9001 -1.6457
  368MPD2    H1 5510   3.548   3.718  13.544 -0.4338  0.1152  1.6441
  368MPD2    H2 5511   3.137   3.730  13.454 -0.2956 -0.1482  0.1999
  368MPD2    H3 5512   3.322   3.619  13.546 -0.4207  0.0553 -0.6246
  368MPD2     N 5513   3.616   3.952  13.428  0.1887  0.7904 -0.5066
  368MPD2    H5 5514   3.688   3.897  13.474 -0.6494  0.6648  0.6792
  368MPD2    N1 5515   3.149   3.948  13.301 -0.1746 -0.1584  0.3734
  368MPD2    H7 5516   3.065   3.891  13.297  0.2189 -0.6786 -0.4221
  369TMC3    C1 5517   3.011   4.106  13.187 -0.2232  0.8401  0.3179
  369TMC3    C2 5518   3.015   4.200  13.085  1.0928 -0.8245 -0.0042
  369TMC3    C3 5519   2.893   4.250  13.037  0.0576  0.5289 -0.4601
  369TMC3    C4 5520   2.897   4.055  13.235  0.0751  0.7398  0.7286
  369TMC3    C5 5521   2.778   4.120  13.202 -0.0966 -0.9208  1.0730
  369TMC3    C6 5522   2.770   4.207  13.087 -0.2326 -0.0482 -0.5488
  369TMC3     C 5523   3.146   4.071  13.235  0.2993 -0.4541 -0.1547
  369TMC3     O 5524   3.230   4.163  13.227  0.3268 -0.1324 -0.0829
  369TMC3     H 5525   3.106   4.241  13.044 -0.1782  0.3887 -1.6085
  369TMC3    H1 5526   2.889   3.986  13.318  1.5267 -0.1918  0.0766
  369TMC3    H2 5527   2.675   4.246  13.054 -1.1727 -0.4277  1.7252
  369TMC3    C7 5528   2.655   4.101  13.281  0.1493  0.0495 -0.3017
  369TMC3    C8 5529   2.893   4.354  12.930  0.6619 -0.5920  0.9648
  369TMC3    O1 5530   2.663   4.017  13.369  0.0320 -0.1560  0.2994
  369TMC3    O2 5531   2.789   4.376  12.871 -0.0819  0.0088  0.3147
  370TMC3    C1 5532   2.466   0.273  16.094 -0.3213 -0.1469  0.0974
  370TMC3    C2 5533   2.416   0.197  16.194 -0.6659 -0.4919 -0.1571
  370TMC3    C3 5534   2.380   0.068  16.167  0.7337 -0.5388 -0.2372
  370TMC3    C4 5535   2.486   0.222  15.970 -0.7497  0.1096 -0.1164
  370TMC3    C5 5536   2.443   0.092  15.942  0.2856  0.2769  0.4657
  370TMC3    C6 5537   2.404   0.009  16.045 -0.2886 -0.7706 -0.2899
  370TMC3     C 5538   2.562   0.368  16.140  0.2170  0.0768  0.1752
  370TMC3     O 5539   2.610   0.330  16.244 -0.1957 -0.1814  0.3499
  370TMC3     H 5540   2.403   0.249  16.289  1.0251  0.7292 -0.5897
  370TMC3    H1 5541   2.541   0.277  15.895 -1.2842 -1.5442 -1.7241
  370TMC3    H2 5542   2.358   4.640  16.011  1.0096 -0.7483 -2.1551
  370TMC3    C7 5543   2.466   0.045  15.806 -0.7256 -0.6034 -0.4725
  370TMC3    C8 5544   2.313   4.707  16.276 -0.2050 -0.1046 -0.0634
  370TMC3    O1 5545   2.478   0.124  15.715  0.5372  0.5890 -0.0113
  370TMC3    O2 5546   2.265   4.601  16.241  0.3096  0.0301  0.0625
  371TMC3    C1 5547   3.434   2.799  15.474 -0.6036  0.9781 -0.4325
  371TMC3    C2 5548   3.313   2.848  15.508 -0.3370  0.0746  0.5725
  371TMC3    C3 5549   3.289   2.980  15.474  0.1108 -0.7926 -0.4126
  371TMC3    C4 5550   3.520   2.863  15.385 -0.1760  0.1147 -0.2419
  371TMC3    C5 5551   3.487   2.992  15.349 -0.2737  1.0138  0.4185
  371TMC3    C6 5552   3.385   3.062  15.408 -0.6754  0.3594  0.3272
  371TMC3     C 5553   3.469   2.657  15.496 -0.2247  0.5398 -0.6868
  371TMC3     O 5554   3.540   2.607  15.409 -0.2748  0.0760 -0.0026
  371TMC3     H 5555   3.232   2.782  15.537 -2.0904  1.4171 -1.2285
  371TMC3    H1 5556   3.605   2.809  15.347 -0.6464  0.4443 -1.7690
  371TMC3    H2 5557   3.367   3.162  15.371  1.7803 -0.2499 -2.5453
  371TMC3    C7 5558   3.586   3.069  15.280 -0.0016 -0.1257 -0.2122
  371TMC3    C8 5559   3.154   3.025  15.499  0.0974 -0.2279 -0.4160
  371TMC3    O1 5560   3.594   3.186  15.314  0.5384 -0.7915 -1.3262
  371TMC3    O2 5561   3.067   2.948  15.540  0.2995  0.4542 -0.5687
  372MPD2     C 5562   2.923   4.469  13.510 -0.3050 -0.4450  0.0104
  372MPD2    C1 5563   3.030   4.391  13.561 -0.1178 -0.0366 -0.5440
  372MPD2    C2 5564   3.000   4.263  13.607 -0.3455  0.2409  0.4504
  372MPD2    C3 5565   2.874   4.215  13.606 -0.2151  0.2230  0.0445
  372MPD2    C4 5566   2.769   4.303  13.564  1.0674 -0.0715  0.3078
  372MPD2    C5 5567   2.794   4.429  13.520 -0.5371 -1.5146 -0.5201
  372MPD2     H 5568   3.074   4.189  13.636  0.8151  1.0498 -0.4381
  372MPD2    H1 5569   2.665   4.272  13.562  1.2065 -0.2998 -2.9076
  372MPD2    H2 5570   2.945   4.569  13.476  1.2682 -0.2307  1.6858
  372MPD2    H3 5571   2.710   4.491  13.493 -0.1850 -2.2185 -3.2414
  372MPD2     N 5572   2.848   4.092  13.658  0.0234 -0.4218 -0.6744
  372MPD2    H5 5573   2.926   4.042  13.700 -1.6314 -0.3539  2.4811
  372MPD2    N1 5574   3.167   4.430  13.579  0.1388 -0.0718  0.0473
  372MPD2    H7 5575   3.231   4.371  13.632  0.7432  0.0378 -0.5615
  373TMC3    C1 5576   2.744   3.909  13.755 -0.0460  0.4253 -0.0731
  373TMC3    C2 5577   2.737   3.894  13.891 -0.2249 -0.4604  0.5559
  373TMC3    C3 5578   2.749   3.767  13.938 -0.3575  0.1633 -0.5719
  373TMC3    C4 5579   2.761   3.807  13.659 -0.1579  0.2762 -0.0122
  373TMC3    C5 5580   2.778   3.685  13.717 -0.1598  0.2941 -0.1813
  373TMC3    C6 5581   2.767   3.663  13.852 -0.2522 -0.0870 -0.3152
  373TMC3     C 5582   2.723   4.043  13.698  0.0878 -0.5475 -0.1475
  373TMC3     O 5583   2.611   4.086  13.726 -0.4357 -0.6686 -0.3466
  373TMC3     H 5584   2.724   3.980  13.955  0.8136 -0.2297  0.4537
  373TMC3    H1 5585   2.767   3.823  13.552  1.6951 -0.9664 -0.0953
  373TMC3    H2 5586   2.761   3.564  13.894  0.6769 -0.1703 -0.3818
  373TMC3    C7 5587   2.858   3.592  13.635  0.3240  0.6301  0.1361
  373TMC3    C8 5588   2.683   3.753  14.065  0.5843  0.4532  0.6695
  373TMC3    O1 5589   2.850   3.604  13.509 -0.4461  0.3737  0.5107
  373TMC3    O2 5590   2.589   3.831  14.081 -0.8322 -0.3037  0.7639
  374TMC3    C1 5591   4.413   3.959   9.482  0.6797 -0.6865 -0.0934
  374TMC3    C2 5592   4.528   4.020   9.538  0.9942 -0.0140  0.1318
  374TMC3    C3 5593   4.511   4.145   9.597  0.2438  0.4816 -0.4866
  374TMC3    C4 5594   4.288   4.020   9.499  0.8349  0.1783 -0.6894
  374TMC3    C5 5595   4.286   4.143   9.565 -0.2100 -0.4205 -0.2513
  374TMC3    C6 5596   4.392   4.209   9.609  0.1600  0.6614  0.3977
  374TMC3     C 5597   4.429   3.876   9.366 -0.2594 -0.2918 -0.9471
  374TMC3     O 5598   4.339   3.885   9.284 -0.3290 -0.5507 -0.1337
  374TMC3     H 5599   4.632   3.990   9.536  0.7900 -0.4313 -3.4910
  374TMC3    H1 5600   4.201   3.976   9.451  1.0899  0.2850 -1.2487
  374TMC3    H2 5601   4.390   4.309   9.650  0.3425  0.8356 -0.0266
  374TMC3    C7 5602   4.165   4.224   9.531 -1.0078 -0.7610 -0.0573
  374TMC3    C8 5603   4.628   4.210   9.645  0.7207 -0.5970 -0.4105
  374TMC3    O1 5604   4.055   4.173   9.544 -0.3120 -0.1867  0.3079
  374TMC3    O2 5605   0.012   4.175   9.599 -0.1510 -0.2323 -0.3607
  375MPD2     C 5606   3.326   0.517  17.194  0.1942  0.6532  0.4996
  375MPD2    C1 5607   3.278   0.568  17.076 -0.3004 -0.1909  0.3002
  375MPD2    C2 5608   3.331   0.543  16.952  0.0204 -0.3183 -0.1256
  375MPD2    C3 5609   3.438   0.455  16.935 -0.1656  0.2251  0.7657
  375MPD2    C4 5610   3.490   0.413  17.055  0.0711  0.8136  0.0773
  375MPD2    C5 5611   3.443   0.449  17.177  0.8242 -0.5185 -0.1764
  375MPD2     H 5612   3.270   0.589  16.875 -1.7959 -1.5999  0.5221
  375MPD2    H1 5613   3.578   0.349  17.058 -0.4288  0.2594  2.9182
  375MPD2    H2 5614   3.286   0.527  17.294 -1.4348 -0.0685 -0.0727
  375MPD2    H3 5615   3.496   0.407  17.262  2.0434 -0.7921 -1.0667
  375MPD2     N 5616   3.484   0.407  16.809  0.0409  0.5209 -0.1011
  375MPD2    H5 5617   3.570   0.354  16.816 -1.0111 -0.9816  1.2779
  375MPD2    N1 5618   3.176   0.664  17.067 -0.3545  0.6427  0.5204
  375MPD2    H7 5619   3.167   0.718  16.982 -1.4959 -0.2633  0.0626
  376TMC3    C1 5620   3.496   0.363  16.573  0.2000  0.0107  0.0512
  376TMC3    C2 5621   3.628   0.355  16.590  0.0736  0.2039  0.0499
  376TMC3    C3 5622   3.696   0.268  16.509  0.1641  0.2958 -0.0722
  376TMC3    C4 5623   3.425   0.291  16.481  0.2510 -0.0609 -0.0892
  376TMC3    C5 5624   3.494   0.212  16.392 -0.4264  0.4805 -0.4264
  376TMC3    C6 5625   3.630   0.200  16.408 -0.2016  0.2288 -0.1718
  376TMC3     C 5626   3.415   0.419  16.689  0.0942 -0.1812 -0.0415
  376TMC3     O 5627   3.296   0.456  16.669 -0.2026  0.0893  0.4899
  376TMC3     H 5628   3.682   0.419  16.659 -1.2375  1.6078 -0.2336
  376TMC3    H1 5629   3.317   0.302  16.483  0.4223  1.5472  0.7700
  376TMC3    H2 5630   3.685   0.118  16.362  0.0704  0.1403  0.3153
  376TMC3    C7 5631   3.436   0.188  16.261  0.5542 -0.8478 -0.2096
  376TMC3    C8 5632   3.835   0.289  16.502 -0.2573  0.7671  0.2267
  376TMC3    O1 5633   3.507   0.124  16.190 -0.7642  0.2609  0.0067
  376TMC3    O2 5634   3.885   0.400  16.527 -0.1495 -0.1772 -0.0082
  377MPD2     C 5635   2.132   4.403  12.688  0.5610 -0.5660 -1.1465
  377MPD2    C1 5636   2.070   4.412  12.563  0.9664  0.3114 -0.4761
  377MPD2    C2 5637   1.932   4.428  12.560  0.3382  0.3980 -0.0777
  377MPD2    C3 5638   1.864   4.413  12.683 -0.0057 -0.4717 -0.3399
  377MPD2    C4 5639   1.932   4.405  12.804 -0.1119  0.2323  0.6123
  377MPD2    C5 5640   2.061   4.406  12.812 -0.2256  0.1231  0.3315
  377MPD2     H 5641   1.884   4.443  12.464  0.8595 -1.8759 -0.6935
  377MPD2    H1 5642   1.868   4.392  12.890  0.5636 -2.8168  0.6638
  377MPD2    H2 5643   2.240   4.399  12.695  0.4926  0.1983  0.2741
  377MPD2    H3 5644   2.114   4.395  12.906  1.9363  2.3664 -0.6368
  377MPD2     N 5645   1.723   4.403  12.688 -0.2111 -0.1164  0.2032
  377MPD2    H5 5646   1.676   4.388  12.777 -0.4617  1.6702  0.3815
  377MPD2    N1 5647   2.155   4.403  12.453  0.0919  0.4078 -0.3348
  377MPD2    H7 5648   2.253   4.401  12.478  0.2369 -0.6928 -0.9847
  378TMC3    C1 5649   2.310   4.289  12.019 -0.2817  0.1596 -0.2923
  378TMC3    C2 5650   2.200   4.309  12.101 -0.2943 -0.3308 -0.1792
  378TMC3    C3 5651   2.230   4.352  12.231  0.2268 -0.0012 -0.2854
  378TMC3    C4 5652   2.438   4.299  12.056  1.0270  0.2014  0.2308
  378TMC3    C5 5653   2.455   4.325  12.186  0.1780  0.2599  0.4608
  378TMC3    C6 5654   2.360   4.363  12.272  0.3461  0.4686  0.7216
  378TMC3     C 5655   2.281   4.287  11.877 -0.4505  0.0248 -0.7606
  378TMC3     O 5656   2.177   4.235  11.834 -0.1046  0.6095 -0.6083
  378TMC3     H 5657   2.098   4.304  12.065  0.7433  0.6824 -3.2449
  378TMC3    H1 5658   2.518   4.291  11.983  0.4309  1.3880 -0.5533
  378TMC3    H2 5659   2.375   4.391  12.375 -2.9633  0.3838  1.2300
  378TMC3    C7 5660   2.585   4.313  12.241 -0.1140 -0.3180  0.0188
  378TMC3    C8 5661   2.120   4.397  12.318 -0.5311 -0.3898  0.2880
  378TMC3    O1 5662   2.597   4.327  12.361 -0.3459 -0.0266  0.4610
  378TMC3    O2 5663   2.002   4.398  12.277 -0.1582  0.0662  0.2552
  379MPD2     C 5664   2.653   3.014  15.757  0.1412  0.2550  0.0398
  379MPD2    C1 5665   2.560   2.952  15.841  0.8666 -1.0171 -0.1882
  379MPD2    C2 5666   2.598   2.896  15.959  0.0766  0.1332 -0.4622
  379MPD2    C3 5667   2.731   2.872  15.987 -0.7173  0.7003 -0.1875
  379MPD2    C4 5668   2.821   2.943  15.903 -0.1447  0.5352  0.0557
  379MPD2    C5 5669   2.781   3.018  15.793 -0.7143  0.2992  0.0361
  379MPD2     H 5670   2.529   2.858  16.034  0.7857 -1.6280 -0.6975
  379MPD2    H1 5671   2.927   2.940  15.925 -0.5244  0.4020  1.8338
  379MPD2    H2 5672   2.627   3.059  15.662  1.1792 -1.1704 -0.9165
  379MPD2    H3 5673   2.852   3.079  15.739 -1.0377 -0.4053 -1.1878
  379MPD2     N 5674   2.758   2.794  16.102  0.2113  0.5450 -0.0478
  379MPD2    H5 5675   2.677   2.739  16.130  0.5335 -0.2429 -0.6521
  379MPD2    N1 5676   2.423   2.957  15.810 -0.4555 -0.4249  0.3528
  379MPD2    H7 5677   2.392   3.001  15.723 -0.8678 -2.9416 -0.7768
  380TMC3    C1 5678   2.201   2.876  15.792 -0.3145 -0.6101  0.7977
  380TMC3    C2 5679   2.111   2.769  15.810  0.3677  0.5582 -0.2516
  380TMC3    C3 5680   2.021   2.738  15.711 -0.5978  0.6474 -0.1864
  380TMC3    C4 5681   2.183   2.962  15.680 -0.1659  0.7515 -0.4029
  380TMC3    C5 5682   2.087   2.929  15.588 -0.0942  0.8590  0.1288
  380TMC3    C6 5683   2.007   2.819  15.604 -0.8320 -0.6444  0.3088
  380TMC3     C 5684   2.327   2.876  15.862 -0.3740  0.0928  0.3073
  380TMC3     O 5685   2.343   2.784  15.941  0.0435 -0.0877 -0.1429
  380TMC3     H 5686   2.128   2.714  15.902  0.5153 -0.4373 -0.8805
  380TMC3    H1 5687   2.235   3.055  15.663 -0.1511  0.4095 -2.1987
  380TMC3    H2 5688   1.941   2.785  15.525 -1.2463 -0.5174  0.6006
  380TMC3    C7 5689   2.051   3.034  15.501  0.8137 -0.2388 -0.4868
  380TMC3    C8 5690   2.013   2.596  15.678 -0.0381  0.1804  0.1258
  380TMC3    O1 5691   2.107   3.142  15.506  0.6044 -0.1289  0.3490
  380TMC3    O2 5692   1.971   2.574  15.567  0.0543 -0.0247  0.4609
  381TMC3    C1 5693   2.228   4.022  15.933  0.9802  0.1050 -0.2068
  381TMC3    C2 5694   2.280   4.147  15.947 -0.1369  0.0329  0.6530
  381TMC3    C3 5695   2.303   4.207  16.066  0.1498 -0.6695  0.6361
  381TMC3    C4 5696   2.184   3.961  16.043  0.0107 -0.5014  0.0132
  381TMC3    C5 5697   2.211   4.026  16.163 -0.0709 -0.3499  0.0660
  381TMC3    C6 5698   2.263   4.151  16.179 -1.0431  1.2916  0.3794
  381TMC3     C 5699   2.233   3.960  15.803 -0.3370 -0.2164  0.0938
  381TMC3     O 5700   2.162   3.865  15.784  0.0650  0.0037  0.3036
  381TMC3     H 5701   2.302   4.206  15.858 -1.6166  0.5422  0.6155
  381TMC3    H1 5702   2.142   3.861  16.041 -0.2682 -0.3710 -0.6472
  381TMC3    H2 5703   2.278   4.208  16.270  1.3700 -0.1838  0.9062
  381TMC3    C7 5704   2.170   3.948  16.278 -0.2287 -0.1834  0.2561
  381TMC3    C8 5705   2.427   4.275  16.063  0.2329  0.0762  0.1912
  381TMC3    O1 5706   2.148   3.831  16.261  0.7266 -0.2608 -0.0133
  381TMC3    O2 5707   2.489   4.263  15.961  0.3767 -0.0272 -0.4656
  382MPD2     C 5708   1.005   1.708  17.161 -0.3872  0.5695  0.1834
  382MPD2    C1 5709   1.117   1.698  17.082 -0.6655  0.0196 -0.2309
  382MPD2    C2 5710   1.152   1.569  17.031  0.2215  0.1573 -0.1468
  382MPD2    C3 5711   1.070   1.462  17.059 -0.1768 -0.2132  0.0484
  382MPD2    C4 5712   0.957   1.477  17.140  0.4953 -0.4254 -0.0234
  382MPD2    C5 5713   0.916   1.603  17.182  0.4874  0.0840  0.2431
  382MPD2     H 5714   1.237   1.562  16.965  0.3570 -0.7853  0.1207
  382MPD2    H1 5715   0.882   1.401  17.162  3.0168 -2.8258  0.3684
  382MPD2    H2 5716   0.960   1.805  17.181 -2.4079 -0.3842  0.2344
  382MPD2    H3 5717   0.830   1.619  17.246  1.7344 -0.2120  2.0044
  382MPD2     N 5718   1.102   1.334  17.006 -0.4129 -0.1527 -0.5941
  382MPD2    H5 5719   1.027   1.266  16.997 -0.5495  0.2942 -2.6900
  382MPD2    N1 5720   1.200   1.814  17.059  0.0679 -0.0473 -0.6619
  382MPD2    H7 5721   1.282   1.806  17.000  1.3232  1.1371  0.9401
  383TMC3    C1 5722   1.236   1.162  16.915  0.2234  0.0473  0.8284
  383TMC3    C2 5723   1.126   1.081  16.893  0.1890 -0.3759  0.1731
  383TMC3    C3 5724   1.148   0.944  16.856  0.5185  0.1294 -0.1702
  383TMC3    C4 5725   1.364   1.116  16.889 -0.2603 -0.0375  1.3343
  383TMC3    C5 5726   1.380   0.983  16.855  0.0120 -0.4811  0.7541
  383TMC3    C6 5727   1.275   0.893  16.838  0.2477  0.1668  0.6326
  383TMC3     C 5728   1.230   1.295  16.977  0.0050 -0.3191  0.0471
  383TMC3     O 5729   1.336   1.340  17.018 -0.1875  0.1944 -0.2084
  383TMC3     H 5730   1.027   1.124  16.902  0.4526 -0.1107  1.8693
  383TMC3    H1 5731   1.443   1.190  16.878 -0.4702 -0.1729 -1.1032
  383TMC3    H2 5732   1.290   0.789  16.808  0.8262  0.5270 -0.3214
  383TMC3    C7 5733   1.501   0.952  16.787  0.4718 -0.4198  0.0892
  383TMC3    C8 5734   1.033   0.874  16.808 -0.3163  0.2918 -0.5298
  383TMC3    O1 5735   1.484   0.882  16.688  0.5544 -0.3965 -0.2265
  383TMC3    O2 5736   0.944   0.950  16.778  0.1137  0.6041 -0.2504
  384MPD2     C 5737   3.271   3.073  11.496 -0.0831 -0.1689 -0.2014
  384MPD2    C1 5738   3.293   2.942  11.539 -0.7316 -0.2131  0.1441
  384MPD2    C2 5739   3.392   2.871  11.472 -0.1541 -0.5401 -0.4554
  384MPD2    C3 5740   3.463   2.920  11.362  0.0045  0.1660 -0.4665
  384MPD2    C4 5741   3.432   3.045  11.315 -0.5190 -0.7701 -0.1000
  384MPD2    C5 5742   3.340   3.119  11.385 -0.6229  0.1320 -0.0505
  384MPD2     H 5743   3.413   2.767  11.493 -0.3375 -0.6027 -0.5859
  384MPD2    H1 5744   3.460   3.083  11.217 -0.0716 -2.7685 -0.7444
  384MPD2    H2 5745   3.200   3.147  11.532  1.2203  0.4138  1.2006
  384MPD2    H3 5746   3.308   3.214  11.342  0.2178  0.1348 -0.6728
  384MPD2     N 5747   3.555   2.827  11.310  0.0737  0.0611  0.8627
  384MPD2    H5 5748   3.554   2.734  11.351  0.4521  0.1774  1.1261
  384MPD2    N1 5749   3.222   2.871  11.642 -0.9382 -0.0782  0.2461
  384MPD2    H7 5750   3.238   2.772  11.656 -0.7302  0.1333  1.4853
  385TMC3    C1 5751   3.697   2.710  11.163  0.5827  0.6059  0.5677
  385TMC3    C2 5752   3.686   2.692  11.030  0.9510  0.1796 -0.2776
  385TMC3    C3 5753   3.620   2.583  10.980 -0.1364  0.5159  0.1406
  385TMC3    C4 5754   3.663   2.608  11.239  0.4420  0.1754  0.3011
  385TMC3    C5 5755   3.590   2.504  11.194 -0.2622 -0.2345  0.0576
  385TMC3    C6 5756   3.567   2.489  11.060 -0.4773  0.3943 -0.0578
  385TMC3     C 5757   3.627   2.837  11.192 -0.0263 -0.2994  0.2426
  385TMC3     O 5758   3.608   2.921  11.102  0.4198 -0.6637 -0.0451
  385TMC3     H 5759   3.711   2.774  10.965 -1.0512  2.1768  1.4627
  385TMC3    H1 5760   3.684   2.610  11.346  0.3221 -1.0842  0.3564
  385TMC3    H2 5761   3.482   2.431  11.026  1.2622 -3.2267  1.6661
  385TMC3    C7 5762   3.487   2.474  11.297  0.5644  0.4244 -0.2183
  385TMC3    C8 5763   3.668   2.541  10.849 -0.6884 -0.1563 -0.2466
  385TMC3    O1 5764   3.471   2.570  11.374  0.1374  0.3949  0.0077
  385TMC3    O2 5765   3.744   2.611  10.783 -0.3512 -0.4655 -0.3971
  386TMC3    C1 5766   3.802   4.582  11.624  0.3279  0.0743 -0.2497
  386TMC3    C2 5767   3.813   4.650  11.502  0.1636  1.1337 -0.1404
  386TMC3    C3 5768   3.722   0.026  11.471 -0.3213  0.6184 -0.8467
  386TMC3    C4 5769   3.692   4.600  11.703  0.1891  0.9021  0.3522
  386TMC3    C5 5770   3.599   4.697  11.667  0.0203  0.1279 -0.0160
  386TMC3    C6 5771   3.607   0.046  11.548 -0.0462  0.5579  0.2522
  386TMC3     C 5772   3.927   4.519  11.663  0.4788  0.6565 -0.8745
  386TMC3     O 5773   4.024   4.559  11.599  0.2602  0.2573  0.6885
  386TMC3     H 5774   3.901   4.627  11.442 -1.9966  0.1203 -2.9301
  386TMC3    H1 5775   3.691   4.551  11.800 -0.3179  1.2311  0.5134
  386TMC3    H2 5776   3.525   0.106  11.510  0.4354 -0.0952 -1.8383
  386TMC3    C7 5777   3.471   4.683  11.725 -0.3954 -0.2091  0.3536
  386TMC3    C8 5778   3.698   0.067  11.332 -0.2652 -0.6130 -0.2674
  386TMC3    O1 5779   3.463   4.653  11.842  0.2476 -0.1488  0.1306
  386TMC3    O2 5780   3.597   0.125  11.300 -1.0105 -0.7373 -0.3885
  387MPD2     C 5781   1.696   4.329   9.285 -0.4056 -0.7445 -0.6238
  387MPD2    C1 5782   1.822   4.339   9.348 -0.0814 -0.2872 -0.3711
  387MPD2    C2 5783   1.854   4.248   9.444 -0.1297  0.4016 -0.3366
  387MPD2    C3 5784   1.765   4.154   9.475 -0.0319  0.0494 -0.6083
  387MPD2    C4 5785   1.633   4.148   9.412 -0.3636 -0.4866  0.0554
  387MPD2    C5 5786   1.598   4.242   9.322 -0.8367  0.0737 -0.3808
  387MPD2     H 5787   1.955   4.248   9.482 -0.0690  1.1546 -0.5012
  387MPD2    H1 5788   1.558   4.080   9.451 -0.7336  0.1696  0.4814
  387MPD2    H2 5789   1.668   4.409   9.217  0.6667  0.4679  0.3617
  387MPD2    H3 5790   1.500   4.227   9.279 -0.1819 -0.9857 -1.4946
  387MPD2     N 5791   1.799   4.055   9.569 -0.3985 -0.0133 -0.5646
  387MPD2    H5 5792   1.892   4.060   9.610 -0.4918  1.6502 -0.5539
  387MPD2    N1 5793   1.917   4.439   9.328  0.3533 -0.2615 -0.3753
  387MPD2    H7 5794   2.005   4.424   9.376  1.1944  1.1665 -1.4729
  388TMC3    C1 5795   1.996   4.648   9.316  0.0173 -0.8134  0.1351
  388TMC3    C2 5796   2.061   0.005   9.233  0.2948 -0.3085 -0.3535
  388TMC3    C3 5797   2.161   0.081   9.283  0.3114  0.0956 -0.2501
  388TMC3    C4 5798   2.019   4.636   9.451  0.3101  0.7504 -0.3361
  388TMC3    C5 5799   2.121   4.712   9.501  0.0048  0.3420 -0.1575
  388TMC3    C6 5800   2.184   0.076   9.420 -0.2532  0.4910  0.6214
  388TMC3     C 5801   1.897   4.554   9.260  0.3324 -0.4920  0.3843
  388TMC3     O 5802   1.815   4.583   9.176 -0.2165 -0.2618 -0.1791
  388TMC3     H 5803   2.030   0.014   9.129 -0.4328 -0.5011 -0.1530
  388TMC3    H1 5804   1.960   4.562   9.504  1.3183 -1.1210 -1.8170
  388TMC3    H2 5805   2.277   0.118   9.457  0.1939  0.4451 -0.4351
  388TMC3    C7 5806   2.203   4.648   9.613 -0.3232  0.2881 -0.4978
  388TMC3    C8 5807   2.224   0.175   9.195  0.3921 -0.4161  0.3516
  388TMC3    O1 5808   2.319   4.680   9.616 -0.6038 -0.0543  0.1158
  388TMC3    O2 5809   2.203   0.158   9.078  0.1742  0.5101 -0.2266
  389MPD2     C 5810   0.717   2.643  10.530  0.4403  0.2862 -0.1854
  389MPD2    C1 5811   0.693   2.776  10.562  0.1161 -0.3288  0.0738
  389MPD2    C2 5812   0.644   2.812  10.686  0.1294 -0.2810 -0.7094
  389MPD2    C3 5813   0.616   2.712  10.778  0.7160 -0.5031 -1.0055
  389MPD2    C4 5814   0.629   2.579  10.733 -0.2634  0.2399 -0.3023
  389MPD2    C5 5815   0.685   2.544  10.616  0.0771 -0.2399  0.4628
  389MPD2     H 5816   0.627   2.916  10.714 -2.3623 -0.3935 -1.7447
  389MPD2    H1 5817   0.604   2.495  10.797 -4.4419  0.5610 -1.5112
  389MPD2    H2 5818   0.747   2.606  10.433 -1.6237 -1.7273 -0.0611
  389MPD2    H3 5819   0.706   2.440  10.593 -0.2044 -0.6076  1.8565
  389MPD2     N 5820   0.554   2.727  10.901 -0.0753 -0.0225 -0.9258
  389MPD2    H5 5821   0.527   2.648  10.958  2.5632  0.9252  1.6865
  389MPD2    N1 5822   0.717   2.867  10.457 -0.5050  0.0302  0.4250
  389MPD2    H7 5823   0.763   2.829  10.375  2.2918  3.2261  0.5487
  390TMC3    C1 5824   0.456   2.843  11.081  0.0275 -0.0310 -0.3006
  390TMC3    C2 5825   0.356   2.751  11.091  0.3544  0.3621 -0.0701
  390TMC3    C3 5826   0.294   2.751  11.210  0.0156  0.1322 -0.5309
  390TMC3    C4 5827   0.479   2.939  11.179 -0.1242  0.2331 -0.2738
  390TMC3    C5 5828   0.409   2.934  11.300  0.0181 -0.3251 -0.0318
  390TMC3    C6 5829   0.323   2.833  11.317  0.0381  0.1984 -1.4137
  390TMC3     C 5830   0.535   2.853  10.962  0.1573 -0.0833 -0.4130
  390TMC3     O 5831   0.548   2.965  10.918  0.1503  0.1044  0.5624
  390TMC3     H 5832   0.338   2.674  11.017 -1.4201  1.1703 -0.4869
  390TMC3    H1 5833   0.557   3.012  11.160  1.1656 -1.3425 -1.0410
  390TMC3    H2 5834   0.261   2.822  11.406  0.0559 -0.1899 -1.4495
  390TMC3    C7 5835   0.421   3.040  11.402  0.3197  0.2057 -0.3840
  390TMC3    C8 5836   0.183   2.663  11.219 -0.4157  0.4850  0.2123
  390TMC3    O1 5837   0.523   3.102  11.408  0.1234 -0.1592  0.0300
  390TMC3    O2 5838   0.188   2.558  11.159 -0.0645 -0.7409  0.2669
  391MPD2     C 5839   4.031   4.258  10.989 -0.8227  0.0829  0.6486
  391MPD2    C1 5840   4.111   4.358  11.043  0.1777  0.5236  0.2031
  391MPD2    C2 5841   4.195   4.437  10.964  0.7552 -0.4370 -0.0229
  391MPD2    C3 5842   4.198   4.415  10.829 -0.1533 -0.6186 -0.2117
  391MPD2    C4 5843   4.108   4.321  10.778  0.6490 -1.4265 -0.4961
  391MPD2    C5 5844   4.031   4.236  10.852 -0.4525  0.0922 -0.1915
  391MPD2     H 5845   4.256   4.516  11.005 -1.2505  1.5715 -0.8889
  391MPD2    H1 5846   4.100   4.298  10.672 -1.7793 -0.3374 -0.5416
  391MPD2    H2 5847   3.970   4.199  11.056 -0.2103 -0.2470  0.9212
  391MPD2    H3 5848   3.958   4.166  10.813  0.5605 -0.9561 -0.2180
  391MPD2     N 5849   4.297   4.497  10.756  0.2916 -0.0856  0.1597
  391MPD2    H5 5850   4.364   4.553  10.808  2.8744 -0.8128 -2.3810
  391MPD2    N1 5851   4.113   4.363  11.187 -0.1742 -0.2777  0.1358
  391MPD2    H7 5852   4.065   4.296  11.247 -2.0695  1.1746  0.2751
  392TMC3    C1 5853   4.411   4.564  10.560  0.4794  0.1017  0.5624
  392TMC3    C2 5854   4.431   4.547  10.426  0.1907 -0.6922  0.5187
  392TMC3    C3 5855   4.555   4.548  10.365  0.7371  0.1402 -0.1766
  392TMC3    C4 5856   4.531   4.593  10.636 -0.1833  0.1566  0.3073
  392TMC3    C5 5857   4.654   4.595  10.579 -0.1512 -0.5808 -0.6057
  392TMC3    C6 5858   4.669   4.576  10.441  0.5654  0.0608  1.3403
  392TMC3     C 5859   4.294   4.507  10.616  0.4348  0.2257 -0.5945
  392TMC3     O 5860   4.214   4.453  10.538  0.3765 -0.4839  0.2227
  392TMC3     H 5861   4.349   4.510  10.365 -0.1828  0.2881  0.4211
  392TMC3    H1 5862   4.526   4.620  10.741 -0.4066 -1.1628  0.6292
  392TMC3    H2 5863   0.042   4.565  10.394  0.3003  1.1100  0.5652
  392TMC3    C7 5864   0.038   4.655  10.653  0.6414  0.1455 -0.2879
  392TMC3    C8 5865   4.564   4.475  10.239  0.8220  0.6086 -0.3288
  392TMC3    O1 5866   0.022   4.687  10.770 -0.6060 -0.5453 -0.7722
  392TMC3    O2 5867   4.460   4.439  10.185  0.4381 -0.3284  0.0311
  393TMC3    C1 5868   3.565   2.018   9.714  0.1671  0.5854 -0.3289
  393TMC3    C2 5869   3.458   1.937   9.729 -0.0176 -0.5746  0.0768
  393TMC3    C3 5870   3.388   1.925   9.848 -0.7121  0.2751 -0.4105
  393TMC3    C4 5871   3.597   2.095   9.821 -0.0431 -0.4488 -0.6196
  393TMC3    C5 5872   3.534   2.077   9.945  0.1821 -0.4304  0.6126
  393TMC3    C6 5873   3.423   1.991   9.961  0.7253 -0.1316 -0.1896
  393TMC3     C 5874   3.637   2.020   9.588  0.1662 -0.0683 -0.4100
  393TMC3     O 5875   3.695   2.123   9.562  0.3360  0.6180 -0.3924
  393TMC3     H 5876   3.423   1.883   9.642 -0.7063  0.6113 -0.3824
  393TMC3    H1 5877   3.676   2.168   9.805  0.1066 -0.2905  0.8064
  393TMC3    H2 5878   3.366   1.992  10.053 -2.2857 -0.0334 -2.0686
  393TMC3    C7 5879   3.546   2.182  10.040 -0.5042  0.2544  0.2576
  393TMC3    C8 5880   3.268   1.845   9.859 -0.6578 -0.2331 -0.0239
  393TMC3    O1 5881   3.445   2.222  10.097 -0.2874  0.1140  0.5224
  393TMC3    O2 5882   3.240   1.817   9.978  0.0942  0.3462 -0.1722
  394TMC3    C1 5883   0.657   3.036  10.317  0.0274 -0.0775 -0.4829
  394TMC3    C2 5884   0.533   3.065  10.260 -1.0167 -0.9491  0.0911
  394TMC3    C3 5885   0.522   3.081  10.124 -0.2160  0.3972 -0.0056
  394TMC3    C4 5886   0.758   2.995  10.238  0.5806 -0.5071 -0.2418
  394TMC3    C5 5887   0.745   3.013  10.106 -0.2057 -0.0684 -0.7267
  394TMC3    C6 5888   0.628   3.058  10.046  0.0538 -0.3975  0.5844
  394TMC3     C 5889   0.656   2.987  10.450  0.4232  0.1119 -0.0709
  394TMC3     O 5890   0.579   3.044  10.530  0.2352  0.2147 -0.4709
  394TMC3     H 5891   0.441   3.061  10.317 -0.1309  0.4542  1.6480
  394TMC3    H1 5892   0.851   2.961  10.282  2.8466  2.0094 -3.0650
  394TMC3    H2 5893   0.613   3.062   9.938  2.4360  0.1556  0.2787
  394TMC3    C7 5894   0.866   3.024  10.019  1.1583  0.6912 -0.1806
  394TMC3    C8 5895   0.410   3.001  10.086 -0.1176  0.0293  0.1694
  394TMC3    O1 5896   0.859   3.095   9.922 -0.4506 -0.5591  0.0166
  394TMC3    O2 5897   0.298   3.055  10.085  0.5755 -0.1210 -0.0360
  395TMC3    C1 5898   4.182   0.340  14.560 -0.3418  0.9733  0.9418
  395TMC3    C2 5899   4.105   0.267  14.644  0.6269  0.2315 -0.4863
  395TMC3    C3 5900   4.114   0.292  14.779 -0.2401  0.0090 -0.1722
  395TMC3    C4 5901   4.228   0.466  14.599  0.0667  0.7416 -0.4978
  395TMC3    C5 5902   4.234   0.492  14.734 -0.3170 -0.4405 -0.9175
  395TMC3    C6 5903   4.180   0.402  14.828 -0.0772  0.3831 -0.6380
  395TMC3     C 5904   4.149   0.330  14.412 -0.6143  0.0046 -0.2489
  395TMC3     O 5905   4.145   0.434  14.351 -0.2716  0.3240  0.3743
  395TMC3     H 5906   4.039   0.191  14.603  0.9164 -0.0315 -0.4622
  395TMC3    H1 5907   4.265   0.539  14.528  0.8736 -0.0312 -0.8856
  395TMC3    H2 5908   4.178   0.426  14.933 -0.9780  0.5822 -0.6971
  395TMC3    C7 5909   4.359   0.536  14.793  0.3171  0.4276  0.3649
  395TMC3    C8 5910   4.091   0.182  14.870  0.3048 -0.4009  0.2805
  395TMC3    O1 5911   4.373   0.556  14.911  0.6089 -0.2801  0.6023
  395TMC3    O2 5912   4.105   0.208  14.990  0.0927 -0.3348  0.1856
  396MPD2     C 5913   4.409   1.610  16.681  0.3066 -0.0300  0.0021
  396MPD2    C1 5914   4.538   1.607  16.728 -0.2805  0.0322 -0.7248
  396MPD2    C2 5915   4.625   1.699  16.666 -0.4509  0.2509 -0.6967
  396MPD2    C3 5916   4.578   1.800  16.585  0.3599  0.1068  0.2723
  396MPD2    C4 5917   4.447   1.798  16.544  0.3933  0.3957 -0.1917
  396MPD2    C5 5918   4.363   1.697  16.590 -0.5481  0.0939 -0.0965
  396MPD2     H 5919   0.006   1.704  16.698 -1.1754  3.0388  1.2558
  396MPD2    H1 5920   4.415   1.870  16.471 -0.6867 -1.3898 -1.4760
  396MPD2    H2 5921   4.344   1.540  16.733  0.0862  1.6160  1.9980
  396MPD2    H3 5922   4.260   1.700  16.556 -1.1888  1.3384  1.9595
  396MPD2     N 5923   4.674   1.880  16.514 -0.5975 -0.5481  0.6884
  396MPD2    H5 5924   0.046   1.862  16.545 -0.8406  1.3669  2.5144
  396MPD2    N1 5925   4.579   1.505  16.818 -0.6104 -0.7197  0.3785
  396MPD2    H7 5926   4.505   1.444  16.850 -0.0992 -0.5791  1.8544
  397TMC3    C1 5927   0.003   1.350  16.908  0.9957 -0.0172  0.1063
  397TMC3    C2 5928   0.072   1.267  16.824  0.3699 -0.7393 -0.0090
  397TMC3    C3 5929   0.040   1.137  16.784  0.3980 -0.0970  0.0455
  397TMC3    C4 5930   4.608   1.293  16.959 -0.5707 -0.1333  0.2442
  397TMC3    C5 5931   4.577   1.158  16.929  0.5361  0.6581  0.2145
  397TMC3    C6 5932   4.656   1.079  16.848  0.5427  0.1847  1.0264
  397TMC3     C 5933   4.706   1.481  16.853 -0.0596 -0.8445 -0.6062
  397TMC3     O 5934   0.085   1.540  16.821 -0.2558 -0.2587  0.3212
  397TMC3     H 5935   0.146   1.323  16.767  0.9017 -2.0481 -0.5998
  397TMC3    H1 5936   4.545   1.353  17.024 -0.9488  1.6387 -1.7303
  397TMC3    H2 5937   4.633   0.975  16.831 -0.8025  0.2031  2.6794
  397TMC3    C7 5938   4.446   1.100  16.964  0.3845 -0.4050 -0.5357
  397TMC3    C8 5939   0.087   1.083  16.653 -0.3241  0.0020  0.2522
  397TMC3    O1 5940   4.394   1.034  16.877 -0.0102  0.0043 -0.1256
  397TMC3    O2 5941   0.025   0.983  16.615  0.5787  0.0891 -0.1821
  398MPD2     C 5942   2.446   2.714  16.993  0.1134  0.1937 -0.4102
  398MPD2    C1 5943   2.501   2.695  17.120  0.4528 -0.5690  0.4103
  398MPD2    C2 5944   2.641   2.708  17.133  0.2351 -0.0775 -0.7505
  398MPD2    C3 5945   2.722   2.738  17.023 -0.2501 -0.4610  0.2104
  398MPD2    C4 5946   2.665   2.755  16.894  0.1530 -0.4956  0.0745
  398MPD2    C5 5947   2.525   2.746  16.881  0.1810 -0.1723  0.0164
  398MPD2     H 5948   2.679   2.684  17.232 -2.4045 -0.9982  0.0417
  398MPD2    H1 5949   2.722   2.781  16.806 -0.5524 -0.0476 -0.2491
  398MPD2    H2 5950   2.339   2.700  16.979  0.1562 -1.9888  1.3654
  398MPD2    H3 5951   2.484   2.767  16.783  1.2904 -1.0797 -0.6456
  398MPD2     N 5952   2.867   2.735  17.038 -0.1926  0.2621  0.6465
  398MPD2    H5 5953   2.895   2.704  17.130 -3.2954  0.5647  1.6920
  398MPD2    N1 5954   2.424   2.644  17.232 -0.8265  0.1263 -0.1279
  398MPD2    H7 5955   2.473   2.645  17.321  1.3788  2.0812 -1.3956
  399TMC3    C1 5956   2.234   2.581  17.359  0.0988 -0.8154  0.7839
  399TMC3    C2 5957   2.295   2.627  17.474 -1.0760 -0.2224  0.2724
  399TMC3    C3 5958   2.257   2.569  17.591  1.2223  0.0537  0.4331
  399TMC3    C4 5959   2.128   2.493  17.360  0.2396  0.3529  0.2328
  399TMC3    C5 5960   2.095   2.444  17.480 -0.6476  1.0952  0.3940
  399TMC3    C6 5961   2.162   2.467  17.595 -0.4192 -0.3860 -0.2146
  399TMC3     C 5962   2.288   2.610  17.230 -0.6990  0.1387 -0.1516
  399TMC3     O 5963   2.222   2.569  17.134 -0.0063  0.5438 -0.7902
  399TMC3     H 5964   2.374   2.701  17.470  1.5114 -2.8760  1.7893
  399TMC3    H1 5965   2.068   2.486  17.269  0.3485  1.0732  0.1110
  399TMC3    H2 5966   2.146   2.399  17.678  3.8660  0.0129  0.9250
  399TMC3    C7 5967   2.013   2.320  17.483  0.3081  0.5344 -0.8937
  399TMC3    C8 5968   2.346   2.588   0.007  1.1515 -0.2298  0.5031
  399TMC3    O1 5969   1.984   2.266  17.588 -0.1954  0.5337 -0.0951
  399TMC3    O2 5970   2.439   2.663  17.689 -0.3586  0.3407 -0.2729
  400TMC3    C1 5971   1.214   0.747  16.458 -0.0319 -0.4315 -0.2672
  400TMC3    C2 5972   1.087   0.720  16.407 -0.4680 -0.7940  0.3196
  400TMC3    C3 5973   1.010   0.827  16.366 -0.1392  0.6390 -0.5204
  400TMC3    C4 5974   1.260   0.874  16.457 -0.3675  0.3219 -0.1414
  400TMC3    C5 5975   1.173   0.975  16.443 -1.2015 -0.1375  0.9195
  400TMC3    C6 5976   1.045   0.960  16.384  0.0139 -0.3411  1.1218
  400TMC3     C 5977   1.300   0.629  16.446  0.1680 -0.6526  0.4800
  400TMC3     O 5978   1.257   0.520  16.418 -0.1359 -0.2375 -0.6480
  400TMC3     H 5979   1.045   0.621  16.412  2.1298 -1.9081 -0.1725
  400TMC3    H1 5980   1.355   0.893  16.507 -1.4305  1.3698  1.4925
  400TMC3    H2 5981   0.999   1.051  16.348 -0.9958 -1.1275  0.4369
  400TMC3    C7 5982   1.210   1.105  16.492 -0.0705 -0.1354 -0.2360
  400TMC3    C8 5983   0.882   0.795  16.303 -0.0169 -0.2693 -0.1286
  400TMC3    O1 5984   1.328   1.115  16.512 -0.3605  0.5663 -0.4551
  400TMC3    O2 5985   0.814   0.898  16.297  0.5289 -0.7708  0.1238
  401MPD2     C 5986   3.557   4.661   0.513  0.1727  0.2696 -0.2642
  401MPD2    C1 5987   3.646   4.609   0.607 -0.4864 -0.4375  0.1177
  401MPD2    C2 5988   3.664   4.474   0.613 -0.8139  0.2054 -0.1154
  401MPD2    C3 5989   3.593   4.381   0.539  0.0966  0.4543 -0.1990
  401MPD2    C4 5990   3.495   4.440   0.454 -1.0151  0.3552  0.2349
  401MPD2    C5 5991   3.473   4.575   0.455 -0.0259  0.4321 -0.0814
  401MPD2     H 5992   3.736   4.435   0.684 -0.9415  1.0332  0.4680
  401MPD2    H1 5993   3.423   4.381   0.398 -0.9393  0.7056 -0.2352
  401MPD2    H2 5994   3.550   0.040   0.479  0.7258  0.6052  0.6353
  401MPD2    H3 5995   3.393   4.605   0.388  1.1074 -0.7175 -1.9549
  401MPD2     N 5996   3.618   4.251   0.556 -0.3284  0.2195  0.0300
  401MPD2    H5 5997   3.678   4.225   0.634 -2.5105 -0.3010  1.5388
  401MPD2    N1 5998   3.735   4.690   0.679  0.3719 -0.2662  0.3691
  401MPD2    H7 5999   3.808   4.640   0.730 -0.1529 -1.2720  0.1343
  402TMC3    C1 6000   3.549   4.027   0.563  0.4094 -0.4870 -0.3568
  402TMC3    C2 6001   3.609   4.018   0.686 -0.1542 -0.5358  0.2650
  402TMC3    C3 6002   3.643   3.898   0.733  0.0001  0.2938 -0.5421
  402TMC3    C4 6003   3.519   3.913   0.494  0.7166 -0.2849 -0.2058
  402TMC3    C5 6004   3.563   3.799   0.542 -0.8638  0.8725  0.0076
  402TMC3    C6 6005   3.623   3.781   0.663 -0.6182 -0.6852 -0.0983
  402TMC3     C 6006   3.542   4.153   0.498 -0.2071  0.1817 -0.8293
  402TMC3     O 6007   3.468   4.160   0.402 -0.5155  0.2854  0.0651
  402TMC3     H 6008   3.628   4.103   0.751 -0.3473  0.1361 -0.5506
  402TMC3    H1 6009   3.475   3.924   0.395  0.7894  0.4178 -0.1626
  402TMC3    H2 6010   3.632   3.684   0.711  0.2689  0.0637  1.2423
  402TMC3    C7 6011   3.594   3.698   0.441  0.4479 -0.3941 -0.0156
  402TMC3    C8 6012   3.743   3.890   0.837  0.5380 -0.5644  0.8998
  402TMC3    O1 6013   3.501   3.658   0.368 -0.1128  0.1405  0.6023
  402TMC3    O2 6014   3.799   3.785   0.837  0.0996 -0.1106 -0.0602
  403MPD2     C 6015   2.363   2.961  13.417 -0.5581 -0.0360 -0.0696
  403MPD2    C1 6016   2.408   2.829  13.436  0.2019 -0.5818  0.1636
  403MPD2    C2 6017   2.480   2.792  13.551 -0.4617  0.1338 -0.5598
  403MPD2    C3 6018   2.519   2.888  13.640  0.1234 -0.0707 -0.2239
  403MPD2    C4 6019   2.475   3.020  13.618 -0.0122 -0.3390 -0.2707
  403MPD2    C5 6020   2.383   3.045  13.516 -0.2616 -0.0844 -0.3463
  403MPD2     H 6021   2.505   2.687  13.557  1.3217  0.6850  1.8311
  403MPD2    H1 6022   2.493   3.093  13.696 -1.0651  0.0175 -0.3653
  403MPD2    H2 6023   2.297   3.002  13.341 -0.5724 -2.3105 -1.3001
  403MPD2    H3 6024   2.339   3.145  13.516  0.5603  0.2745  0.2167
  403MPD2     N 6025   2.615   2.850  13.736 -0.0735  0.2850 -0.4283
  403MPD2    H5 6026   2.628   2.750  13.744 -1.2819  0.1516 -0.2244
  403MPD2    N1 6027   2.370   2.735  13.334 -0.6548  0.1834 -0.1737
  403MPD2    H7 6028   2.316   2.778  13.260 -0.5393 -3.1198 -2.1788
  404TMC3    C1 6029   2.341   2.522  13.232  0.2335  0.4631  0.0123
  404TMC3    C2 6030   2.319   2.393  13.257  0.1800 -0.5235  0.6698
  404TMC3    C3 6031   2.297   2.308  13.148  0.5703 -0.1124  0.2086
  404TMC3    C4 6032   2.349   2.568  13.108  0.2423  0.1093  0.4035
  404TMC3    C5 6033   2.323   2.484  13.005  0.2582 -0.2671  0.1900
  404TMC3    C6 6034   2.303   2.352  13.022  0.4219 -0.3428  0.4319
  404TMC3     C 6035   2.385   2.598  13.342 -0.3513  0.5278  0.2106
  404TMC3     O 6036   2.431   2.531  13.435  0.0558 -0.0640 -0.0236
  404TMC3     H 6037   2.362   2.341  13.341 -0.2465 -0.4348  0.9459
  404TMC3    H1 6038   2.371   2.674  13.094 -2.0750  0.3566 -1.2802
  404TMC3    H2 6039   2.295   2.278  12.943 -0.9205  0.4898 -0.2000
  404TMC3    C7 6040   2.352   2.548  12.881  0.0118 -0.9346 -0.0210
  404TMC3    C8 6041   2.313   2.165  13.171 -0.1767  0.0575 -0.7257
  404TMC3    O1 6042   2.347   2.672  12.881  0.0844  0.5673  0.1903
  404TMC3    O2 6043   2.391   2.108  13.095 -0.4902 -1.0850  0.0279
  405MPD2     C 6044   2.816   2.747  14.794  0.1656 -0.7700  0.1714
  405MPD2    C1 6045   2.800   2.732  14.662 -0.7432 -0.2109  0.7180
  405MPD2    C2 6046   2.747   2.837  14.588  0.4469  0.1509  0.0898
  405MPD2    C3 6047   2.702   2.959  14.644 -0.5498  0.0713  0.3426
  405MPD2    C4 6048   2.714   2.965  14.783  0.5533  0.3947  0.3962
  405MPD2    C5 6049   2.778   2.868  14.854 -0.5707  0.3790  0.0051
  405MPD2     H 6050   2.744   2.825  14.480  0.5736 -0.3230  0.1403
  405MPD2    H1 6051   2.672   3.054  14.828  1.8067  1.2122 -0.0691
  405MPD2    H2 6052   2.870   2.671  14.848  0.1813 -0.2033  0.9566
  405MPD2    H3 6053   2.800   2.890  14.958  0.7744  1.5934 -0.5318
  405MPD2     N 6054   2.648   3.059  14.561  0.5927  0.1555 -0.4135
  405MPD2    H5 6055   2.643   3.039  14.461 -0.7096  0.4223 -0.4044
  405MPD2    N1 6056   2.824   2.598  14.610  0.6849  0.9738  0.5162
  405MPD2    H7 6057   2.833   2.524  14.678  0.7116  1.2263  0.7879
  406TMC3    C1 6058   2.310   3.329  14.449 -0.1368 -0.0184  0.5911
  406TMC3    C2 6059   2.312   3.266  14.326 -0.4833 -0.4974 -0.1707
  406TMC3    C3 6060   2.414   3.178  14.298  0.6945 -0.5994 -0.0925
  406TMC3    C4 6061   2.416   3.315  14.532  0.2230 -0.1677 -0.1121
  406TMC3    C5 6062   2.526   3.247  14.493  0.0053 -0.1619  0.3370
  406TMC3    C6 6063   2.529   3.176  14.373 -0.1455 -0.1371 -0.7989
  406TMC3     C 6064   2.194   3.404  14.492  1.0257 -0.6254  0.9717
  406TMC3     O 6065   2.208   3.488  14.577 -0.8084  0.3666 -0.2132
  406TMC3     H 6066   2.227   3.271  14.259 -0.4725 -0.2933 -0.1701
  406TMC3    H1 6067   2.401   3.353  14.632  1.6001  1.5225 -0.5523
  406TMC3    H2 6068   2.620   3.145  14.323  0.4472 -1.6992  1.2795
  406TMC3    C7 6069   2.581   3.172  14.601 -0.6450  0.1948  0.5093
  406TMC3    C8 6070   2.394   3.085  14.187 -0.5799 -0.1920 -0.2177
  406TMC3    O1 6071   2.565   3.204  14.719 -0.0827  0.2448  0.2369
  406TMC3    O2 6072   2.292   3.098  14.124 -0.5168  0.3455 -0.3415
  407MPD2     C 6073   1.363   3.974   9.109  0.5916 -0.7036  0.5465
  407MPD2    C1 6074   1.434   3.917   9.213 -0.3132  0.0260  0.2779
  407MPD2    C2 6075   1.366   3.904   9.329  0.2002 -0.2791 -0.2668
  407MPD2    C3 6076   1.231   3.937   9.346  0.3384 -0.2019  0.9952
  407MPD2    C4 6077   1.163   4.003   9.245 -0.6052  0.0851  0.7538
  407MPD2    C5 6078   1.230   4.017   9.124 -0.0477 -0.2286  0.3302
  407MPD2     H 6079   1.414   3.863   9.416  2.2527  0.8308 -0.8698
  407MPD2    H1 6080   1.061   4.031   9.267 -0.9432  1.2431 -2.2845
  407MPD2    H2 6081   1.410   3.987   9.012 -0.2066  0.2560  0.2952
  407MPD2    H3 6082   1.179   4.070   9.045 -1.8323 -1.1783  0.8593
  407MPD2     N 6083   1.162   3.936   9.473  0.2078  0.0206 -0.5809
  407MPD2    H5 6084   1.081   3.995   9.485 -0.6797 -1.3268  0.0201
  407MPD2    N1 6085   1.577   3.905   9.212  0.0175 -0.0998  0.1777
  407MPD2    H7 6086   1.620   3.872   9.298 -0.4386  0.8219  0.7571
  408TMC3    C1 6087   1.806   3.917   9.147 -0.3564 -0.3018  0.2470
  408TMC3    C2 6088   1.829   3.838   9.255  0.0259 -0.3543 -0.0441
  408TMC3    C3 6089   1.953   3.846   9.308  0.0525 -0.1111 -0.8312
  408TMC3    C4 6090   1.893   4.015   9.099 -0.1810 -0.5029 -0.0070
  408TMC3    C5 6091   2.016   4.018   9.160  0.0591  0.0472  1.5929
  408TMC3    C6 6092   2.050   3.931   9.259 -0.6642 -0.8996  0.2892
  408TMC3     C 6093   1.670   3.938   9.107  0.6659  0.1453  0.4698
  408TMC3     O 6094   1.648   3.983   8.996 -0.1240 -0.4810 -0.1773
  408TMC3     H 6095   1.759   3.758   9.276 -0.8760  0.6497  0.7564
  408TMC3    H1 6096   1.866   4.082   9.018 -1.2466  2.1107  2.5351
  408TMC3    H2 6097   2.142   3.955   9.311 -0.6621 -0.0321 -0.1254
  408TMC3    C7 6098   2.099   4.138   9.145 -0.7819  0.8028  0.4760
  408TMC3    C8 6099   2.005   3.733   9.386  0.0899 -1.0338 -0.5658
  408TMC3    O1 6100   2.188   4.160   9.229  0.1638 -0.5423  0.0927
  408TMC3    O2 6101   1.958   3.622   9.361  0.1201  0.3453 -0.1336
  409MPD2     C 6102   4.388   0.532  16.757 -0.5419 -0.5682  0.0926
  409MPD2    C1 6103   4.485   0.436  16.726  0.1016  0.1537 -0.5464
  409MPD2    C2 6104   4.601   0.486  16.654 -1.1624 -0.3442  0.0938
  409MPD2    C3 6105   4.617   0.613  16.610 -0.5210  0.3530  0.0006
  409MPD2    C4 6106   4.511   0.700  16.631  0.7072  0.4737  0.9894
  409MPD2    C5 6107   4.401   0.662  16.707 -0.0649  0.2676 -0.1245
  409MPD2     H 6108   4.674   0.418  16.612 -0.7603 -0.9751  1.8116
  409MPD2    H1 6109   4.511   0.803  16.595  0.9264 -0.1717 -0.8455
  409MPD2    H2 6110   4.303   0.510  16.821  0.9140 -0.3278  2.1403
  409MPD2    H3 6111   4.325   0.733  16.736 -0.0056  0.5105 -0.5548
  409MPD2     N 6112   0.009   0.663  16.552 -0.0653  0.4068  0.9963
  409MPD2    H5 6113   4.723   0.760  16.526 -0.0745 -0.2423 -1.4139
  409MPD2    N1 6114   4.469   0.298  16.750  1.4174 -0.0564  0.2639
  409MPD2    H7 6115   4.548   0.239  16.724  0.4177 -1.6422  0.7705
  410TMC3    C1 6116   0.228   0.716  16.506  0.6266 -1.0753 -0.4934
  410TMC3    C2 6117   0.358   0.688  16.527  0.4405 -0.0908  0.2615
  410TMC3    C3 6118   0.458   0.763  16.464 -0.0824  0.3424 -0.3387
  410TMC3    C4 6119   0.195   0.799  16.398  0.3270 -0.2479  0.6394
  410TMC3    C5 6120   0.287   0.879  16.343  0.2983  0.1553 -0.3294
  410TMC3    C6 6121   0.422   0.867  16.382  0.1301  0.0396  0.2495
  410TMC3     C 6122   0.134   0.606  16.534 -0.1991  0.6339  0.4270
  410TMC3     O 6123   0.180   0.495  16.561 -0.0347  0.2623 -0.2264
  410TMC3     H 6124   0.386   0.608  16.594 -0.8685  0.6386  1.6792
  410TMC3    H1 6125   0.092   0.818  16.371  0.6530  1.0402  0.2965
  410TMC3    H2 6126   0.505   0.916  16.332 -1.1359  0.3152 -1.5754
  410TMC3    C7 6127   0.265   0.911  16.203  0.1936  0.1162  0.4710
  410TMC3    C8 6128   0.594   0.761  16.514 -0.1660 -0.0850  0.2706
  410TMC3    O1 6129   0.180   0.854  16.136  0.1236 -0.0518 -0.4809
  410TMC3    O2 6130   0.641   0.869  16.548 -0.8157 -0.1698 -0.1590
  411MPD2     C 6131   0.286   0.884  14.343  0.3548  0.5023 -0.6072
  411MPD2    C1 6132   0.172   0.888  14.267  0.3382  0.9700  0.3186
  411MPD2    C2 6133   0.118   0.772  14.212  0.8565  0.5926  0.0692
  411MPD2    C3 6134   0.193   0.655  14.227  0.5637  0.2277  0.1415
  411MPD2    C4 6135   0.310   0.651  14.299 -0.0897  0.5574  0.6686
  411MPD2    C5 6136   0.355   0.768  14.353  0.2419  0.0148 -0.0402
  411MPD2     H 6137   0.037   0.779  14.140 -0.2866 -0.2121  1.2912
  411MPD2    H1 6138   0.381   0.570  14.290 -0.6960  0.0593  0.3580
  411MPD2    H2 6139   0.316   0.978  14.388 -0.2698  0.3014  0.2121
  411MPD2    H3 6140   0.452   0.767  14.402 -0.1203 -0.4012  0.6623
  411MPD2     N 6141   0.148   0.533  14.166  0.2104  0.2077  1.1292
  411MPD2    H5 6142   0.219   0.460  14.166  1.4719  1.4434 -1.2811
  411MPD2    N1 6143   0.111   1.017  14.263  0.5106  0.0425 -0.4499
  411MPD2    H7 6144   0.159   1.096  14.304 -1.2109  0.7437  0.1874
  412TMC3    C1 6145   0.017   0.386  14.035  0.1536 -0.4682  0.0151
  412TMC3    C2 6146   4.614   0.352  13.981  0.2200  0.6367  0.0874
  412TMC3    C3 6147   4.613   0.280  13.868 -0.8562 -0.1502  0.2111
  412TMC3    C4 6148   0.133   0.331  13.999  0.9396 -0.5209 -0.3562
  412TMC3    C5 6149   0.130   0.256  13.884  0.4375  0.0611  0.0719
  412TMC3    C6 6150   0.010   0.233  13.816 -0.3163 -0.3107 -0.6641
  412TMC3     C 6151   0.021   0.503  14.117 -0.2896 -0.1615  0.2857
  412TMC3     O 6152   4.647   0.577  14.126 -0.7426 -0.0175  0.4587
  412TMC3     H 6153   4.524   0.407  14.006  0.2134  0.1981  1.0191
  412TMC3    H1 6154   0.226   0.379  14.023  1.0407 -2.1760  2.5737
  412TMC3    H2 6155   0.012   0.197  13.714 -1.0473 -1.9716 -0.0807
  412TMC3    C7 6156   0.233   0.304  13.790 -0.0439  1.0743 -0.4837
  412TMC3    C8 6157   4.535   0.360  13.776 -0.0847  0.0755 -0.2574
  412TMC3    O1 6158   0.184   0.356  13.693 -0.3196 -0.9529  0.4607
  412TMC3    O2 6159   4.415   0.369  13.794  0.1527 -0.1678 -0.4385
  413MPD2     C 6160   1.858   3.815  15.455  0.1324  0.4898  0.6505
  413MPD2    C1 6161   1.818   3.784  15.333 -0.5777  0.5572  0.4759
  413MPD2    C2 6162   1.885   3.681  15.273  0.1612  0.3090 -0.1973
  413MPD2    C3 6163   1.998   3.624  15.319 -0.3279  0.6055 -0.1247
  413MPD2    C4 6164   2.042   3.653  15.447 -0.0792 -0.2843  0.2972
  413MPD2    C5 6165   1.977   3.766  15.499  0.6838  0.0748  0.0152
  413MPD2     H 6166   1.861   3.652  15.171  0.4147 -0.2575 -0.0956
  413MPD2    H1 6167   2.126   3.609  15.500  0.2640 -1.7201 -1.4664
  413MPD2    H2 6168   1.811   3.881  15.527  0.7017 -1.7972  3.1542
  413MPD2    H3 6169   2.008   3.810  15.593  1.9274  0.2436 -0.4613
  413MPD2     N 6170   2.062   3.530  15.232  0.2327 -0.2322 -0.3478
  413MPD2    H5 6171   2.024   3.516  15.139 -0.5156 -0.9576  0.0587
  413MPD2    N1 6172   1.717   3.875  15.276 -0.9179  0.1418  0.4366
  413MPD2    H7 6173   1.679   3.934  15.349  0.2461  0.5408  0.7226
  414TMC3    C1 6174   2.214   3.389  15.149 -0.6401 -0.1071 -0.3800
  414TMC3    C2 6175   2.239   3.253  15.171 -0.2071  0.0582  0.6926
  414TMC3    C3 6176   2.346   3.203  15.102 -0.3419  0.4889 -0.0500
  414TMC3    C4 6177   2.289   3.468  15.063  0.1179  0.2327  0.6602
  414TMC3    C5 6178   2.389   3.407  14.992  0.3638 -0.4581 -0.1570
  414TMC3    C6 6179   2.421   3.275  15.011  0.5576 -0.0852  0.4996
  414TMC3     C 6180   2.175   3.460  15.265 -0.4359  0.1764 -0.4605
  414TMC3     O 6181   2.224   3.441  15.380 -0.0030  0.1506 -0.4944
  414TMC3     H 6182   2.180   3.187  15.234  0.0361  0.2711  1.1463
  414TMC3    H1 6183   2.270   3.575  15.054 -1.7072 -0.0718  0.8212
  414TMC3    H2 6184   2.507   3.231  14.962 -1.0176  0.2071 -2.5910
  414TMC3    C7 6185   2.493   3.495  14.942 -0.8331  0.8681 -0.4723
  414TMC3    C8 6186   2.394   3.079  15.146  0.2709 -0.7333  0.1651
  414TMC3    O1 6187   2.482   3.604  14.988 -0.1828 -0.2802 -0.1949
  414TMC3    O2 6188   2.312   2.999  15.182 -0.1366 -0.1010 -0.0378
  415TMC3    C1 6189   2.571   0.802  10.042 -0.8955 -0.0252 -0.2495
  415TMC3    C2 6190   2.639   0.865   9.936  0.2155  0.2168 -0.2206
  415TMC3    C3 6191   2.577   0.966   9.868  0.3258  0.2026 -0.9929
  415TMC3    C4 6192   2.434   0.833  10.069 -0.5516  0.0917  0.0399
  415TMC3    C5 6193   2.380   0.935   9.996  0.0105 -0.2314 -0.1697
  415TMC3    C6 6194   2.451   1.003   9.901  0.0225  0.5554 -0.4126
  415TMC3     C 6195   2.625   0.686  10.114 -0.5390 -0.1625  0.4319
  415TMC3     O 6196   2.544   0.615  10.168 -0.1711 -0.1238  0.3897
  415TMC3     H 6197   2.737   0.826   9.913 -1.0493 -1.7524 -2.3587
  415TMC3    H1 6198   2.376   0.794  10.152 -0.7514  2.0176  0.8177
  415TMC3    H2 6199   2.396   1.076   9.842  0.7609  1.7825  0.4176
  415TMC3    C7 6200   2.236   0.937   9.974  0.1700 -0.9652 -0.3572
  415TMC3    C8 6201   2.647   1.052   9.779 -0.3072 -0.0346  0.1995
  415TMC3    O1 6202   2.188   0.995   9.876 -0.0595  0.0868 -0.0267
  415TMC3    O2 6203   2.568   1.133   9.725 -0.8733  0.2696 -0.6130
  416MPD2     C 6204   0.218   1.277  11.019  0.1201 -0.1209 -0.6419
  416MPD2    C1 6205   0.135   1.177  11.061 -0.0973  0.7056  0.0054
  416MPD2    C2 6206   0.141   1.055  11.001 -0.7703 -0.3916  0.4515
  416MPD2    C3 6207   0.232   1.025  10.898 -0.7403  0.2051 -0.0896
  416MPD2    C4 6208   0.307   1.128  10.844 -0.1720 -0.2961 -0.3043
  416MPD2    C5 6209   0.301   1.253  10.912  0.2595  0.1881  0.0944
  416MPD2     H 6210   0.076   0.978  11.039 -0.1710 -0.1036  2.0316
  416MPD2    H1 6211   0.376   1.118  10.761  0.3524  0.4840  0.0431
  416MPD2    H2 6212   0.211   1.378  11.059 -0.1421  0.0427 -1.0960
  416MPD2    H3 6213   0.353   1.341  10.875  2.1675 -0.1626  1.9801
  416MPD2     N 6214   0.247   0.887  10.863  0.0805 -0.4168  0.1149
  416MPD2    H5 6215   0.194   0.821  10.918  0.9497 -1.0371  0.2133
  416MPD2    N1 6216   0.035   1.214  11.151  0.0286 -0.3819 -0.1724
  416MPD2    H7 6217   0.034   1.310  11.184  1.6387 -0.1811 -0.7140
  417TMC3    C1 6218   4.545   1.215  11.238  1.1446  0.5760  0.2166
  417TMC3    C2 6219   4.467   1.143  11.322  0.0424  0.2830 -0.3333
  417TMC3    C3 6220   4.349   1.201  11.366  0.1547 -0.0386 -0.2248
  417TMC3    C4 6221   4.522   1.339  11.203 -0.0941  0.2229  0.1186
  417TMC3    C5 6222   4.403   1.396  11.239 -0.3410  0.5851  0.4121
  417TMC3    C6 6223   4.323   1.327  11.321  0.2251 -0.2971 -0.1052
  417TMC3     C 6224   4.649   1.140  11.183 -0.4225 -0.9466  0.4320
  417TMC3     O 6225   4.616   1.025  11.157 -0.0112 -0.4789 -0.4815
  417TMC3     H 6226   4.487   1.039  11.344 -0.7995  0.2034  0.0739
  417TMC3    H1 6227   4.581   1.390  11.127  1.6737  0.4822  1.6808
  417TMC3    H2 6228   4.233   1.376  11.356  0.0967 -1.6017  1.3926
  417TMC3    C7 6229   4.343   1.482  11.138 -0.6403  0.5255  0.2986
  417TMC3    C8 6230   4.236   1.128  11.415  0.5501  0.8602  0.2890
  417TMC3    O1 6231   4.417   1.563  11.083 -0.2670  0.2387 -0.1112
  417TMC3    O2 6232   4.126   1.178  11.403 -0.3617 -0.2153 -0.3684
  418TMC3    C1 6233   3.300   2.644  16.970 -1.0090 -0.3886 -0.0887
  418TMC3    C2 6234   3.180   2.687  16.913  0.1030 -0.1346 -0.7816
  418TMC3    C3 6235   3.088   2.743  16.997 -0.0117  0.3923 -0.9450
  418TMC3    C4 6236   3.327   2.667  17.106  0.0526 -0.6373 -0.4904
  418TMC3    C5 6237   3.229   2.720  17.184 -0.2029  0.8118  0.2202
  418TMC3    C6 6238   3.114   2.753  17.130 -0.4385 -0.5147  0.6778
  418TMC3     C 6239   3.366   2.527  16.919 -0.7610 -0.6730  0.1597
  418TMC3     O 6240   3.391   2.531  16.796  0.3473  0.4249  0.2740
  418TMC3     H 6241   3.153   2.673  16.809  0.6321 -0.1204 -0.9173
  418TMC3    H1 6242   3.425   2.654  17.151  1.7711  4.5437 -2.8233
  418TMC3    H2 6243   3.048   2.788  17.208 -1.2403 -0.3917 -0.0621
  418TMC3    C7 6244   3.251   2.734  17.328 -0.6140  0.4065 -0.3792
  418TMC3    C8 6245   2.958   2.764  16.943 -0.1746  0.3997  0.5308
  418TMC3    O1 6246   3.160   2.689  17.398  0.3532 -0.1104  0.5596
  418TMC3    O2 6247   2.945   2.830  16.841  0.0466 -0.2750 -0.8368
  419MPD2     C 6248   1.872   0.525  12.230  0.2431  0.2813  1.0521
  419MPD2    C1 6249   1.856   0.661  12.229 -0.2305 -0.0962  0.1384
  419MPD2    C2 6250   1.783   0.715  12.327  0.5089  0.2577  0.1903
  419MPD2    C3 6251   1.728   0.639  12.428  0.0281  0.1669 -0.4122
  419MPD2    C4 6252   1.753   0.505  12.431  0.4618 -0.0652 -0.3913
  419MPD2    C5 6253   1.825   0.451  12.335 -0.3931 -0.0032 -0.0105
  419MPD2     H 6254   1.754   0.819  12.319 -1.4077 -0.2515  0.5043
  419MPD2    H1 6255   1.729   0.448  12.520  2.2445 -2.3930 -1.4171
  419MPD2    H2 6256   1.938   0.479  12.158 -0.5123  0.4408  0.2709
  419MPD2    H3 6257   1.845   0.345  12.339 -0.6962 -0.1153 -1.2443
  419MPD2     N 6258   1.643   0.708  12.523 -0.1562 -0.0967 -0.2239
  419MPD2    H5 6259   1.614   0.804  12.508 -0.3101 -0.2961 -1.2367
  419MPD2    N1 6260   1.900   0.747  12.131  0.2084 -0.0848  0.4042
  419MPD2    H7 6261   1.876   0.846  12.141  0.1557 -0.1042  0.4650
  420TMC3    C1 6262   1.547   0.766  12.728  0.0128 -0.9378 -0.6972
  420TMC3    C2 6263   1.479   0.863  12.663  0.3172 -0.3062 -0.6681
  420TMC3    C3 6264   1.461   0.983  12.734  0.2793 -0.0556  0.0758
  420TMC3    C4 6265   1.576   0.774  12.866  0.4955  0.7710  0.4645
  420TMC3    C5 6266   1.546   0.892  12.934 -0.3424  0.2873 -0.2592
  420TMC3    C6 6267   1.488   0.999  12.867  0.0001  0.7019 -0.2926
  420TMC3     C 6268   1.615   0.666  12.650 -0.3846  0.6557  0.8330
  420TMC3     O 6269   1.664   0.571  12.713 -0.0935 -0.1388 -0.1009
  420TMC3     H 6270   1.438   0.862  12.562 -2.2026 -1.1240  0.3811
  420TMC3    H1 6271   1.631   0.695  12.916 -0.7638 -2.1006 -2.7227
  420TMC3    H2 6272   1.446   1.088  12.911 -1.9566 -0.6345  0.5815
  420TMC3    C7 6273   1.553   0.890  13.080 -0.2274  0.1510  0.2301
  420TMC3    C8 6274   1.364   1.078  12.669 -0.0276  0.9121 -0.1187
  420TMC3    O1 6275   1.534   0.777  13.130 -0.6035 -0.3360 -0.2176
  420TMC3    O2 6276   1.379   1.101  12.550  0.2491 -0.6247  0.4351
  421TMC3    C1 6277   2.788   2.886  13.897 -0.0557  0.1454 -0.1162
  421TMC3    C2 6278   2.808   2.951  14.020  1.0633 -0.0863 -0.6166
  421TMC3    C3 6279   2.878   2.880  14.120 -0.4648 -0.5390  0.1226
  421TMC3    C4 6280   2.821   2.758  13.882 -0.1784  0.7081 -0.5940
  421TMC3    C5 6281   2.880   2.690  13.989 -0.0568 -1.0137 -0.1616
  421TMC3    C6 6282   2.907   2.746  14.115  1.0942  0.6641  0.8502
  421TMC3     C 6283   2.679   2.941  13.823 -0.0784 -0.0501 -0.0029
  421TMC3     O 6284   2.665   3.059  13.832 -0.1731  0.6949 -0.0819
  421TMC3     H 6285   2.758   3.044  14.042 -1.0183 -0.4801 -3.7437
  421TMC3    H1 6286   2.813   2.712  13.784 -0.4637 -1.4665  0.4521
  421TMC3    H2 6287   2.964   2.698  14.194  1.8056  0.1693  0.0427
  421TMC3    C7 6288   2.928   2.558  13.968  1.1305  0.4202 -0.0537
  421TMC3    C8 6289   2.890   2.944  14.247  0.1903 -0.9285  0.0005
  421TMC3    O1 6290   2.997   2.512  14.058 -0.4930  0.7318 -0.1608
  421TMC3    O2 6291   2.783   2.994  14.294 -0.3712  0.4844 -0.3192
  422TMC3    C1 6292   0.602   3.499  12.589  0.4615  0.2047  0.6416
  422TMC3    C2 6293   0.552   3.625  12.617 -0.1738  0.1148 -0.5768
  422TMC3    C3 6294   0.429   3.620  12.674 -0.1118  0.7596 -0.3467
  422TMC3    C4 6295   0.531   3.382  12.600 -0.1618  0.2062  0.0493
  422TMC3    C5 6296   0.407   3.389  12.649 -0.4493  0.3432  0.5367
  422TMC3    C6 6297   0.348   3.513  12.679  0.4057 -0.1876  0.2799
  422TMC3     C 6298   0.705   3.505  12.484 -0.6875 -0.4752  0.6722
  422TMC3     O 6299   0.750   3.611  12.437 -0.5357  0.1002  0.0776
  422TMC3     H 6300   0.607   3.715  12.591  1.0018  0.1897  2.1638
  422TMC3    H1 6301   0.570   3.287  12.564 -0.6227  0.3351 -0.7986
  422TMC3    H2 6302   0.246   3.521  12.714  0.9636  1.1881  1.6647
  422TMC3    C7 6303   0.323   3.278  12.627 -0.0826 -0.4967 -0.5491
  422TMC3    C8 6304   0.399   3.744  12.738  0.1813  0.3526 -0.4731
  422TMC3    O1 6305   0.356   3.192  12.548 -0.1150 -0.1000  0.2857
  422TMC3    O2 6306   0.456   3.845  12.696  0.2756 -0.6746  0.5320
  423MPD2     C 6307   2.600   4.611   0.625 -0.0865 -0.2691 -0.8144
  423MPD2    C1 6308   2.529   4.493   0.637  0.0647  0.1817  0.0953
  423MPD2    C2 6309   2.457   4.449   0.523  0.1494  0.1633  0.0278
  423MPD2    C3 6310   2.471   4.512   0.403 -0.5486 -0.9725  0.4884
  423MPD2    C4 6311   2.540   4.632   0.394  0.5546 -0.3700  0.1086
  423MPD2    C5 6312   2.609   4.681   0.504 -0.7905  0.2229  0.2745
  423MPD2     H 6313   2.403   4.355   0.515 -0.6388  0.5693  0.5728
  423MPD2    H1 6314   2.545   4.696   0.307  1.0821  0.6156  0.8501
  423MPD2    H2 6315   2.663   4.657   0.700 -1.0567 -1.1121  0.5228
  423MPD2    H3 6316   2.656   0.055   0.500 -2.6688  1.1614  0.8812
  423MPD2     N 6317   2.439   4.454   0.280  0.7951  0.1882 -0.1233
  423MPD2    H5 6318   2.471   4.509   0.201  3.2186  1.3443  1.6780
  423MPD2    N1 6319   2.525   4.414   0.751 -0.0563 -0.0739 -0.1247
  423MPD2    H7 6320   2.460   4.336   0.749  1.2728 -1.1593 -1.4351
  424TMC3    C1 6321   2.559   4.343   0.978  0.0145  1.1401 -0.4046
  424TMC3    C2 6322   2.595   4.219   0.930  0.0502 -0.4064 -0.3182
  424TMC3    C3 6323   2.656   4.133   1.016 -0.1376  1.0593 -0.4254
  424TMC3    C4 6324   2.580   4.373   1.108  0.2277 -0.4559 -0.1400
  424TMC3    C5 6325   2.631   4.284   1.192 -0.3213 -0.0570  0.5757
  424TMC3    C6 6326   2.674   4.159   1.153 -0.5651  0.1646 -0.8733
  424TMC3     C 6327   2.573   4.446   0.876  0.4456 -0.1088 -0.0328
  424TMC3     O 6328   2.658   4.534   0.904  0.2011 -0.1817 -0.2730
  424TMC3     H 6329   2.578   4.178   0.831 -0.1696 -2.3955  0.5606
  424TMC3    H1 6330   2.541   4.471   1.134  2.6438  0.6981 -0.8596
  424TMC3    H2 6331   2.728   4.093   1.220 -0.4326  0.3466 -0.8037
  424TMC3    C7 6332   2.669   4.346   1.324  0.0944 -0.4647  0.3340
  424TMC3    C8 6333   2.658   3.998   0.973 -0.2492  0.3145  0.0413
  424TMC3    O1 6334   2.677   4.467   1.312  0.1034 -0.2037 -0.1584
  424TMC3    O2 6335   2.608   3.917   1.046 -0.0410 -0.6756 -0.1240
  425MPD2     C 6336   0.514   4.442  16.924 -0.1612  0.5558  0.1310
  425MPD2    C1 6337   0.507   4.309  16.964  0.0520 -0.1198  0.0072
  425MPD2    C2 6338   0.389   4.260  17.024 -0.6153 -0.1462 -0.1123
  425MPD2    C3 6339   0.285   4.348  17.046  0.4528 -0.6904 -0.4225
  425MPD2    C4 6340   0.291   4.477  17.000 -0.2752 -0.1160  1.1493
  425MPD2    C5 6341   0.405   4.519  16.936 -0.8522 -0.0424  0.4221
  425MPD2     H 6342   0.386   4.162  17.069 -0.3493  0.3612  1.0045
  425MPD2    H1 6343   0.209   4.547  17.012 -0.0772  0.9507 -3.6038
  425MPD2    H2 6344   0.597   4.494  16.879 -0.3232  0.4047 -0.3445
  425MPD2    H3 6345   0.410   4.625  16.913 -0.3243  0.0678  1.0380
  425MPD2     N 6346   0.165   4.293  17.103 -0.4823  0.5642  0.7472
  425MPD2    H5 6347   0.175   4.204  17.151  1.2161  0.2200 -0.2472
  425MPD2    N1 6348   0.630   4.230  16.955 -0.5337  0.0852 -0.1614
  425MPD2    H7 6349   0.703   4.278  16.904  0.0678 -0.3447  0.2852
  426TMC3    C1 6350   0.780   4.060  16.988  0.0512 -0.4506  1.1507
  426TMC3    C2 6351   0.823   4.046  16.867 -0.1934 -0.5248 -0.2361
  426TMC3    C3 6352   0.925   3.958  16.838 -0.1351 -0.4533 -0.5706
  426TMC3    C4 6353   0.840   3.991  17.090  0.3299 -0.5253 -0.3998
  426TMC3    C5 6354   0.939   3.902  17.067 -0.9421 -0.0311  0.4313
  426TMC3    C6 6355   0.981   3.879  16.936  0.5285 -0.0534  0.7180
  426TMC3     C 6356   0.646   4.103  17.008  0.2954  1.0393 -0.5044
  426TMC3     O 6357   0.577   4.042  17.085 -0.3513  0.0535 -0.0698
  426TMC3     H 6358   0.758   4.084  16.789  0.1517  2.6673  1.0488
  426TMC3    H1 6359   0.812   4.020  17.191  1.6435 -1.5966  0.2706
  426TMC3    H2 6360   1.060   3.809  16.912  0.4774  0.2729 -0.4169
  426TMC3    C7 6361   1.011   3.839  17.172  1.0604 -0.1123  0.2628
  426TMC3    C8 6362   0.939   3.899  16.706 -0.3030  0.1697  0.0937
  426TMC3    O1 6363   1.130   3.819  17.152  0.5206 -0.3388 -0.0675
  426TMC3    O2 6364   1.029   3.817  16.692 -0.2128  0.4721  0.1661
  427MPD2     C 6365   3.875   1.239  14.933 -0.3309 -0.0803 -0.4848
  427MPD2    C1 6366   3.895   1.185  15.058 -0.7199  0.5861 -0.2285
  427MPD2    C2 6367   3.803   1.219  15.157 -0.1672  0.4132  0.0999
  427MPD2    C3 6368   3.708   1.311  15.138  0.4311  0.6015  0.0677
  427MPD2    C4 6369   3.691   1.375  15.017  0.3152 -0.6543  0.2285
  427MPD2    C5 6370   3.764   1.324  14.913  1.0228 -0.6807 -0.8280
  427MPD2     H 6371   3.807   1.169  15.253  2.2635 -1.6301 -1.0645
  427MPD2    H1 6372   3.613   1.450  15.004  1.6061  0.7499  0.5873
  427MPD2    H2 6373   3.932   1.203  14.848  1.8326  0.8890  0.5471
  427MPD2    H3 6374   3.730   1.356  14.815 -0.7792 -0.3396 -0.0912
  427MPD2     N 6375   3.606   1.345  15.229 -0.4074  0.0791 -0.0268
  427MPD2    H5 6376   3.541   1.422  15.214  0.7642  0.8999 -0.8962
  427MPD2    N1 6377   3.993   1.093  15.095  0.5822 -0.4051 -0.5596
  427MPD2    H7 6378   4.005   1.072  15.193 -0.5859  1.0576 -0.1043
  428TMC3    C1 6379   4.188   0.968  15.068  0.4100  0.7558  0.4337
  428TMC3    C2 6380   4.160   0.866  15.153 -1.1920  0.7089  0.8822
  428TMC3    C3 6381   4.259   0.775  15.171  0.1480  0.8641 -0.0869
  428TMC3    C4 6382   4.317   0.991  15.023  0.6540  0.6082 -0.2487
  428TMC3    C5 6383   4.411   0.895  15.040  0.0958  0.3617 -0.1640
  428TMC3    C6 6384   4.382   0.787  15.115  0.5767  0.4575 -0.6837
  428TMC3     C 6385   4.084   1.046  15.003 -0.2817 -0.9301 -0.3192
  428TMC3     O 6386   4.092   1.059  14.883  0.1783  0.7913 -0.0830
  428TMC3     H 6387   4.059   0.833  15.173 -1.0577 -0.7360 -0.8495
  428TMC3    H1 6388   4.344   1.076  14.962 -0.0614  0.6385 -0.5214
  428TMC3    H2 6389   4.459   0.713  15.131  1.1064  1.2030  0.2309
  428TMC3    C7 6390   4.545   0.935  15.049 -0.6295 -0.0690  0.3166
  428TMC3    C8 6391   4.225   0.641  15.230  0.7616  0.1420  0.8847
  428TMC3    O1 6392   4.600   0.903  15.156 -0.0476 -0.3937 -0.3970
  428TMC3    O2 6393   4.121   0.638  15.297 -0.8888  0.4716  0.4909
  429MPD2     C 6394   0.068   0.997  17.177 -0.2414  0.2392 -0.1105
  429MPD2    C1 6395   0.146   0.959  17.070  0.1747 -0.2628  0.2886
  429MPD2    C2 6396   0.245   1.043  17.033  0.0805  0.2367  0.2849
  429MPD2    C3 6397   0.267   1.165  17.093  0.3016  0.0705  0.0386
  429MPD2    C4 6398   0.200   1.195  17.204  0.1212  0.1549 -0.5396
  429MPD2    C5 6399   0.104   1.113  17.246  0.0566  0.2723  0.2333
  429MPD2     H 6400   0.309   1.020  16.948 -1.2775  1.7965 -1.1399
  429MPD2    H1 6401   0.216   1.284  17.264 -3.1171  0.1062  0.3968
  429MPD2    H2 6402   4.716   0.933  17.222  1.2862 -1.2004  0.4091
  429MPD2    H3 6403   0.037   1.146  17.325  1.0456  4.0226 -0.4647
  429MPD2     N 6404   0.359   1.260  17.033 -0.9951 -0.0114 -0.4029
  429MPD2    H5 6405   0.415   1.237  16.952  0.1596 -0.1933  0.4372
  429MPD2    N1 6406   0.146   0.835  17.013  0.1286  0.0094  0.0655
  429MPD2    H7 6407   0.226   0.803  16.959 -0.5732  0.9693 -1.5312
  430TMC3    C1 6408   0.461   1.457  16.992 -0.4190  0.4424  0.1738
  430TMC3    C2 6409   0.408   1.562  16.921 -0.0307  0.8168  0.1454
  430TMC3    C3 6410   0.486   1.631  16.832 -0.2759  0.0624 -0.0766
  430TMC3    C4 6411   0.590   1.415  16.980  0.6073  0.3072 -0.3600
  430TMC3    C5 6412   0.671   1.495  16.902 -0.0434 -0.1753  0.0129
  430TMC3    C6 6413   0.617   1.600  16.823  0.2178 -0.0329 -0.5272
  430TMC3     C 6414   0.365   1.390  17.071  0.0714 -0.0764  0.1976
  430TMC3     O 6415   0.306   1.458  17.153 -0.2010 -0.3729 -0.6620
  430TMC3     H 6416   0.303   1.584  16.931 -0.0969  1.1182 -1.1474
  430TMC3    H1 6417   0.636   1.334  17.037 -0.7044 -1.6339 -2.0605
  430TMC3    H2 6418   0.679   1.643  16.745  0.8389  0.4702  0.2508
  430TMC3    C7 6419   0.790   1.427  16.850  0.1001 -0.7169 -0.6262
  430TMC3    C8 6420   0.433   1.681  16.707  0.3445 -0.3114 -0.1357
  430TMC3    O1 6421   0.809   1.311  16.888 -0.2740  0.3929  0.1681
  430TMC3    O2 6422   0.501   1.766  16.652 -0.3013 -0.3462  0.0895
  431MPD2     C 6423   2.154   1.470  12.393  0.0624  0.0709  0.1520
  431MPD2    C1 6424   2.151   1.506  12.260 -0.1243  0.3209  0.4808
  431MPD2    C2 6425   2.116   1.412  12.168 -0.6388 -0.0819  0.3398
  431MPD2    C3 6426   2.080   1.290  12.206 -0.1312 -0.0020 -0.5644
  431MPD2    C4 6427   2.081   1.250  12.338 -0.2560  0.5407  0.9932
  431MPD2    C5 6428   2.113   1.342  12.433  0.0797  0.8673 -0.4844
  431MPD2     H 6429   2.107   1.437  12.063  0.8131 -0.7128  0.0559
  431MPD2    H1 6430   2.051   1.151  12.371  3.2900 -0.7908  0.1740
  431MPD2    H2 6431   2.174   1.542  12.471  0.4381  0.7033 -0.5272
  431MPD2    H3 6432   2.122   1.314  12.538 -1.3914 -1.3585 -0.9468
  431MPD2     N 6433   2.053   1.180  12.118 -0.3131  0.3607  0.9946
  431MPD2    H5 6434   2.031   1.096  12.170 -0.3049  0.1618  0.6752
  431MPD2    N1 6435   2.175   1.642  12.213  0.4425  0.4752  0.4463
  431MPD2    H7 6436   2.204   1.662  12.118 -0.4747 -0.7743 -0.0851
  432TMC3    C1 6437   2.074   1.047  11.922 -0.3821  0.2884  0.1360
  432TMC3    C2 6438   2.079   1.036  11.783 -0.3067  0.1810  0.7882
  432TMC3    C3 6439   2.055   0.915  11.728  0.4484  0.2411  0.0775
  432TMC3    C4 6440   2.029   0.941  12.003  0.2324 -0.3413 -0.6538
  432TMC3    C5 6441   2.001   0.826  11.935 -1.1007 -1.1932  0.0144
  432TMC3    C6 6442   1.999   0.814  11.801  0.1278 -0.4669 -0.3618
  432TMC3     C 6443   2.085   1.180  11.985  0.0164 -0.2014 -0.0485
  432TMC3     O 6444   2.119   1.271  11.915  0.2784  0.4458 -0.3849
  432TMC3     H 6445   2.125   1.112  11.721  0.5049 -0.8057  0.1790
  432TMC3    H1 6446   2.031   0.942  12.111 -0.3084  1.4634 -0.6668
  432TMC3    H2 6447   1.964   0.717  11.764 -1.9386  0.1381 -0.0208
  432TMC3    C7 6448   1.963   0.707  12.014 -0.0415 -0.0166 -0.0542
  432TMC3    C8 6449   2.105   0.892  11.591  0.1302  0.3088 -0.2064
  432TMC3    O1 6450   1.988   0.599  11.964 -0.7818  0.0602 -0.7337
  432TMC3    O2 6451   2.176   0.967  11.527  0.5343 -0.0416  0.6408
  433MPD2     C 6452   1.149   4.616  10.822 -0.3964  0.0913 -0.2609
  433MPD2    C1 6453   1.047   4.547  10.881  0.3719 -0.5079 -0.6722
  433MPD2    C2 6454   1.032   4.553  11.016 -0.5382  0.8639 -0.5581
  433MPD2    C3 6455   1.138   4.593  11.095  0.0402 -0.1771  0.1320
  433MPD2    C4 6456   1.243   4.646  11.030 -0.3279 -0.1090  0.4872
  433MPD2    C5 6457   1.251   4.665  10.893 -0.6472  0.2304 -0.0029
  433MPD2     H 6458   0.945   4.507  11.062 -0.6756  2.1438  0.4590
  433MPD2    H1 6459   1.319   4.693  11.092 -0.4853  0.6733  0.0844
  433MPD2    H2 6460   1.159   4.635  10.716  0.0551  1.0594 -0.0408
  433MPD2    H3 6461   1.331   4.710  10.835 -1.9112 -0.0060 -1.9441
  433MPD2     N 6462   1.121   4.580  11.234  0.2944 -0.6695  0.7871
  433MPD2    H5 6463   1.026   4.567  11.268  0.5991 -1.8493  1.2096
  433MPD2    N1 6464   0.947   4.484  10.801 -0.0042  0.1348 -0.1180
  433MPD2    H7 6465   0.865   4.447  10.847  1.2612  1.0970  2.8962
  434TMC3    C1 6466   0.856   4.378  10.617  0.0702  0.4744 -0.6021
  434TMC3    C2 6467   0.853   4.261  10.690  0.2672  0.1549  0.0371
  434TMC3    C3 6468   0.803   4.151  10.626 -0.7922 -0.2208  0.1309
  434TMC3    C4 6469   0.831   4.379  10.486  0.0628  0.1101 -0.6346
  434TMC3    C5 6470   0.774   4.272  10.431  0.0210 -0.1310  0.3425
  434TMC3    C6 6471   0.752   4.156  10.501  0.2364 -0.6875 -0.5318
  434TMC3     C 6472   0.942   4.481  10.668 -0.0430  0.3540 -0.2354
  434TMC3     O 6473   1.008   4.538  10.584 -0.1251  0.5160  0.0942
  434TMC3     H 6474   0.894   4.247  10.789  0.5938 -1.3990 -0.3132
  434TMC3    H1 6475   0.856   4.468  10.430  1.3935 -1.1045 -2.0107
  434TMC3    H2 6476   0.691   4.083  10.449  1.8384 -1.4396 -1.3393
  434TMC3    C7 6477   0.739   4.267  10.288 -0.2622 -0.0147  0.7583
  434TMC3    C8 6478   0.802   4.023  10.696  0.1455  0.2340  0.3641
  434TMC3    O1 6479   0.683   4.362  10.239  0.1201 -0.3527 -0.7026
  434TMC3    O2 6480   0.824   4.039  10.814  0.1927  0.1622 -0.0766
  435MPD2     C 6481   2.723   0.114  15.303  0.0299 -1.0095 -0.0383
  435MPD2    C1 6482   2.685   0.130  15.433 -0.2238  0.4873 -0.3433
  435MPD2    C2 6483   2.773   0.092  15.533 -0.5437 -0.4018 -0.0166
  435MPD2    C3 6484   2.902   0.049  15.505  0.4478  1.1011 -0.5170
  435MPD2    C4 6485   2.939   0.031  15.373  0.0818  0.3430  0.1259
  435MPD2    C5 6486   2.854   0.078  15.275  0.4028  0.1782  0.3163
  435MPD2     H 6487   2.732   0.102  15.633 -0.9652 -0.0917 -0.2183
  435MPD2    H1 6488   3.031   4.713  15.331 -0.1389  1.8304 -1.8137
  435MPD2    H2 6489   2.664   0.147  15.218  1.1372 -1.3150 -0.9313
  435MPD2    H3 6490   2.869   0.061  15.169 -2.9782 -0.4400 -0.0682
  435MPD2     N 6491   2.964   4.711  15.608  0.1720  0.5267  0.2684
  435MPD2    H5 6492   2.909   4.714  15.694 -0.8409  1.0303 -0.3988
  435MPD2    N1 6493   2.562   0.186  15.470  0.0935 -0.1141 -0.2578
  435MPD2    H7 6494   2.538   0.190  15.569 -0.6013 -2.8002 -0.3018
  436TMC3    C1 6495   2.283   0.433  15.629  0.1567  0.2604  0.4962
  436TMC3    C2 6496   2.381   0.349  15.577 -0.3516  0.3373 -0.8839
  436TMC3    C3 6497   2.352   0.285  15.459  0.7524 -0.4155 -0.0416
  436TMC3    C4 6498   2.151   0.426  15.579  0.3487  0.0168  0.4065
  436TMC3    C5 6499   2.128   0.357  15.465  0.3258 -0.1682 -0.0201
  436TMC3    C6 6500   2.229   0.287  15.403 -1.3393  0.1546  0.3567
  436TMC3     C 6501   2.304   0.507  15.749  0.4914  0.8835 -0.0723
  436TMC3     O 6502   2.416   0.511  15.797  0.3167  0.5756 -0.2265
  436TMC3     H 6503   2.479   0.348  15.625 -0.8832  1.3576  0.2361
  436TMC3    H1 6504   2.071   0.494  15.606 -1.8973 -2.4907  0.0403
  436TMC3    H2 6505   2.212   0.230  15.313  0.4475  1.3265 -0.7279
  436TMC3    C7 6506   1.992   0.338  15.405  0.0762 -0.8661  0.0143
  436TMC3    C8 6507   2.458   0.216  15.383  0.4560 -0.0737  0.8019
  436TMC3    O1 6508   1.986   0.260  15.311  0.9935  0.4755  0.5185
  436TMC3    O2 6509   2.448   0.222  15.264  0.1146 -0.3202  0.5666
  437TMC3    C1 6510   1.505   1.765  12.474 -0.0309 -1.5703  0.2062
  437TMC3    C2 6511   1.421   1.804  12.575 -0.3815  0.4038  0.0906
  437TMC3    C3 6512   1.308   1.864  12.546  0.5891 -0.1982 -0.2965
  437TMC3    C4 6513   1.483   1.797  12.342 -0.3715  0.5225 -0.7320
  437TMC3    C5 6514   1.372   1.866  12.315  0.3765  0.3190 -0.5673
  437TMC3    C6 6515   1.281   1.897  12.415 -0.1696 -0.1039 -0.3616
  437TMC3     C 6516   1.626   1.692  12.511 -0.3039  0.2577  0.4814
  437TMC3     O 6517   1.705   1.680  12.418 -0.0937  0.3002  0.1498
  437TMC3     H 6518   1.436   1.776  12.679  2.2910 -1.4926 -0.8100
  437TMC3    H1 6519   1.547   1.768  12.259  0.8460  0.2307  0.3057
  437TMC3    H2 6520   1.201   1.966  12.389 -0.1075  0.7340  1.6449
  437TMC3    C7 6521   1.371   1.943  12.196  0.1231 -0.0279 -0.1969
  437TMC3    C8 6522   1.207   1.886  12.644 -0.3426 -0.4345 -0.1008
  437TMC3    O1 6523   1.262   1.989  12.161  0.4655 -0.7694 -0.1925
  437TMC3    O2 6524   1.130   1.971  12.608  0.0236 -0.0111 -0.0501
  438MPD2     C 6525   3.647   3.017  15.669 -0.6711 -0.6590  0.5744
  438MPD2    C1 6526   3.694   2.895  15.729  0.3031 -0.4450 -1.4661
  438MPD2    C2 6527   3.654   2.860  15.852  0.1306 -0.8814  0.3526
  438MPD2    C3 6528   3.575   2.940  15.926  0.0045 -0.2334 -0.5558
  438MPD2    C4 6529   3.528   3.057  15.876 -0.6123 -0.7732  0.4272
  438MPD2    C5 6530   3.570   3.096  15.753  0.4627  0.0127  0.0580
  438MPD2     H 6531   3.696   2.773  15.901 -0.2230 -0.4731  1.3731
  438MPD2    H1 6532   3.450   3.113  15.927 -0.4879 -0.7694  0.6101
  438MPD2    H2 6533   3.658   3.046  15.565  1.6930 -0.2603  0.9262
  438MPD2    H3 6534   3.539   3.193  15.715  2.8113 -0.1633 -2.2662
  438MPD2     N 6535   3.510   2.908  16.044  0.0844  0.5758 -0.0399
  438MPD2    H5 6536   3.447   2.971  16.092 -0.7723 -0.6030  0.3726
  438MPD2    N1 6537   3.783   2.807  15.665  0.3330  0.2907 -0.0737
  438MPD2    H7 6538   3.791   2.716  15.711 -3.3017  0.4033  0.8352
  439TMC3    C1 6539   3.941   2.717  15.504 -0.4303 -0.6039  0.5481
  439TMC3    C2 6540   4.053   2.745  15.427 -0.0922 -0.1804 -0.2436
  439TMC3    C3 6541   4.139   2.638  15.388 -0.4945  0.4460  0.5518
  439TMC3    C4 6542   3.901   2.583  15.523  0.4909 -0.2587  0.2930
  439TMC3    C5 6543   3.984   2.487  15.477 -0.1793  0.6048 -0.4897
  439TMC3    C6 6544   4.106   2.505  15.419 -0.2571  0.4574 -0.5432
  439TMC3     C 6545   3.854   2.829  15.551  0.8873  0.9162  0.8981
  439TMC3     O 6546   3.870   2.935  15.487  0.1873  0.0817  0.1949
  439TMC3     H 6547   4.069   2.849  15.403 -0.2542  0.4603  2.3924
  439TMC3    H1 6548   3.809   2.559  15.574 -0.0940  0.2000 -0.5566
  439TMC3    H2 6549   4.163   2.418  15.390 -2.3500 -0.9811 -0.3681
  439TMC3    C7 6550   3.957   2.354  15.530 -0.2298  0.2365  0.4772
  439TMC3    C8 6551   4.270   2.654  15.332  0.0697 -0.3370 -0.5449
  439TMC3    O1 6552   3.876   2.281  15.472  0.2807  0.1017 -0.2854
  439TMC3    O2 6553   4.323   2.547  15.312  0.1156 -0.0516 -0.0550
  440MPD2     C 6554   2.329   2.799  14.584 -0.1816 -0.5478  0.1392
  440MPD2    C1 6555   2.274   2.794  14.712 -0.0223  0.7566  0.1626
  440MPD2    C2 6556   2.288   2.685  14.790 -0.3065  0.0860 -0.3597
  440MPD2    C3 6557   2.365   2.572  14.742 -0.0631 -0.4743  0.9053
  440MPD2    C4 6558   2.416   2.581  14.617 -0.7119 -0.2124  0.0487
  440MPD2    C5 6559   2.386   2.687  14.537  0.5709 -1.0300  0.1374
  440MPD2     H 6560   2.252   2.702  14.890  0.6945  0.8833 -0.1295
  440MPD2    H1 6561   2.474   2.494  14.587 -0.0970  0.8847 -1.9652
  440MPD2    H2 6562   2.313   2.876  14.509 -0.8109  1.2489  2.1121
  440MPD2    H3 6563   2.404   2.684  14.430 -0.7878  1.1819 -0.1556
  440MPD2     N 6564   2.399   2.456  14.819 -0.2967  0.6388 -0.4926
  440MPD2    H5 6565   2.474   2.395  14.790 -0.8831 -0.2925 -0.0429
  440MPD2    N1 6566   2.179   2.890  14.761  0.0213  0.2706 -0.7918
  440MPD2    H7 6567   2.121   2.851  14.834  0.7400  0.8111  0.0716
  441TMC3    C1 6568   2.398   2.341  15.019 -0.3284  0.2733  0.2835
  441TMC3    C2 6569   2.529   2.383  15.043 -0.0045 -0.4392  0.4021
  441TMC3    C3 6570   2.584   2.393  15.164 -0.0580  0.6167 -0.0079
  441TMC3    C4 6571   2.330   2.310  15.128  0.5364  0.2519 -0.1171
  441TMC3    C5 6572   2.389   2.300  15.253  0.5455  0.6951  0.6174
  441TMC3    C6 6573   2.517   2.348  15.273  0.0151 -0.0211  0.0468
  441TMC3     C 6574   2.323   2.420  14.931 -0.0444 -0.4732  0.6705
  441TMC3     O 6575   2.222   2.471  14.975  0.1899 -0.0996 -0.1266
  441TMC3     H 6576   2.573   2.438  14.960  0.7777 -0.6539  0.6696
  441TMC3    H1 6577   2.226   2.284  15.112  0.2558  0.0188  2.1291
  441TMC3    H2 6578   2.573   2.335  15.366  2.6250  0.8537 -1.3899
  441TMC3    C7 6579   2.306   2.311  15.367 -0.6409  0.5120  0.0466
  441TMC3    C8 6580   2.678   2.505  15.193 -0.2182 -0.3619 -0.6388
  441TMC3    O1 6581   2.194   2.350  15.346  0.0108  0.5358  0.0644
  441TMC3    O2 6582   2.770   2.486  15.271 -0.0528  0.0792 -0.1744
  442MPD2     C 6583   0.309   3.918  16.207 -0.4235  0.0996  0.3348
  442MPD2    C1 6584   0.203   3.858  16.269 -0.0014 -0.5220  0.5974
  442MPD2    C2 6585   0.210   3.717  16.283  0.5772 -0.0845  0.0168
  442MPD2    C3 6586   0.298   3.649  16.194 -0.6398  0.4522 -0.9969
  442MPD2    C4 6587   0.380   3.712  16.109 -0.1941 -0.5665 -0.3260
  442MPD2    C5 6588   0.395   3.844  16.122 -0.4288 -0.4847  0.5969
  442MPD2     H 6589   0.140   3.671  16.352  1.1280  0.2216  0.7799
  442MPD2    H1 6590   0.429   3.650  16.034 -1.4663  0.9983 -2.4319
  442MPD2    H2 6591   0.314   4.025  16.195  0.9815 -0.2684 -2.4251
  442MPD2    H3 6592   0.467   3.898  16.062  0.4307 -1.8176  0.4399
  442MPD2     N 6593   0.312   3.507  16.195  0.1005  0.2633  0.1576
  442MPD2    H5 6594   0.392   3.478  16.138  0.7868  0.3911  1.0549
  442MPD2    N1 6595   0.108   3.936  16.349 -0.7520  0.5154 -0.0875
  442MPD2    H7 6596   0.049   3.889  16.417  2.3160 -0.9476  1.5639
  443TMC3    C1 6597   4.717   4.123  16.428 -0.4184  0.2653 -0.2518
  443TMC3    C2 6598   4.676   4.248  16.393  0.5856 -0.4023  0.6461
  443TMC3    C3 6599   4.546   4.288  16.429 -0.0974 -0.4650 -0.3358
  443TMC3    C4 6600   4.645   4.035  16.501 -0.2481  0.1999  0.0613
  443TMC3    C5 6601   4.521   4.084  16.540 -0.4245 -1.1632 -0.4485
  443TMC3    C6 6602   4.475   4.209  16.518 -0.6771  0.8414  0.3207
  443TMC3     C 6603   0.102   4.072  16.347  0.5642  0.2116  0.9809
  443TMC3     O 6604   0.152   4.149  16.268  0.5675  0.5456  0.3107
  443TMC3     H 6605   0.006   4.304  16.317  0.4217 -3.6049 -1.8475
  443TMC3    H1 6606   4.688   3.942  16.534 -1.2349 -0.0841  0.5646
  443TMC3    H2 6607   4.369   4.231  16.530 -0.6720 -0.6472  3.0707
  443TMC3    C7 6608   4.483   4.027  16.669  0.8713  0.2799 -0.1282
  443TMC3    C8 6609   4.482   4.410  16.382 -0.2356 -0.1996  0.0135
  443TMC3    O1 6610   4.521   3.912  16.693 -0.2957  0.1632  0.3962
  443TMC3    O2 6611   4.443   4.478  16.477 -0.3096  0.2895  0.3055
  444MPD2     C 6612   0.482   3.473  16.512 -0.7271 -0.1188  0.1659
  444MPD2    C1 6613   0.418   3.353  16.512 -0.3629  0.2262 -0.2145
  444MPD2    C2 6614   0.476   3.241  16.470 -0.5601  0.1587 -0.4287
  444MPD2    C3 6615   0.605   3.247  16.428 -0.0893 -0.7198  0.2601
  444MPD2    C4 6616   0.668   3.366  16.429  0.1375 -0.0393  1.0648
  444MPD2    C5 6617   0.609   3.484  16.462 -0.0957  0.4925  0.3451
  444MPD2     H 6618   0.431   3.143  16.456  1.1471 -0.6533 -0.1849
  444MPD2    H1 6619   0.771   3.372  16.396 -0.3330 -1.8669 -0.6906
  444MPD2    H2 6620   0.426   3.564  16.532 -1.0601 -1.0170  3.3154
  444MPD2    H3 6621   0.655   3.582  16.455 -2.0737  1.5622  2.4937
  444MPD2     N 6622   0.675   3.128  16.403 -0.0722  0.1559 -0.4564
  444MPD2    H5 6623   0.626   3.044  16.375  0.1144 -0.6548  1.6699
  444MPD2    N1 6624   0.285   3.347  16.553  0.6233 -0.3235 -0.1737
  444MPD2    H7 6625   0.252   3.251  16.547  0.9837 -0.4942  0.5792
  445TMC3    C1 6626   0.872   2.989  16.385 -0.0249 -0.7783  0.2979
  445TMC3    C2 6627   0.804   2.887  16.315 -0.8358  0.2416  0.0513
  445TMC3    C3 6628   0.871   2.771  16.281 -1.5766  0.0573  0.2325
  445TMC3    C4 6629   1.000   2.967  16.423  0.4930 -0.3161  0.4971
  445TMC3    C5 6630   1.066   2.846  16.400  0.1816  0.1506  0.2546
  445TMC3    C6 6631   0.996   2.752  16.330 -0.8228 -0.6141  0.2632
  445TMC3     C 6632   0.811   3.120  16.414 -0.3197  0.2678  0.1321
  445TMC3     O 6633   0.899   3.206  16.446  0.1165 -0.4775  0.1012
  445TMC3     H 6634   0.701   2.897  16.283 -1.0189  1.5425  1.0744
  445TMC3    H1 6635   1.053   3.043  16.479 -0.1754  0.6426 -0.1714
  445TMC3    H2 6636   1.042   2.662  16.289 -0.4098  0.5413 -1.8166
  445TMC3    C7 6637   1.215   2.838  16.407  0.1688 -0.2781  0.8853
  445TMC3    C8 6638   0.811   2.658  16.210  0.1081  0.0563 -0.0833
  445TMC3    O1 6639   1.275   2.943  16.435 -0.3650 -0.4720  0.4688
  445TMC3    O2 6640   0.875   2.554  16.203 -0.4174 -0.1277  0.2048
  446MPD2     C 6641   0.677   4.221  11.290 -0.4195 -0.0159 -0.4574
  446MPD2    C1 6642   0.653   4.209  11.157 -0.2265 -0.0606 -0.3519
  446MPD2    C2 6643   0.760   4.203  11.074  0.2960  0.2931  0.5351
  446MPD2    C3 6644   0.888   4.194  11.121 -0.2231  0.2030  0.1184
  446MPD2    C4 6645   0.907   4.215  11.258  0.2200  0.0174 -0.2788
  446MPD2    C5 6646   0.800   4.240  11.340 -0.6683  0.9264 -0.0976
  446MPD2     H 6647   0.744   4.178  10.970 -2.9596 -0.5137  1.2233
  446MPD2    H1 6648   1.002   4.195  11.307  0.0353  1.1695  0.5347
  446MPD2    H2 6649   0.596   4.241  11.359 -1.4117 -1.8437 -1.1019
  446MPD2    H3 6650   0.819   4.253  11.446 -1.1158 -0.2205  0.1268
  446MPD2     N 6651   0.993   4.151  11.027  0.1248  0.0425 -0.2045
  446MPD2    H5 6652   0.956   4.107  10.943  1.5654 -0.3838 -0.6152
  446MPD2    N1 6653   0.526   4.202  11.099 -0.4466  0.0477  0.2981
  446MPD2    H7 6654   0.527   4.194  10.998  4.1198  2.7846  0.1104
  447TMC3    C1 6655   1.197   4.039  10.986  0.2284  0.0484  0.2614
  447TMC3    C2 6656   1.156   4.004  10.857 -0.4593  0.3423 -0.5287
  447TMC3    C3 6657   1.230   3.906  10.796 -0.5432  0.7139  0.1878
  447TMC3    C4 6658   1.307   3.988  11.052 -0.0790  0.8019 -0.5447
  447TMC3    C5 6659   1.377   3.887  10.983  0.4529  0.0215 -0.2843
  447TMC3    C6 6660   1.343   3.851  10.849 -0.8697  0.2759  0.0143
  447TMC3     C 6661   1.125   4.137  11.067  0.1756  0.3672  0.3212
  447TMC3     O 6662   1.182   4.182  11.162 -0.2793  0.0431  0.7729
  447TMC3     H 6663   1.064   4.043  10.817 -0.3634 -0.4426 -1.5268
  447TMC3    H1 6664   1.345   4.019  11.148 -0.8390  1.8054 -0.5619
  447TMC3    H2 6665   1.397   3.775  10.793 -2.1042 -0.0278 -0.7591
  447TMC3    C7 6666   1.502   3.825  11.034  0.5346 -0.7613 -0.1551
  447TMC3    C8 6667   1.199   3.872  10.659 -0.8832 -0.4914 -0.7730
  447TMC3    O1 6668   1.578   3.780  10.947 -0.4127 -0.7021 -0.4222
  447TMC3    O2 6669   1.155   3.961  10.585  0.8272  0.3038  0.4647
  448TMC3    C1 6670   3.132   0.252  17.012 -0.2874  0.2282  0.0407
  448TMC3    C2 6671   3.228   0.167  16.964  0.1883 -0.0341 -0.0185
  448TMC3    C3 6672   3.304   0.101  17.058 -0.5254  0.3140  0.0539
  448TMC3    C4 6673   3.104   0.264  17.148  1.0686 -0.2740 -0.3351
  448TMC3    C5 6674   3.178   0.194  17.239 -0.2404 -0.1724  0.0071
  448TMC3    C6 6675   3.282   0.115  17.196  0.0637  0.3633 -0.2639
  448TMC3     C 6676   3.035   0.303  16.915  0.7200 -0.0066  0.0572
  448TMC3     O 6677   3.053   0.284  16.797  0.2203  0.0453  0.6877
  448TMC3     H 6678   3.257   0.168  16.859  2.5382  2.3756  0.6505
  448TMC3    H1 6679   3.031   0.338  17.178  0.7150 -1.0042  0.6299
  448TMC3    H2 6680   3.358   0.076  17.262 -1.2088  0.3835  1.2232
  448TMC3    C7 6681   3.154   0.210  17.382  0.0600  0.8331 -0.1877
  448TMC3    C8 6682   3.425   0.037  17.003  0.2958  0.4010 -0.2330
  448TMC3    O1 6683   3.091   0.304  17.421  0.4775  0.4428  0.0573
  448TMC3    O2 6684   3.520   0.026  17.083  0.0408  0.6769 -0.2201
  449MPD2     C 6685   4.351   2.547  13.446 -0.5553 -1.2139 -0.7944
  449MPD2    C1 6686   4.395   2.582  13.321 -0.0070  0.2403 -0.4222
  449MPD2    C2 6687   4.341   2.511  13.214  0.3598  1.2559 -0.3460
  449MPD2    C3 6688   4.260   2.405  13.234  0.0445 -0.0855  0.0608
  449MPD2    C4 6689   4.204   2.382  13.360  0.6431  0.0960  0.1246
  449MPD2    C5 6690   4.260   2.456  13.463 -0.1434  0.1129  0.4775
  449MPD2     H 6691   4.384   2.514  13.114  2.9771 -1.8055  0.6716
  449MPD2    H1 6692   4.131   2.309  13.395 -0.4499  1.4381  0.6371
  449MPD2    H2 6693   4.388   2.599  13.533 -0.7650  0.0029 -1.4335
  449MPD2    H3 6694   4.227   2.442  13.565 -1.5375 -2.2012 -0.2770
  449MPD2     N 6695   4.235   2.317  13.127 -0.4758  0.7218  0.0965
  449MPD2    H5 6696   4.286   2.346  13.044  0.3566 -3.2270 -0.7756
  449MPD2    N1 6697   4.495   2.677  13.286  0.0811  0.0108  0.1087
  449MPD2    H7 6698   4.516   2.688  13.188 -1.2497  0.6494 -0.1163
  450TMC3    C1 6699   4.676   2.818  13.300  0.0862 -0.2473 -0.5284
  450TMC3    C2 6700   0.084   2.806  13.359  0.1501 -0.9428  0.2301
  450TMC3    C3 6701   0.187   2.779  13.266 -0.8025  0.3068  0.0947
  450TMC3    C4 6702   4.663   2.820  13.166  0.3473 -0.0531 -0.2257
  450TMC3    C5 6703   0.045   2.795  13.084  0.5174 -0.4113 -0.2630
  450TMC3    C6 6704   0.172   2.775  13.128 -0.3303  0.0648  0.2508
  450TMC3     C 6705   4.574   2.745  13.372 -0.2017  0.5051  0.2265
  450TMC3     O 6706   4.582   2.751  13.498  0.5368 -0.1661  0.0719
  450TMC3     H 6707   0.104   2.795  13.465 -0.4090 -0.1207  0.4189
  450TMC3    H1 6708   4.565   2.835  13.120 -0.0308 -0.5883  0.4098
  450TMC3    H2 6709   0.252   2.752  13.058  0.0067 -0.5832  0.8482
  450TMC3    C7 6710   4.712   2.689  12.995 -0.3125  0.0586  0.3446
  450TMC3    C8 6711   0.324   2.809  13.314  0.6456 -1.3055 -0.3831
  450TMC3    O1 6712   4.620   2.628  13.045  0.0400 -0.5794 -0.3950
  450TMC3    O2 6713   0.320   2.880  13.415  0.0927 -0.4291 -0.3989
  451MPD2     C 6714   0.809   1.432   1.393 -0.0393  0.0418 -0.0126
  451MPD2    C1 6715   0.833   1.478   1.267  0.1708  0.3049 -0.7298
  451MPD2    C2 6716   0.960   1.450   1.215  0.0805  0.6421 -0.6180
  451MPD2    C3 6717   1.047   1.366   1.280  0.6138 -0.5174 -0.5785
  451MPD2    C4 6718   1.015   1.323   1.407  0.7463  0.7441 -0.2780
  451MPD2    C5 6719   0.892   1.350   1.465 -0.5031 -0.2791  0.1036
  451MPD2     H 6720   0.986   1.492   1.119  2.6899  0.9189  0.2144
  451MPD2    H1 6721   1.082   1.256   1.460 -0.2649 -0.3733 -0.4002
  451MPD2    H2 6722   0.717   1.452   1.446  0.1881 -1.7567  1.0712
  451MPD2    H3 6723   0.872   1.309   1.563  0.3312 -0.2002  0.3060
  451MPD2     N 6724   1.180   1.336   1.230  0.6932 -0.1304 -0.2220
  451MPD2    H5 6725   1.232   1.280   1.298 -0.8239 -1.6442 -0.2913
  451MPD2    N1 6726   0.736   1.565   1.208 -0.6210  0.1422  0.0028
  451MPD2    H7 6727   0.648   1.582   1.256 -0.4361  1.2450 -0.0400
  452TMC3    C1 6728   1.370   1.355   1.080  0.6474  0.0783 -0.1401
  452TMC3    C2 6729   1.442   1.261   1.154  0.0597 -0.1085  0.3523
  452TMC3    C3 6730   1.577   1.251   1.121 -0.3165 -0.2296  0.2840
  452TMC3    C4 6731   1.425   1.430   0.978 -0.3066 -0.3167 -0.0045
  452TMC3    C5 6732   1.558   1.405   0.949  0.1315 -0.2274 -0.5299
  452TMC3    C6 6733   1.638   1.320   1.019 -0.0640  0.4911  0.1482
  452TMC3     C 6734   1.232   1.385   1.113 -0.6265 -0.4777  0.1888
  452TMC3     O 6735   1.170   1.431   1.019 -0.0349  1.0935  0.8728
  452TMC3     H 6736   1.400   1.214   1.242 -0.9796 -2.1120 -1.1903
  452TMC3    H1 6737   1.361   1.496   0.920  1.2135  0.8819 -0.3169
  452TMC3    H2 6738   1.739   1.292   0.992 -0.2961  2.1371 -2.3467
  452TMC3    C7 6739   1.609   1.470   0.832  0.2849  0.7315  0.2291
  452TMC3    C8 6740   1.651   1.140   1.173 -0.4247  0.5404 -0.0739
  452TMC3    O1 6741   1.519   1.506   0.757  0.2983 -0.1825 -0.0970
  452TMC3    O2 6742   1.772   1.131   1.156 -0.4116 -0.1465 -0.1466
  453TMC3    C1 6743   2.993   3.422  11.701 -0.1860 -0.5169  0.3058
  453TMC3    C2 6744   2.917   3.306  11.702  0.2593  0.5325 -0.3422
  453TMC3    C3 6745   2.898   3.240  11.583  0.0435  0.3879 -0.1073
  453TMC3    C4 6746   3.037   3.478  11.578  0.4199  0.6284  0.2723
  453TMC3    C5 6747   3.001   3.412  11.464 -0.2442  1.3814 -0.3484
  453TMC3    C6 6748   2.933   3.298  11.463 -0.2069  0.1826 -0.3449
  453TMC3     C 6749   3.092   3.443  11.805 -0.0847  0.0592 -1.0077
  453TMC3     O 6750   3.144   3.551  11.814  0.1838 -0.1854  0.5609
  453TMC3     H 6751   2.883   3.276  11.800  0.3054  1.8838  0.0767
  453TMC3    H1 6752   3.099   3.566  11.580  0.9599  0.2710 -0.6697
  453TMC3    H2 6753   2.898   3.258  11.369 -1.3063  3.2520 -1.2406
  453TMC3    C7 6754   3.068   3.440  11.337 -0.0039 -0.0544  0.0484
  453TMC3    C8 6755   2.807   3.120  11.588  0.2412  0.9424 -0.1182
  453TMC3    O1 6756   3.075   3.357  11.251 -0.1691  0.3965  0.5948
  453TMC3    O2 6757   2.740   3.104  11.690 -0.5434 -0.5742  0.3908
  454MPD2     C 6758   1.452   2.920  16.017 -0.2387 -0.3054  0.3433
  454MPD2    C1 6759   1.368   3.020  15.972 -0.0285  0.2282  0.4658
  454MPD2    C2 6760   1.348   3.130  16.055  0.6273  0.0076 -0.2196
  454MPD2    C3 6761   1.398   3.124  16.182  0.0987 -0.2400  0.0647
  454MPD2    C4 6762   1.478   3.024  16.226 -0.4240 -0.1875  0.3378
  454MPD2    C5 6763   1.508   2.920  16.140 -0.0189 -0.8235  0.0961
  454MPD2     H 6764   1.278   3.204  16.018  0.5481  0.8052  1.5456
  454MPD2    H1 6765   1.521   3.016  16.326 -0.4830 -0.7087  0.3220
  454MPD2    H2 6766   1.470   2.837  15.949 -0.0714  0.1208 -0.1349
  454MPD2    H3 6767   1.580   2.842  16.162  1.4193  1.3396  3.0680
  454MPD2     N 6768   1.384   3.226  16.274 -0.0907  0.4437 -0.1168
  454MPD2    H5 6769   1.462   3.227  16.339 -0.4546  1.0866  0.3047
  454MPD2    N1 6770   1.310   3.008  15.841  0.2830  0.3892  0.5122
  454MPD2    H7 6771   1.272   3.098  15.816 -1.3234 -0.3839  0.1501
  455TMC3    C1 6772   1.187   3.345  16.188  0.1312 -0.0177  0.4618
  455TMC3    C2 6773   1.150   3.472  16.139  0.2903 -0.6305 -0.1670
  455TMC3    C3 6774   1.025   3.467  16.083 -0.6639 -0.2020  0.5251
  455TMC3    C4 6775   1.114   3.224  16.181 -0.1378  0.6290  0.0601
  455TMC3    C5 6776   0.993   3.235  16.112 -0.1771  0.9143 -0.0834
  455TMC3    C6 6777   0.946   3.352  16.063 -0.2666 -0.4669  0.6826
  455TMC3     C 6778   1.315   3.343  16.257 -0.6564 -0.1057  0.2172
  455TMC3     O 6779   1.346   3.453  16.303  0.3470 -0.3384  0.8724
  455TMC3     H 6780   1.208   3.563  16.140  0.9182 -1.0434  0.5002
  455TMC3    H1 6781   1.153   3.132  16.223 -0.6759 -0.0240 -0.8654
  455TMC3    H2 6782   0.855   3.362  16.005  1.0204  1.4105 -1.0108
  455TMC3    C7 6783   0.946   3.125  16.040 -0.1028  0.3675 -0.3599
  455TMC3    C8 6784   0.942   3.587  16.112  0.4713 -0.5874 -0.3713
  455TMC3    O1 6785   0.834   3.137  15.992  0.7299  0.1364 -0.4413
  455TMC3    O2 6786   0.837   3.586  16.046 -0.3568  0.1767 -0.0276
  456MPD2     C 6787   4.164   3.628  16.438  0.8906 -0.1538 -0.8509
  456MPD2    C1 6788   4.100   3.570  16.547  1.0614 -0.5158 -0.3625
  456MPD2    C2 6789   4.063   3.650  16.654  0.3332  0.0589  0.2505
  456MPD2    C3 6790   4.090   3.789  16.641  0.1702 -0.1019 -0.6682
  456MPD2    C4 6791   4.163   3.840  16.538 -0.5151 -0.1311 -0.4435
  456MPD2    C5 6792   4.204   3.760  16.432 -0.3592 -0.3500 -0.2418
  456MPD2     H 6793   3.995   3.609  16.728  1.2780 -0.1305  1.0103
  456MPD2    H1 6794   4.199   3.943  16.538 -0.4541 -0.1513 -0.2023
  456MPD2    H2 6795   4.195   3.566  16.354  2.6557 -0.7400  0.2341
  456MPD2    H3 6796   4.255   3.787  16.341 -1.3000  0.4696 -0.5214
  456MPD2     N 6797   4.039   3.873  16.741 -0.0015 -0.2794  0.0823
  456MPD2    H5 6798   3.974   3.830  16.806  1.1100 -0.2311  1.2374
  456MPD2    N1 6799   4.060   3.436  16.525 -0.8346  0.8396 -0.2226
  456MPD2    H7 6800   4.093   3.388  16.442  1.2109  2.1421 -0.1559
  457TMC3    C1 6801   3.966   4.070  16.855 -0.5752  0.0120 -0.3511
  457TMC3    C2 6802   3.929   4.201  16.860  0.1521 -0.4009  0.2695
  457TMC3    C3 6803   3.882   4.259  16.971  0.2837 -0.4160  0.7089
  457TMC3    C4 6804   3.940   3.989  16.962 -0.1719  0.0330  0.2515
  457TMC3    C5 6805   3.899   4.049  17.083  0.6484 -0.0120  0.2287
  457TMC3    C6 6806   3.864   4.183  17.085 -0.3538  0.1975  0.7749
  457TMC3     C 6807   4.039   4.018  16.740 -0.1708 -0.1815  0.2546
  457TMC3     O 6808   4.087   4.090  16.657 -0.0733 -0.8414  0.5679
  457TMC3     H 6809   3.968   4.265  16.782 -0.2792 -2.2219 -1.4698
  457TMC3    H1 6810   3.973   3.886  16.965 -0.1095  0.0977  1.6510
  457TMC3    H2 6811   3.823   4.231  17.174  2.5701 -1.3088  2.9525
  457TMC3    C7 6812   3.889   3.955  17.199 -0.2786  0.2429  0.0227
  457TMC3    C8 6813   3.798   4.373  16.960  0.5153 -1.2370 -0.3982
  457TMC3    O1 6814   3.898   3.834  17.172  0.1126 -0.1036 -0.9231
  457TMC3    O2 6815   3.742   4.418  17.057  0.2902 -0.3747  0.1703
  458MPD2     C 6816   1.576   2.238  11.829  0.3293 -0.3095 -0.3220
  458MPD2    C1 6817   1.677   2.177  11.901  0.5957 -0.3137 -0.7336
  458MPD2    C2 6818   1.645   2.077  11.995  0.1593 -0.1213  0.6437
  458MPD2    C3 6819   1.513   2.042  12.023  0.2501 -0.7859  0.3306
  458MPD2    C4 6820   1.412   2.106  11.953  0.2061  0.4169 -0.3748
  458MPD2    C5 6821   1.452   2.217  11.873  0.7263  0.3398  0.0993
  458MPD2     H 6822   1.718   2.046  12.070 -1.2118  0.1021  2.0731
  458MPD2    H1 6823   1.306   2.089  11.967  0.2222  1.8505  1.5151
  458MPD2    H2 6824   1.591   2.329  11.771  2.5187 -1.2393 -1.2060
  458MPD2    H3 6825   1.364   2.268  11.834  1.1840  0.4066 -0.8397
  458MPD2     N 6826   1.494   1.956  12.132 -0.6842  0.0318 -0.0758
  458MPD2    H5 6827   1.578   1.912  12.167 -0.1754 -0.0791 -1.4348
  458MPD2    N1 6828   1.805   2.239  11.904  0.2458 -0.4747 -0.0437
  458MPD2    H7 6829   1.819   2.336  11.878 -2.4680 -0.2947 -0.8142
  459TMC3    C1 6830   2.009   2.254  12.012  0.0344 -0.7665 -0.3838
  459TMC3    C2 6831   2.060   2.365  11.963  0.7741  1.0378  0.5158
  459TMC3    C3 6832   2.100   2.471  12.048 -0.0653 -0.0384 -0.6156
  459TMC3    C4 6833   1.993   2.238  12.143 -0.7515 -0.0521 -0.2894
  459TMC3    C5 6834   2.029   2.344  12.229  0.6409 -0.2808  0.0437
  459TMC3    C6 6835   2.085   2.457  12.185 -0.2187 -0.1378  0.0219
  459TMC3     C 6836   1.918   2.170  11.936  0.4046  0.0475 -0.6301
  459TMC3     O 6837   1.924   2.044  11.939  0.2513  0.3301  0.4075
  459TMC3     H 6838   2.088   2.372  11.859  0.1199  0.2026  0.2905
  459TMC3    H1 6839   1.940   2.154  12.186 -1.2361  1.2503  1.6934
  459TMC3    H2 6840   2.144   2.524  12.246 -1.7731  0.9481  0.3377
  459TMC3    C7 6841   2.021   2.315  12.371 -0.0278  0.0630  0.1580
  459TMC3    C8 6842   2.218   2.527  12.017 -0.0237 -0.1439  0.6418
  459TMC3    O1 6843   1.981   2.200  12.397  0.4994 -0.0092 -0.1447
  459TMC3    O2 6844   2.309   2.450  12.004 -0.4096 -0.7569  0.4155
  460MPD2     C 6845   1.259   3.550  10.482 -1.1252  0.0963  0.7915
  460MPD2    C1 6846   1.232   3.689  10.496 -0.4842 -0.1954  0.0671
  460MPD2    C2 6847   1.204   3.758  10.381  0.4104 -0.6344 -0.1900
  460MPD2    C3 6848   1.201   3.689  10.257 -0.0554 -0.1563 -0.0584
  460MPD2    C4 6849   1.240   3.559  10.247 -0.5834  0.0839 -0.1386
  460MPD2    C5 6850   1.263   3.488  10.359  0.8753 -0.0801 -0.4125
  460MPD2     H 6851   1.193   3.865  10.376  0.8229 -0.5106  1.4218
  460MPD2    H1 6852   1.247   3.511  10.150 -2.2336  1.1911 -0.8026
  460MPD2    H2 6853   1.273   3.484  10.567  0.7830 -0.2568  0.2159
  460MPD2    H3 6854   1.291   3.384  10.368  0.7064  0.1361  2.4885
  460MPD2     N 6855   1.176   3.774  10.148 -0.2949  0.4348 -0.7486
  460MPD2    H5 6856   1.173   3.874  10.165  0.7099  0.4769 -0.8467
  460MPD2    N1 6857   1.234   3.742  10.629  0.5035 -0.2705 -0.1496
  460MPD2    H7 6858   1.250   3.674  10.702 -0.0826 -1.2028 -0.8820
  461TMC3    C1 6859   1.115   3.834   9.925 -0.3688 -0.4554  0.2097
  461TMC3    C2 6860   1.118   3.792   9.793 -0.4115 -0.3555 -0.2951
  461TMC3    C3 6861   1.124   3.902   9.707  0.0367 -0.1561  0.0433
  461TMC3    C4 6862   1.098   3.963   9.969 -0.3439 -0.8309  0.0143
  461TMC3    C5 6863   1.101   4.054   9.870  0.3482 -0.7445  0.0507
  461TMC3    C6 6864   1.130   4.033   9.741  0.4028  0.3003  0.0997
  461TMC3     C 6865   1.154   3.729  10.020  0.4414  0.3645  0.3825
  461TMC3     O 6866   1.166   3.616   9.977 -0.3637  0.0328  0.2538
  461TMC3     H 6867   1.132   3.689   9.760 -0.4009  0.1079 -1.7332
  461TMC3    H1 6868   1.086   3.987  10.074 -1.0141 -1.5181  0.0974
  461TMC3    H2 6869   1.142   4.104   9.660 -1.0708  0.5328  0.0835
  461TMC3    C7 6870   1.084   4.201   9.890  0.8052 -0.3370 -0.5056
  461TMC3    C8 6871   1.193   3.866   9.580  0.2621 -0.1749 -0.2827
  461TMC3    O1 6872   1.060   4.269   9.792  0.1311 -0.2410 -0.6036
  461TMC3    O2 6873   1.270   3.772   9.592 -0.4458 -0.2083 -0.5804
  462TMC3    C1 6874   0.764   4.668  17.137  0.2323 -0.0383 -0.1743
  462TMC3    C2 6875   0.818   4.707  17.017  0.1562  0.4313  0.0435
  462TMC3    C3 6876   0.753   0.087  16.945 -0.1268  0.2854  0.6932
  462TMC3    C4 6877   0.653   4.720  17.194 -0.3286 -0.0324  0.0315
  462TMC3    C5 6878   0.594   0.097  17.122  0.4454 -0.0996  0.2757
  462TMC3    C6 6879   0.641   0.153  16.999 -0.1709  0.3193 -0.7173
  462TMC3     C 6880   0.811   4.545  17.195 -0.7200  0.1485  0.1737
  462TMC3     O 6881   0.922   4.501  17.162  0.4056 -0.0475 -0.1480
  462TMC3     H 6882   0.903   4.657  16.972  0.9327  1.3872  0.4513
  462TMC3    H1 6883   0.621   4.698  17.295 -0.8891  0.8260  0.0347
  462TMC3    H2 6884   0.589   0.221  16.933 -0.6419 -1.3193 -2.0438
  462TMC3    C7 6885   0.488   0.173  17.192 -0.2568  0.3898 -0.0629
  462TMC3    C8 6886   0.767   0.079  16.804 -0.6730 -0.2715  0.5097
  462TMC3    O1 6887   0.440   0.117  17.286 -0.0321 -0.0806 -0.1680
  462TMC3    O2 6888   0.675   0.120  16.737  0.1078  0.0952  0.4718
  463MPD2     C 6889   2.291   3.130   1.039 -0.9373  0.2919  0.0945
  463MPD2    C1 6890   2.290   3.249   1.106 -0.7091 -0.0631  0.0371
  463MPD2    C2 6891   2.396   3.335   1.115  0.3407 -0.1796  0.3464
  463MPD2    C3 6892   2.509   3.310   1.043 -0.0476  0.0918  0.6545
  463MPD2    C4 6893   2.515   3.184   0.976  0.5679  0.5002 -0.0926
  463MPD2    C5 6894   2.407   3.100   0.973  0.3672 -0.0337 -0.1671
  463MPD2     H 6895   2.383   3.425   1.173 -2.6849  0.0339 -0.6757
  463MPD2    H1 6896   2.596   3.159   0.908 -1.2099  3.3928 -3.2705
  463MPD2    H2 6897   2.218   3.051   1.052  0.3193 -0.7326  0.9270
  463MPD2    H3 6898   2.404   3.011   0.911 -4.3610 -0.4681  0.7043
  463MPD2     N 6899   2.622   3.393   1.042 -0.0249 -0.0699  0.0854
  463MPD2    H5 6900   2.699   3.365   0.983  0.2158 -0.4631  0.5846
  463MPD2    N1 6901   2.167   3.286   1.176 -0.2993  0.4499  0.4278
  463MPD2    H7 6902   2.177   3.377   1.219 -1.1623 -0.3864  2.4079
  464TMC3    C1 6903   1.948   3.324   1.217 -0.5326  0.7327 -0.6360
  464TMC3    C2 6904   1.972   3.434   1.291  0.6973 -0.7537  0.2617
  464TMC3    C3 6905   1.867   3.512   1.324  1.0162  0.7387  0.1864
  464TMC3    C4 6906   1.816   3.301   1.181 -0.1737  0.5500  0.1254
  464TMC3    C5 6907   1.714   3.383   1.220 -0.1655 -0.8417 -0.7477
  464TMC3    C6 6908   1.735   3.498   1.283 -1.1125 -0.9947  0.3600
  464TMC3     C 6909   2.046   3.230   1.170  0.1283 -0.5104 -0.3658
  464TMC3     O 6910   2.008   3.149   1.091 -0.1869  0.3349  0.8520
  464TMC3     H 6911   2.061   3.439   1.352  0.3898  0.4336  0.6127
  464TMC3    H1 6912   1.788   3.210   1.128  0.5871  0.5825 -0.3373
  464TMC3    H2 6913   1.658   3.568   1.311 -0.8134 -1.6845  2.8908
  464TMC3    C7 6914   1.585   3.323   1.225 -0.2605 -0.0260 -0.0629
  464TMC3    C8 6915   1.906   3.637   1.381 -0.6957  0.2149  0.1069
  464TMC3    O1 6916   1.586   3.199   1.202  0.3806 -0.1054  0.1830
  464TMC3    O2 6917   2.025   3.674   1.367 -0.4336  0.1743  0.2634
  465MPD2     C 6918   3.352   3.327  16.334  0.1306  0.1111 -0.1487
  465MPD2    C1 6919   3.227   3.332  16.410  0.3147 -0.0853  0.3962
  465MPD2    C2 6920   3.111   3.295  16.343  0.0224  0.7933  0.4142
  465MPD2    C3 6921   3.114   3.264  16.210  0.5405 -0.5983 -0.7354
  465MPD2    C4 6922   3.232   3.258  16.135  0.4885  0.3356  0.1365
  465MPD2    C5 6923   3.356   3.282  16.195 -0.9509  0.6477  0.3912
  465MPD2     H 6924   3.013   3.279  16.387  0.2664 -1.4280  0.1803
  465MPD2    H1 6925   3.226   3.225  16.032  0.3980 -0.1980  0.3106
  465MPD2    H2 6926   3.448   3.361  16.372 -0.5273  1.8330 -0.0547
  465MPD2    H3 6927   3.443   3.276  16.131  0.1654 -0.1241  1.9757
  465MPD2     N 6928   2.993   3.242  16.147  0.0335 -0.6505  0.0328
  465MPD2    H5 6929   2.912   3.259  16.206 -1.9569  0.3600 -2.9509
  465MPD2    N1 6930   3.228   3.365  16.546  0.3058 -0.6790 -0.0975
  465MPD2    H7 6931   3.143   3.381  16.598  0.1075  2.1247 -1.2308
  466TMC3    C1 6932   2.600   3.244  16.076 -0.5437 -0.4945 -0.1582
  466TMC3    C2 6933   2.561   3.359  16.013  0.9753  0.4074  0.1861
  466TMC3    C3 6934   2.648   3.417  15.931 -0.0853 -0.8591  0.6100
  466TMC3    C4 6935   2.726   3.199  16.074  0.2322 -0.0523  0.3503
  466TMC3    C5 6936   2.818   3.262  15.990  0.5973  0.6129  0.0390
  466TMC3    C6 6937   2.779   3.372  15.921  0.6158  0.2342  0.3042
  466TMC3     C 6938   2.506   3.179  16.165 -0.9229 -0.9949  0.1073
  466TMC3     O 6939   2.542   3.121  16.266 -0.0990  0.1118  0.4811
  466TMC3     H 6940   2.466   3.407  16.034 -0.1409 -0.4495 -2.9052
  466TMC3    H1 6941   2.747   3.103  16.121  0.9829  0.1803  0.4892
  466TMC3    H2 6942   2.855   3.433  15.874 -0.0816  1.2145  0.4417
  466TMC3    C7 6943   2.962   3.249  16.011  0.5114  0.3922 -0.1020
  466TMC3    C8 6944   2.633   3.563  15.923 -0.9023 -0.9579  0.4680
  466TMC3    O1 6945   3.029   3.290  15.917 -0.4973  0.5491 -0.5218
  466TMC3    O2 6946   2.688   3.625  15.833  0.0333  0.2098  0.1746
  467TMC3    C1 6947   3.879   1.483  13.440  0.0270 -0.1876  0.4437
  467TMC3    C2 6948   3.847   1.606  13.480  0.0213 -0.1856  0.1191
  467TMC3    C3 6949   3.714   1.634  13.493 -0.5507 -0.3931  0.1511
  467TMC3    C4 6950   3.779   1.387  13.438 -0.4379 -0.6686  0.1957
  467TMC3    C5 6951   3.651   1.417  13.461  0.2177 -0.3324 -0.3295
  467TMC3    C6 6952   3.609   1.547  13.494 -0.3855 -0.5961  0.4389
  467TMC3     C 6953   4.021   1.449  13.449  0.8585  0.2066 -0.0011
  467TMC3     O 6954   4.089   1.516  13.527 -0.0549 -0.5533  0.0132
  467TMC3     H 6955   3.925   1.680  13.466 -0.9983  1.0362  0.8595
  467TMC3    H1 6956   3.808   1.286  13.410 -1.4367 -0.3903 -1.8496
  467TMC3    H2 6957   3.507   1.579  13.510 -0.6541 -0.2471 -1.9788
  467TMC3    C7 6958   3.554   1.307  13.443  0.0091  0.2842  0.0295
  467TMC3    C8 6959   3.688   1.775  13.528  0.2593 -0.7179  0.0755
  467TMC3    O1 6960   3.581   1.211  13.378 -0.4076 -0.1063  0.2548
  467TMC3    O2 6961   3.783   1.846  13.565  0.6790  0.1560  0.0160
  468MPD2     C 6962   2.896   4.498  10.377  0.2969 -1.0240 -0.4389
  468MPD2    C1 6963   3.002   4.471  10.471 -0.7397  0.0000  0.4261
  468MPD2    C2 6964   3.023   4.341  10.509 -0.2043  0.1446  0.4151
  468MPD2    C3 6965   2.930   4.238  10.467  0.6991 -0.3217 -0.4711
  468MPD2    C4 6966   2.833   4.267  10.377  0.1186  0.7453  0.3888
  468MPD2    C5 6967   2.822   4.394  10.336  0.1139 -0.6329  0.6084
  468MPD2     H 6968   3.095   4.313  10.585 -0.0505 -0.1244  0.1706
  468MPD2    H1 6969   2.778   4.187  10.328  1.0688 -0.1732  0.8115
  468MPD2    H2 6970   2.882   4.598  10.336 -1.1382 -1.7813 -1.7578
  468MPD2    H3 6971   2.740   4.418  10.269  0.7258  0.9952  0.4370
  468MPD2     N 6972   2.964   4.098  10.487 -0.5545  0.2417  0.1719
  468MPD2    H5 6973   2.921   4.029  10.426 -0.7906  0.6508 -0.1260
  468MPD2    N1 6974   3.088   4.576  10.519 -0.2709  0.2651  0.6077
  468MPD2    H7 6975   3.178   4.548  10.558 -1.3677 -1.7977  1.6371
  469TMC3    C1 6976   3.170   0.067  10.572 -0.0467 -0.4537  0.0603
  469TMC3    C2 6977   3.296   0.010  10.588  0.1484 -0.5722 -0.2546
  469TMC3    C3 6978   3.382   0.080  10.674  0.2461 -0.3725  0.2393
  469TMC3    C4 6979   3.135   0.185  10.619  0.3531 -0.4231 -0.6047
  469TMC3    C5 6980   3.231   0.254  10.684  0.9126  0.2998 -0.0539
  469TMC3    C6 6981   3.358   0.204  10.708 -0.5440 -0.3941  0.5126
  469TMC3     C 6982   3.058   4.709  10.520  0.5380  0.2175 -0.1692
  469TMC3     O 6983   2.961   0.049  10.477 -0.2350 -0.2802 -0.2435
  469TMC3     H 6984   3.323   4.644  10.534 -2.2759 -0.6598 -1.3410
  469TMC3    H1 6985   3.035   0.224  10.601  1.0557  0.5790 -2.3346
  469TMC3    H2 6986   3.437   0.271  10.739 -2.2291  2.3040 -1.0026
  469TMC3    C7 6987   3.190   0.381  10.746 -0.0052  0.0653  0.2941
  469TMC3    C8 6988   3.518   0.027  10.702 -0.1590 -0.0802  0.1433
  469TMC3    O1 6989   3.096   0.436  10.691  0.0807  0.6051  0.3137
  469TMC3    O2 6990   3.569   4.669  10.627  0.1634 -0.3842 -0.1607
  470TMC3    C1 6991   4.383   1.549   0.188  0.7299  0.0879 -0.4781
  470TMC3    C2 6992   4.347   1.668   0.245 -0.1340 -0.3988 -0.8212
  470TMC3    C3 6993   4.383   1.698   0.372  0.4472  0.7509 -0.2494
  470TMC3    C4 6994   4.439   1.447   0.263 -0.1003  0.0944 -0.3341
  470TMC3    C5 6995   4.455   1.468   0.397  0.1612 -0.6126  0.4510
  470TMC3    C6 6996   4.435   1.600   0.446  0.1102  0.1354 -0.2221
  470TMC3     C 6997   4.366   1.521   0.051 -0.0858 -0.0719  0.4653
  470TMC3     O 6998   4.344   1.406   0.014 -0.4128 -0.2006 -0.3049
  470TMC3     H 6999   4.319   1.749   0.179 -0.3022  2.0667  2.2745
  470TMC3    H1 7000   4.466   1.354   0.213 -0.9148 -0.9602  1.1613
  470TMC3    H2 7001   4.458   1.626   0.549  1.1820 -0.3523 -0.3412
  470TMC3    C7 7002   4.541   1.377   0.468  1.0434  0.1546 -0.4204
  470TMC3    C8 7003   4.361   1.827   0.432  0.0607  0.4592  0.3610
  470TMC3    O1 7004   4.616   1.303   0.404  0.1672 -0.3144 -0.7962
  470TMC3    O2 7005   4.416   1.846   0.541 -0.2072  0.4838  0.3805
  471MPD2     C 7006   0.162   1.629  16.272 -0.3712  0.8243 -0.1396
  471MPD2    C1 7007   0.293   1.669  16.283 -0.4313 -0.1685 -0.5076
  471MPD2    C2 7008   0.349   1.671  16.412 -0.8446  0.9970  0.6763
  471MPD2    C3 7009   0.277   1.628  16.523 -0.0831  0.3717  0.2360
  471MPD2    C4 7010   0.149   1.580  16.503  0.4650 -0.1752  0.2783
  471MPD2    C5 7011   0.089   1.590  16.378  0.0357  0.4076 -0.5527
  471MPD2     H 7012   0.447   1.717  16.418 -0.5355  0.3420  0.5791
  471MPD2    H1 7013   0.083   1.542  16.579  1.0827  0.0598  0.9275
  471MPD2    H2 7014   0.106   1.631  16.179 -0.7066 -1.0008  0.0275
  471MPD2    H3 7015   4.705   1.575  16.370  0.1034 -0.8502  0.8501
  471MPD2     N 7016   0.315   1.629  16.660 -0.0147  0.4832 -0.5504
  471MPD2    H5 7017   0.254   1.582  16.726  1.2341 -0.4306 -0.0622
  471MPD2    N1 7018   0.373   1.719  16.176  0.5360  0.5760  0.0749
  471MPD2    H7 7019   0.470   1.739  16.195  0.2314  0.9909  1.1812
  472TMC3    C1 7020   0.438   1.757  15.960 -0.2171  0.1515  0.6838
  472TMC3    C2 7021   0.383   1.784  15.836 -0.3434 -0.5249 -0.2324
  472TMC3    C3 7022   0.427   1.708  15.730  1.0616  0.3598  0.0890
  472TMC3    C4 7023   0.544   1.666  15.971 -0.8138  0.0308  0.5660
  472TMC3    C5 7024   0.566   1.576  15.873 -0.5278  0.2283  0.0179
  472TMC3    C6 7025   0.507   1.597  15.750 -0.1423  1.0466  0.1847
  472TMC3     C 7026   0.327   1.734  16.051  0.0206 -0.1065 -0.6152
  472TMC3     O 7027   0.224   1.703  15.993  0.0260 -0.3931 -0.4941
  472TMC3     H 7028   0.296   1.848  15.825  0.5550  0.8059  0.3381
  472TMC3    H1 7029   0.570   1.629  16.069 -1.1770 -0.9656  0.2904
  472TMC3    H2 7030   0.536   1.543  15.660 -1.4506  1.3652 -0.4184
  472TMC3    C7 7031   0.535   1.437  15.918 -0.8029  0.4827 -0.4203
  472TMC3    C8 7032   0.319   1.686  15.634  0.2903  0.0891  0.5029
  472TMC3    O1 7033   0.570   1.403  16.031  0.0916 -0.0606 -0.0040
  472TMC3    O2 7034   0.358   1.673  15.518  0.0301  0.0656  0.2124
  473MPD2     C 7035   0.089   3.917  13.992  0.1357  0.5837 -0.3605
  473MPD2    C1 7036   0.210   3.876  13.941  0.0518  1.9043 -0.0914
  473MPD2    C2 7037   0.333   3.895  14.008  0.4723  0.1638 -0.7711
  473MPD2    C3 7038   0.339   3.971  14.123  0.2476 -0.3451 -0.0795
  473MPD2    C4 7039   0.215   4.011  14.177 -0.7214  0.2946 -0.4425
  473MPD2    C5 7040   0.098   3.991  14.111  0.7037 -0.3542  0.0254
  473MPD2     H 7041   0.420   3.860  13.954  0.8457  1.9846 -1.3641
  473MPD2    H1 7042   0.224   4.057  14.274 -0.8851 -2.1942  0.7627
  473MPD2    H2 7043   4.716   3.904  13.946  0.8683 -0.2021 -1.6495
  473MPD2    H3 7044   0.003   4.024  14.153  0.8934  0.4908 -0.1932
  473MPD2     N 7045   0.456   4.017  14.193  0.1149 -0.2439  0.0878
  473MPD2    H5 7046   0.444   4.070  14.279  1.1461  1.3147 -0.7190
  473MPD2    N1 7047   0.218   3.804  13.818  0.0264 -0.5568 -0.5853
  473MPD2    H7 7048   0.310   3.776  13.785  0.0493 -0.1390 -0.8719
  474TMC3    C1 7049   0.680   4.072  14.224 -0.0557 -0.5431  0.1956
  474TMC3    C2 7050   0.648   4.206  14.215 -0.7377  0.0955  0.7876
  474TMC3    C3 7051   0.720   4.296  14.287  0.5291 -0.8621 -0.6080
  474TMC3    C4 7052   0.776   4.021  14.306 -0.7417 -0.5330  0.7553
  474TMC3    C5 7053   0.839   4.115  14.380  0.9668 -0.2529 -0.1120
  474TMC3    C6 7054   0.816   4.253  14.371 -0.6821 -0.0886 -0.0169
  474TMC3     C 7055   0.587   3.984  14.155  0.8737 -0.2535  0.2943
  474TMC3     O 7056   0.636   3.936  14.056 -0.3062  0.5387 -0.3633
  474TMC3     H 7057   0.570   4.233  14.145 -1.0974 -0.0202  1.1398
  474TMC3    H1 7058   0.790   3.915  14.323 -2.9022 -0.7290  1.3359
  474TMC3    H2 7059   0.870   4.328  14.428  0.9004 -1.7774  0.7140
  474TMC3    C7 7060   0.915   4.065  14.494  0.6495  0.3802  0.4150
  474TMC3    C8 7061   0.640   4.399  14.335  0.0009 -0.0147 -0.5300
  474TMC3    O1 7062   0.950   3.950  14.487 -0.0040  0.2277 -0.0312
  474TMC3    O2 7063   0.613   4.381  14.453  0.2049 -0.0439  0.2849
  475MPD2     C 7064   3.851   2.518  10.301 -0.0317 -0.2216  0.9193
  475MPD2    C1 7065   3.936   2.422  10.243 -0.3969  0.0510 -0.3573
  475MPD2    C2 7066   3.868   2.336  10.152  0.4489  0.1899 -0.2839
  475MPD2    C3 7067   3.729   2.324  10.144 -0.5299 -0.3760 -0.4319
  475MPD2    C4 7068   3.648   2.410  10.219 -1.0058  0.2055  0.1302
  475MPD2    C5 7069   3.713   2.508  10.298  0.0798  0.5443  0.0636
  475MPD2     H 7070   3.923   2.262  10.095  2.3956 -0.1932  2.0960
  475MPD2    H1 7071   3.541   2.411  10.208 -0.8434  1.9536 -1.4193
  475MPD2    H2 7072   3.887   2.588  10.375  1.7174 -0.0653 -0.0686
  475MPD2    H3 7073   3.650   2.574  10.357 -0.2560  2.7343 -2.7230
  475MPD2     N 7074   3.680   2.229  10.050  0.0289 -0.0661 -0.2573
  475MPD2    H5 7075   3.747   2.177   9.995 -0.6100  1.3911 -2.3832
  475MPD2    N1 7076   4.073   2.424  10.271 -0.0980  0.7111  0.1511
  475MPD2    H7 7077   4.104   2.509  10.319 -2.4472 -0.1099  3.1513
  476TMC3    C1 7078   4.294   2.337  10.251 -0.6592 -0.1884 -0.2516
  476TMC3    C2 7079   4.361   2.243  10.172 -1.2332 -0.4954 -0.4986
  476TMC3    C3 7080   4.488   2.273  10.138 -0.1334 -1.0129 -0.2766
  476TMC3    C4 7081   4.347   2.466  10.270  0.9030  0.0775 -0.8995
  476TMC3    C5 7082   4.483   2.481  10.236  0.4881  0.3012  0.2888
  476TMC3    C6 7083   4.555   2.386  10.164  0.6894 -0.3650 -0.7263
  476TMC3     C 7084   4.151   2.315  10.249  0.2347  1.1662 -0.2306
  476TMC3     O 7085   4.114   2.200  10.232  0.1111  0.8775  0.0090
  476TMC3     H 7086   4.317   2.154  10.129  0.9385 -2.3652  1.2028
  476TMC3    H1 7087   4.291   2.552  10.305  0.3171 -1.1576  1.2505
  476TMC3    H2 7088   4.663   2.394  10.159  0.6395 -0.0447 -1.3476
  476TMC3    C7 7089   4.563   2.579  10.306 -0.6093 -0.1526 -0.0851
  476TMC3    C8 7090   4.570   2.180  10.059  0.0499 -0.3227  0.0994
  476TMC3    O1 7091   4.657   2.618  10.240  0.1487  0.0642 -0.2716
  476TMC3    O2 7092   4.668   2.227  10.005 -0.5454 -1.0584 -0.2065
  477MPD2     C 7093   1.615   3.416  11.241 -0.1840 -0.4745  0.2636
  477MPD2    C1 7094   1.511   3.398  11.333 -0.1130  0.3477 -0.1565
  477MPD2    C2 7095   1.539   3.347  11.457  0.1417 -0.3743 -0.0460
  477MPD2    C3 7096   1.670   3.313  11.490  0.1770  0.0679  0.2590
  477MPD2    C4 7097   1.767   3.330  11.395 -0.0857 -0.0603 -0.3758
  477MPD2    C5 7098   1.742   3.380  11.270 -0.0440  0.1036  0.0013
  477MPD2     H 7099   1.458   3.338  11.529  0.1470  1.2025  0.1621
  477MPD2    H1 7100   1.866   3.300  11.428 -0.9740 -1.1261  1.3140
  477MPD2    H2 7101   1.586   3.469  11.151  1.1716 -0.9916 -0.4710
  477MPD2    H3 7102   1.816   3.378  11.190 -0.1883  1.8766 -0.1770
  477MPD2     N 7103   1.708   3.246  11.610 -0.9074  0.4641  0.1420
  477MPD2    H5 7104   1.803   3.212  11.621 -1.4627 -0.4085  2.3133
  477MPD2    N1 7105   1.377   3.433  11.296 -0.4151 -0.0824 -0.1623
  477MPD2    H7 7106   1.356   3.435  11.196 -2.1722  0.9180  0.2218
  478TMC3    C1 7107   1.149   3.454  11.333  0.0665  0.5049 -0.6356
  478TMC3    C2 7108   1.052   3.492  11.429 -0.2746  0.2783  0.0339
  478TMC3    C3 7109   0.939   3.537  11.379  0.7722  0.1592  0.1250
  478TMC3    C4 7110   1.113   3.444  11.201  0.2009  0.0614  0.2186
  478TMC3    C5 7111   0.997   3.493  11.153  0.5273  0.1020 -0.3405
  478TMC3    C6 7112   0.912   3.556  11.244  0.0560 -0.2380  0.0087
  478TMC3     C 7113   1.282   3.452  11.394 -0.7099  0.4507  0.5690
  478TMC3     O 7114   1.286   3.484  11.512 -0.2460  0.2444  0.5760
  478TMC3     H 7115   1.058   3.479  11.537  0.2563 -1.3921 -0.1964
  478TMC3    H1 7116   1.180   3.410  11.123 -0.3134 -0.8968  0.1928
  478TMC3    H2 7117   0.809   3.578  11.218  0.2050  2.5673  1.8033
  478TMC3    C7 7118   0.948   3.481  11.017 -0.0796 -0.8720 -0.2676
  478TMC3    C8 7119   0.863   3.618  11.475  0.4497  0.1196 -0.4218
  478TMC3    O1 7120   1.008   3.398  10.944  0.2315  0.2192  0.2104
  478TMC3    O2 7121   0.744   3.591  11.495 -0.8323  0.4237 -0.8092
  479MPD2     C 7122   0.041   1.126  14.824  0.3050 -0.2441 -0.3761
  479MPD2    C1 7123   4.699   1.097  14.945  0.2767  0.1680  0.5139
  479MPD2    C2 7124   0.035   1.127  15.066 -0.0022  0.1353  0.1334
  479MPD2    C3 7125   0.159   1.199  15.068 -0.3330 -0.1866  0.9354
  479MPD2    C4 7126   0.221   1.218  14.948  0.6081  0.6196 -0.0710
  479MPD2    C5 7127   0.166   1.184  14.826  0.4444 -0.4605  0.1427
  479MPD2     H 7128   0.013   1.081  15.162 -0.5097  0.0875 -0.0036
  479MPD2    H1 7129   0.321   1.260  14.947  1.2302 -0.8135  1.8251
  479MPD2    H2 7130   4.721   1.103  14.727 -3.2977  1.6311  0.8030
  479MPD2    H3 7131   0.222   1.204  14.736  2.1086 -1.3956  0.9696
  479MPD2     N 7132   0.218   1.255  15.185 -0.6715 -0.2464 -0.5177
  479MPD2    H5 7133   0.312   1.290  15.169 -1.1599  1.2856  0.0035
  479MPD2    N1 7134   4.586   1.017  14.943  0.1231 -0.1051  0.0070
  479MPD2    H7 7135   4.543   1.016  14.851 -0.8266 -0.1711  0.4595
  480TMC3    C1 7136   4.594   1.134  15.455  0.7663  0.6172  0.0157
  480TMC3    C2 7137   4.491   1.162  15.368 -0.3672  0.2405  0.2488
  480TMC3    C3 7138   4.528   1.253  15.264  0.0073  0.6032 -0.4033
  480TMC3    C4 7139   4.720   1.181  15.444 -0.4251  0.2422  0.0804
  480TMC3    C5 7140   0.030   1.260  15.338 -0.3733  0.7321 -0.1235
  480TMC3    C6 7141   4.653   1.312  15.254  0.4966  0.0005  0.0073
  480TMC3     C 7142   4.561   1.067  15.582 -0.5232  0.0016 -0.5296
  480TMC3     O 7143   4.645   1.023  15.651  0.1338  0.1699  0.7815
  480TMC3     H 7144   4.389   1.126  15.376 -0.4699  0.7417  1.1511
  480TMC3    H1 7145   0.082   1.151  15.503 -2.2309 -0.0079  2.5600
  480TMC3    H2 7146   4.679   1.383  15.177  2.4936 -0.3924  0.3205
  480TMC3    C7 7147   0.170   1.278  15.310  0.3371 -0.3005  0.0051
  480TMC3    C8 7148   4.423   1.299  15.173 -0.5353  0.4368 -0.9892
  480TMC3    O1 7149   0.245   1.293  15.409 -0.2611 -0.4583  0.3295
  480TMC3    O2 7150   4.305   1.286  15.206  0.0059 -0.5380 -0.0814
  481MPD2     C 7151   2.038   0.788  14.237  0.7754 -0.5212 -0.3211
  481MPD2    C1 7152   1.922   0.716  14.244 -0.0203 -1.0148  0.0074
  481MPD2    C2 7153   1.868   0.685  14.370 -0.7019 -0.8577  0.3110
  481MPD2    C3 7154   1.937   0.727  14.486 -0.1928  0.0880  0.5832
  481MPD2    C4 7155   2.058   0.793  14.469 -0.2005 -0.6812  1.1091
  481MPD2    C5 7156   2.102   0.826  14.344 -1.0203 -0.1890  0.6762
  481MPD2     H 7157   1.771   0.639  14.384 -1.4996  0.5599 -0.6142
  481MPD2    H1 7158   2.117   0.839  14.548  0.5024 -0.8065  0.6517
  481MPD2    H2 7159   2.073   0.811  14.138 -0.0849  1.0391 -0.2668
  481MPD2    H3 7160   2.199   0.873  14.333 -2.3362  2.5048  0.5224
  481MPD2     N 7161   1.878   0.723  14.612 -0.4823  0.4896  0.2498
  481MPD2    H5 7162   1.924   0.774  14.687 -0.6184  0.0105  0.6580
  481MPD2    N1 7163   1.848   0.701  14.127 -0.2501  0.1579  0.0724
  481MPD2    H7 7164   1.895   0.746  14.049 -0.0616  0.5863  0.4278
  482TMC3    C1 7165   1.657   0.661  13.998 -0.6226 -0.5596 -0.0757
  482TMC3    C2 7166   1.548   0.576  13.966 -0.3335  0.1400  0.3966
  482TMC3    C3 7167   1.459   0.609  13.869 -0.4839  0.2574 -0.7612
  482TMC3    C4 7168   1.665   0.783  13.938  0.0505  0.5056  0.3825
  482TMC3    C5 7169   1.587   0.800  13.822 -0.2309  0.0350 -0.3541
  482TMC3    C6 7170   1.478   0.723  13.790  0.5424  0.4520  0.6757
  482TMC3     C 7171   1.742   0.618  14.114  0.6751 -0.7240 -0.1783
  482TMC3     O 7172   1.709   0.512  14.168 -0.3399  0.1173 -0.2987
  482TMC3     H 7173   1.551   0.478  14.012  1.2694  0.3388  0.7250
  482TMC3    H1 7174   1.737   0.859  13.968 -0.3737  1.0503  0.0080
  482TMC3    H2 7175   1.406   0.744  13.713 -0.8839 -0.8530  1.6611
  482TMC3    C7 7176   1.604   0.930  13.750  0.5791  0.4879 -0.1449
  482TMC3    C8 7177   1.359   0.508  13.835 -0.2420 -0.8089  0.4217
  482TMC3    O1 7178   1.642   1.033  13.810 -0.0152 -0.0246 -0.2370
  482TMC3    O2 7179   1.370   0.402  13.898  0.2804  0.1883 -0.4247
  483TMC3    C1 7180   3.874   0.135   0.746  0.8714  0.2504 -0.3901
  483TMC3    C2 7181   3.950   0.233   0.691  0.1063  0.7968 -0.8647
  483TMC3    C3 7182   4.074   0.256   0.740  0.3398 -0.0291  0.1911
  483TMC3    C4 7183   3.918   0.064   0.856 -0.4694 -0.4121 -0.1361
  483TMC3    C5 7184   4.047   0.084   0.898  0.0741 -0.1532 -0.2549
  483TMC3    C6 7185   4.126   0.178   0.842  0.3580 -0.6186  0.9699
  483TMC3     C 7186   3.752   0.097   0.675  0.6730  0.0440 -0.1353
  483TMC3     O 7187   3.698   0.185   0.612 -0.2027 -0.5945  0.1217
  483TMC3     H 7188   3.916   0.289   0.604 -1.0500  1.8041  0.2524
  483TMC3    H1 7189   3.849   4.715   0.899  2.8878 -3.2064  0.5882
  483TMC3    H2 7190   4.231   0.191   0.866  0.6341 -0.6621 -0.1982
  483TMC3    C7 7191   4.111   4.717   0.990 -0.0165 -0.0820 -0.2702
  483TMC3    C8 7192   4.165   0.329   0.656  0.5933 -0.3213 -0.1734
  483TMC3    O1 7193   4.236   4.701   0.991 -0.1823  0.0508 -0.5715
  483TMC3    O2 7194   4.271   0.274   0.633 -0.7193  0.2162 -0.1379
  484MPD2     C 7195   2.277   2.878  11.985 -0.4204  0.2572  0.0309
  484MPD2    C1 7196   2.321   2.746  11.987  0.5112  0.1779  0.2777
  484MPD2    C2 7197   2.446   2.704  11.940 -0.1430  0.6458 -0.7012
  484MPD2    C3 7198   2.535   2.800  11.907 -0.2870 -0.5839  0.2652
  484MPD2    C4 7199   2.493   2.929  11.901  0.3099 -0.1213  0.0341
  484MPD2    C5 7200   2.364   2.968  11.930 -0.1309  0.3227 -0.7357
  484MPD2     H 7201   2.471   2.599  11.947 -1.9581  0.2432 -0.1858
  484MPD2    H1 7202   2.561   3.010  11.875 -2.4262  2.3623  0.5649
  484MPD2    H2 7203   2.181   2.909  12.026 -2.0696 -2.3395 -1.8705
  484MPD2    H3 7204   2.341   3.073  11.915 -0.9359  0.3648  0.8705
  484MPD2     N 7205   2.674   2.780  11.873  0.2609  0.8575 -0.2518
  484MPD2    H5 7206   2.732   2.863  11.876 -1.4316  1.9968  1.6173
  484MPD2    N1 7207   2.215   2.661  12.023  0.4440  0.0244  0.1744
  484MPD2    H7 7208   2.122   2.696  12.046  0.9552  1.9097 -0.6809
  485TMC3    C1 7209   2.874   2.685  11.797  0.4400  0.0598  0.3897
  485TMC3    C2 7210   2.949   2.568  11.801  0.0249  0.3428  0.7629
  485TMC3    C3 7211   3.084   2.592  11.801  0.0303  0.0458 -0.0768
  485TMC3    C4 7212   2.929   2.814  11.794  0.1673 -0.2526 -0.2690
  485TMC3    C5 7213   3.066   2.835  11.809  0.5546  0.1044 -0.9287
  485TMC3    C6 7214   3.144   2.719  11.825  0.0325 -0.7479  0.5117
  485TMC3     C 7215   2.733   2.663  11.834  0.3882  0.9016  0.0283
  485TMC3     O 7216   2.687   2.549  11.820 -0.4692 -0.4538 -0.0965
  485TMC3     H 7217   2.906   2.469  11.800  1.3309 -0.2210  0.3038
  485TMC3    H1 7218   2.865   2.900  11.784  1.0205  0.3282 -0.7432
  485TMC3    H2 7219   3.250   2.737  11.839  0.1096  1.4730 -3.0464
  485TMC3    C7 7220   3.117   2.923  11.708  0.1041 -0.1762  0.2609
  485TMC3    C8 7221   3.155   2.527  11.698 -0.0722 -0.7956  0.0224
  485TMC3    O1 7222   3.081   3.039  11.711 -0.6719 -0.0610 -0.6470
  485TMC3    O2 7223   3.254   2.589  11.659 -0.2904 -0.3598 -0.5491
  486MPD2     C 7224   4.215   1.170  12.087 -0.3112 -0.7918 -0.3392
  486MPD2    C1 7225   4.265   1.236  12.200 -0.2045 -0.5157 -1.1091
  486MPD2    C2 7226   4.258   1.376  12.196  0.0588 -0.4474 -0.3110
  486MPD2    C3 7227   4.206   1.449  12.086  0.3461  0.1358 -0.2740
  486MPD2    C4 7228   4.147   1.373  11.981  0.1074 -0.3359  0.0873
  486MPD2    C5 7229   4.149   1.233  11.980  0.1191 -0.4398  0.4286
  486MPD2     H 7230   4.316   1.434  12.266  0.5496 -2.7993  1.2598
  486MPD2    H1 7231   4.097   1.425  11.900 -0.3534 -2.8746 -1.2390
  486MPD2    H2 7232   4.208   1.062  12.080  0.9532 -0.8093 -1.4206
  486MPD2    H3 7233   4.102   1.177  11.900 -1.2761 -1.1800  1.7603
  486MPD2     N 7234   4.216   1.586  12.088 -0.0080 -0.1612 -0.1519
  486MPD2    H5 7235   4.259   1.631  12.168 -1.9959 -0.2206  0.9521
  486MPD2    N1 7236   4.316   1.164  12.310 -0.0979 -0.0235 -0.0792
  486MPD2    H7 7237   4.303   1.063  12.312 -3.1198  0.3165 -2.3810
  487TMC3    C1 7238   4.418   1.123  12.514  0.5074  0.3400 -0.1989
  487TMC3    C2 7239   4.357   0.998  12.515 -0.0005 -0.2282 -0.7550
  487TMC3    C3 7240   4.371   0.921  12.623  0.1883 -0.1583 -0.0811
  487TMC3    C4 7241   4.485   1.179  12.623  1.1127  0.0517  0.4169
  487TMC3    C5 7242   4.485   1.100  12.734  0.4819  0.2744 -0.1083
  487TMC3    C6 7243   4.431   0.972  12.738  0.3333 -0.1130  0.2261
  487TMC3     C 7244   4.388   1.221  12.411  0.1815  0.0662  0.1458
  487TMC3     O 7245   4.411   1.336  12.437  0.1462  0.4616  0.1389
  487TMC3     H 7246   4.297   0.965  12.431 -0.2933 -0.4569 -0.4612
  487TMC3    H1 7247   4.537   1.274  12.616 -0.1615  0.6319 -1.2370
  487TMC3    H2 7248   4.433   0.916  12.831 -1.4159  0.0521  0.3621
  487TMC3    C7 7249   4.591   1.115  12.835 -0.7494  0.3684  0.5144
  487TMC3    C8 7250   4.271   0.815  12.640 -1.0396  0.2421 -0.1540
  487TMC3    O1 7251   4.614   1.019  12.896 -0.3922 -0.6923 -0.4791
  487TMC3    O2 7252   4.176   0.814  12.566 -0.8086 -0.2930  0.1686
  488MPD2     C 7253   4.447   3.220  16.448  0.4256  0.1145 -0.0947
  488MPD2    C1 7254   4.433   3.357  16.467 -0.2359  0.3449 -0.4036
  488MPD2    C2 7255   4.380   3.402  16.590  0.0014  0.2646 -0.5998
  488MPD2    C3 7256   4.335   3.316  16.688  0.6678  0.4118  1.4002
  488MPD2    C4 7257   4.348   3.183  16.658  0.1323  0.3426 -0.3210
  488MPD2    C5 7258   4.404   3.135  16.543 -0.2741 -0.6067 -0.1098
  488MPD2     H 7259   4.377   3.510  16.594 -0.1567  0.1790  1.5082
  488MPD2    H1 7260   4.314   3.100  16.719  1.6659  0.4231  0.6359
  488MPD2    H2 7261   4.499   3.187  16.359  0.9182 -1.7556  0.8872
  488MPD2    H3 7262   4.415   3.028  16.526 -0.0247 -0.2660 -2.1732
  488MPD2     N 7263   4.285   3.361  16.811 -0.7297  0.3497 -0.0155
  488MPD2    H5 7264   4.293   3.461  16.825 -0.8818  0.1545  1.4075
  488MPD2    N1 7265   4.466   3.452  16.368 -0.1051 -0.2261  0.0361
  488MPD2    H7 7266   4.461   3.551  16.388  1.8351 -0.2597  0.7250
  489TMC3    C1 7267   4.184   3.359  17.019  0.0995 -0.1478  0.0063
  489TMC3    C2 7268   4.168   3.485  16.982  0.3038  0.4497 -0.3615
  489TMC3    C3 7269   4.213   3.578  17.069 -0.6824 -0.0545 -0.6854
  489TMC3    C4 7270   4.226   3.330  17.147  0.3001 -0.2196  0.6146
  489TMC3    C5 7271   4.252   3.431  17.236  0.7757  0.0645 -0.7369
  489TMC3    C6 7272   4.267   3.557  17.190 -0.2499 -0.2521 -1.2357
  489TMC3     C 7273   4.228   3.278  16.906  0.1831  0.9089  0.4167
  489TMC3     O 7274   4.230   3.154  16.916  0.2082 -0.4212  0.2737
  489TMC3     H 7275   4.113   3.518  16.895 -1.1727 -1.7446 -0.2538
  489TMC3    H1 7276   4.237   3.227  17.181  0.1480  0.4257  2.6355
  489TMC3    H2 7277   4.311   3.640  17.243 -0.6166 -1.8680  1.5932
  489TMC3    C7 7278   4.290   3.404  17.374 -0.0789 -0.4930  0.3677
  489TMC3    C8 7279   4.269   3.690  17.002 -0.0115 -0.1946 -0.7788
  489TMC3    O1 7280   4.257   3.296  17.409  0.0015 -0.6765 -0.2020
  489TMC3    O2 7281   4.291   3.663  16.885  0.3861 -0.0502 -0.1253
  490MPD2     C 7282   0.655   3.376  16.790  0.5070 -0.4725 -0.3939
  490MPD2    C1 7283   0.714   3.251  16.766 -1.1690 -0.7445 -0.4320
  490MPD2    C2 7284   0.849   3.233  16.751 -0.8021 -0.7237 -0.1530
  490MPD2    C3 7285   0.927   3.349  16.742  0.1294 -0.8162  0.2657
  490MPD2    C4 7286   0.872   3.470  16.771 -0.7654 -0.6587 -0.0598
  490MPD2    C5 7287   0.741   3.490  16.791  0.5552 -0.4168 -0.4057
  490MPD2     H 7288   0.884   3.133  16.729  2.8821  0.1419  1.6468
  490MPD2    H1 7289   0.932   3.559  16.783  1.3692 -1.9772 -0.9589
  490MPD2    H2 7290   0.552   3.392  16.820  0.9836  0.4944  0.7132
  490MPD2    H3 7291   0.703   3.590  16.807  0.5366 -0.4422 -0.2926
  490MPD2     N 7292   1.065   3.348  16.719  0.3557  0.0600  0.1980
  490MPD2    H5 7293   1.120   3.432  16.733 -1.6927  1.3591  0.4335
  490MPD2    N1 7294   0.639   3.129  16.763  0.0033 -0.4357  0.1909
  490MPD2    H7 7295   0.696   3.045  16.756  0.8537  0.0239  1.5580
  491TMC3    C1 7296   0.456   2.985  16.751 -0.1611 -0.3371 -0.1719
  491TMC3    C2 7297   0.344   2.946  16.809 -0.3385 -0.1338  0.4353
  491TMC3    C3 7298   0.311   2.815  16.791 -0.1600 -0.8603 -0.3977
  491TMC3    C4 7299   0.535   2.902  16.673  0.2625  0.1137 -0.5709
  491TMC3    C5 7300   0.504   2.770  16.665 -0.3020 -0.2185 -0.2653
  491TMC3    C6 7301   0.396   2.725  16.725  0.1955  0.5251 -0.1388
  491TMC3     C 7302   0.506   3.118  16.785  0.0538  0.5581  0.2811
  491TMC3     O 7303   0.432   3.191  16.850 -0.2638  0.0686  0.3779
  491TMC3     H 7304   0.285   3.014  16.869 -0.7342 -1.0185  1.0487
  491TMC3    H1 7305   0.625   2.941  16.627 -1.6523  1.6609 -3.0237
  491TMC3    H2 7306   0.381   2.619  16.741  1.2163  0.0123 -2.5851
  491TMC3    C7 7307   0.600   2.683  16.598 -0.1483  0.4568  0.8263
  491TMC3    C8 7308   0.205   2.764  16.872 -0.5735 -0.2520  0.0985
  491TMC3    O1 7309   0.709   2.733  16.581  0.6779  1.0895  0.1598
  491TMC3    O2 7310   0.166   2.814  16.976  0.8582  0.5836  0.4475
  492MPD2     C 7311   1.523   2.147  11.422 -0.0527  0.3208  0.5267
  492MPD2    C1 7312   1.415   2.191  11.348  0.9455  0.6028  0.6789
  492MPD2    C2 7313   1.288   2.166  11.390 -0.2540  0.4989 -0.2176
  492MPD2    C3 7314   1.268   2.098  11.510 -0.6657 -0.2275  0.3270
  492MPD2    C4 7315   1.379   2.061  11.583  0.1250  0.1302 -0.0685
  492MPD2    C5 7316   1.504   2.091  11.545 -0.5276  0.1214  0.1367
  492MPD2     H 7317   1.203   2.198  11.331  0.5737  0.0232 -1.6539
  492MPD2    H1 7318   1.373   2.020  11.683 -0.1141 -1.4924 -0.7412
  492MPD2    H2 7319   1.626   2.175  11.402 -0.0563 -1.1149 -1.5026
  492MPD2    H3 7320   1.573   2.088  11.627 -1.2689 -0.0710  0.7535
  492MPD2     N 7321   1.142   2.060  11.567 -0.3064 -0.3665 -0.5363
  492MPD2    H5 7322   1.135   2.029  11.663 -1.0611 -1.1048 -0.8309
  492MPD2    N1 7323   1.447   2.250  11.224 -0.1091 -0.2656 -0.2726
  492MPD2    H7 7324   1.543   2.274  11.205 -0.2006  1.1627  1.0215
  493TMC3    C1 7325   1.408   2.340  11.007  0.3416  0.1222  0.0141
  493TMC3    C2 7326   1.541   2.379  11.003 -0.6868  0.0909  0.5826
  493TMC3    C3 7327   1.587   2.454  10.898  0.2964 -0.7185 -0.6385
  493TMC3    C4 7328   1.319   2.382  10.913 -0.4410  0.2594 -0.7620
  493TMC3    C5 7329   1.367   2.458  10.812 -0.2992 -0.0646  0.1794
  493TMC3    C6 7330   1.497   2.493  10.802  0.3243 -0.0247  0.2103
  493TMC3     C 7331   1.351   2.273  11.125  0.6499 -0.2510 -0.1582
  493TMC3     O 7332   1.234   2.241  11.115  0.3901 -0.1919  0.2348
  493TMC3     H 7333   1.614   2.335  11.070 -0.5339 -1.7194 -0.7675
  493TMC3    H1 7334   1.213   2.364  10.907 -0.2046 -1.1153 -0.7130
  493TMC3    H2 7335   1.538   2.565  10.731 -2.5112  0.1114 -1.2987
  493TMC3    C7 7336   1.286   2.458  10.689  0.3290  0.3639  0.2384
  493TMC3    C8 7337   1.730   2.467  10.878 -0.0826 -0.0538  0.2207
  493TMC3    O1 7338   1.185   2.391  10.699 -0.6824  0.1257  0.0038
  493TMC3    O2 7339   1.800   2.390  10.944 -0.3332 -0.1856 -0.3423
  494TMC3    C1 7340   2.013   4.272   0.499 -0.2256 -0.3628  0.0190
  494TMC3    C2 7341   1.914   4.188   0.525  0.2464 -0.1128 -0.1744
  494TMC3    C3 7342   1.818   4.183   0.422 -0.4575 -0.3338  0.1960
  494TMC3    C4 7343   2.030   4.345   0.382  0.0599 -0.1927  0.2029
  494TMC3    C5 7344   1.942   4.322   0.281 -0.5960 -0.2345 -0.3735
  494TMC3    C6 7345   1.830   4.241   0.301  0.8420 -0.0498  0.2278
  494TMC3     C 7346   2.077   4.322   0.624 -0.4146 -0.1714  0.2690
  494TMC3     O 7347   2.087   4.243   0.718 -0.1102  0.0629 -0.7786
  494TMC3     H 7348   1.899   4.141   0.621  1.0218  0.8485  0.4143
  494TMC3    H1 7349   2.122   4.402   0.369  1.0195 -1.6300  0.6678
  494TMC3    H2 7350   1.758   4.233   0.221  0.2422  0.5127  0.7122
  494TMC3    C7 7351   1.951   4.386   0.149  0.3830  0.4389  0.0771
  494TMC3    C8 7352   1.696   4.117   0.453 -1.1609  0.1594  0.2423
  494TMC3    O1 7353   1.889   4.325   0.062  0.0296  0.7506 -0.2876
  494TMC3    O2 7354   1.666   4.094   0.566  0.0269 -0.0629  0.0547
  495TMC3    C1 7355   4.686   1.192  14.218  0.2663  0.3070 -0.6852
  495TMC3    C2 7356   4.601   1.245  14.118 -0.6859 -0.1447 -0.3501
  495TMC3    C3 7357   4.500   1.327  14.161 -0.3554  0.1961 -0.5119
  495TMC3    C4 7358   4.664   1.220  14.350 -0.2510 -0.1383  0.3686
  495TMC3    C5 7359   4.567   1.313  14.378 -0.1422 -0.7141 -0.0741
  495TMC3    C6 7360   4.478   1.367  14.287 -0.0840  0.0834 -0.5198
  495TMC3     C 7361   4.720   1.056  14.200 -0.0174 -0.8180  0.5346
  495TMC3     O 7362   4.642   0.999  14.125  0.0687  0.4833 -0.4562
  495TMC3     H 7363   4.620   1.222  14.014 -0.2165  1.2024 -0.5595
  495TMC3    H1 7364   4.708   1.172  14.437 -0.0314 -0.7084 -0.0615
  495TMC3    H2 7365   4.415   1.453  14.310 -1.1454 -0.7064 -0.4429
  495TMC3    C7 7366   4.540   1.314  14.518 -0.2792  0.5071 -0.0482
  495TMC3    C8 7367   4.378   1.339  14.080 -0.1843 -0.6094  0.3892
  495TMC3    O1 7368   4.643   1.323  14.576  0.3786  0.5724  0.1532
  495TMC3    O2 7369   4.291   1.418  14.119 -0.1513 -0.5772 -0.2015
  496MPD2     C 7370   2.365   1.606  15.438 -0.3504 -0.4697 -0.2823
  496MPD2    C1 7371   2.262   1.567  15.360 -0.2901  0.3005 -0.1139
  496MPD2    C2 7372   2.132   1.588  15.401  0.0016 -0.4871 -0.2260
  496MPD2    C3 7373   2.112   1.666  15.522  0.2110 -0.0783  0.2845
  496MPD2    C4 7374   2.222   1.727  15.575 -0.8348  0.2212  0.2992
  496MPD2    C5 7375   2.351   1.688  15.545  0.0491 -0.6761 -0.1930
  496MPD2     H 7376   2.053   1.560  15.333 -0.6798 -0.6364  0.6257
  496MPD2    H1 7377   2.205   1.811  15.641  1.7275  0.2088  1.0003
  496MPD2    H2 7378   2.463   1.564  15.418 -0.2783 -0.1044 -0.7005
  496MPD2    H3 7379   2.442   1.716  15.598 -0.0723 -0.3292 -0.1656
  496MPD2     N 7380   1.986   1.712  15.565 -0.0613  0.8237  0.6547
  496MPD2    H5 7381   1.975   1.767  15.649 -1.6378  1.6678 -0.0943
  496MPD2    N1 7382   2.279   1.501  15.235 -0.0682  0.8093 -0.3455
  496MPD2    H7 7383   2.195   1.454  15.202  1.8163 -2.2043 -0.8430
  497TMC3    C1 7384   1.755   1.765  15.537  0.3595 -0.1124 -0.3232
  497TMC3    C2 7385   1.645   1.774  15.455  0.7674  0.8448 -0.5866
  497TMC3    C3 7386   1.536   1.841  15.499 -0.2652  0.0162  0.0514
  497TMC3    C4 7387   1.769   1.821  15.659  1.1286  0.1527 -0.0618
  497TMC3    C5 7388   1.655   1.895  15.699  0.2553  0.2023 -0.7036
  497TMC3    C6 7389   1.540   1.907  15.625  0.5551  0.2744 -0.0615
  497TMC3     C 7390   1.871   1.693  15.479 -0.3217 -0.0865 -0.2327
  497TMC3     O 7391   1.865   1.663  15.359 -0.2991 -0.5920  0.4427
  497TMC3     H 7392   1.643   1.721  15.360 -1.6901 -1.6218  0.8389
  497TMC3    H1 7393   1.851   1.807  15.728  1.8895  0.6164 -0.8805
  497TMC3    H2 7394   1.459   1.966  15.667  0.6880 -0.2388  0.9342
  497TMC3    C7 7395   1.639   1.927  15.841  0.1809 -0.9068  0.6776
  497TMC3    C8 7396   1.412   1.799  15.441  0.4523  0.0125 -0.2549
  497TMC3    O1 7397   1.530   1.975  15.875  0.4260  0.4697  0.5241
  497TMC3    O2 7398   1.415   1.754  15.327  0.7062 -0.0562 -0.4272
  498MPD2     C 7399   3.028   1.355   9.639  0.9597  0.1027  0.1380
  498MPD2    C1 7400   3.079   1.275   9.736 -0.4753 -0.1193 -0.5624
  498MPD2    C2 7401   2.997   1.171   9.786  0.4523 -0.0910 -0.2618
  498MPD2    C3 7402   2.870   1.148   9.734  1.0850  0.4827 -0.1442
  498MPD2    C4 7403   2.824   1.234   9.635 -0.6222 -0.5435  0.1358
  498MPD2    C5 7404   2.909   1.324   9.581 -0.0469 -0.2327 -0.3505
  498MPD2     H 7405   3.037   1.107   9.864  0.1332 -0.7297 -0.6210
  498MPD2    H1 7406   2.734   1.210   9.579 -1.6565  2.2147  0.6379
  498MPD2    H2 7407   3.091   1.432   9.596 -0.5923  0.9444 -0.6437
  498MPD2    H3 7408   2.888   1.376   9.489 -0.2954  0.6152  0.1899
  498MPD2     N 7409   2.785   1.044   9.788  0.1395 -0.2940  0.1542
  498MPD2    H5 7410   2.825   0.977   9.852 -0.1289 -1.2844 -0.7233
  498MPD2    N1 7411   3.198   1.309   9.805 -0.5650 -0.6755 -0.1181
  498MPD2    H7 7412   3.220   1.263   9.893 -0.6796  0.1981  0.3702
  499TMC3    C1 7413   3.395   1.434   9.865 -0.2440 -0.2728 -0.7823
  499TMC3    C2 7414   3.350   1.439   9.993  0.1186 -0.2543 -0.4467
  499TMC3    C3 7415   3.420   1.523  10.079 -0.4579 -0.6394 -0.8334
  499TMC3    C4 7416   3.514   1.490   9.817 -0.4171  0.1831  0.5279
  499TMC3    C5 7417   3.583   1.569   9.910  0.0371 -0.5594 -0.0690
  499TMC3    C6 7418   3.534   1.584  10.034  0.4905 -0.5328 -0.4354
  499TMC3     C 7419   3.294   1.399   9.763  0.4147  0.1011  0.1548
  499TMC3     O 7420   3.301   1.446   9.651  0.1392 -0.1588 -0.0312
  499TMC3     H 7421   3.250   1.412  10.025  0.3909 -1.1417 -0.3500
  499TMC3    H1 7422   3.544   1.487   9.713 -2.8257  0.2704 -0.1852
  499TMC3    H2 7423   3.586   1.649  10.103  1.6723 -1.9402  0.0279
  499TMC3    C7 7424   3.692   1.659   9.865  0.3694 -0.0111  0.0980
  499TMC3    C8 7425   3.370   1.564  10.209 -0.4411 -0.1244 -0.0087
  499TMC3    O1 7426   3.699   1.773   9.910 -0.6582 -0.3381  0.4084
  499TMC3    O2 7427   3.264   1.510  10.240  0.2457  0.2879 -0.4520
  500MPD2     C 7428   0.258   3.554  10.352 -0.1667  0.3822  0.0115
  500MPD2    C1 7429   0.290   3.527  10.221  0.4345 -0.3455  0.2159
  500MPD2    C2 7430   0.182   3.529  10.129  0.7159  0.0228 -0.2056
  500MPD2    C3 7431   0.054   3.560  10.165  0.6354 -0.0173  0.3112
  500MPD2    C4 7432   0.026   3.590  10.301  0.1278  0.0401 -0.1420
  500MPD2    C5 7433   0.128   3.590  10.391 -0.4315  0.3569  0.0251
  500MPD2     H 7434   0.208   3.500  10.027 -0.9246  0.0734 -0.6385
  500MPD2    H1 7435   4.650   3.609  10.340 -0.1405  2.3560 -1.9392
  500MPD2    H2 7436   0.331   3.551  10.433  0.4543  1.6025 -0.4935
  500MPD2    H3 7437   0.111   3.608  10.496 -0.3056  1.8915 -0.2136
  500MPD2     N 7438   4.663   3.554  10.072  1.0999  0.0102 -0.0900
  500MPD2    H5 7439   4.572   3.572  10.113  1.2096  1.1029 -0.3287
  500MPD2    N1 7440   0.424   3.485  10.181  0.5212 -0.0178 -0.4621
  500MPD2    H7 7441   0.438   3.488  10.081  2.0830 -0.5296 -0.2679
  501TMC3    C1 7442   0.645   3.429  10.199  0.3685 -0.1164 -0.2636
  501TMC3    C2 7443   0.682   3.510  10.096  0.2546 -0.4047 -0.7814
  501TMC3    C3 7444   0.813   3.528  10.066 -0.5451 -0.3326  0.5537
  501TMC3    C4 7445   0.745   3.374  10.272 -0.4970 -0.0632 -0.3266
  501TMC3    C5 7446   0.876   3.377  10.229  0.1370  0.5347 -0.2377
  501TMC3    C6 7447   0.911   3.458  10.130 -0.0931  0.7747  0.2376
  501TMC3     C 7448   0.522   3.449  10.269  0.3572 -0.1006  0.0011
  501TMC3     O 7449   0.520   3.440  10.392  0.5582  0.2537 -0.1974
  501TMC3     H 7450   0.605   3.575  10.056  0.8534  0.4585 -0.5347
  501TMC3    H1 7451   0.717   3.329  10.366  0.4662 -0.5698 -0.2806
  501TMC3    H2 7452   1.012   3.469  10.093 -0.8631 -0.1260 -2.1279
  501TMC3    C7 7453   0.968   3.287  10.294 -0.6407 -0.1569 -0.1940
  501TMC3    C8 7454   0.834   3.665  10.076 -1.0218 -0.8583  0.3312
  501TMC3    O1 7455   0.917   3.225  10.384  0.6812  0.0422  0.2708
  501TMC3    O2 7456   0.896   3.693  10.176  0.2463 -0.0077 -0.4403
  502TMC3    C1 7457   4.199   1.943  15.265 -0.1675 -0.2330  0.0397
  502TMC3    C2 7458   4.177   2.019  15.153 -0.3615 -0.6440 -0.2145
  502TMC3    C3 7459   4.048   2.069  15.138 -0.5003 -0.4795 -0.4498
  502TMC3    C4 7460   4.102   1.895  15.348  0.1039 -0.2894 -0.4114
  502TMC3    C5 7461   3.978   1.946  15.334 -0.2734  0.2935 -0.3028
  502TMC3    C6 7462   3.949   2.030  15.228  0.6985 -0.0565  0.3171
  502TMC3     C 7463   4.325   1.875  15.265 -0.1556 -0.6735 -0.3196
  502TMC3     O 7464   4.337   1.759  15.296  0.6499 -0.2226 -0.1492
  502TMC3     H 7465   4.259   2.053  15.092 -0.8072  0.8683  0.0126
  502TMC3    H1 7466   4.136   1.827  15.425  1.8152 -0.3838 -1.2362
  502TMC3    H2 7467   3.843   2.031  15.205  0.2236  2.4238  2.5636
  502TMC3    C7 7468   3.883   1.917  15.443  0.3228 -0.0215  0.5526
  502TMC3    C8 7469   4.051   2.206  15.085 -0.0239  0.0926 -0.4168
  502TMC3    O1 7470   3.909   1.837  15.533  0.6083 -0.4802 -0.4315
  502TMC3    O2 7471   4.158   2.245  15.045 -0.9609  0.3402  0.2107
  503MPD2     C 7472   1.658   3.377  16.475 -0.0234  0.4777 -0.1650
  503MPD2    C1 7473   1.686   3.384  16.605  0.4956  0.0698  0.8673
  503MPD2    C2 7474   1.696   3.268  16.680 -0.4726 -0.5578 -0.2042
  503MPD2    C3 7475   1.713   3.144  16.621 -0.3093 -0.6149 -0.2370
  503MPD2    C4 7476   1.703   3.141  16.477 -0.7859  0.8148  0.1737
  503MPD2    C5 7477   1.673   3.256  16.409  0.0214 -1.2604 -0.2529
  503MPD2     H 7478   1.702   3.285  16.787  1.4511  0.7400 -0.5265
  503MPD2    H1 7479   1.725   3.053  16.419 -2.5061  1.1098 -0.9025
  503MPD2    H2 7480   1.634   3.463  16.415 -1.9784 -0.0571 -0.1538
  503MPD2    H3 7481   1.668   3.241  16.302 -2.0369  1.6004 -0.5842
  503MPD2     N 7482   1.739   3.036  16.700  0.0010  0.5221 -0.3295
  503MPD2    H5 7483   1.742   3.056  16.799 -2.6082  0.2053 -0.1826
  503MPD2    N1 7484   1.686   3.508  16.675  0.3315 -0.2973  0.1470
  503MPD2    H7 7485   1.713   3.496  16.772 -2.6273  0.8368  1.0827
  504TMC3    C1 7486   1.825   2.816  16.758 -0.0259  0.3997 -0.6695
  504TMC3    C2 7487   1.828   2.864  16.883  0.0223  0.2614 -0.1993
  504TMC3    C3 7488   1.918   2.820  16.972 -0.1884 -0.4951  0.1726
  504TMC3    C4 7489   1.913   2.722  16.712 -0.2009  0.4055 -0.8311
  504TMC3    C5 7490   2.002   2.674  16.808 -0.1295  0.4226 -0.0625
  504TMC3    C6 7491   2.006   2.725  16.937 -0.1623  0.4274 -0.2268
  504TMC3     C 7492   1.778   2.912  16.652 -0.4263 -0.3900 -0.9737
  504TMC3     O 7493   1.811   2.883  16.538 -0.1776  0.3623  0.4664
  504TMC3     H 7494   1.741   2.913  16.926  1.3131  2.2947  0.1206
  504TMC3    H1 7495   1.908   2.685  16.611  0.4704 -0.5114 -0.5280
  504TMC3    H2 7496   2.077   2.698  17.014 -0.6445 -0.6429 -0.1554
  504TMC3    C7 7497   2.119   2.618  16.742  0.0851  0.1981 -0.4552
  504TMC3    C8 7498   1.861   2.811  17.109  0.1343  0.5284 -0.0594
  504TMC3    O1 7499   2.143   2.635  16.625 -0.2160 -0.3117  0.3442
  504TMC3    O2 7500   1.751   2.765  17.117  0.5872 -0.1222  0.9112
  505MPD2     C 7501   1.963   0.494  10.799 -0.0384  0.5120  0.1263
  505MPD2    C1 7502   1.977   0.385  10.723  0.0213 -0.1065 -0.1479
  505MPD2    C2 7503   2.093   0.309  10.713  0.2723 -0.8007 -0.2808
  505MPD2    C3 7504   2.205   0.347  10.784 -0.2208 -0.5253  0.2214
  505MPD2    C4 7505   2.201   0.467  10.866  0.6404 -0.8380 -0.2756
  505MPD2    C5 7506   2.076   0.534  10.872 -0.3432 -0.2828  0.1230
  505MPD2     H 7507   2.101   0.227  10.642  3.2673  0.6237 -1.6009
  505MPD2    H1 7508   2.286   0.505  10.922 -0.6560  0.2367  0.9473
  505MPD2    H2 7509   1.866   0.542  10.796  0.2707  1.2022  1.3866
  505MPD2    H3 7510   2.067   0.620  10.938 -0.3481 -1.0629  1.1375
  505MPD2     N 7511   2.329   0.274  10.776  0.7848  0.4105  0.2380
  505MPD2    H5 7512   2.415   0.320  10.803 -1.2810  3.8170  0.9824
  505MPD2    N1 7513   1.862   0.353  10.642  0.1469  0.4763 -0.3742
  505MPD2    H7 7514   1.790   0.425  10.631 -1.1573 -1.0026 -1.5446
  506TMC3    C1 7515   1.739   0.243  10.485 -0.3741 -0.0265 -0.9906
  506TMC3    C2 7516   1.764   0.346  10.394  0.0174  0.1468 -0.0497
  506TMC3    C3 7517   1.747   0.318  10.257 -0.2041 -0.5311  0.0897
  506TMC3    C4 7518   1.713   0.115  10.435 -0.0254 -0.3698  0.1143
  506TMC3    C5 7519   1.697   0.090  10.303  0.2670 -0.3899 -0.0720
  506TMC3    C6 7520   1.702   0.194  10.215 -0.5496 -0.2481  0.1221
  506TMC3     C 7521   1.850   0.236  10.574  0.3356 -0.7839  0.2766
  506TMC3     O 7522   1.915   0.132  10.568  0.1248  0.6131  0.5276
  506TMC3     H 7523   1.773   0.449  10.425 -0.0992 -0.2807  1.4399
  506TMC3    H1 7524   1.705   0.027  10.498 -3.3164 -0.7833 -0.8690
  506TMC3    H2 7525   1.685   0.167  10.111  0.8337 -0.3703 -0.0639
  506TMC3    C7 7526   1.781   4.709  10.253  1.1169  0.2213  0.4666
  506TMC3    C8 7527   1.752   0.431  10.168  0.2956 -0.3144  0.1082
  506TMC3    O1 7528   1.766   4.670  10.140  0.4514 -0.3735 -0.3437
  506TMC3    O2 7529   1.655   0.441  10.099 -0.2383  0.0716 -0.0346
  507TMC3    C1 7530   2.638   2.275  14.496 -0.6488 -0.0572  0.0572
  507TMC3    C2 7531   2.610   2.249  14.364 -0.7150 -0.2824  0.7150
  507TMC3    C3 7532   2.676   2.331  14.276 -0.1184 -0.0614 -0.1012
  507TMC3    C4 7533   2.740   2.359  14.542  0.0854 -0.3188  0.1933
  507TMC3    C5 7534   2.807   2.424  14.444 -0.3099 -0.1269 -0.0209
  507TMC3    C6 7535   2.778   2.411  14.308  0.2012  0.5989 -0.4566
  507TMC3     C 7536   2.545   2.224  14.601  0.4062 -0.3761  0.7961
  507TMC3     O 7537   2.579   2.246  14.716  0.4478 -0.0461  0.0476
  507TMC3     H 7538   2.547   2.169  14.328 -1.4554  0.4024  0.4860
  507TMC3    H1 7539   2.758   2.370  14.648  0.8687 -0.1113  0.0375
  507TMC3    H2 7540   2.836   2.465  14.234 -0.2108 -0.2785 -1.4169
  507TMC3    C7 7541   2.832   2.565  14.473  1.4176  0.4623 -1.0098
  507TMC3    C8 7542   2.584   2.390  14.183 -0.3429  0.8649 -0.3513
  507TMC3    O1 7543   2.814   2.637  14.377 -0.3870 -0.5699  0.0879
  507TMC3    O2 7544   2.476   2.331  14.179 -0.7613 -0.0373  0.0324
  508MPD2     C 7545   3.138   0.316  16.099 -0.2416 -0.6471  0.5398
  508MPD2    C1 7546   3.254   0.240  16.101  0.6873  0.0237 -0.1402
  508MPD2    C2 7547   3.297   0.166  15.994  0.6659 -0.0640 -0.3644
  508MPD2    C3 7548   3.240   0.191  15.866  0.4443 -0.1419  0.4331
  508MPD2    C4 7549   3.123   0.263  15.862  0.3275  0.0472  0.1391
  508MPD2    C5 7550   3.076   0.322  15.974  0.2175  0.8364 -0.5799
  508MPD2     H 7551   3.379   0.096  15.995  1.8150  1.2720 -1.0715
  508MPD2    H1 7552   3.084   0.289  15.764  0.0519 -0.0534  0.2207
  508MPD2    H2 7553   3.104   0.383  16.176 -1.7675  1.4007 -1.9110
  508MPD2    H3 7554   3.002   0.400  15.956 -0.6967  0.0584 -0.2003
  508MPD2     N 7555   3.299   0.149  15.736 -0.1838 -0.4211 -0.1057
  508MPD2    H5 7556   3.262   0.194  15.653  0.9653  1.1241  0.2273
  508MPD2    N1 7557   3.313   0.245  16.233 -0.0343 -0.3596 -0.5309
  508MPD2    H7 7558   3.269   0.296  16.308  1.2107  0.9476 -0.6753
  509TMC3    C1 7559   3.454   0.294  15.425  0.2012 -0.8034 -0.1617
  509TMC3    C2 7560   3.570   0.358  15.450 -0.1174 -0.1665 -0.7830
  509TMC3    C3 7561   3.646   0.301  15.548 -0.2400  0.4267 -0.2240
  509TMC3    C4 7562   3.404   0.187  15.489  0.3350  0.1693  0.0700
  509TMC3    C5 7563   3.482   0.141  15.596  0.3151  0.5411 -0.6763
  509TMC3    C6 7564   3.605   0.197  15.617  0.0153  0.3631  0.1623
  509TMC3     C 7565   3.369   0.353  15.321 -0.7051 -0.1618 -0.3014
  509TMC3     O 7566   3.312   0.272  15.250 -0.0362 -0.1335  0.0263
  509TMC3     H 7567   3.612   0.428  15.378 -0.4120  1.4378  0.6184
  509TMC3    H1 7568   3.317   0.135  15.450  1.3370 -1.7254  0.3462
  509TMC3    H2 7569   3.667   0.160  15.698 -2.7101 -0.7992  1.7157
  509TMC3    C7 7570   3.422   0.098  15.723 -0.6043 -0.3385 -0.3327
  509TMC3    C8 7571   3.761   0.380  15.595  0.4666 -0.9090 -0.1782
  509TMC3    O1 7572   3.495   0.057  15.811 -0.2093  0.0154 -0.2824
  509TMC3    O2 7573   3.836   0.321  15.669 -0.4253 -0.6033  0.1169
  510MPD2     C 7574   1.367   2.051  14.152 -1.2514 -0.4495 -0.1617
  510MPD2    C1 7575   1.410   1.950  14.242 -0.7347 -0.4399 -0.7943
  510MPD2    C2 7576   1.509   1.862  14.208  0.3824  0.0212  0.8997
  510MPD2    C3 7577   1.566   1.867  14.080  1.2243 -0.5504 -0.7236
  510MPD2    C4 7578   1.513   1.963  13.990  0.4214  0.4280 -0.5660
  510MPD2    C5 7579   1.424   2.057  14.028  0.1128 -0.6085 -0.9357
  510MPD2     H 7580   1.561   1.804  14.284  1.5319  0.4484  0.4451
  510MPD2    H1 7581   1.539   1.962  13.885  1.9357  4.1390 -0.2215
  510MPD2    H2 7582   1.308   2.139  14.176 -2.2817 -1.6475  1.6990
  510MPD2    H3 7583   1.389   2.129  13.955 -0.3911 -0.2945 -0.3906
  510MPD2     N 7584   1.672   1.782  14.044  0.2093 -0.4119 -0.3486
  510MPD2    H5 7585   1.710   1.717  14.112 -1.5111 -0.5414  0.4725
  510MPD2    N1 7586   1.350   1.936  14.367 -0.5729  0.2272  0.0444
  510MPD2    H7 7587   1.381   1.850  14.414 -0.6891 -0.6525 -1.4960
  511TMC3    C1 7588   1.181   1.956  14.534  0.5778 -0.1941 -0.3208
  511TMC3    C2 7589   1.128   2.035  14.633 -0.2504 -0.0368  0.0162
  511TMC3    C3 7590   1.062   1.978  14.744 -0.2260  0.0357 -0.0822
  511TMC3    C4 7591   1.196   1.821  14.558 -0.0239  0.1569  0.4289
  511TMC3    C5 7592   1.144   1.771  14.674 -0.3999 -0.3869 -0.0333
  511TMC3    C6 7593   1.075   1.843  14.765  0.2823  0.0559  0.2011
  511TMC3     C 7594   1.256   2.020  14.424 -0.2281  0.6470  1.3626
  511TMC3     O 7595   1.241   2.140  14.403  0.3960  0.4134  0.1951
  511TMC3     H 7596   1.124   2.142  14.619 -0.5489  0.2761  2.4489
  511TMC3    H1 7597   1.234   1.765  14.474 -1.3412  0.0691 -0.1219
  511TMC3    H2 7598   1.050   1.792  14.857  1.4466  2.4789  1.8638
  511TMC3    C7 7599   1.128   1.629  14.686  0.3782 -0.0551  1.0938
  511TMC3    C8 7600   0.964   2.055  14.817 -0.1367  0.3220  0.0525
  511TMC3    O1 7601   1.133   1.558  14.584  0.6480 -0.5173  0.3512
  511TMC3    O2 7602   0.964   2.177  14.818 -0.4723  0.5364  0.7480
  512TMC3    C1 7603   0.167   0.974  12.687  0.3800  0.1332  0.9101
  512TMC3    C2 7604   0.276   0.967  12.766 -0.2184 -0.2675  0.2824
  512TMC3    C3 7605   0.295   0.857  12.851 -0.3389  0.0035 -0.2218
  512TMC3    C4 7606   0.074   0.876  12.686  0.0483  0.5408 -0.4023
  512TMC3    C5 7607   0.091   0.773  12.775  0.6483 -0.2145  0.0684
  512TMC3    C6 7608   0.208   0.753  12.851 -0.5128  0.2329  0.2085
  512TMC3     C 7609   0.134   1.095  12.608  0.6368  0.1702  0.1715
  512TMC3     O 7610   0.197   1.198  12.642 -0.7731 -0.4518  0.2997
  512TMC3     H 7611   0.352   1.044  12.765  0.7292 -1.1956  0.8446
  512TMC3    H1 7612   4.700   0.875  12.638  0.0456  1.8190 -0.4227
  512TMC3    H2 7613   0.225   0.680  12.929 -0.8149 -0.4869 -0.3995
  512TMC3    C7 7614   4.718   0.657  12.776 -0.0728 -1.1425  0.1328
  512TMC3    C8 7615   0.412   0.838  12.927 -0.0071  0.4784  0.0622
  512TMC3    O1 7616   4.600   0.686  12.766  0.0520  0.4424 -0.7441
  512TMC3    O2 7617   0.434   0.723  12.969 -0.2509 -0.2515 -0.1478
  513MPD2     C 7618   1.910   0.601  13.124  0.5465  0.6207  0.2096
  513MPD2    C1 7619   1.931   0.701  13.035 -0.2400  0.0656 -0.4579
  513MPD2    C2 7620   1.944   0.831  13.076  0.2544  0.7800  0.2112
  513MPD2    C3 7621   1.947   0.854  13.209 -0.2372 -0.4279 -0.1871
  513MPD2    C4 7622   1.916   0.760  13.301  0.1572 -0.3129 -0.3171
  513MPD2    C5 7623   1.910   0.629  13.259 -0.1427  0.1271  0.7133
  513MPD2     H 7624   1.944   0.919  13.013  0.0280  0.1642 -0.6482
  513MPD2    H1 7625   1.912   0.784  13.406  0.7017  1.4211 -0.6847
  513MPD2    H2 7626   1.908   0.500  13.085  0.6574  0.2502  1.1849
  513MPD2    H3 7627   1.903   0.546  13.329 -1.7537  0.1334  0.5639
  513MPD2     N 7628   1.964   0.990  13.241  0.5620  0.5321  0.5736
  513MPD2    H5 7629   1.971   1.049  13.158 -0.8219 -2.3445 -1.5848
  513MPD2    N1 7630   1.923   0.668  12.902  0.0222  0.1613 -0.0569
  513MPD2    H7 7631   1.902   0.570  12.885  0.3811  0.0191  0.3188
  514TMC3    C1 7632   1.974   0.698  12.670  0.9430  0.1527 -0.3398
  514TMC3    C2 7633   2.022   0.571  12.660  0.5522 -0.1541  0.0702
  514TMC3    C3 7634   2.092   0.531  12.549 -0.7274 -0.0893  0.4402
  514TMC3    C4 7635   1.995   0.789  12.572 -0.1261  0.5843  0.1725
  514TMC3    C5 7636   2.083   0.751  12.474 -0.1979  0.0660 -0.4795
  514TMC3    C6 7637   2.125   0.619  12.449  0.1988 -0.4686  0.2585
  514TMC3     C 7638   1.963   0.754  12.800  0.2167 -0.2953 -0.6830
  514TMC3     O 7639   1.993   0.873  12.797  0.3358  0.6230  0.2773
  514TMC3     H 7640   2.011   0.506  12.746 -2.4347  1.1757  0.6919
  514TMC3    H1 7641   1.942   0.884  12.574  0.7743  1.1081 -1.5115
  514TMC3    H2 7642   2.192   0.589  12.369  0.3531 -1.4401  0.7462
  514TMC3    C7 7643   2.202   0.833  12.482  0.1329 -0.2676  0.3190
  514TMC3    C8 7644   2.108   0.394  12.529  0.1163 -0.9564  0.7182
  514TMC3    O1 7645   2.304   0.797  12.424  0.2634 -0.5620 -0.9873
  514TMC3    O2 7646   2.125   0.322  12.628  0.3718 -0.0994  0.2179
  515MPD2     C 7647   4.654   2.858  14.783 -0.2522 -0.4959  0.1760
  515MPD2    C1 7648   4.689   2.891  14.653  0.3773  0.0093  0.0224
  515MPD2    C2 7649   0.090   2.958  14.636  0.0224 -0.0899 -0.2302
  515MPD2    C3 7650   0.168   2.991  14.749  0.0397 -0.2509 -0.0878
  515MPD2    C4 7651   0.123   2.959  14.873  0.3774 -0.0588  0.5398
  515MPD2    C5 7652   0.004   2.897  14.888  0.1476 -0.2082 -0.5283
  515MPD2     H 7653   0.115   2.974  14.532 -0.8077  1.6869 -0.1575
  515MPD2    H1 7654   0.184   2.963  14.963  0.8544  1.9661  0.1357
  515MPD2    H2 7655   4.560   2.806  14.798 -1.1459  1.3345  0.9738
  515MPD2    H3 7656   4.707   2.881  14.993 -2.6707  1.5079 -0.8297
  515MPD2     N 7657   0.292   3.053  14.745 -0.3441 -0.8511  0.9371
  515MPD2    H5 7658   0.328   3.075  14.837  0.9458  0.1852  0.1705
  515MPD2    N1 7659   4.621   2.853  14.535  0.2392  1.0916  0.3341
  515MPD2    H7 7660   4.641   2.902  14.449  1.9088  2.6268  1.6027
  516TMC3    C1 7661   4.483   2.732  14.401  0.4709  0.6278 -0.1110
  516TMC3    C2 7662   4.470   2.838  14.317  0.2412 -0.1465 -0.2910
  516TMC3    C3 7663   4.497   2.819  14.188  0.5942  0.0148 -0.3552
  516TMC3    C4 7664   4.516   2.606  14.363  0.3278  0.4038  0.5419
  516TMC3    C5 7665   4.551   2.589  14.237  0.9574  0.4412  0.1706
  516TMC3    C6 7666   4.548   2.693  14.147 -0.8902 -0.1742  0.6988
  516TMC3     C 7667   4.513   2.765  14.537  0.0465 -0.1847  0.0919
  516TMC3     O 7668   4.474   2.687  14.624  0.0893 -0.9944  0.1367
  516TMC3     H 7669   4.434   2.936  14.346  0.4100  0.0770 -0.8380
  516TMC3    H1 7670   4.525   2.534  14.444 -0.7602  2.1730  2.2400
  516TMC3    H2 7671   4.583   2.675  14.046 -2.1395  0.6834  0.1112
  516TMC3    C7 7672   4.572   2.453  14.192  0.3424  0.3109 -0.6330
  516TMC3    C8 7673   4.412   2.879  14.085  0.2468  0.6210 -0.1947
  516TMC3    O1 7674   4.606   2.446  14.074 -0.5017  0.8704 -0.5295
  516TMC3    O2 7675   4.381   2.803  13.994 -0.6592 -0.5204  0.0253
  517MPD2     C 7676   4.226   4.440  17.624  0.6916  0.7690  0.0091
  517MPD2    C1 7677   4.343   4.477  17.569  0.2523 -0.1574 -0.5322
  517MPD2    C2 7678   4.397   4.598  17.596 -0.3839 -0.5972 -0.0976
  517MPD2    C3 7679   4.332   4.691  17.674  0.1613 -0.3208 -0.2718
  517MPD2    C4 7680   4.208   4.661   0.034  0.3754  1.0997 -0.1223
  517MPD2    C5 7681   4.154   4.538   0.004  0.0330 -0.3802  0.3478
  517MPD2     H 7682   4.496   4.613  17.556 -0.3178 -0.5348  0.0894
  517MPD2    H1 7683   4.156   0.004   0.101  1.5483  1.3429  0.5368
  517MPD2    H2 7684   4.182   4.341  17.613  0.3026  1.0571 -0.9649
  517MPD2    H3 7685   4.065   4.504   0.056 -0.4340 -0.0009 -0.2052
  517MPD2     N 7686   4.385   0.101   0.002 -0.1554  0.0534 -0.1164
  517MPD2    H5 7687   4.319   0.168   0.040 -1.6449  0.0395 -2.6746
  517MPD2    N1 7688   4.418   4.389  17.483 -0.6469  0.3134 -0.3661
  517MPD2    H7 7689   4.515   4.413  17.464 -0.6171 -0.8935 -1.7582
  518TMC3    C1 7690   4.469   4.221  17.326  0.1384  0.3200 -0.1562
  518TMC3    C2 7691   4.488   4.085  17.316 -0.3952  0.2649  0.0315
  518TMC3    C3 7692   4.587   4.044  17.230  0.4189 -0.5535 -0.4570
  518TMC3    C4 7693   4.555   4.306  17.267 -0.4013  0.2661  0.0073
  518TMC3    C5 7694   4.664   4.261  17.192  0.5944 -0.3645  0.1207
  518TMC3    C6 7695   4.673   4.128  17.172 -0.5200 -0.5070 -0.3782
  518TMC3     C 7696   4.378   4.268  17.431  0.2041 -0.1001  0.4731
  518TMC3     O 7697   4.279   4.193  17.453 -0.4420 -0.0928 -0.4533
  518TMC3     H 7698   4.428   4.015  17.373  1.1328 -0.4136  0.8096
  518TMC3    H1 7699   4.531   4.412  17.268 -0.4965  0.2176  2.2286
  518TMC3    H2 7700   0.019   4.077  17.107 -0.3890  0.3610 -0.9139
  518TMC3    C7 7701   0.043   4.354  17.134  0.4360 -1.0599 -0.5369
  518TMC3    C8 7702   4.591   3.907  17.188 -0.4534 -1.1560 -0.0839
  518TMC3    O1 7703   0.018   4.476  17.130 -0.1843 -1.1121 -0.1878
  518TMC3    O2 7704   4.638   3.888  17.080  0.0790  0.6428  0.1605
  519MPD2     C 7705   2.021   3.022  13.708  0.7001  0.5836 -0.0935
  519MPD2    C1 7706   1.925   2.925  13.673 -0.2961  0.7330 -1.1107
  519MPD2    C2 7707   1.967   2.797  13.655 -0.1593 -0.0035 -0.1300
  519MPD2    C3 7708   2.094   2.745  13.672  0.0911 -0.4321 -0.5717
  519MPD2    C4 7709   2.189   2.840  13.703 -0.0682  0.2236 -0.1365
  519MPD2    C5 7710   2.156   2.973  13.734 -0.5439  1.1881  0.0505
  519MPD2     H 7711   1.890   2.726  13.627 -1.4216  1.0719  0.6244
  519MPD2    H1 7712   2.289   2.806  13.727  0.0840  0.1986 -0.8098
  519MPD2    H2 7713   1.985   3.121  13.732 -0.3082  0.4834 -1.2000
  519MPD2    H3 7714   2.239   3.040  13.755  0.8233 -0.6349  0.4536
  519MPD2     N 7715   2.115   2.603  13.664 -0.3041  0.0249  0.6899
  519MPD2    H5 7716   2.031   2.551  13.641 -0.7467  0.3371  1.6149
  519MPD2    N1 7717   1.787   2.957  13.678 -0.1296  0.2996 -0.2205
  519MPD2    H7 7718   1.761   3.053  13.694  0.7361  0.5511 -0.3279
  520TMC3    C1 7719   2.194   2.400  13.677  0.2694  0.0501  0.0525
  520TMC3    C2 7720   2.070   2.358  13.627  0.0598 -1.0962  0.3618
  520TMC3    C3 7721   2.026   2.238  13.674  0.3991 -0.2957 -0.0814
  520TMC3    C4 7722   2.266   2.321  13.767 -0.3432  0.2847  0.0810
  520TMC3    C5 7723   2.205   2.204  13.808  0.3686  0.3560 -0.3676
  520TMC3    C6 7724   2.086   2.167  13.772 -0.0813  0.1965  0.3765
  520TMC3     C 7725   2.229   2.535  13.678 -0.4641  0.1569  0.3495
  520TMC3     O 7726   2.341   2.570  13.719 -0.1349 -0.4285  0.1232
  520TMC3     H 7727   2.012   2.397  13.545  2.9455  1.3796 -0.4803
  520TMC3    H1 7728   2.366   2.342  13.803  0.7182 -1.2557 -1.9792
  520TMC3    H2 7729   2.040   2.087  13.830  1.8234 -0.2823  1.2244
  520TMC3    C7 7730   2.282   2.118  13.902  0.1943  0.8672  0.7543
  520TMC3    C8 7731   1.932   2.163  13.593  0.0787  0.2084 -0.1438
  520TMC3    O1 7732   2.235   2.072  14.006 -0.2786 -0.0516 -0.1655
  520TMC3    O2 7733   1.933   2.040  13.605 -0.2504 -0.6101 -0.4505
  521MPD2     C 7734   2.237   1.001  17.503  0.1399 -0.5163  0.1763
  521MPD2    C1 7735   2.239   0.946  17.378  0.3395 -0.7183 -0.1406
  521MPD2    C2 7736   2.359   0.923  17.305  0.4267 -0.1602 -0.0545
  521MPD2    C3 7737   2.477   0.944  17.367 -0.1739  0.9501 -0.4484
  521MPD2    C4 7738   2.471   0.984  17.495 -0.1412 -0.2836 -0.3044
  521MPD2    C5 7739   2.355   1.016  17.560  0.2499  0.0107 -0.5036
  521MPD2     H 7740   2.371   0.900  17.200  1.9986 -1.2055  0.3461
  521MPD2    H1 7741   2.559   1.022  17.546  0.8383 -1.8403 -0.8212
  521MPD2    H2 7742   2.141   1.024  17.548  1.0206  0.1840  1.7121
  521MPD2    H3 7743   2.371   1.043  17.664 -1.2441  0.6058 -0.4317
  521MPD2     N 7744   2.594   0.933  17.289 -0.0566 -0.4842 -0.9358
  521MPD2    H5 7745   2.591   0.922  17.189 -1.4582 -1.3769 -0.7887
  521MPD2    N1 7746   2.118   0.941  17.312  0.2379 -0.2005  0.3284
  521MPD2    H7 7747   2.032   0.959  17.363  0.1598 -0.2544  0.2157
  522TMC3    C1 7748   2.809   0.904  17.234 -0.7693  0.0683  0.0004
  522TMC3    C2 7749   2.889   0.797  17.238 -0.7036 -0.6638 -0.7404
  522TMC3    C3 7750   2.989   0.785  17.142 -0.4987  0.2153  0.3173
  522TMC3    C4 7751   2.810   0.999  17.132 -0.1247 -0.8168 -0.2357
  522TMC3    C5 7752   2.919   0.989  17.051 -0.2537  0.5378  0.4552
  522TMC3    C6 7753   3.003   0.879  17.043 -0.0832  0.0291  0.0131
  522TMC3     C 7754   2.720   0.925  17.344  0.3509  0.0402 -0.3364
  522TMC3     O 7755   2.763   0.916  17.458  0.3562 -0.1811  0.3485
  522TMC3     H 7756   2.879   0.728  17.322 -1.0195  1.0307  0.6142
  522TMC3    H1 7757   2.759   1.091  17.156 -1.6207 -1.3279 -1.4805
  522TMC3    H2 7758   3.093   0.875  16.983  1.0496 -1.2307  1.8177
  522TMC3    C7 7759   2.946   1.095  16.953 -0.8774 -0.7106  0.0751
  522TMC3    C8 7760   3.090   0.683  17.168  0.1318 -0.2456  0.0457
  522TMC3    O1 7761   3.052   1.081  16.894  0.5795 -0.0035 -0.6276
  522TMC3    O2 7762   3.063   0.617  17.266  0.2859  0.8217  0.4004
  523MPD2     C 7763   1.053   4.388  10.195  0.0450 -0.3705  0.4222
  523MPD2    C1 7764   1.043   4.361  10.063  0.1328 -0.8701 -0.6265
  523MPD2    C2 7765   0.981   4.462   9.983 -0.1884 -0.4260  0.2492
  523MPD2    C3 7766   0.956   4.587  10.038 -0.2263  0.6891 -0.3684
  523MPD2    C4 7767   0.995   4.616  10.165 -0.0418  0.1195  0.0533
  523MPD2    C5 7768   1.040   4.509  10.244 -0.0732 -0.1207  0.1294
  523MPD2     H 7769   0.936   4.421   9.893  0.5694 -1.0636  0.1568
  523MPD2    H1 7770   0.976   4.713  10.209 -3.9372 -0.7483  0.2798
  523MPD2    H2 7771   1.087   4.308  10.260 -0.3983 -0.0940  0.9944
  523MPD2    H3 7772   1.057   4.525  10.350 -1.5825  0.0705  0.3465
  523MPD2     N 7773   0.903   4.693   9.949  0.0056 -0.2134  0.4164
  523MPD2    H5 7774   0.896   0.066   9.981  1.7785 -0.3791  1.3250
  523MPD2    N1 7775   1.081   4.232  10.018  0.3334  0.3438  0.1334
  523MPD2    H7 7776   1.101   4.167  10.093  0.3211  1.2603  0.9373
  524TMC3    C1 7777   0.838   0.075   9.739 -0.9675 -0.2661 -0.3670
  524TMC3    C2 7778   0.806   0.047   9.604  0.5801 -0.8999  0.0417
  524TMC3    C3 7779   0.744   0.143   9.530 -0.0537 -0.3846 -0.0397
  524TMC3    C4 7780   0.778   0.183   9.805  0.4460  0.7225 -0.4390
  524TMC3    C5 7781   0.704   0.273   9.727 -0.2243 -0.4026  0.7257
  524TMC3    C6 7782   0.695   0.259   9.589  0.0754 -0.2127  0.3013
  524TMC3     C 7783   0.868   4.680   9.814  0.5834  0.1681  0.1145
  524TMC3     O 7784   0.833   4.579   9.758 -0.4157  0.7141  0.3094
  524TMC3     H 7785   0.859   4.696   9.545  0.3517 -1.4535  0.5283
  524TMC3    H1 7786   0.778   0.195   9.912  1.4122  1.4783 -0.5168
  524TMC3    H2 7787   0.636   0.326   9.528  0.4515 -0.0699  0.0957
  524TMC3    C7 7788   0.619   0.369   9.795  0.2449  0.3645  0.2868
  524TMC3    C8 7789   0.729   0.116   9.388 -0.8626 -0.1142 -0.5105
  524TMC3    O1 7790   0.600   0.356   9.916  0.0647 -0.5176 -0.3302
  524TMC3    O2 7791   0.735   0.001   9.348  0.5578 -0.3661 -0.4607
  525MPD2     C 7792   3.009   2.047  14.434 -0.2998  0.2423 -0.7159
  525MPD2    C1 7793   3.109   2.099  14.512 -0.3194 -0.2682 -0.8398
  525MPD2    C2 7794   3.184   2.214  14.471 -0.3951 -0.4268  0.1591
  525MPD2    C3 7795   3.141   2.290  14.362  0.4079  0.2360  0.0566
  525MPD2    C4 7796   3.036   2.236  14.289  0.1946 -0.6227 -0.0183
  525MPD2    C5 7797   2.972   2.122  14.331 -0.1148 -0.3917  0.4110
  525MPD2     H 7798   3.263   2.247  14.538  1.3578  1.8405 -3.0426
  525MPD2    H1 7799   3.006   2.280  14.195 -2.6502  1.8845  2.0817
  525MPD2    H2 7800   2.952   1.957  14.451 -0.6394  0.0453 -2.8291
  525MPD2    H3 7801   2.905   2.071  14.262  0.6924  0.5394 -1.0509
  525MPD2     N 7802   3.188   2.416  14.321 -0.1139 -0.2082  0.2621
  525MPD2    H5 7803   3.129   2.471  14.260 -0.6858 -0.1371  0.8725
  525MPD2    N1 7804   3.141   2.035  14.634  0.1904  0.4649  0.0050
  525MPD2    H7 7805   3.221   2.065  14.690  0.2901 -1.8828  1.1368
  526TMC3    C1 7806   3.145   1.879  14.806 -0.4967  0.4346 -0.3607
  526TMC3    C2 7807   3.083   1.855  14.922 -0.2345 -0.1017 -0.1584
  526TMC3    C3 7808   3.163   1.812  15.023  0.2638 -0.4359  0.7727
  526TMC3    C4 7809   3.277   1.842  14.781 -0.2855  0.0549  0.3534
  526TMC3    C5 7810   3.341   1.790  14.883  0.2657 -0.4327 -0.4050
  526TMC3    C6 7811   3.290   1.768  15.009 -0.1165 -0.1339  0.6073
  526TMC3     C 7812   3.070   1.930  14.693 -0.0389  0.1812 -0.5986
  526TMC3     O 7813   2.946   1.918  14.697  0.6015 -0.8793 -0.1424
  526TMC3     H 7814   2.981   1.890  14.937 -0.2834  1.3482 -4.0082
  526TMC3    H1 7815   3.321   1.857  14.683 -0.3782  0.1781  0.3306
  526TMC3    H2 7816   3.344   1.713  15.085 -0.0410  2.4964  2.4397
  526TMC3    C7 7817   3.465   1.725  14.851 -0.0001 -0.5060 -0.3261
  526TMC3    C8 7818   3.107   1.794  15.155 -0.2602  0.5885 -0.0238
  526TMC3    O1 7819   3.536   1.698  14.948  0.0252 -0.9467 -0.0713
  526TMC3    O2 7820   3.191   1.816  15.240 -0.3503  0.3415  0.2807
  527MPD2     C 7821   2.979   4.373   1.719  0.1375 -0.2183 -0.2323
  527MPD2    C1 7822   2.932   4.473   1.638 -0.3956  0.3904  0.1092
  527MPD2    C2 7823   2.850   4.435   1.537 -0.2981 -0.0878 -0.3249
  527MPD2    C3 7824   2.805   4.303   1.522  0.3582 -0.3069  0.5466
  527MPD2    C4 7825   2.840   4.209   1.620 -0.1100  0.3162  0.2926
  527MPD2    C5 7826   2.936   4.240   1.705 -0.0890  0.4143 -0.3747
  527MPD2     H 7827   2.817   4.511   1.467  0.1989 -1.4885 -2.0772
  527MPD2    H1 7828   2.814   4.105   1.604 -2.7370  1.0985 -0.6100
  527MPD2    H2 7829   3.043   4.393   1.805  0.0006  0.8209 -0.3691
  527MPD2    H3 7830   2.971   4.153   1.759 -1.0147 -0.0052 -0.4494
  527MPD2     N 7831   2.720   4.262   1.418  0.0696  0.6566 -0.2756
  527MPD2    H5 7832   2.705   4.162   1.413  3.8174  0.1237 -0.3201
  527MPD2    N1 7833   2.967   4.613   1.638 -0.0186  0.3607 -0.2598
  527MPD2    H7 7834   2.920   4.677   1.575 -2.2647  0.3276  1.3646
  528TMC3    C1 7835   3.116   0.076   1.666 -0.4630  0.0059 -0.3544
  528TMC3    C2 7836   3.018   0.158   1.632 -0.4613 -0.0808  0.5928
  528TMC3    C3 7837   3.048   0.287   1.595 -0.2063 -0.0185  0.0884
  528TMC3    C4 7838   3.247   0.120   1.680 -0.8292  0.2503 -0.3068
  528TMC3    C5 7839   3.274   0.250   1.656 -0.4723 -0.3424 -0.0165
  528TMC3    C6 7840   3.177   0.336   1.608 -0.2947 -0.3798 -0.1313
  528TMC3     C 7841   3.088   4.656   1.693 -0.2928  0.5923  0.5134
  528TMC3     O 7842   3.173   4.590   1.753  0.5876  0.5992  0.0783
  528TMC3     H 7843   2.916   0.121   1.631 -0.5429  0.0648  3.3360
  528TMC3    H1 7844   3.327   0.057   1.717 -1.1918 -0.4830 -0.7638
  528TMC3    H2 7845   3.197   0.441   1.593 -1.6916 -0.3945 -2.1340
  528TMC3    C7 7846   3.410   0.291   1.643  0.4962 -0.0329  0.2771
  528TMC3    C8 7847   2.941   0.370   1.547  0.2581  0.2407 -0.1403
  528TMC3    O1 7848   3.495   0.204   1.651 -0.3206  0.0836  0.2785
  528TMC3    O2 7849   2.828   0.326   1.556  0.5690 -0.6258  0.7022
  529MPD2     C 7850   3.447   4.202   1.031 -0.2841 -0.3961  0.3726
  529MPD2    C1 7851   3.398   4.088   0.972 -0.2448  0.4256 -0.2623
  529MPD2    C2 7852   3.336   4.098   0.854 -0.5416  0.0993 -0.0507
  529MPD2    C3 7853   3.328   4.217   0.787 -0.5569  0.1285 -0.0594
  529MPD2    C4 7854   3.367   4.331   0.853  0.0279 -0.6754 -0.3971
  529MPD2    C5 7855   3.426   4.322   0.974 -0.2665  0.0188 -0.6873
  529MPD2     H 7856   3.299   4.005   0.814  1.7364 -0.2333 -1.3696
  529MPD2    H1 7857   3.371   4.424   0.797 -0.9197 -0.1614  0.3827
  529MPD2    H2 7858   3.514   4.193   1.115  0.5996 -0.4636 -0.3464
  529MPD2    H3 7859   3.468   4.415   1.012  0.5717 -1.8488  2.9406
  529MPD2     N 7860   3.258   4.228   0.662  0.2825 -0.1953  0.0756
  529MPD2    H5 7861   3.245   4.323   0.632  1.5416  0.8196  2.6835
  529MPD2    N1 7862   3.402   3.961   1.025 -0.0393  0.1383  0.7569
  529MPD2    H7 7863   3.382   3.881   0.967 -1.3128 -0.5200  2.1165
  530TMC3    C1 7864   3.404   3.806   1.194 -0.2208  0.6832 -0.2395
  530TMC3    C2 7865   3.443   3.697   1.115  0.5879  0.1062  0.2300
  530TMC3    C3 7866   3.387   3.579   1.150  0.3047 -0.4629 -0.8990
  530TMC3    C4 7867   3.329   3.789   1.307  0.0877 -0.5096 -0.1134
  530TMC3    C5 7868   3.267   3.671   1.328  0.5135  0.1965 -0.5277
  530TMC3    C6 7869   3.291   3.564   1.249 -0.7394 -0.3532 -0.0014
  530TMC3     C 7870   3.427   3.945   1.158  0.8886 -0.5151 -0.7430
  530TMC3     O 7871   3.439   4.030   1.245 -0.5256 -0.2183  0.3298
  530TMC3     H 7872   3.514   3.716   1.036 -0.0408  3.0140  0.3442
  530TMC3    H1 7873   3.309   3.875   1.369  2.1795 -0.7393  0.8930
  530TMC3    H2 7874   3.255   3.466   1.277  0.4975 -0.8844 -0.2687
  530TMC3    C7 7875   3.168   3.662   1.432 -0.0008  0.1625  0.2531
  530TMC3    C8 7876   3.405   3.462   1.064  0.8392  0.0869 -0.7845
  530TMC3    O1 7877   3.168   3.743   1.520  0.3056 -0.2846  0.1238
  530TMC3    O2 7878   3.300   3.398   1.062  0.3135 -1.1352  0.2720
  531MPD2     C 7879   2.412   1.207  12.741 -0.1140 -0.0691  0.7502
  531MPD2    C1 7880   2.287   1.187  12.792 -0.6520 -1.3671  0.1160
  531MPD2    C2 7881   2.203   1.102  12.726 -0.0489 -0.2489 -0.1259
  531MPD2    C3 7882   2.255   1.032  12.620 -0.5410 -0.0990  0.1361
  531MPD2    C4 7883   2.385   1.052  12.572  0.4032 -0.6326 -0.4911
  531MPD2    C5 7884   2.458   1.149  12.631  0.1561  1.2358 -0.1187
  531MPD2     H 7885   2.106   1.070  12.760 -0.5499  0.0681 -1.2422
  531MPD2    H1 7886   2.427   1.010  12.481  0.0052 -3.6718  0.7454
  531MPD2    H2 7887   2.480   1.278  12.788  0.9610 -0.0269 -0.8898
  531MPD2    H3 7888   2.559   1.162  12.593 -0.4061 -0.5739 -2.2156
  531MPD2     N 7889   2.170   0.938  12.562 -0.1102 -0.3455 -0.0643
  531MPD2    H5 7890   2.077   0.934  12.604 -0.4825 -1.0029 -0.9515
  531MPD2    N1 7891   2.257   1.237  12.924  0.5920 -0.8004  0.3689
  531MPD2    H7 7892   2.337   1.291  12.957  0.5303 -1.8515  2.2525
  532TMC3    C1 7893   2.145   1.264  13.131 -0.2107  0.3346 -0.6441
  532TMC3    C2 7894   2.036   1.222  13.206  0.4606 -0.7010 -0.1100
  532TMC3    C3 7895   2.051   1.178  13.333  0.5994  0.0219 -0.0800
  532TMC3    C4 7896   2.269   1.282  13.185  0.5821 -0.4430 -0.9366
  532TMC3    C5 7897   2.277   1.242  13.317  0.4630 -0.9454  0.5255
  532TMC3    C6 7898   2.173   1.199  13.396  0.0171  0.0507 -0.8020
  532TMC3     C 7899   2.142   1.208  12.995  0.7002  0.1887  0.9784
  532TMC3     O 7900   2.030   1.177  12.946 -0.1835 -0.1599  0.4853
  532TMC3     H 7901   1.933   1.233  13.172  0.2259  0.0624  0.8511
  532TMC3    H1 7902   2.359   1.309  13.131  1.5923 -0.3375  0.8014
  532TMC3    H2 7903   2.186   1.165  13.499  0.1936  0.1373 -0.7959
  532TMC3    C7 7904   2.415   1.207  13.352 -0.4548 -0.0549  0.1456
  532TMC3    C8 7905   1.992   1.051  13.362  0.9874 -0.1502 -0.3300
  532TMC3    O1 7906   2.513   1.250  13.287 -0.0237  0.0481 -0.2781
  532TMC3    O2 7907   2.014   1.009  13.474  0.8239  0.6576 -0.3647
  533TMC3    C1 7908   3.296   2.619  14.349  0.5460  0.1352  0.4966
  533TMC3    C2 7909   3.414   2.683  14.334 -0.3253  0.0268  0.0858
  533TMC3    C3 7910   3.449   2.784  14.422  1.1459  0.1095  0.2624
  533TMC3    C4 7911   3.204   2.666  14.436  0.0146 -0.3958 -0.0164
  533TMC3    C5 7912   3.241   2.764  14.527  0.7228 -0.1138  0.0949
  533TMC3    C6 7913   3.369   2.818  14.525  0.0098  0.1784  0.4901
  533TMC3     C 7914   3.304   2.473  14.364 -0.4605 -0.0392 -0.4349
  533TMC3     O 7915   3.404   2.418  14.414 -0.0760  0.7617 -0.0047
  533TMC3     H 7916   3.494   2.644  14.271  0.1743 -1.4823  1.6613
  533TMC3    H1 7917   3.110   2.614  14.448  0.9383 -2.1278 -0.2107
  533TMC3    H2 7918   3.408   2.889  14.596 -1.0142  0.8381  0.3810
  533TMC3    C7 7919   3.193   2.738  14.663 -0.6327 -0.4068  0.0528
  533TMC3    C8 7920   3.584   2.828  14.434 -0.0905  0.3885  0.3584
  533TMC3    O1 7921   3.140   2.630  14.673  0.2190  0.1752  0.6011
  533TMC3    O2 7922   3.617   2.854  14.551 -0.2745 -0.0076  0.0298
  534MPD2     C 7923   1.308   3.239   1.240  0.3759  0.5839  0.1950
  534MPD2    C1 7924   1.345   3.372   1.236  1.0511  0.9879 -0.0643
  534MPD2    C2 7925   1.239   3.467   1.234  0.0184  0.2158 -0.8902
  534MPD2    C3 7926   1.105   3.433   1.232  0.5111  0.3641  0.0446
  534MPD2    C4 7927   1.077   3.301   1.242 -0.0438 -0.2206  0.1979
  534MPD2    C5 7928   1.177   3.201   1.246  0.5207  0.6315  0.4665
  534MPD2     H 7929   1.265   3.571   1.218 -0.0946  0.5321  1.0204
  534MPD2    H1 7930   0.976   3.272   1.268 -0.4553  1.0030 -0.0549
  534MPD2    H2 7931   1.371   3.153   1.260  0.2979  0.7943  1.3700
  534MPD2    H3 7932   1.161   3.094   1.250  0.3581  0.6461  0.2029
  534MPD2     N 7933   0.996   3.517   1.205 -0.0379  0.0241 -0.3732
  534MPD2    H5 7934   0.902   3.481   1.191  0.6715 -2.4947  1.4601
  534MPD2    N1 7935   1.479   3.414   1.232  0.0685 -0.8522  0.0149
  534MPD2    H7 7936   1.496   3.514   1.236  0.6998 -0.8754 -2.1718
  535TMC3    C1 7937   0.869   3.694   1.143 -0.2133 -0.1443 -0.5480
  535TMC3    C2 7938   0.756   3.641   1.198  1.0655 -0.8527  0.4210
  535TMC3    C3 7939   0.643   3.689   1.138 -0.6272 -0.2791  0.0774
  535TMC3    C4 7940   0.878   3.776   1.036  0.0717 -0.3372 -0.6828
  535TMC3    C5 7941   0.765   3.813   0.975 -0.3708  0.3243 -0.1534
  535TMC3    C6 7942   0.648   3.758   1.020  0.6489  0.1163  0.6126
  535TMC3     C 7943   1.002   3.649   1.177 -0.4569 -0.1224 -0.6357
  535TMC3     O 7944   1.093   3.727   1.166  0.1756  0.6145  0.5571
  535TMC3     H 7945   0.752   3.603   1.300  1.5926  0.1784  0.8239
  535TMC3    H1 7946   0.976   3.805   1.001 -1.4148  1.3391 -3.4408
  535TMC3    H2 7947   0.552   3.793   0.986  0.9435  0.1478 -0.1767
  535TMC3    C7 7948   0.773   3.792   0.831  0.6803  0.2798 -0.2014
  535TMC3    C8 7949   0.511   3.653   1.191 -0.1212  0.0957  0.5739
  535TMC3    O1 7950   0.871   3.842   0.780  0.0720  0.2533  0.1385
  535TMC3    O2 7951   0.431   3.621   1.109 -0.5183  0.0377 -0.5180
  536MPD2     C 7952   4.710   1.939  15.766 -0.3639 -0.2266  0.7861
  536MPD2    C1 7953   0.084   2.021  15.815  0.1806 -0.1772  0.1723
  536MPD2    C2 7954   0.179   2.082  15.730  0.5424 -0.1832  0.3179
  536MPD2    C3 7955   0.162   2.067  15.593  0.3824  0.5723  0.5372
  536MPD2    C4 7956   0.067   1.980  15.548  0.5446 -0.4493 -0.1821
  536MPD2    C5 7957   4.709   1.917  15.638 -0.0225  0.0509  0.0697
  536MPD2     H 7958   0.268   2.136  15.760  0.8371 -0.1856 -0.5354
  536MPD2    H1 7959   0.046   1.964  15.443 -1.3580 -1.9447  0.4317
  536MPD2    H2 7960   4.634   1.889  15.825 -0.6704 -0.0041  0.5797
  536MPD2    H3 7961   4.643   1.847  15.588  0.3965  0.1931 -0.6947
  536MPD2     N 7962   0.246   2.138  15.497 -0.2727 -0.3136  0.1168
  536MPD2    H5 7963   0.221   2.127  15.399  0.3857  0.2287 -0.1061
  536MPD2    N1 7964   0.084   2.022  15.955  0.5814  0.3473 -0.4966
  536MPD2    H7 7965   0.006   1.978  16.001  0.1845  0.0102 -1.4904
  537TMC3    C1 7966   0.180   2.040  16.175  0.2361 -1.0429  0.4046
  537TMC3    C2 7967   0.305   2.036  16.236  0.4988 -0.0499 -0.9767
  537TMC3    C3 7968   0.302   2.018  16.369  0.7343  0.7464  0.0222
  537TMC3    C4 7969   0.055   2.032  16.233  0.4398  0.2414  0.2510
  537TMC3    C5 7970   0.066   2.001  16.363  0.0181 -0.2146 -0.1829
  537TMC3    C6 7971   0.187   1.987  16.434  0.4068  0.0595 -0.1922
  537TMC3     C 7972   0.192   2.063  16.031  1.0011  0.4086 -0.5486
  537TMC3     O 7973   0.305   2.095  15.991 -0.5516 -0.6810  0.2879
  537TMC3     H 7974   0.397   2.057  16.182  1.5558 -0.1793  0.7618
  537TMC3    H1 7975   4.685   2.056  16.184  1.2765  0.0603 -1.4021
  537TMC3    H2 7976   0.196   1.982  16.542 -1.1747  0.4608 -0.0472
  537TMC3    C7 7977   4.661   1.965  16.414 -0.6174  0.4331  0.0846
  537TMC3    C8 7978   0.410   2.073  16.454 -0.2272 -0.2724 -0.5329
  537TMC3    O1 7979   4.562   2.011  16.362  0.2143  0.6312  0.1152
  537TMC3    O2 7980   0.356   2.129  16.548  0.4204  0.0465 -0.2412
  538TMC3    C1 7981   1.487   4.723  11.516 -0.4811  0.5614  0.2024
  538TMC3    C2 7982   1.594   0.042  11.447 -0.0294  0.7481  0.2716
  538TMC3    C3 7983   1.597   0.171  11.401  0.3060  0.8406 -0.5777
  538TMC3    C4 7984   1.377   0.084  11.530  0.9661 -0.0934  0.0533
  538TMC3    C5 7985   1.378   0.210  11.479  0.2359 -0.3112 -0.4836
  538TMC3    C6 7986   1.494   0.255  11.421 -0.0872 -0.8769 -0.4636
  538TMC3     C 7987   1.490   4.590  11.573 -0.8677 -0.0728  0.5841
  538TMC3     O 7988   1.412   4.574  11.669 -0.1832  0.4799  0.0195
  538TMC3     H 7989   1.688   4.711  11.456 -1.0631 -0.8397  1.6248
  538TMC3    H1 7990   1.288   0.042  11.576 -0.2658  0.5693 -1.7088
  538TMC3    H2 7991   1.499   0.348  11.366 -1.8844 -0.1092  0.6539
  538TMC3    C7 7992   1.247   0.268  11.458 -0.3725 -0.1403 -0.8832
  538TMC3    C8 7993   1.713   0.216  11.336  0.0042  0.1328  0.0953
  538TMC3    O1 7994   1.146   0.215  11.506 -0.5577 -0.2045  0.2190
  538TMC3    O2 7995   1.716   0.336  11.308  0.3877  0.0626  0.6034
  539MPD2     C 7996   0.749   3.833  11.628 -0.0071 -0.2332  0.3585
  539MPD2    C1 7997   0.872   3.847  11.564 -0.0961 -0.1713  0.0109
  539MPD2    C2 7998   0.939   3.968  11.555  0.3557 -0.3946  0.2510
  539MPD2    C3 7999   0.890   4.077  11.624  0.8208  0.3104  0.4067
  539MPD2    C4 8000   0.763   4.068  11.675 -0.1770  0.0962 -0.2190
  539MPD2    C5 8001   0.695   3.948  11.673  0.1453 -0.4499 -0.2629
  539MPD2     H 8002   1.040   3.966  11.516  0.2194  0.5345 -0.1440
  539MPD2    H1 8003   0.712   4.151  11.724 -0.9204 -0.1464 -0.5833
  539MPD2    H2 8004   0.684   3.746  11.632  2.1002 -1.6975  2.1994
  539MPD2    H3 8005   0.593   3.947  11.708  0.1485 -0.2687 -0.2453
  539MPD2     N 8006   0.960   4.198  11.632  0.0773  0.5604 -0.3069
  539MPD2    H5 8007   0.906   4.267  11.683  0.0140  0.1796  0.1409
  539MPD2    N1 8008   0.925   3.738  11.493  0.3722  0.0236 -0.3059
  539MPD2    H7 8009   1.013   3.750  11.444 -0.1587  0.5926 -1.1161
  540TMC3    C1 8010   1.113   4.380  11.605 -0.3950  0.1745 -0.0279
  540TMC3    C2 8011   1.198   4.420  11.507  0.3325 -0.1764  0.3373
  540TMC3    C3 8012   1.172   4.543  11.450 -0.3051  0.1077 -0.2281
  540TMC3    C4 8013   1.022   4.462  11.672 -0.1599 -0.3639 -0.2013
  540TMC3    C5 8014   0.999   4.583  11.612 -0.0887  0.1500 -0.5191
  540TMC3    C6 8015   1.069   4.622  11.497 -0.4809 -0.1636  0.6614
  540TMC3     C 8016   1.080   4.233  11.581 -0.0445  0.6358 -0.4225
  540TMC3     O 8017   1.156   4.165  11.514 -0.0053  0.0870  0.1918
  540TMC3     H 8018   1.280   4.359  11.470 -0.7701 -0.8999 -0.9014
  540TMC3    H1 8019   0.949   4.424  11.742 -0.4854  2.9668  1.2552
  540TMC3    H2 8020   1.046   4.719  11.455  2.8152  0.3263 -0.0098
  540TMC3    C7 8021   0.886   4.669  11.659 -0.4388 -0.5104 -0.1608
  540TMC3    C8 8022   1.224   4.561  11.324 -0.5785 -0.0756  0.3289
  540TMC3    O1 8023   0.831   0.010  11.573  0.1334 -0.0812  0.0419
  540TMC3    O2 8024   1.337   4.529  11.288 -0.1480 -0.5848  0.3485
  541MPD2     C 8025   3.172   0.877  12.532  0.7827 -0.2808  0.6866
  541MPD2    C1 8026   3.308   0.861  12.523 -0.3607  0.1630  0.0744
  541MPD2    C2 8027   3.380   0.916  12.413 -0.7164  0.0513  0.2179
  541MPD2    C3 8028   3.308   0.962  12.307  0.3287  0.0014  0.4425
  541MPD2    C4 8029   3.170   0.966  12.310  0.6904 -0.4830 -0.2496
  541MPD2    C5 8030   3.104   0.925  12.428 -0.6052 -0.3328 -0.4150
  541MPD2     H 8031   3.488   0.919  12.401 -0.9421  0.1896 -1.7259
  541MPD2    H1 8032   3.114   0.987  12.220 -1.1595 -4.0600  0.0662
  541MPD2    H2 8033   3.109   0.833  12.609 -1.2049 -1.7957 -1.7925
  541MPD2    H3 8034   2.996   0.924  12.436 -0.6889 -2.0130 -1.7776
  541MPD2     N 8035   3.365   0.996  12.179  0.4582  0.5093  0.1432
  541MPD2    H5 8036   3.295   1.014  12.108 -1.6820 -2.9548  1.3926
  541MPD2    N1 8037   3.365   0.805  12.631  0.1420 -0.3826 -0.8295
  541MPD2    H7 8038   3.304   0.783  12.709 -1.6800  3.7654 -1.0556
  542TMC3    C1 8039   3.519   1.032  11.999 -0.1477 -0.4113 -0.0850
  542TMC3    C2 8040   3.646   1.023  11.941 -0.1669  1.0991  0.4568
  542TMC3    C3 8041   3.671   1.086  11.817  0.4894  0.5991  0.2027
  542TMC3    C4 8042   3.424   1.109  11.935  0.1313 -0.7306  0.3337
  542TMC3    C5 8043   3.465   1.187  11.825 -0.4014  0.4672 -0.0814
  542TMC3    C6 8044   3.580   1.171  11.759 -0.6339  0.1312  0.0897
  542TMC3     C 8045   3.502   0.993  12.137 -0.0431 -0.3922  0.3163
  542TMC3     O 8046   3.601   0.968  12.202 -0.0213  0.3796  0.3348
  542TMC3     H 8047   3.716   0.963  11.999  0.7198  1.3109 -0.3951
  542TMC3    H1 8048   3.327   1.135  11.975 -0.0136  0.4757 -0.8350
  542TMC3    H2 8049   3.594   1.207  11.658 -1.3408 -1.2444 -0.5064
  542TMC3    C7 8050   3.384   1.304  11.789 -0.1279 -0.0724  0.6722
  542TMC3    C8 8051   3.801   1.084  11.752  0.3157 -0.7990  0.1383
  542TMC3    O1 8052   3.298   1.341  11.872 -0.1223  0.3505 -0.8743
  542TMC3    O2 8053   3.818   1.166  11.665  0.5158  0.3721  0.1226
  543TMC3    C1 8054   3.443   2.798  16.223  0.3716  0.6264 -0.6822
  543TMC3    C2 8055   3.375   2.686  16.263 -0.7239  0.2429  0.1304
  543TMC3    C3 8056   3.294   2.699  16.371 -0.1497  0.1608 -0.6738
  543TMC3    C4 8057   3.437   2.916  16.294 -0.0285  0.9025  0.1132
  543TMC3    C5 8058   3.367   2.920  16.411  0.1317  0.4544 -0.5886
  543TMC3    C6 8059   3.283   2.815  16.445  0.0602  0.3741 -0.5436
  543TMC3     C 8060   3.516   2.790  16.100 -0.6059  0.0881 -0.3581
  543TMC3     O 8061   3.552   2.676  16.069 -0.0742  0.1956 -0.3170
  543TMC3     H 8062   3.382   2.590  16.213 -0.0612 -1.0183  2.6624
  543TMC3    H1 8063   3.501   3.001  16.275 -0.5113  1.5801  1.5351
  543TMC3    H2 8064   3.218   2.821  16.532 -0.1730 -1.7938 -0.5545
  543TMC3    C7 8065   3.435   3.002  16.515  0.1931  0.1320  0.0293
  543TMC3    C8 8066   3.225   2.581  16.417 -0.0756 -0.3789 -0.2922
  543TMC3    O1 8067   3.528   3.074  16.484 -0.1111 -0.3416  0.1729
  543TMC3    O2 8068   3.283   2.477  16.389 -0.3043 -0.2037  0.4177
  544MPD2     C 8069   2.929   2.389  16.780 -0.3049  0.9152  0.1833
  544MPD2    C1 8070   3.041   2.334  16.730 -0.4099 -0.2827  0.8346
  544MPD2    C2 8071   3.110   2.413  16.638 -0.6790 -0.4178 -0.6369
  544MPD2    C3 8072   3.064   2.533  16.598  0.1905  0.5164  0.4132
  544MPD2    C4 8073   2.954   2.590  16.652  0.8192  0.2556 -0.3409
  544MPD2    C5 8074   2.883   2.512  16.743 -0.3417 -0.0512 -0.6480
  544MPD2     H 8075   3.206   2.384  16.596 -1.2430  1.1889 -3.0400
  544MPD2    H1 8076   2.911   2.686  16.625 -0.3800  0.3408  1.8448
  544MPD2    H2 8077   2.871   2.330  16.851  0.8031  1.0034  1.1679
  544MPD2    H3 8078   2.794   2.556  16.788 -1.1842 -2.7068  0.2706
  544MPD2     N 8079   3.124   2.611  16.499  0.0707 -0.6902 -0.2657
  544MPD2    H5 8080   3.088   2.705  16.487 -0.1964 -0.7817 -0.2029
  544MPD2    N1 8081   3.087   2.209  16.775 -0.1939 -0.4877  0.9310
  544MPD2    H7 8082   3.036   2.166  16.852 -0.3390 -1.8106  0.0893
  545TMC3    C1 8083   3.245   2.054  16.840 -0.4088 -0.0053  0.5194
  545TMC3    C2 8084   3.337   1.964  16.799  0.6419 -0.2134 -0.1608
  545TMC3    C3 8085   3.366   1.858  16.878 -0.3618  0.1273 -0.1297
  545TMC3    C4 8086   3.184   2.051  16.964  0.0218 -0.2002 -0.3653
  545TMC3    C5 8087   3.226   1.945  17.047 -0.7321 -0.8802 -0.1933
  545TMC3    C6 8088   3.315   1.856  17.005  0.2048 -0.0985  0.1541
  545TMC3     C 8089   3.205   2.154  16.746 -0.4312 -0.5722  0.2026
  545TMC3     O 8090   3.278   2.182  16.654  0.1328 -0.1240 -0.5606
  545TMC3     H 8091   3.386   1.972  16.704 -0.5039  0.8771 -0.6581
  545TMC3    H1 8092   3.112   2.120  17.006  1.3519  0.0946  1.4331
  545TMC3    H2 8093   3.323   1.766  17.065  1.8652 -0.5453 -0.7179
  545TMC3    C7 8094   3.198   1.963  17.187  0.4339  0.0981 -0.2107
  545TMC3    C8 8095   3.484   1.781  16.857  0.3339  0.6635  0.0160
  545TMC3    O1 8096   3.124   2.059  17.219  0.0509  0.2146  0.2866
  545TMC3    O2 8097   3.501   1.694  16.942 -0.0657 -0.4897  0.2567
  546MPD2     C 8098   4.711   2.669  16.271  0.0970 -0.3973 -0.0707
  546MPD2    C1 8099   4.623   2.653  16.376  0.4268  0.2756 -0.5768
  546MPD2    C2 8100   4.624   2.740  16.480 -0.0650  0.0381  0.8802
  546MPD2    C3 8101   0.002   2.838  16.482 -0.3151  0.2299 -0.4972
  546MPD2    C4 8102   0.089   2.850  16.382 -0.1467  0.2676 -0.6968
  546MPD2    C5 8103   0.085   2.764  16.275 -0.2339  0.1124  0.0323
  546MPD2     H 8104   4.563   2.729  16.569 -0.0209  0.6308  0.9905
  546MPD2    H1 8105   0.160   2.932  16.377 -0.6293  0.6237 -1.6809
  546MPD2    H2 8106   4.710   2.612  16.179 -1.0723  1.8257 -1.4727
  546MPD2    H3 8107   0.154   2.772  16.192 -0.6037  0.0844 -0.2812
  546MPD2     N 8108   0.002   2.933  16.591 -0.1035 -0.0449 -0.4357
  546MPD2    H5 8109   4.648   2.922  16.656  0.4031 -1.2881 -0.0394
  546MPD2    N1 8110   4.531   2.541  16.385 -0.2107 -0.2843  0.0290
  546MPD2    H7 8111   4.545   2.472  16.312 -0.0015  0.3497 -0.5355
  547TMC3    C1 8112   4.341   2.411  16.447 -0.1180  0.1890 -0.3886
  547TMC3    C2 8113   4.327   2.370  16.310  1.4484  0.3728 -0.0835
  547TMC3    C3 8114   4.214   2.301  16.280  0.2803  0.3048 -0.2952
  547TMC3    C4 8115   4.241   2.381  16.532  0.2470 -0.2942 -0.2342
  547TMC3    C5 8116   4.126   2.310  16.495  0.1143  0.7147 -0.7216
  547TMC3    C6 8117   4.108   2.276  16.364  0.0343 -0.3311  0.2581
  547TMC3     C 8118   4.434   2.514  16.485  0.5786 -0.5296 -0.2024
  547TMC3     O 8119   4.400   2.582  16.581  0.2568 -0.5362 -0.7314
  547TMC3     H 8120   4.404   2.395  16.238 -0.0057  0.5894 -1.5450
  547TMC3    H1 8121   4.254   2.404  16.637  1.5063 -1.7516 -0.0600
  547TMC3    H2 8122   4.018   2.224  16.332 -0.4563  0.7808 -0.1545
  547TMC3    C7 8123   4.007   2.342  16.574 -0.8677 -0.0950  0.6014
  547TMC3    C8 8124   4.174   2.306  16.141  0.3769 -0.2168  0.8151
  547TMC3    O1 8125   3.892   2.347  16.519 -0.2261  0.3707  0.5217
  547TMC3    O2 8126   4.240   2.384  16.076  0.0731 -0.1541  0.3949
  548MPD2     C 8127   0.131   2.975  12.269 -0.3111 -0.2034  0.0183
  548MPD2    C1 8128   0.061   2.855  12.287  1.1122  0.3052 -0.0982
  548MPD2    C2 8129   0.132   2.743  12.242 -0.0917  0.6359 -0.1659
  548MPD2    C3 8130   0.242   2.743  12.160 -0.0881  0.3276  0.7097
  548MPD2    C4 8131   0.298   2.874  12.132 -0.8847  0.2945 -0.1164
  548MPD2    C5 8132   0.243   2.979  12.198 -0.5809 -0.2995 -0.1024
  548MPD2     H 8133   0.087   2.647  12.266  1.0171  0.1792  0.0988
  548MPD2    H1 8134   0.391   2.891  12.079  0.2108 -0.6357  1.4929
  548MPD2    H2 8135   0.106   3.065  12.325  0.9319 -1.1132  2.0565
  548MPD2    H3 8136   0.297   3.072  12.190 -1.0801 -0.2602 -2.9992
  548MPD2     N 8137   0.300   2.622  12.111 -0.0820 -0.0103  0.4424
  548MPD2    H5 8138   0.247   2.537  12.124  0.3213 -0.2187  0.7253
  548MPD2    N1 8139   4.657   2.855  12.347 -0.4612  0.5489  0.1114
  548MPD2    H7 8140   4.631   2.940  12.396 -0.8912  0.8518 -0.6261
  549TMC3    C1 8141   4.447   2.774  12.441 -0.3792 -0.9080  0.3160
  549TMC3    C2 8142   4.393   2.899  12.446 -0.1181 -0.7006 -0.3116
  549TMC3    C3 8143   4.291   2.911  12.541 -0.1201 -0.7428 -0.2411
  549TMC3    C4 8144   4.404   2.665  12.509  0.3136 -0.2126  0.8357
  549TMC3    C5 8145   4.295   2.680  12.593 -0.4415 -0.3770  0.6624
  549TMC3    C6 8146   4.240   2.806  12.612  0.1410  0.4963 -0.0322
  549TMC3     C 8147   4.570   2.752  12.362  0.4599 -0.2930  0.2890
  549TMC3     O 8148   4.581   2.646  12.306  0.0881 -0.1119  0.4389
  549TMC3     H 8149   4.421   2.988  12.391  1.8922 -0.8505  0.4925
  549TMC3    H1 8150   4.461   2.573  12.502  1.4656  0.2849  3.8131
  549TMC3    H2 8151   4.164   2.820  12.687  0.8155  1.4326  0.4825
  549TMC3    C7 8152   4.202   2.569  12.605  0.4487  0.2881  1.0777
  549TMC3    C8 8153   4.211   3.036  12.552 -0.3417 -0.3308 -0.2513
  549TMC3    O1 8154   4.101   2.588  12.672 -0.3134 -0.3887 -0.3404
  549TMC3    O2 8155   4.091   3.021  12.556 -0.1493 -0.0221  0.4555
  550TMC3    C1 8156   2.888   0.544  12.284 -0.3097  0.0139 -0.1552
  550TMC3    C2 8157   2.833   0.662  12.316  0.0014  0.0847 -0.0352
  550TMC3    C3 8158   2.710   0.701  12.270 -0.2757  0.1957  0.3158
  550TMC3    C4 8159   2.831   0.469  12.186 -0.4898  0.2095  0.2598
  550TMC3    C5 8160   2.708   0.508  12.138  0.7458 -0.0077 -0.5836
  550TMC3    C6 8161   2.647   0.629  12.173  0.2498  0.0295  0.5275
  550TMC3     C 8162   3.028   0.547  12.313  0.5795  0.1603  0.0965
  550TMC3     O 8163   3.065   0.514  12.428 -0.0045 -0.0402  0.1234
  550TMC3     H 8164   2.887   0.719  12.392 -0.2434 -0.6455  0.6753
  550TMC3    H1 8165   2.862   0.366  12.181 -0.2177  0.2132  1.9360
  550TMC3    H2 8166   2.547   0.656  12.141  0.9890  2.3089  0.1636
  550TMC3    C7 8167   2.660   0.442  12.023 -0.2234 -0.5474  0.3832
  550TMC3    C8 8168   2.679   0.842  12.276 -0.0814  0.3102  0.3500
  550TMC3    O1 8169   2.542   0.456  11.989 -0.7139 -0.0981 -0.0409
  550TMC3    O2 8170   2.618   0.877  12.177  0.0098  0.1939  0.1870
  551TMC3    C1 8171   0.886   3.374  13.136 -0.0970 -0.3491 -0.4710
  551TMC3    C2 8172   1.002   3.392  13.066  0.2775 -0.5114  0.3166
  551TMC3    C3 8173   1.071   3.510  13.070 -0.6360  0.3676  0.3794
  551TMC3    C4 8174   0.835   3.475  13.209 -0.3306 -0.3576 -0.5857
  551TMC3    C5 8175   0.913   3.593  13.224  0.5920  0.1406  0.3430
  551TMC3    C6 8176   1.034   3.611  13.155  0.6152  0.3495  0.3434
  551TMC3     C 8177   0.790   3.284  13.070 -0.0853 -0.4424  0.1310
  551TMC3     O 8178   0.828   3.229  12.967 -0.6829 -0.5211  0.1847
  551TMC3     H 8179   1.038   3.324  12.989 -0.5234  0.4434 -0.8939
  551TMC3    H1 8180   0.763   3.461  13.289  0.4847  0.1881  0.2425
  551TMC3    H2 8181   1.100   3.695  13.171 -2.1226  1.8216  4.0001
  551TMC3    C7 8182   0.878   3.683  13.339  0.5790 -0.2072  0.0335
  551TMC3    C8 8183   1.175   3.531  12.975 -0.5214  0.0033  0.5828
  551TMC3    O1 8184   0.821   3.638  13.441 -0.0395 -0.4056  0.3782
  551TMC3    O2 8185   1.245   3.435  12.947 -0.2493  0.6305 -0.4444
  552MPD2     C 8186   2.247   0.921  13.722 -0.0221 -0.4418  0.3824
  552MPD2    C1 8187   2.323   0.812  13.742  0.7512  0.0169 -0.7028
  552MPD2    C2 8188   2.374   0.786  13.871 -0.2333 -0.5016  0.4412
  552MPD2    C3 8189   2.362   0.887  13.966  0.4879 -0.4450  0.3141
  552MPD2    C4 8190   2.296   1.003  13.940  0.8976  0.5158  0.0234
  552MPD2    C5 8191   2.231   1.019  13.818  0.2078  0.0090  0.3479
  552MPD2     H 8192   2.435   0.698  13.890  1.8023  0.4627 -1.5719
  552MPD2    H1 8193   2.286   1.071  14.023  0.2706  1.3301 -0.7152
  552MPD2    H2 8194   2.185   0.933  13.634 -0.0366 -1.8344  0.2029
  552MPD2    H3 8195   2.163   1.103  13.808 -0.7435 -0.4939  2.6511
  552MPD2     N 8196   2.440   0.870  14.087 -0.2491  0.2261 -0.2515
  552MPD2    H5 8197   2.465   0.952  14.139 -1.4175  0.6341 -0.3221
  552MPD2    N1 8198   2.336   0.706  13.647 -0.2068 -0.4734  0.3081
  552MPD2    H7 8199   2.395   0.630  13.677 -1.2124 -1.5563 -0.4674
  553TMC3    C1 8200   2.365   0.617  13.436  0.1444  0.1961 -0.4975
  553TMC3    C2 8201   2.434   0.668  13.330  0.5786 -0.5059 -0.4784
  553TMC3    C3 8202   2.551   0.607  13.282 -0.2529  0.0134  0.7084
  553TMC3    C4 8203   2.390   0.492  13.487  0.1924 -0.1480  0.0660
  553TMC3    C5 8204   2.494   0.423  13.421 -0.0350 -0.4888  0.5658
  553TMC3    C6 8205   2.583   0.480  13.331  0.8775 -1.0853  0.4999
  553TMC3     C 8206   2.307   0.718  13.513 -0.2955  0.5679  0.1107
  553TMC3     O 8207   2.273   0.820  13.456  0.7598  0.4335 -0.1630
  553TMC3     H 8208   2.401   0.766  13.298  0.5280 -0.4100 -0.1323
  553TMC3    H1 8209   2.317   0.441  13.549  2.2653 -3.0341  0.1114
  553TMC3    H2 8210   2.665   0.419  13.294  2.8612  0.3601  2.4691
  553TMC3    C7 8211   2.546   0.306  13.481 -0.4430 -0.5158  0.3578
  553TMC3    C8 8212   2.641   0.663  13.184 -0.7637  0.1905 -0.1922
  553TMC3    O1 8213   2.465   0.236  13.534  0.0220 -0.3085  0.2591
  553TMC3    O2 8214   2.743   0.601  13.150  0.2251  0.3997  0.4351
  554TMC3    C1 8215   4.304   4.257  11.516 -0.5392  0.3986 -0.0641
  554TMC3    C2 8216   4.211   4.304  11.431  0.6913 -0.6819 -0.6486
  554TMC3    C3 8217   4.207   4.437  11.394 -0.0922 -0.1430 -0.0820
  554TMC3    C4 8218   4.397   4.349  11.558  0.4022  0.3058  0.5528
  554TMC3    C5 8219   4.387   4.484  11.522  0.0881 -0.8906  0.3395
  554TMC3    C6 8220   4.288   4.534  11.449  0.2323  0.5322  0.6041
  554TMC3     C 8221   4.279   4.132  11.592  0.4860  0.5064 -0.8454
  554TMC3     O 8222   4.191   4.061  11.549 -0.0854  0.4458  0.2419
  554TMC3     H 8223   4.143   4.227  11.397 -1.5704  1.1527 -0.2746
  554TMC3    H1 8224   4.475   4.329  11.631 -0.7454  2.6683  2.4530
  554TMC3    H2 8225   4.284   4.637  11.418 -0.4837  0.2410 -0.2453
  554TMC3    C7 8226   4.514   4.562  11.513 -0.4561 -0.6565 -0.2263
  554TMC3    C8 8227   4.174   4.470  11.256 -0.1117 -0.4199 -0.0019
  554TMC3    O1 8228   4.517   4.660  11.438 -0.0559  0.9279 -0.0577
  554TMC3    O2 8229   4.207   4.581  11.219  0.5952 -0.2328  0.1237
  555TMC3    C1 8230   3.821   3.730  14.673 -1.3833 -0.0948 -0.6919
  555TMC3    C2 8231   3.823   3.849  14.743 -0.2163  0.5345 -0.3425
  555TMC3    C3 8232   3.824   3.838  14.877 -0.5420 -0.4770 -0.4417
  555TMC3    C4 8233   3.810   3.609  14.730  0.4830 -0.2408 -0.3579
  555TMC3    C5 8234   3.803   3.604  14.868  0.1055  0.0946 -0.4204
  555TMC3    C6 8235   3.810   3.720  14.942  0.4039  0.1845 -0.2910
  555TMC3     C 8236   3.857   3.743  14.531  0.3215 -0.2018 -0.2177
  555TMC3     O 8237   3.924   3.655  14.475 -0.1193 -0.1154  0.1791
  555TMC3     H 8238   3.852   3.943  14.698  0.2873  0.4801 -0.1355
  555TMC3    H1 8239   3.809   3.516  14.676 -2.4143 -1.7302  2.2779
  555TMC3    H2 8240   3.818   3.717  15.050 -2.2668  0.5342 -0.0705
  555TMC3    C7 8241   3.764   3.483  14.942  0.4490  0.2031  0.2960
  555TMC3    C8 8242   3.827   3.967  14.936 -0.0360  0.5804  0.0800
  555TMC3    O1 8243   3.700   3.484  15.047 -0.2936  0.1334 -0.1883
  555TMC3    O2 8244   3.790   4.066  14.873 -0.6314 -0.7662  0.2446
  556MPD2     C 8245   1.447   0.454  10.915  1.0194 -0.1735  0.4303
  556MPD2    C1 8246   1.549   0.415  11.000 -0.6892 -0.9879 -0.3520
  556MPD2    C2 8247   1.615   0.297  10.976  0.0849  0.7340 -0.0872
  556MPD2    C3 8248   1.574   0.213  10.873  0.2854  0.0314 -0.2996
  556MPD2    C4 8249   1.460   0.238  10.808  0.1552 -0.2453 -0.0741
  556MPD2    C5 8250   1.400   0.362  10.824 -0.0589 -0.6120  0.2109
  556MPD2     H 8251   1.700   0.289  11.042  0.1351 -0.6835 -0.3303
  556MPD2    H1 8252   1.412   0.166  10.743  0.4555 -2.1960  1.8509
  556MPD2    H2 8253   1.395   0.549  10.926  0.3072 -0.3954 -1.1425
  556MPD2    H3 8254   1.307   0.388  10.774  0.7120  2.1010  0.1975
  556MPD2     N 8255   1.656   0.101  10.861 -0.0888  0.6518  0.4735
  556MPD2    H5 8256   1.739   0.102  10.919 -0.2049 -1.3498  0.6890
  556MPD2    N1 8257   1.598   0.495  11.109 -0.0350  0.4497 -0.6368
  556MPD2    H7 8258   1.668   0.456  11.171 -0.6929 -1.8472 -1.3275
  557TMC3    C1 8259   1.747   4.638  10.750  0.0661 -0.0869  0.2529
  557TMC3    C2 8260   1.728   4.527  10.676 -0.1619 -0.4762  0.1529
  557TMC3    C3 8261   1.842   4.446  10.653 -0.0209 -0.2025  0.2810
  557TMC3    C4 8262   1.871   4.667  10.803 -0.1815 -0.3175 -0.2555
  557TMC3    C5 8263   1.976   4.579  10.786  0.2531  0.3935 -0.0681
  557TMC3    C6 8264   1.963   4.464  10.710  0.5581  0.2118 -0.1415
  557TMC3     C 8265   1.635   0.004  10.761  0.2672 -0.2941 -0.7514
  557TMC3     O 8266   1.548   4.711  10.677 -0.3621 -0.1073  0.5209
  557TMC3     H 8267   1.628   4.506  10.639 -1.4254 -0.9233  3.7686
  557TMC3    H1 8268   1.896   0.039  10.850 -0.7201 -0.5277  0.4592
  557TMC3    H2 8269   2.041   4.389  10.709  2.2491  1.9725 -0.2302
  557TMC3    C7 8270   2.048   4.558  10.922 -0.1621  0.0644  0.0790
  557TMC3    C8 8271   1.824   4.364  10.533  0.3490 -0.2701  0.4013
  557TMC3    O1 8272   1.994   4.475  10.996 -0.2177  0.2246  0.9797
  557TMC3    O2 8273   1.709   4.367  10.486  0.4061  0.7171  0.0299
  558TMC3    C1 8274   4.552   3.473   9.877  0.1273  0.1078 -0.6129
  558TMC3    C2 8275   4.438   3.473   9.944 -0.1413 -0.4311 -0.1155
  558TMC3    C3 8276   4.328   3.407   9.896  0.0593  0.6304  0.3472
  558TMC3    C4 8277   4.572   3.394   9.768  1.0487  0.9516  1.2140
  558TMC3    C5 8278   4.467   3.319   9.728  0.1562 -0.6157 -0.3640
  558TMC3    C6 8279   4.345   3.318   9.793  0.5464 -0.3858  0.5501
  558TMC3     C 8280   4.674   3.503   9.945 -0.3876  0.4713 -0.2829
  558TMC3     O 8281   0.053   3.484   9.879 -0.1505 -0.7262 -0.7834
  558TMC3     H 8282   4.418   3.538  10.029  0.1449 -0.0975 -0.3025
  558TMC3    H1 8283   4.667   3.382   9.716  0.7567 -1.8648  1.3564
  558TMC3    H2 8284   4.256   3.280   9.745  1.2870 -1.9704  0.4607
  558TMC3    C7 8285   4.498   3.215   9.628  0.8832  0.1668  0.1579
  558TMC3    C8 8286   4.213   3.393   9.982  0.2448  0.2220 -0.0910
  558TMC3    O1 8287   4.601   3.231   9.563 -0.0015  0.1911 -0.0773
  558TMC3    O2 8288   4.109   3.358   9.924 -0.0902 -0.0779 -0.1760
  559MPD2     C 8289   4.638   4.194  10.341 -0.4736  0.3906  0.2560
  559MPD2    C1 8290   4.544   4.186  10.436  0.0971  0.0097 -0.1281
  559MPD2    C2 8291   4.579   4.197  10.568  0.1208  0.7414  0.4835
  559MPD2    C3 8292   4.709   4.223  10.603 -0.3388  0.3680 -0.4250
  559MPD2    C4 8293   0.078   4.248  10.508 -0.4882  0.4900 -0.0681
  559MPD2    C5 8294   0.039   4.228  10.376  0.2026  0.0121 -0.3634
  559MPD2     H 8295   4.508   4.165  10.644 -0.2319  2.4924  0.8932
  559MPD2    H1 8296   0.183   4.275  10.517 -1.0781  3.5811 -2.3533
  559MPD2    H2 8297   4.609   4.180  10.238 -1.8878  0.5374  0.6324
  559MPD2    H3 8298   0.114   4.227  10.298  1.3537  2.4115  0.7091
  559MPD2     N 8299   0.012   4.231  10.739 -0.1630 -0.3226 -0.4104
  559MPD2    H5 8300   4.654   4.211  10.796  2.1838 -3.1367  2.0068
  559MPD2    N1 8301   4.409   4.145  10.396 -0.0419 -0.0503 -0.1042
  559MPD2    H7 8302   4.394   4.145  10.296 -2.5294 -0.3826  0.2718
  560TMC3    C1 8303   0.145   4.205  10.941  0.1217  0.0857  0.2584
  560TMC3    C2 8304   0.056   4.103  10.980  0.6147 -0.1570 -0.5360
  560TMC3    C3 8305   0.104   4.005  11.066 -0.1507 -0.0687  0.3553
  560TMC3    C4 8306   0.270   4.216  10.988  0.0522  0.6340  0.4321
  560TMC3    C5 8307   0.314   4.123  11.080  0.8992 -0.2093  0.2541
  560TMC3    C6 8308   0.230   4.020  11.116  0.2472  0.5149 -0.4821
  560TMC3     C 8309   0.135   4.251  10.796 -0.4319 -0.1158 -0.0949
  560TMC3     O 8310   0.238   4.288  10.746 -0.1673  0.2320  0.3132
  560TMC3     H 8311   4.680   4.096  10.937 -0.2704  2.3912  1.0637
  560TMC3    H1 8312   0.330   4.296  10.948 -0.8247  0.3549 -1.4655
  560TMC3    H2 8313   0.246   3.944  11.192  0.5605 -0.0980 -1.1616
  560TMC3    C7 8314   0.419   4.160  11.170 -0.2742  0.1093 -0.2750
  560TMC3    C8 8315   0.043   3.881  11.058  0.9420  0.1218 -0.4454
  560TMC3    O1 8316   0.411   4.119  11.284 -0.2788 -0.0713 -0.3035
  560TMC3    O2 8317   4.645   3.883  11.046 -0.3593 -0.3413  0.0611
  561TMC3    C1 8318   2.655   2.884  11.065  0.1715 -0.1282  0.7141
  561TMC3    C2 8319   2.534   2.833  11.107 -0.5068  0.5044 -0.8669
  561TMC3    C3 8320   2.455   2.895  11.194 -0.5979  0.1895 -0.4761
  561TMC3    C4 8321   2.697   3.004  11.113 -0.4429  0.2777 -0.2296
  561TMC3    C5 8322   2.606   3.069  11.195  0.2468  0.3246 -0.2289
  561TMC3    C6 8323   2.488   3.016  11.245  0.4623  0.5100 -0.2413
  561TMC3     C 8324   2.749   2.810  10.973  0.5816 -0.0535 -1.0884
  561TMC3     O 8325   2.844   2.873  10.928 -0.5668 -0.0126 -0.1054
  561TMC3     H 8326   2.494   2.748  11.053  0.0201 -1.7121  2.2493
  561TMC3    H1 8327   2.798   3.036  11.087  0.0711  0.0090  1.4175
  561TMC3    H2 8328   2.425   3.071  11.314 -0.0588 -1.4936  0.8710
  561TMC3    C7 8329   2.628   3.212  11.215  0.2993  0.5240 -0.4664
  561TMC3    C8 8330   2.368   2.806  11.273  0.1460 -0.5016  0.3359
  561TMC3    O1 8331   2.571   3.255  11.312 -0.1436 -0.2860 -0.1767
  561TMC3    O2 8332   2.366   2.690  11.234 -0.3038 -1.3719 -0.6185
  562TMC3    C1 8333   3.542   4.197  15.367  0.1359 -0.7366  1.1882
  562TMC3    C2 8334   3.502   4.222  15.235  0.1959  0.5638 -0.0646
  562TMC3    C3 8335   3.487   4.112  15.144 -0.1603  0.3272 -0.1849
  562TMC3    C4 8336   3.569   4.068  15.400  0.0114  0.0988  0.2587
  562TMC3    C5 8337   3.526   3.961  15.314  0.6785  0.2335 -1.0682
  562TMC3    C6 8338   3.489   3.982  15.183  0.4981  0.1076  0.4272
  562TMC3     C 8339   3.599   4.295  15.456 -0.4650 -0.0925 -0.0536
  562TMC3     O 8340   3.605   4.255  15.572 -0.4187 -0.1641  0.0404
  562TMC3     H 8341   3.473   4.321  15.204  0.6504  0.9546  0.7460
  562TMC3    H1 8342   3.619   4.047  15.493  0.5781  1.6140  0.2961
  562TMC3    H2 8343   3.468   3.907  15.107  1.6075  1.0591 -0.8214
  562TMC3    C7 8344   3.550   3.828  15.356  0.2636  0.6394  0.2669
  562TMC3    C8 8345   3.450   4.146  15.012  0.0825 -0.1857 -0.4478
  562TMC3    O1 8346   3.558   3.738  15.274  0.4565 -0.3695 -0.2531
  562TMC3    O2 8347   3.402   4.061  14.935  0.9353  0.1334  0.1854
  563MPD2     C 8348   1.119   0.951  15.494 -0.7649  0.0851 -0.6374
  563MPD2    C1 8349   1.089   1.073  15.538  0.2376  0.3626  0.5387
  563MPD2    C2 8350   1.172   1.145  15.613 -0.4176  0.3890 -0.0660
  563MPD2    C3 8351   1.293   1.083  15.657 -0.1962  0.1164  0.2163
  563MPD2    C4 8352   1.323   0.958  15.613  0.3508 -0.1016 -0.1250
  563MPD2    C5 8353   1.231   0.888  15.539 -0.2527  0.5970  0.2554
  563MPD2     H 8354   1.144   1.247  15.636 -2.2874 -0.1092 -0.1368
  563MPD2    H1 8355   1.410   0.901  15.645  1.3689  0.4686 -1.8719
  563MPD2    H2 8356   1.061   0.895  15.422 -2.5527 -0.0690  0.9123
  563MPD2    H3 8357   1.247   0.788  15.502  0.3414  1.1164 -0.8743
  563MPD2     N 8358   1.374   1.156  15.750  0.4926  0.2789  0.1890
  563MPD2    H5 8359   1.326   1.231  15.799  0.7061  0.2068  0.5046
  563MPD2    N1 8360   0.969   1.123  15.487 -0.0020  0.4524 -0.3534
  563MPD2    H7 8361   0.912   1.051  15.444  4.4498 -1.4260 -3.0787
  564TMC3    C1 8362   0.790   1.207  15.600  0.1597 -0.6201 -1.2322
  564TMC3    C2 8363   0.725   1.103  15.550 -1.1534 -0.2604 -0.1210
  564TMC3    C3 8364   0.661   1.023  15.635 -0.0295 -0.2743 -0.3157
  564TMC3    C4 8365   0.792   1.232  15.737  0.7342  0.8652 -0.1003
  564TMC3    C5 8366   0.728   1.154  15.822 -0.3057 -0.5139 -0.1671
  564TMC3    C6 8367   0.647   1.053  15.768 -0.4892 -0.5693  0.1137
  564TMC3     C 8368   0.907   1.237  15.532  0.3708 -0.6605 -0.4892
  564TMC3     O 8369   0.949   1.352  15.548  0.6435  0.8953  0.0357
  564TMC3     H 8370   0.728   1.078  15.445 -3.0033 -3.3422  0.5416
  564TMC3    H1 8371   0.863   1.304  15.775  2.1036 -0.9171  0.7375
  564TMC3    H2 8372   0.578   0.992  15.825  0.7649 -0.1413  2.0875
  564TMC3    C7 8373   0.835   1.101  15.912  0.5626 -0.1959  0.8348
  564TMC3    C8 8374   0.654   0.874  15.594 -0.4221 -0.7254 -0.1657
  564TMC3    O1 8375   0.909   1.176  15.974 -0.8605 -0.3118  0.3133
  564TMC3    O2 8376   0.672   0.795  15.685 -0.0675 -0.3427 -1.0795
  565TMC3    C1 8377   1.221   1.665  10.057  0.0924  0.7633  0.2815
  565TMC3    C2 8378   1.264   1.574  10.143 -0.1286  0.7064  0.2042
  565TMC3    C3 8379   1.184   1.473  10.182 -0.1010 -0.1029 -0.0657
  565TMC3    C4 8380   1.105   1.655   9.983 -0.1297  0.5286  0.4324
  565TMC3    C5 8381   1.020   1.560  10.033 -0.2246  0.1231  0.4602
  565TMC3    C6 8382   1.060   1.464  10.130 -0.2730 -0.6511 -0.4906
  565TMC3     C 8383   1.309   1.771  10.026 -0.4870 -0.3653 -0.0941
  565TMC3     O 8384   1.293   1.841   9.928 -0.6692  0.0399  0.2670
  565TMC3     H 8385   1.361   1.584  10.192  0.8726 -0.2395 -1.5666
  565TMC3    H1 8386   1.084   1.728   9.906 -1.0723 -1.0227 -0.7981
  565TMC3    H2 8387   0.984   1.407  10.181  0.2635  1.2073  2.3376
  565TMC3    C7 8388   0.885   1.534   9.976 -0.0287 -0.3389 -0.4327
  565TMC3    C8 8389   1.224   1.387  10.294  0.0730 -0.1803  0.0882
  565TMC3    O1 8390   0.831   1.433  10.013 -0.6247  0.1000  0.6007
  565TMC3    O2 8391   1.329   1.427  10.347 -0.3024 -0.4582  0.2654
  566MPD2     C 8392   3.012   3.358  14.169 -0.0482 -0.5351  0.0945
  566MPD2    C1 8393   3.043   3.477  14.103 -1.1154 -0.4482  0.8919
  566MPD2    C2 8394   2.939   3.572  14.092 -0.6079 -0.1900 -0.0593
  566MPD2    C3 8395   2.811   3.543  14.147  0.2079  0.0455  0.0962
  566MPD2    C4 8396   2.797   3.434  14.229 -0.2946 -0.0856 -0.3251
  566MPD2    C5 8397   2.892   3.337  14.229 -0.0798 -1.1522  1.0479
  566MPD2     H 8398   2.956   3.664  14.037  0.5908  0.1385  0.8593
  566MPD2    H1 8399   2.718   3.420  14.302  0.9782  2.2557  1.5109
  566MPD2    H2 8400   3.083   3.278  14.185  2.1284  1.1084 -1.3921
  566MPD2    H3 8401   2.881   3.245  14.285 -1.3723 -1.0318  0.9935
  566MPD2     N 8402   2.701   3.638  14.140 -0.3693  0.5569  0.4807
  566MPD2    H5 8403   2.623   3.614  14.200  0.1285 -2.3333 -0.0011
  566MPD2    N1 8404   3.169   3.495  14.043  0.0514 -0.6316  0.5915
  566MPD2    H7 8405   3.242   3.424  14.043 -1.2391 -1.9439 -1.5015
  567TMC3    C1 8406   3.355   3.618  14.000  0.5329 -0.0409  0.4614
  567TMC3    C2 8407   3.420   3.701  13.915  0.3426 -0.4128 -0.3669
  567TMC3    C3 8408   3.551   3.748  13.939  0.1625 -0.0117  0.6126
  567TMC3    C4 8409   3.413   3.580  14.120 -0.3098 -0.5661  0.3168
  567TMC3    C5 8410   3.536   3.636  14.151 -0.1802 -0.2544 -0.1386
  567TMC3    C6 8411   3.610   3.716  14.058 -0.0452  0.2588 -0.1572
  567TMC3     C 8412   3.213   3.616  13.985  0.2192  0.1021  0.4806
  567TMC3     O 8413   3.154   3.716  13.950  0.4704 -0.3391  0.3899
  567TMC3     H 8414   3.377   3.712  13.817 -3.1325 -0.4550  1.1626
  567TMC3    H1 8415   3.364   3.519  14.195 -0.9988 -0.2687  0.1056
  567TMC3    H2 8416   3.704   3.760  14.089 -1.1300  1.7147  1.0612
  567TMC3    C7 8417   3.555   3.654  14.292  0.9883 -0.5072 -0.2304
  567TMC3    C8 8418   3.579   3.865  13.861 -0.3759  0.3894 -0.2154
  567TMC3    O1 8419   3.658   3.604  14.337  0.5152 -0.0242 -0.6253
  567TMC3    O2 8420   3.491   3.901  13.784  0.1429  0.4049 -0.3349
  568MPD2     C 8421   0.542   4.154  15.910  0.3383  0.0688 -0.1262
  568MPD2    C1 8422   0.633   4.228  15.982  0.4731  0.0429 -0.2733
  568MPD2    C2 8423   0.696   4.334  15.924 -0.3935 -0.0084  0.4194
  568MPD2    C3 8424   0.669   4.375  15.800  0.7083 -0.4099  0.2875
  568MPD2    C4 8425   0.583   4.297  15.725 -0.1045 -0.3816 -0.2706
  568MPD2    C5 8426   0.527   4.183  15.780 -0.0084  0.4698  0.1792
  568MPD2     H 8427   0.758   4.401  15.984  2.4891 -0.3745 -2.1489
  568MPD2    H1 8428   0.555   4.340  15.629 -2.2167  1.1293  1.0210
  568MPD2    H2 8429   0.499   4.063  15.950  1.3104 -0.3567 -0.0244
  568MPD2    H3 8430   0.452   4.129  15.723  1.4997 -0.9451 -0.4681
  568MPD2     N 8431   0.699   4.508  15.765  0.2357 -0.1050 -0.2502
  568MPD2    H5 8432   0.743   4.571  15.831 -0.0329  1.0085 -1.1297
  568MPD2    N1 8433   0.660   4.194  16.119  0.4510 -0.5741 -0.0377
  568MPD2    H7 8434   0.597   4.121  16.151 -0.5736 -0.1875 -1.1405
  569TMC3    C1 8435   0.692   4.708  15.656  0.6933  0.4390 -0.0329
  569TMC3    C2 8436   0.691   0.048  15.775  0.0189  0.5806 -0.4346
  569TMC3    C3 8437   0.746   0.174  15.787  0.4275  0.6175 -0.1323
  569TMC3    C4 8438   0.751   0.043  15.543  0.9273  0.2293 -0.8133
  569TMC3    C5 8439   0.791   0.175  15.554  0.4496  0.2868  0.8073
  569TMC3    C6 8440   0.796   0.235  15.671  1.3530  0.7532  0.6300
  569TMC3     C 8441   0.681   4.562  15.644 -0.3199  0.0942 -0.0859
  569TMC3     O 8442   0.674   4.514  15.535  0.1963 -0.4090  0.2803
  569TMC3     H 8443   0.624   0.019  15.856 -0.4017  0.6363 -0.7614
  569TMC3    H1 8444   0.744   4.721  15.445  2.2007  3.6421 -2.4691
  569TMC3    H2 8445   0.839   0.334  15.686  2.1141  0.3895  0.8270
  569TMC3    C7 8446   0.795   0.257  15.439 -0.3762  1.1372  0.1178
  569TMC3    C8 8447   0.672   0.261  15.873  0.3269  0.4496  0.7066
  569TMC3    O1 8448   0.825   0.216  15.325 -0.2217 -0.1956  0.1836
  569TMC3    O2 8449   0.562   0.229  15.917  0.3458  0.2569  0.1257
  570TMC3    C1 8450   4.560   3.549  16.177 -0.1744 -0.3951  0.0555
  570TMC3    C2 8451   4.646   3.528  16.069  0.6196  0.0526  0.6008
  570TMC3    C3 8452   4.682   3.640  15.993 -0.9761 -0.1076 -0.3117
  570TMC3    C4 8453   4.520   3.676  16.208  0.0814  0.9136  0.9006
  570TMC3    C5 8454   4.566   3.780  16.133 -0.1317  0.1610  0.1207
  570TMC3    C6 8455   4.648   3.764  16.029 -0.1274 -0.2469 -0.1751
  570TMC3     C 8456   4.531   3.428  16.250  0.5841  0.1385 -0.2266
  570TMC3     O 8457   4.555   3.320  16.200 -0.0349 -0.2479  0.6502
  570TMC3     H 8458   4.665   3.427  16.035  2.5556  0.2557  1.0612
  570TMC3    H1 8459   4.446   3.686  16.287 -1.7221  1.9061 -0.9230
  570TMC3    H2 8460   4.687   3.851  15.978  1.4152  0.0322  1.4637
  570TMC3    C7 8461   4.496   3.905  16.145  0.0515 -0.1883  0.4842
  570TMC3    C8 8462   0.076   3.629  15.905  0.0829 -0.1484 -0.3057
  570TMC3    O1 8463   4.440   3.926  16.248  0.2638 -0.1391 -0.1895
  570TMC3    O2 8464   0.113   3.733  15.856 -0.3320  0.0572 -0.2724
  571MPD2     C 8465   2.675   0.426  17.372 -0.5001 -0.6791  0.2344
  571MPD2    C1 8466   2.712   0.353  17.482  0.3037 -0.1198 -0.5073
  571MPD2    C2 8467   2.694   0.409  17.610 -0.2483  0.0088  0.7470
  571MPD2    C3 8468   2.634   0.533  17.624  0.3619 -0.2245 -0.3029
  571MPD2    C4 8469   2.594   0.599  17.510  0.2470  0.8567  0.3668
  571MPD2    C5 8470   2.617   0.547  17.388 -0.4880  0.3710 -0.4496
  571MPD2     H 8471   2.735   0.359   0.002 -0.3697  0.3483  1.0021
  571MPD2    H1 8472   2.550   0.699  17.515 -3.2954 -0.5752 -2.4878
  571MPD2    H2 8473   2.677   0.382  17.273 -3.5402 -0.0987 -0.0800
  571MPD2    H3 8474   2.584   0.598  17.298  0.5816  2.2317  0.2236
  571MPD2     N 8475   2.603   0.594   0.053  0.5730  0.3519  0.0618
  571MPD2    H5 8476   2.568   0.690   0.055  2.2528  1.0080 -2.9382
  571MPD2    N1 8477   2.768   0.228  17.462 -0.2236 -0.6314 -0.5664
  571MPD2    H7 8478   2.781   0.204  17.365 -1.7222 -1.4518 -0.5582
  572TMC3    C1 8479   2.568   0.609   0.288 -0.5949  0.0169 -0.7088
  572TMC3    C2 8480   2.569   0.540   0.412 -0.1987  0.3938  0.4680
  572TMC3    C3 8481   2.535   0.610   0.525 -0.1548  0.2498 -0.2512
  572TMC3    C4 8482   2.547   0.749   0.295 -1.0986  0.2246 -0.2402
  572TMC3    C5 8483   2.526   0.814   0.408 -0.0434  0.3440 -0.4103
  572TMC3    C6 8484   2.512   0.745   0.521 -0.0333 -0.0830  0.1253
  572TMC3     C 8485   2.607   0.528   0.174  0.3386  0.2468 -0.4554
  572TMC3     O 8486   2.657   0.418   0.203 -0.0884 -0.3837 -0.2653
  572TMC3     H 8487   2.550   0.434   0.416  0.3724  0.3729  2.6485
  572TMC3    H1 8488   2.569   0.808   0.207  1.4168  0.0938  0.2916
  572TMC3    H2 8489   2.487   0.791   0.616 -0.0274  0.3364 -0.0761
  572TMC3    C7 8490   2.520   0.957   0.406  0.0610  0.3593 -0.1340
  572TMC3    C8 8491   2.531   0.550   0.651 -0.0013 -0.2895  0.2375
  572TMC3    O1 8492   2.545   1.010   0.296 -0.1278  0.0109  0.3920
  572TMC3    O2 8493   2.440   0.591   0.722 -0.4403  0.3821  0.2878
  573MPD2     C 8494   3.945   1.317   0.846  0.0087 -0.3629 -0.1563
  573MPD2    C1 8495   3.893   1.441   0.807 -0.2214 -0.1094  0.2795
  573MPD2    C2 8496   3.828   1.449   0.683 -0.1586 -0.3297  0.1990
  573MPD2    C3 8497   3.826   1.338   0.607  0.3585 -0.0361 -0.2153
  573MPD2    C4 8498   3.884   1.221   0.645 -0.2972  0.5266 -0.3238
  573MPD2    C5 8499   3.946   1.211   0.763  0.9222  0.0312 -0.6325
  573MPD2     H 8500   3.779   1.536   0.641 -2.9223 -1.3331  1.3848
  573MPD2    H1 8501   3.883   1.129   0.588 -1.0399 -0.3421  1.0927
  573MPD2    H2 8502   3.977   1.300   0.948  0.8279 -0.3421 -0.4091
  573MPD2    H3 8503   3.974   1.113   0.798  1.7816  0.2911 -0.5837
  573MPD2     N 8504   3.773   1.339   0.472 -1.0950  0.0904  0.2163
  573MPD2    H5 8505   3.789   1.263   0.406  0.9057 -1.1677  2.1560
  573MPD2    N1 8506   3.878   1.539   0.907 -0.1234  0.3367 -0.6458
  573MPD2    H7 8507   3.926   1.519   0.994  1.2968  0.2641 -1.4431
  574TMC3    C1 8508   3.639   1.403   0.286  0.4506 -0.3135  0.6816
  574TMC3    C2 8509   3.544   1.484   0.243 -0.0846  0.4998 -0.4315
  574TMC3    C3 8510   3.546   1.522   0.109  0.1163  0.1753  0.1147
  574TMC3    C4 8511   3.722   1.343   0.200 -0.7950 -0.8238 -0.6204
  574TMC3    C5 8512   3.713   1.372   0.066 -0.4528 -0.0237  0.3370
  574TMC3    C6 8513   3.630   1.467   0.015  0.6251 -0.2443 -0.3011
  574TMC3     C 8514   3.680   1.428   0.425 -0.3239  0.0491  0.0824
  574TMC3     O 8515   3.622   1.516   0.488 -0.2634  0.1177  0.1283
  574TMC3     H 8516   3.466   1.526   0.305  0.0242 -1.2512  0.8984
  574TMC3    H1 8517   3.782   1.257   0.228  1.9115  1.5316  0.7913
  574TMC3    H2 8518   3.622   1.483  17.603  1.1866 -0.1993 -0.3341
  574TMC3    C7 8519   3.747   1.261  17.673 -0.0393  0.0053  0.4737
  574TMC3    C8 8520   3.456   1.630   0.089  0.3189  0.4058 -0.5262
  574TMC3    O1 8521   3.746   1.149   0.029 -0.0430  0.4143  0.4318
  574TMC3    O2 8522   3.432   1.707   0.183 -0.2193 -0.2360 -0.1601
  575TMC3    C1 8523   1.834   1.277  10.842  0.7450  0.3411 -0.1368
  575TMC3    C2 8524   1.792   1.253  10.973  0.0765 -0.3425  0.2674
  575TMC3    C3 8525   1.660   1.206  10.977 -0.0826  0.5559 -0.0232
  575TMC3    C4 8526   1.770   1.237  10.728  0.0568 -0.1705 -0.2455
  575TMC3    C5 8527   1.650   1.179  10.750  0.8377  0.1266  0.2737
  575TMC3    C6 8528   1.595   1.158  10.868 -0.7426 -0.2771  0.0109
  575TMC3     C 8529   1.952   1.362  10.840 -0.5140 -0.0431  0.1368
  575TMC3     O 8530   1.973   1.423  10.945  0.0338  0.0334  0.2227
  575TMC3     H 8531   1.854   1.278  11.059  0.9699 -0.3102 -0.3839
  575TMC3    H1 8532   1.819   1.258  10.634  2.3056 -2.4949  0.3943
  575TMC3    H2 8533   1.495   1.118  10.884  0.7953 -4.5836 -1.0841
  575TMC3    C7 8534   1.573   1.162  10.626  0.1623  0.7150 -0.5349
  575TMC3    C8 8535   1.599   1.177  11.107 -0.2382 -0.3395 -0.1218
  575TMC3    O1 8536   1.605   1.239  10.533 -0.1063 -0.1973 -0.6180
  575TMC3    O2 8537   1.517   1.088  11.122  0.0940  0.2420  0.0194
  576MPD2     C 8538   1.468   3.015  12.426 -0.2554  0.1236  0.6097
  576MPD2    C1 8539   1.442   3.118  12.338 -0.1038 -0.0611  0.1372
  576MPD2    C2 8540   1.356   3.215  12.379 -0.1184 -0.0439 -0.0510
  576MPD2    C3 8541   1.292   3.215  12.503 -0.2676 -0.4060 -0.0228
  576MPD2    C4 8542   1.328   3.116  12.589 -0.1193 -0.0691 -0.1373
  576MPD2    C5 8543   1.411   3.017  12.548  0.2308  0.2154 -0.2387
  576MPD2     H 8544   1.335   3.291  12.305 -1.9909 -0.7565 -0.2439
  576MPD2    H1 8545   1.293   3.104  12.691  0.1824  0.0835 -0.0161
  576MPD2    H2 8546   1.531   2.928  12.411 -0.5205  0.0752 -0.2212
  576MPD2    H3 8547   1.420   2.935  12.618  1.5142  1.4849  1.1058
  576MPD2     N 8548   1.196   3.306  12.529 -0.5116  0.8209  0.1552
  576MPD2    H5 8549   1.173   3.378  12.461  0.0614  1.2131  0.3727
  576MPD2    N1 8550   1.501   3.126  12.205 -0.6737 -0.3932 -0.0586
  576MPD2    H7 8551   1.476   3.203  12.144  2.6141 -0.9470 -2.1024
  577TMC3    C1 8552   1.652   3.040  12.026  0.4680  0.4572  0.5609
  577TMC3    C2 8553   1.744   2.942  11.995  0.4995 -0.0866 -0.0150
  577TMC3    C3 8554   1.801   2.948  11.869 -0.2057 -0.2673 -0.4036
  577TMC3    C4 8555   1.613   3.133  11.938  0.0391 -0.2323 -0.3105
  577TMC3    C5 8556   1.671   3.136  11.815 -0.3007 -0.0531  0.3755
  577TMC3    C6 8557   1.757   3.041  11.775 -0.0277  0.4224  0.1114
  577TMC3     C 8558   1.613   3.051  12.169 -0.4349 -0.1657  0.2610
  577TMC3     O 8559   1.689   2.992  12.249  0.4171  0.5068  0.0307
  577TMC3     H 8560   1.780   2.871  12.068  0.6849 -0.9256 -0.9317
  577TMC3    H1 8561   1.544   3.211  11.968 -1.2932 -0.6790 -2.1625
  577TMC3    H2 8562   1.795   3.029  11.674 -1.3727 -2.5150 -0.0329
  577TMC3    C7 8563   1.622   3.227  11.714  0.1429  0.7484 -0.9793
  577TMC3    C8 8564   1.900   2.850  11.842  0.1532 -0.7453  0.1064
  577TMC3    O1 8565   1.511   3.272  11.744  0.1860 -0.2178 -0.2738
  577TMC3    O2 8566   1.919   2.754  11.916 -0.2785 -0.2129 -0.2130
  578MPD2     C 8567   3.764   4.050   1.169  0.1698 -0.4990 -0.5522
  578MPD2    C1 8568   3.809   3.981   1.057 -0.4847 -0.5702 -0.4897
  578MPD2    C2 8569   3.938   3.933   1.059  0.0615  0.3205  0.7710
  578MPD2    C3 8570   4.022   3.951   1.168  0.1374  1.0171 -0.1375
  578MPD2    C4 8571   3.973   4.008   1.283 -0.1008 -0.1495  0.9409
  578MPD2    C5 8572   3.845   4.054   1.278 -0.3349 -0.6411  0.3623
  578MPD2     H 8573   3.973   3.880   0.972  2.2082  1.4607  0.9440
  578MPD2    H1 8574   4.043   4.021   1.365  1.8591  0.3052 -0.7869
  578MPD2    H2 8575   3.666   4.095   1.179  0.3597  0.1776 -1.7085
  578MPD2    H3 8576   3.804   4.093   1.370  1.2303  2.3314 -0.1889
  578MPD2     N 8577   4.153   3.899   1.167 -0.1842 -0.0017  0.4105
  578MPD2    H5 8578   4.184   3.857   1.079 -0.3194 -4.5439  2.5196
  578MPD2    N1 8579   3.725   3.976   0.940  0.3429 -0.5109 -0.2822
  578MPD2    H7 8580   3.647   4.042   0.938 -0.5504 -1.5461  0.3162
  579TMC3    C1 8581   4.342   3.779   1.251  0.3732  0.1176 -0.4378
  579TMC3    C2 8582   4.437   3.777   1.346 -0.1754 -0.4874 -0.1904
  579TMC3    C3 8583   4.533   3.681   1.331 -0.1170 -0.2054 -0.5757
  579TMC3    C4 8584   4.316   3.671   1.170 -0.1830  0.1893  1.2121
  579TMC3    C5 8585   4.406   3.571   1.172 -0.1019  0.0774  0.6614
  579TMC3    C6 8586   4.517   3.572   1.254 -0.4822 -0.0563 -0.1496
  579TMC3     C 8587   4.237   3.875   1.274  0.5499 -0.6641 -0.8448
  579TMC3     O 8588   4.238   3.942   1.375  0.0045  0.2617 -0.1000
  579TMC3     H 8589   4.461   3.863   1.407  1.8649 -0.8728 -0.4637
  579TMC3    H1 8590   4.218   3.672   1.124 -0.0931 -0.1029  1.0127
  579TMC3    H2 8591   4.589   3.492   1.246  0.6470  1.0755 -1.2323
  579TMC3    C7 8592   4.383   3.453   1.090 -0.3327  0.1182 -0.3477
  579TMC3    C8 8593   4.634   3.686   1.431 -0.0001  0.5762 -0.4886
  579TMC3    O1 8594   4.462   3.363   1.117 -0.2521  0.1452 -0.2123
  579TMC3    O2 8595   4.604   3.729   1.540  0.5699 -0.3490  0.6770
  580TMC3    C1 8596   4.386   3.020  12.076 -0.0942  0.0979  0.0683
  580TMC3    C2 8597   4.511   3.070  12.081  0.1277 -0.4001  0.1258
  580TMC3    C3 8598   4.622   3.011  12.026  0.3376 -0.6954 -0.5405
  580TMC3    C4 8599   4.372   2.899  12.018  0.9037 -0.1958  0.1818
  580TMC3    C5 8600   4.493   2.832  11.978  0.9509  0.6121  0.5812
  580TMC3    C6 8601   4.620   2.885  11.984  0.1583  0.3415  0.0452
  580TMC3     C 8602   4.277   3.113  12.054 -0.1415  0.5162 -0.2486
  580TMC3     O 8603   4.167   3.087  12.096 -0.2129 -0.0661 -0.4358
  580TMC3     H 8604   4.515   3.174  12.114 -0.5002 -0.7312  1.2394
  580TMC3    H1 8605   4.281   2.840  12.021  0.3550  0.5525 -1.4757
  580TMC3    H2 8606   4.704   2.822  11.956  2.6607  2.9798  1.5594
  580TMC3    C7 8607   4.473   2.705  11.919 -0.2371 -0.5351  0.2912
  580TMC3    C8 8608   0.021   3.092  12.001 -0.0247 -0.1087  0.4079
  580TMC3    O1 8609   4.367   2.650  11.938 -0.1759  0.6673  0.1934
  580TMC3    O2 8610   0.036   3.192  12.072  0.0018  0.2260 -0.1469
  581MPD2     C 8611   1.951   1.936  14.321 -0.4458  0.0697 -0.3158
  581MPD2    C1 8612   1.835   1.992  14.378  0.6236  0.6708  0.7089
  581MPD2    C2 8613   1.760   2.092  14.313  0.5191 -0.1399  0.6821
  581MPD2    C3 8614   1.794   2.122  14.179 -0.0692  0.0759 -0.2349
  581MPD2    C4 8615   1.904   2.061  14.120 -0.6439  0.6505 -0.0451
  581MPD2    C5 8616   1.983   1.972  14.192  0.6946 -0.2583 -0.5509
  581MPD2     H 8617   1.666   2.129  14.352 -0.0174 -0.4159 -0.3569
  581MPD2    H1 8618   1.934   2.074  14.016 -0.5858 -1.5601 -0.3144
  581MPD2    H2 8619   2.006   1.858  14.372 -1.2390  0.3177  0.9303
  581MPD2    H3 8620   2.073   1.931  14.148  0.2722 -0.2158 -1.4553
  581MPD2     N 8621   1.716   2.221  14.117 -0.6606 -0.4266  0.2036
  581MPD2    H5 8622   1.628   2.246  14.161  0.4866  2.9629  0.6106
  581MPD2    N1 8623   1.805   1.953  14.513  0.1838  0.3180  0.4789
  581MPD2    H7 8624   1.865   1.881  14.551 -0.8779  0.2290  1.9949
  582TMC3    C1 8625   1.690   1.881  14.697  0.4274  0.1858  0.3160
  582TMC3    C2 8626   1.795   1.878  14.789  0.1335 -0.8868 -0.6906
  582TMC3    C3 8627   1.776   1.849  14.923 -0.5202  0.0611 -0.0245
  582TMC3    C4 8628   1.569   1.863  14.749  0.1504  0.3060  0.2004
  582TMC3    C5 8629   1.548   1.827  14.882  0.2235 -0.4462  0.6371
  582TMC3    C6 8630   1.653   1.824  14.973 -0.5356  0.3308  0.5376
  582TMC3     C 8631   1.693   1.968  14.583 -0.0508  0.2150 -0.1510
  582TMC3     O 8632   1.584   2.015  14.549 -0.0063 -0.4088 -0.0448
  582TMC3     H 8633   1.897   1.882  14.751  0.7390  0.8897  1.0478
  582TMC3    H1 8634   1.483   1.870  14.684  0.4230  0.5308 -0.1311
  582TMC3    H2 8635   1.628   1.818  15.079  0.0006 -0.8173  0.5965
  582TMC3    C7 8636   1.420   1.872  14.933  0.7238 -0.2947  0.1878
  582TMC3    C8 8637   1.884   1.890  15.014  0.1337 -0.1433  0.8113
  582TMC3    O1 8638   1.319   1.802  14.920 -0.5132 -0.2118  0.7178
  582TMC3    O2 8639   1.997   1.851  14.994  0.1712 -0.3026  0.2213
  583MPD2     C 8640   2.043   3.876  16.539 -0.2263 -0.5750 -0.5874
  583MPD2    C1 8641   2.068   4.006  16.500 -0.1794 -0.2048  0.0175
  583MPD2    C2 8642   2.028   4.109  16.575 -1.4058  0.0361  0.0546
  583MPD2    C3 8643   1.981   4.081  16.703 -0.3137  0.2098  0.3682
  583MPD2    C4 8644   1.958   3.952  16.749  0.2369 -0.5967  0.3872
  583MPD2    C5 8645   1.980   3.848  16.659  0.6217  0.2246 -0.2801
  583MPD2     H 8646   2.047   4.210  16.542 -1.8150 -0.4425 -1.6431
  583MPD2    H1 8647   1.914   3.929  16.845  0.5265 -0.2733  0.6002
  583MPD2    H2 8648   2.068   3.794  16.473 -0.7740  0.0149 -1.5221
  583MPD2    H3 8649   1.957   3.746  16.689  1.5007  0.4722  1.2601
  583MPD2     N 8650   1.966   4.190  16.793  0.2312 -0.8678  0.5457
  583MPD2    H5 8651   2.003   4.277  16.756 -1.3909 -0.2691  0.3231
  583MPD2    N1 8652   2.127   4.035  16.374 -0.5461  0.5502  0.3977
  583MPD2    H7 8653   2.114   4.132  16.349  0.3956  1.0646  1.9158
  584TMC3    C1 8654   1.923   4.323  16.976  0.0612 -0.1127  0.1716
  584TMC3    C2 8655   1.940   4.429  16.898  0.0459 -0.9527  0.3086
  584TMC3    C3 8656   1.972   4.550  16.955 -0.0061  0.1437  0.2142
  584TMC3    C4 8657   1.938   4.330  17.117 -0.2529 -0.5998 -0.4559
  584TMC3    C5 8658   1.980   4.448  17.170 -0.7179 -0.5830  0.7150
  584TMC3    C6 8659   1.995   4.561  17.091  0.0601  0.4546 -0.2988
  584TMC3     C 8660   1.924   4.191  16.918  1.0100 -0.6656  0.1184
  584TMC3     O 8661   1.874   4.098  16.980  0.0387  0.3359 -0.1253
  584TMC3     H 8662   1.917   4.422  16.792 -0.2871  2.9217  0.1521
  584TMC3    H1 8663   1.919   4.251  17.189  1.1364 -1.1640 -0.7002
  584TMC3    H2 8664   2.017   4.659  17.131  0.2647 -0.3596  1.5593
  584TMC3    C7 8665   2.022   4.446  17.309  0.4047  0.4937 -0.7286
  584TMC3    C8 8666   1.911   4.659  16.878  0.6059 -0.3234  0.1729
  584TMC3    O1 8667   2.021   4.338  17.366  0.0150 -0.0776  0.2351
  584TMC3    O2 8668   1.896   4.648  16.754 -0.7427  0.0507  0.5042
  585MPD2     C 8669   0.887   3.406  17.335  0.1491  0.1831 -0.4035
  585MPD2    C1 8670   1.019   3.375  17.376  0.2618 -0.3460  0.5144
  585MPD2    C2 8671   1.112   3.338  17.282  0.2781  0.3220 -0.4609
  585MPD2    C3 8672   1.076   3.324  17.150 -0.2576 -0.0782  0.0813
  585MPD2    C4 8673   0.948   3.360  17.117 -0.0669 -0.8927 -0.9304
  585MPD2    C5 8674   0.853   3.400  17.205  0.0130  0.2016  0.8004
  585MPD2     H 8675   1.214   3.315  17.311  0.0619 -1.5238 -1.1885
  585MPD2    H1 8676   0.914   3.358  17.015 -0.5161 -0.0210 -0.7953
  585MPD2    H2 8677   0.811   3.438  17.406 -1.5826 -1.0864 -1.6966
  585MPD2    H3 8678   0.753   3.421  17.168 -0.2668 -3.5437 -0.5505
  585MPD2     N 8679   1.163   3.295  17.042  1.3312  0.3362  0.4642
  585MPD2    H5 8680   1.128   3.314  16.949  2.1188  0.3371  0.1649
  585MPD2    N1 8681   1.054   3.402  17.513  0.1726  0.3456 -0.0120
  585MPD2    H7 8682   0.983   3.429  17.581  0.9190  2.3367 -0.0396
  586TMC3    C1 8683   1.367   3.271  16.931  0.7291  0.1786  0.1928
  586TMC3    C2 8684   1.423   3.148  16.918 -0.9020 -0.3719  0.1611
  586TMC3    C3 8685   1.397   3.078  16.802  0.8961 -0.3834  0.1395
  586TMC3    C4 8686   1.305   3.326  16.823  0.1826  0.1658 -0.1765
  586TMC3    C5 8687   1.276   3.257  16.707  0.3433  0.6157 -0.2443
  586TMC3    C6 8688   1.337   3.142  16.693 -0.4505  0.3172 -0.0008
  586TMC3     C 8689   1.303   3.276  17.062  0.0778  0.0914 -0.2951
  586TMC3     O 8690   1.358   3.219  17.152  0.1497 -0.0898 -0.6329
  586TMC3     H 8691   1.465   3.098  17.004 -1.0636 -1.2171 -0.2411
  586TMC3    H1 8692   1.253   3.419  16.845  1.9132  1.0558  0.1752
  586TMC3    H2 8693   1.319   3.084  16.603 -2.4415  2.8852 -1.2772
  586TMC3    C7 8694   1.133   3.234  16.694 -0.1154 -0.2098 -0.3487
  586TMC3    C8 8695   1.377   2.937  16.819  0.3823 -0.9266 -1.3046
  586TMC3    O1 8696   1.108   3.114  16.690 -0.6169 -0.3801  0.6176
  586TMC3    O2 8697   1.453   2.882  16.900 -0.0602 -0.6305  0.3334
  587TMC3    C1 8698   3.216   1.650  16.621  0.0511 -0.0939 -0.0875
  587TMC3    C2 8699   3.251   1.736  16.529  0.6416 -0.0132  0.0881
  587TMC3    C3 8700   3.357   1.709  16.447 -0.4012 -0.0603 -0.2281
  587TMC3    C4 8701   3.282   1.529  16.635 -0.4916  0.2406 -0.2137
  587TMC3    C5 8702   3.374   1.499  16.540  0.4861 -0.3560  0.3933
  587TMC3    C6 8703   3.420   1.588  16.454  0.0537 -0.1342  0.0129
  587TMC3     C 8704   3.104   1.686  16.710 -0.3083 -0.2127 -0.5621
  587TMC3     O 8705   3.122   1.648  16.820  0.3592  0.6543  0.6393
  587TMC3     H 8706   3.205   1.834  16.538 -0.6119 -0.6513  0.6603
  587TMC3    H1 8707   3.267   1.466  16.722  0.2714 -2.4854 -2.0654
  587TMC3    H2 8708   3.508   1.578  16.392  1.0997 -2.1670  1.8422
  587TMC3    C7 8709   3.456   1.378  16.573 -0.5643  0.1803  0.0991
  587TMC3    C8 8710   3.400   1.800  16.346  0.0099  0.1651  0.1358
  587TMC3    O1 8711   3.417   1.314  16.669 -0.4093 -0.8959 -0.3216
  587TMC3    O2 8712   3.507   1.779  16.288  0.1890 -0.0012 -0.0043
  588TMC3    C1 8713   1.791   3.893   9.725 -0.5973  0.2922 -0.3047
  588TMC3    C2 8714   1.821   3.758   9.716 -0.1419 -0.1642  0.4131
  588TMC3    C3 8715   1.927   3.713   9.795 -0.4250  0.2784 -0.9376
  588TMC3    C4 8716   1.869   3.974   9.801  0.2835  0.5146 -0.2687
  588TMC3    C5 8717   1.969   3.928   9.877 -0.4178  0.2620  0.6730
  588TMC3    C6 8718   1.995   3.790   9.883 -0.4743 -0.4349 -0.2629
  588TMC3     C 8719   1.730   3.945   9.609 -0.1629  0.1953 -0.5960
  588TMC3     O 8720   1.624   3.900   9.574  0.4113  0.7700 -0.0221
  588TMC3     H 8721   1.755   3.693   9.661 -2.5462  1.1624  1.6969
  588TMC3    H1 8722   1.820   4.068   9.821 -1.0760 -0.5443  1.3731
  588TMC3    H2 8723   2.086   3.757   9.931 -1.2439 -3.4119 -0.8766
  588TMC3    C7 8724   2.082   4.008   9.911  0.3748 -0.6733  0.0335
  588TMC3    C8 8725   1.955   3.571   9.783  0.1745 -0.3475 -0.4381
  588TMC3    O1 8726   2.192   3.960   9.934  0.0815 -0.6971 -0.3124
  588TMC3    O2 8727   1.906   3.503   9.696 -0.0469  0.3096 -0.3091
  589TMC3    C1 8728   4.176   2.407   1.074  0.1170  0.3269 -0.3725
  589TMC3    C2 8729   4.258   2.359   1.176  0.8645  0.5018 -0.5248
  589TMC3    C3 8730   4.362   2.280   1.140  0.4820  0.3175 -0.2792
  589TMC3    C4 8731   4.182   2.347   0.955  1.0627  0.6816 -0.4182
  589TMC3    C5 8732   4.291   2.271   0.919 -0.5571  0.3254 -0.0412
  589TMC3    C6 8733   4.384   2.236   1.012 -0.1962 -0.2559  0.0287
  589TMC3     C 8734   4.060   2.484   1.117  0.0895 -1.0518 -0.3975
  589TMC3     O 8735   3.964   2.477   1.042 -0.4987 -0.6020 -0.3673
  589TMC3     H 8736   4.256   2.399   1.276 -1.6202  0.0932 -0.4304
  589TMC3    H1 8737   4.096   2.374   0.894 -0.2699  0.1314  1.2066
  589TMC3    H2 8738   4.474   2.183   0.982 -1.1147 -1.3271 -0.8336
  589TMC3    C7 8739   4.301   2.212   0.787 -0.2760  0.1600 -0.5537
  589TMC3    C8 8740   4.440   2.211   1.245  0.1356  0.2394 -1.1115
  589TMC3    O1 8741   4.397   2.139   0.773 -0.1644 -0.0296 -0.5369
  589TMC3    O2 8742   4.407   2.251   1.357  0.1638  0.4355 -0.5024
  590MPD2     C 8743   4.072   0.015  16.467 -0.5123 -0.4817  0.5701
  590MPD2    C1 8744   4.034   0.147  16.472  0.3630  0.1947 -0.0014
  590MPD2    C2 8745   4.135   0.244  16.453  0.7443  0.1590 -0.0019
  590MPD2    C3 8746   4.269   0.216  16.439  0.0729 -0.4939  0.0719
  590MPD2    C4 8747   4.304   0.086  16.447  0.1479 -0.5750 -0.3048
  590MPD2    C5 8748   4.207   4.710  16.460  0.5331  0.2969 -0.3772
  590MPD2     H 8749   4.101   0.346  16.444 -1.3584 -0.4407  1.1846
  590MPD2    H1 8750   4.408   0.056  16.436  0.8639  0.9754  2.1719
  590MPD2    H2 8751   4.004   4.656  16.489 -0.6208 -0.3122  0.8662
  590MPD2    H3 8752   4.229   4.604  16.457 -0.4607  0.0493  0.9925
  590MPD2     N 8753   4.351   0.321  16.392  0.3427  0.2500  0.2503
  590MPD2    H5 8754   4.297   0.405  16.373  0.0103  0.9640  4.2620
  590MPD2    N1 8755   3.898   0.169  16.475 -0.5616  0.6782  0.1204
  590MPD2    H7 8756   3.834   0.091  16.475  0.8923 -0.5400 -2.2119
  591TMC3    C1 8757   4.542   0.428  16.299 -0.4530 -0.0169 -0.0405
  591TMC3    C2 8758   4.673   0.428  16.270 -0.0468  0.7523  0.3648
  591TMC3    C3 8759   0.000   0.534  16.192  0.2325  0.1171 -0.0924
  591TMC3    C4 8760   4.467   0.532  16.259 -0.0576  0.4848  0.1413
  591TMC3    C5 8761   4.509   0.627  16.173  0.6399  0.5732  0.4576
  591TMC3    C6 8762   4.643   0.638  16.146  0.1655  0.2891 -0.5776
  591TMC3     C 8763   4.486   0.317  16.373 -0.3224 -0.6223  0.7418
  591TMC3     O 8764   4.556   0.216  16.391 -0.0015  0.2706  0.1080
  591TMC3     H 8765   0.017   0.347  16.296 -2.6479 -1.1449  1.2678
  591TMC3    H1 8766   4.360   0.528  16.279 -0.3466 -0.1412 -1.5063
  591TMC3    H2 8767   4.677   0.718  16.081 -0.1547 -0.3141 -1.4753
  591TMC3    C7 8768   4.413   0.720  16.124 -0.0970  0.0386 -0.6476
  591TMC3    C8 8769   0.099   0.484  16.096  0.1763 -0.5435 -0.2778
  591TMC3    O1 8770   4.308   0.738  16.181 -0.2147  0.6895  0.0138
  591TMC3    O2 8771   0.119   0.365  16.092  0.3140 -0.0819  0.3974
  592MPD2     C 8772   0.329   1.820  11.227  0.3211 -0.1767  0.1062
  592MPD2    C1 8773   0.284   1.898  11.333  0.3117 -0.1038 -0.3492
  592MPD2    C2 8774   0.189   1.846  11.415  0.7032  0.2493  0.9630
  592MPD2    C3 8775   0.152   1.709  11.402 -0.0965 -0.0141 -0.3050
  592MPD2    C4 8776   0.205   1.632  11.304  0.1815  0.4168 -0.1032
  592MPD2    C5 8777   0.292   1.684  11.213 -0.5066 -0.2314  0.5583
  592MPD2     H 8778   0.135   1.904  11.489 -1.5790 -1.3733  0.5788
  592MPD2    H1 8779   0.181   1.526  11.294 -1.2885  0.6689  0.7314
  592MPD2    H2 8780   0.402   1.857  11.156  1.0526  2.0158  2.0074
  592MPD2    H3 8781   0.323   1.624  11.128  1.8616  1.8374 -0.0157
  592MPD2     N 8782   0.060   1.661  11.487  0.2913  0.3570 -0.5952
  592MPD2    H5 8783   0.021   1.730  11.550 -1.0596  0.1864 -1.2457
  592MPD2    N1 8784   0.328   2.031  11.347 -0.1037 -0.2369 -0.4977
  592MPD2    H7 8785   0.413   2.056  11.297  1.2674 -0.4985  1.7209
  593TMC3    C1 8786   0.325   2.261  11.376 -0.2655  0.8579  0.0518
  593TMC3    C2 8787   0.319   2.360  11.471 -0.2222  0.3149  0.0994
  593TMC3    C3 8788   0.399   2.465  11.442  0.1780 -0.6455 -0.4949
  593TMC3    C4 8789   0.400   2.269  11.262 -0.4894 -0.6923  0.5828
  593TMC3    C5 8790   0.468   2.381  11.244  0.3769 -0.2199 -0.4778
  593TMC3    C6 8791   0.482   2.475  11.338  0.4318  0.1252  0.5056
  593TMC3     C 8792   0.252   2.136  11.403  0.1917  0.6712  0.6541
  593TMC3     O 8793   0.146   2.143  11.460 -0.6039 -0.4684  0.0049
  593TMC3     H 8794   0.286   2.350  11.574  0.1874 -0.9938  0.1105
  593TMC3    H1 8795   0.382   2.212  11.172  2.4615  3.4746 -2.6541
  593TMC3    H2 8796   0.526   2.573  11.325  2.2122 -0.7962 -0.2946
  593TMC3    C7 8797   0.533   2.404  11.119  0.3252  0.2499 -0.5806
  593TMC3    C8 8798   0.403   2.576  11.540 -0.0384  0.5112  0.3462
  593TMC3    O1 8799   0.556   2.519  11.075  0.1096  0.4444  0.3206
  593TMC3    O2 8800   0.302   2.592  11.611  0.5372  0.2282  0.0898
  594MPD2     C 8801   3.004   0.956  13.820 -0.0147  0.6963  0.6541
  594MPD2    C1 8802   3.014   0.991  13.956  0.6821 -0.0588  0.2352
  594MPD2    C2 8803   3.129   1.062  13.998 -0.3766  0.4902 -0.0850
  594MPD2    C3 8804   3.230   1.098  13.902 -0.5695  0.1026 -0.0139
  594MPD2    C4 8805   3.214   1.061  13.768 -0.5160  0.2997 -0.3711
  594MPD2    C5 8806   3.103   0.991  13.728  0.3958  0.1274 -0.1368
  594MPD2     H 8807   3.152   1.103  14.096  0.4834 -1.3435  0.4856
  594MPD2    H1 8808   3.288   1.082  13.690  0.4307  1.7638  0.9243
  594MPD2    H2 8809   2.930   0.887  13.779  0.0403  1.4522 -0.7028
  594MPD2    H3 8810   3.092   0.964  13.624 -2.1661 -0.8293  0.3723
  594MPD2     N 8811   3.345   1.163  13.950  0.3179 -0.8348 -0.3193
  594MPD2    H5 8812   3.348   1.199  14.045  0.7064  0.3583 -0.7806
  594MPD2    N1 8813   2.911   0.951  14.037  0.4140  0.0404  0.6487
  594MPD2    H7 8814   2.834   0.895  14.004  1.1022  0.0362 -0.9229
  595TMC3    C1 8815   3.760   1.390  13.935 -0.6623  1.2132 -0.6120
  595TMC3    C2 8816   3.655   1.320  13.877  0.1461  0.2736  0.5594
  595TMC3    C3 8817   3.543   1.289  13.943  0.2486  0.9476 -0.5841
  595TMC3    C4 8818   3.727   1.451  14.055  0.0401 -0.3003 -0.0070
  595TMC3    C5 8819   3.612   1.423  14.114  0.4064  0.1441  0.6293
  595TMC3    C6 8820   3.512   1.343  14.067  0.3918  0.2152 -0.5032
  595TMC3     C 8821   3.891   1.411  13.882  0.4267  0.2465  0.2909
  595TMC3     O 8822   3.963   1.497  13.932 -0.7686  0.4234 -0.1711
  595TMC3     H 8823   3.666   1.295  13.772  2.0121  0.3585  0.7367
  595TMC3    H1 8824   3.796   1.525  14.093  0.6098 -1.5966  1.4443
  595TMC3    H2 8825   3.412   1.353  14.107  0.2914  0.1257 -0.7333
  595TMC3    C7 8826   3.582   1.486  14.240 -0.7931  0.3535 -0.7842
  595TMC3    C8 8827   3.454   1.202  13.871  0.1982  0.2501  0.0106
  595TMC3    O1 8828   3.469   1.521  14.265 -0.9441  0.1570  0.1146
  595TMC3    O2 8829   3.487   1.170  13.759 -0.2306  0.5777  0.0625
  596MPD2     C 8830   2.913   3.672  16.404  0.5514 -0.4062 -0.0159
  596MPD2    C1 8831   2.918   3.803  16.377 -0.1551 -0.0700 -0.0203
  596MPD2    C2 8832   2.920   3.846  16.245 -0.4884  0.3972 -0.2329
  596MPD2    C3 8833   2.948   3.758  16.149  0.2856 -0.1182 -0.3222
  596MPD2    C4 8834   2.947   3.619  16.179 -0.2399  0.8537 -0.2921
  596MPD2    C5 8835   2.926   3.575  16.306  0.1077  0.4464  0.3333
  596MPD2     H 8836   2.910   3.953  16.236 -0.5945  0.3005 -1.2791
  596MPD2    H1 8837   2.953   3.548  16.097 -3.0435 -1.6823  1.7288
  596MPD2    H2 8838   2.904   3.636  16.506 -0.6107  1.9547  0.7192
  596MPD2    H3 8839   2.917   3.468  16.315  0.2142  0.2490 -1.9692
  596MPD2     N 8840   2.964   3.789  16.014 -0.3001  0.4193 -0.0378
  596MPD2    H5 8841   2.993   3.718  15.948 -0.8356 -2.0059  2.3172
  596MPD2    N1 8842   2.900   3.899  16.481  0.5856 -0.4060 -0.2716
  596MPD2    H7 8843   2.930   3.992  16.456  0.1611 -0.1741  0.0644
  597TMC3    C1 8844   2.868   4.020  16.673 -0.5891  0.2490  0.5464
  597TMC3    C2 8845   2.953   4.117  16.620  0.0389 -0.1413 -0.3034
  597TMC3    C3 8846   2.935   4.252  16.661 -0.3010 -0.7188  0.1023
  597TMC3    C4 8847   2.774   4.054  16.764  0.0832  0.1702 -0.0714
  597TMC3    C5 8848   2.760   4.182  16.805  0.3668 -0.4368  0.0792
  597TMC3    C6 8849   2.839   4.284  16.754 -0.1454  0.5753  0.2521
  597TMC3     C 8850   2.858   3.886  16.607 -0.1089  0.1699 -0.7241
  597TMC3     O 8851   2.802   3.796  16.665  0.3198  0.0351  0.3429
  597TMC3     H 8852   3.036   4.084  16.558  0.5946  1.1317 -0.2296
  597TMC3    H1 8853   2.705   3.979  16.801 -0.2584 -0.3332 -1.7298
  597TMC3    H2 8854   2.831   4.383  16.797  0.6101  0.6389  0.2384
  597TMC3    C7 8855   2.657   4.210  16.903  0.2802 -0.3904  0.3370
  597TMC3    C8 8856   2.984   4.354  16.567  0.0834  0.0304  0.0109
  597TMC3    O1 8857   2.619   4.119  16.973  0.4570  0.2120 -0.6182
  597TMC3    O2 8858   2.922   4.458  16.565  0.2934 -0.4870 -0.2928
  598TMC3    C1 8859   1.557   1.277  15.472 -0.3580  0.4596  0.4849
  598TMC3    C2 8860   1.646   1.178  15.462  0.1307  0.3031  0.1457
  598TMC3    C3 8861   1.607   1.064  15.386  1.0798  0.4155  0.6126
  598TMC3    C4 8862   1.438   1.276  15.409  0.1617  0.3440  0.3512
  598TMC3    C5 8863   1.401   1.169  15.328  0.2837 -0.0216  0.2394
  598TMC3    C6 8864   1.488   1.058  15.315  0.7474 -0.5073  0.3007
  598TMC3     C 8865   1.597   1.386  15.554 -0.1414 -0.5091 -0.0503
  598TMC3     O 8866   1.718   1.409  15.563  0.0887 -0.1524 -0.5846
  598TMC3     H 8867   1.743   1.191  15.509 -0.1786 -0.4477  1.0025
  598TMC3    H1 8868   1.368   1.358  15.420  3.0190  2.6206  1.5207
  598TMC3    H2 8869   1.458   0.969  15.261 -0.8371  1.5467 -2.2380
  598TMC3    C7 8870   1.291   1.184  15.243  0.0570 -0.4208  0.8343
  598TMC3    C8 8871   1.718   0.994  15.333  0.6589 -0.0210 -0.3824
  598TMC3    O1 8872   1.234   1.081  15.221  0.2083  0.1556  0.1010
  598TMC3    O2 8873   1.824   1.056  15.354  0.2731  0.2641  0.7224
  599MPD2     C 8874   0.876   3.359  15.695 -0.4323  0.7649  0.1736
  599MPD2    C1 8875   0.819   3.231  15.680 -0.2166 -0.5585 -0.3077
  599MPD2    C2 8876   0.692   3.199  15.728  0.5064 -0.3190  0.4587
  599MPD2    C3 8877   0.633   3.287  15.814  0.3154 -0.4601  0.2162
  599MPD2    C4 8878   0.685   3.411  15.830  0.1995  0.3830 -0.3553
  599MPD2    C5 8879   0.802   3.446  15.767 -0.3849  1.0782 -0.3847
  599MPD2     H 8880   0.665   3.094  15.717 -2.4027  0.4271  0.4713
  599MPD2    H1 8881   0.643   3.490  15.892  0.0448 -0.6160  0.8147
  599MPD2    H2 8882   0.980   3.383  15.676 -0.6083  0.7950 -0.7484
  599MPD2    H3 8883   0.849   3.538  15.799  0.9932  0.6377 -1.1298
  599MPD2     N 8884   0.521   3.259  15.892  0.0536 -0.5898  0.1757
  599MPD2    H5 8885   0.494   3.336  15.953  0.3626 -0.0613 -0.3554
  599MPD2    N1 8886   0.908   3.140  15.618  0.2054  0.6643 -0.6821
  599MPD2    H7 8887   1.001   3.175  15.596  0.4105  1.0246  0.7663
  600TMC3    C1 8888   0.338   3.164  15.990  0.0474  0.3048  0.0310
  600TMC3    C2 8889   0.228   3.081  15.982  0.4699 -0.3291 -1.1834
  600TMC3    C3 8890   0.122   3.104  16.069 -0.1732 -0.3875  0.2335
  600TMC3    C4 8891   0.338   3.272  16.088  0.4026 -0.2716  0.1652
  600TMC3    C5 8892   0.234   3.289  16.173  0.1610 -0.3489  0.1539
  600TMC3    C6 8893   0.127   3.201  16.162 -0.4164 -0.0397 -1.1302
  600TMC3     C 8894   0.449   3.148  15.896  0.7724 -0.2783 -0.7009
  600TMC3     O 8895   0.465   3.041  15.841  0.1461  0.2166 -0.2304
  600TMC3     H 8896   0.222   3.017  15.895 -1.7455 -2.3490  0.4534
  600TMC3    H1 8897   0.422   3.341  16.089 -0.2484  0.4974  1.7356
  600TMC3    H2 8898   0.056   3.204  16.244 -0.8739 -1.1102 -1.4911
  600TMC3    C7 8899   0.221   3.411  16.241 -0.2364  0.0240  0.2743
  600TMC3    C8 8900   0.017   3.009  16.043  0.4661  0.5862 -0.2110
  600TMC3    O1 8901   0.118   3.427  16.305 -0.2472 -0.7229 -0.2812
  600TMC3    O2 8902   0.030   2.918  15.960 -0.2042  0.2685 -0.1118
  601MPD2     C 8903   2.387   1.403   0.613 -0.1092  0.3269  0.5674
  601MPD2    C1 8904   2.384   1.358   0.481 -0.1588 -0.5003 -0.5828
  601MPD2    C2 8905   2.431   1.236   0.447 -0.8703 -0.0207  0.7055
  601MPD2    C3 8906   2.460   1.146   0.552 -0.4989  0.4257  0.1169
  601MPD2    C4 8907   2.459   1.195   0.682  0.8165  0.5013 -0.0033
  601MPD2    C5 8908   2.428   1.323   0.716  0.2442 -0.5008 -0.6419
  601MPD2     H 8909   2.432   1.203   0.344 -2.3745 -0.3534  0.7950
  601MPD2    H1 8910   2.470   1.125   0.764  0.5185  0.8880  0.3675
  601MPD2    H2 8911   2.360   1.503   0.647  1.4456  0.2380  2.0785
  601MPD2    H3 8912   2.428   1.364   0.816  2.4036  0.7311 -1.1493
  601MPD2     N 8913   2.495   1.012   0.531 -0.3704 -0.1407  0.4946
  601MPD2    H5 8914   2.497   0.948   0.610  0.4937 -1.7424 -0.8190
  601MPD2    N1 8915   2.331   1.436   0.377  0.3140 -0.3640 -0.1783
  601MPD2    H7 8916   2.316   1.392   0.287  2.0271  0.7796 -1.0162
  602TMC3    C1 8917   2.253   1.639   0.270  0.1350 -0.6115 -0.3771
  602TMC3    C2 8918   2.140   1.585   0.207  0.6675  0.5770 -0.2708
  602TMC3    C3 8919   2.084   1.651   0.104 -0.0157 -0.0584  0.8992
  602TMC3    C4 8920   2.295   1.765   0.239 -0.1431  0.4129  0.5082
  602TMC3    C5 8921   2.222   1.833   0.144  0.8915  0.0926  0.2708
  602TMC3    C6 8922   2.121   1.778   0.066 -0.0911 -0.0588 -0.5326
  602TMC3     C 8923   2.307   1.572   0.391  0.5383 -0.1956  0.2457
  602TMC3     O 8924   2.351   1.644   0.482 -0.5430 -0.3459  0.1760
  602TMC3     H 8925   2.106   1.487   0.238  0.2929  0.2663 -1.6529
  602TMC3    H1 8926   2.379   1.811   0.290  0.0654 -2.1024  2.4149
  602TMC3    H2 8927   2.060   1.840   0.001  1.2090  0.7672 -0.9535
  602TMC3    C7 8928   2.291   1.952   0.095  0.7801 -0.5029 -0.2407
  602TMC3    C8 8929   2.008   1.569   0.009  0.7812 -0.1301  0.2880
  602TMC3    O1 8930   2.363   2.021   0.168 -0.2209 -0.9114 -0.3639
  602TMC3    O2 8931   1.937   1.478   0.055  0.0652 -0.3800  0.0192
  603TMC3    C1 8932   1.082   1.665  11.194 -0.1835 -0.1064  0.2021
  603TMC3    C2 8933   1.093   1.654  11.328 -0.5321 -0.2535  0.1662
  603TMC3    C3 8934   1.184   1.735  11.388  0.6650  0.3911 -0.1531
  603TMC3    C4 8935   1.167   1.735  11.115 -0.5546  0.1806  0.1138
  603TMC3    C5 8936   1.264   1.806  11.187  0.1145 -0.3088 -0.4250
  603TMC3    C6 8937   1.282   1.805  11.323  0.3339  0.3433  0.1107
  603TMC3     C 8938   0.989   1.579  11.120  0.6949 -0.1234 -0.2134
  603TMC3     O 8939   0.956   1.627  11.011 -0.1903  0.3624  0.3968
  603TMC3     H 8940   1.022   1.591  11.379 -2.5920  1.0917 -1.0331
  603TMC3    H1 8941   1.156   1.741  11.007  0.1336 -1.0918 -0.0202
  603TMC3    H2 8942   1.329   1.894  11.364  1.6364 -0.8857  1.2836
  603TMC3    C7 8943   1.378   1.860  11.120 -0.8284  0.4090 -0.0643
  603TMC3    C8 8944   1.214   1.695  11.528 -0.2472  0.5061 -0.3428
  603TMC3    O1 8945   1.478   1.871  11.191  0.4562 -0.3650  0.3110
  603TMC3    O2 8946   1.138   1.621  11.586  0.1125  0.6848 -0.1191
  604MPD2     C 8947   2.152   0.887  16.050  0.0615  1.1759 -0.2982
  604MPD2    C1 8948   2.039   0.818  16.018 -0.2259 -0.3684 -1.1948
  604MPD2    C2 8949   2.058   0.707  15.940 -0.2859 -0.2564 -0.2134
  604MPD2    C3 8950   2.185   0.673  15.887 -0.3598 -0.0400  0.9127
  604MPD2    C4 8951   2.300   0.747  15.923 -0.0964  0.0172 -0.1373
  604MPD2    C5 8952   2.277   0.859  16.001  0.6325 -0.3621  0.1445
  604MPD2     H 8953   1.978   0.641  15.908  1.4073 -2.0228 -0.7415
  604MPD2    H1 8954   2.394   0.724  15.873 -0.2428 -2.9556  0.9059
  604MPD2    H2 8955   2.141   0.969  16.121 -3.2945 -0.9101  1.6184
  604MPD2    H3 8956   2.346   0.940  16.021 -1.0310  1.1412 -0.1993
  604MPD2     N 8957   2.192   0.551  15.813  0.0207 -0.2784  0.1278
  604MPD2    H5 8958   2.107   0.495  15.811 -0.9044  1.1111  0.4615
  604MPD2    N1 8959   1.924   0.853  16.088  0.5035  0.3966  0.4651
  604MPD2    H7 8960   1.937   0.939  16.140 -0.1247  0.5118  0.4392
  605TMC3    C1 8961   1.699   0.880  16.164 -0.7226 -0.3193 -0.1488
  605TMC3    C2 8962   1.740   0.958  16.270 -0.1130 -0.2957  0.0797
  605TMC3    C3 8963   1.645   1.035  16.331 -0.5161 -0.8892 -0.1098
  605TMC3    C4 8964   1.570   0.881  16.114  0.6763 -0.0088 -0.2277
  605TMC3    C5 8965   1.480   0.964  16.170  0.5371  0.1065 -0.1797
  605TMC3    C6 8966   1.519   1.048  16.275 -0.0101  0.0357  0.1757
  605TMC3     C 8967   1.797   0.804  16.076 -0.5258 -0.3692 -0.1262
  605TMC3     O 8968   1.755   0.716  15.997  0.1096 -0.4579  0.3718
  605TMC3     H 8969   1.841   0.957  16.310  0.3077 -1.4625 -1.0249
  605TMC3    H1 8970   1.551   0.841  16.015 -0.7643  0.3255 -0.0847
  605TMC3    H2 8971   1.435   1.107  16.311 -1.0869 -0.9522 -0.7275
  605TMC3    C7 8972   1.348   0.977  16.116 -0.4992 -0.8835  0.1831
  605TMC3    C8 8973   1.702   1.137  16.420 -0.4193  0.5944 -0.4386
  605TMC3    O1 8974   1.284   1.077  16.147  0.1017  0.1733  0.3299
  605TMC3    O2 8975   1.817   1.173  16.401 -0.1690  0.1472 -0.8332
  606TMC3    C1 8976   2.986   3.640  17.094 -0.1294  0.0063 -0.4352
  606TMC3    C2 8977   3.090   3.669  17.177  0.0011  0.5036  0.2393
  606TMC3    C3 8978   3.114   3.599  17.290 -0.0069 -0.0619  0.2536
  606TMC3    C4 8979   2.893   3.536  17.125  0.5144 -0.0955 -0.2560
  606TMC3    C5 8980   2.916   3.478  17.249 -0.2814 -0.7488  0.4543
  606TMC3    C6 8981   3.014   3.515  17.336 -0.2038 -0.5355 -0.0866
  606TMC3     C 8982   2.997   3.664  16.960 -0.6495 -0.3526 -0.1476
  606TMC3     O 8983   2.956   3.571  16.896 -0.7257  0.0080 -0.1644
  606TMC3     H 8984   3.178   3.727  17.152 -0.3271  0.2520 -1.5223
  606TMC3    H1 8985   2.816   3.509  17.055 -0.8803 -0.6023  1.4741
  606TMC3    H2 8986   3.021   3.467  17.432  1.9616 -1.7777 -0.8602
  606TMC3    C7 8987   2.822   3.377  17.302  0.1390  0.4139 -0.2255
  606TMC3    C8 8988   3.161   3.673  17.402 -0.2053 -0.0286 -0.5125
  606TMC3    O1 8989   2.832   3.360  17.424  0.2488 -0.4543  0.0580
  606TMC3    O2 8990   3.077   3.713  17.481 -0.4528  0.1667 -0.2137
  607MPD2     C 8991   0.494   1.475  11.384 -0.1911  0.7769 -0.2538
  607MPD2    C1 8992   0.469   1.562  11.485 -0.3239  0.4022 -0.1817
  607MPD2    C2 8993   0.394   1.524  11.601  0.4691  0.2635  0.6479
  607MPD2    C3 8994   0.343   1.402  11.614 -0.3236  0.9449  0.6297
  607MPD2    C4 8995   0.371   1.313  11.516  1.1929  0.1786 -0.0591
  607MPD2    C5 8996   0.447   1.349  11.408 -0.0210  0.3445  0.0999
  607MPD2     H 8997   0.367   1.600  11.674 -0.7109 -0.5953  1.0883
  607MPD2    H1 8998   0.354   1.207  11.531 -0.6998  0.5035  0.1004
  607MPD2    H2 8999   0.551   1.501  11.295 -1.2280  1.4498 -0.7262
  607MPD2    H3 9000   0.479   1.263  11.351  0.1571 -1.1989  2.5013
  607MPD2     N 9001   0.289   1.377  11.741  0.1069 -0.3036  0.3846
  607MPD2    H5 9002   0.310   1.449  11.809 -0.4057 -0.2979  0.5393
  607MPD2    N1 9003   0.528   1.693  11.490  0.0648 -0.4973  0.3764
  607MPD2    H7 9004   0.503   1.754  11.567  1.2181  1.8208 -1.0902
  608TMC3    C1 9005   0.733   1.821  11.518 -0.1516 -0.1236  0.3651
  608TMC3    C2 9006   0.703   1.852  11.648  0.2397 -0.0486  0.2438
  608TMC3    C3 9007   0.778   1.939  11.725 -0.6471  0.3173 -0.0803
  608TMC3    C4 9008   0.840   1.886  11.465 -0.2224  0.3519 -0.3627
  608TMC3    C5 9009   0.920   1.967  11.542 -0.3931  0.0490  0.0204
  608TMC3    C6 9010   0.895   1.988  11.673  0.3244 -0.7684 -0.1578
  608TMC3     C 9011   0.650   1.734  11.432 -0.3255 -1.3010  0.2572
  608TMC3     O 9012   0.698   1.688  11.326  0.0114  0.1677  0.8416
  608TMC3     H 9013   0.620   1.803  11.698  1.1792  0.0505  1.9163
  608TMC3    H1 9014   0.865   1.869  11.360  2.8606 -0.9397  0.5900
  608TMC3    H2 9015   0.958   2.058  11.728 -2.4957  0.4948  1.4341
  608TMC3    C7 9016   1.039   2.020  11.486  0.2813 -0.5860  0.3373
  608TMC3    C8 9017   0.738   1.978  11.859 -0.1274  0.4369  0.5811
  608TMC3    O1 9018   1.039   2.027  11.367 -0.1450 -0.1145 -0.3818
  608TMC3    O2 9019   0.821   2.022  11.940 -0.1305  0.3114  0.0996
  609TMC3    C1 9020   4.463   0.077   8.703 -0.1130  0.0046 -0.5029
  609TMC3    C2 9021   4.506   0.128   8.576  0.8471  0.7209 -0.2720
  609TMC3    C3 9022   4.619   0.082   8.523 -0.5894  0.1960 -0.4436
  609TMC3    C4 9023   4.535   4.697   8.767  0.2120  0.4010  0.2775
  609TMC3    C5 9024   4.639   4.643   8.697 -0.1162 -0.3770 -0.3638
  609TMC3    C6 9025   4.681   4.690   8.574 -0.5006  0.1629  0.1288
  609TMC3     C 9026   4.355   0.154   8.772 -0.1244 -1.2950 -0.3289
  609TMC3     O 9027   4.298   0.095   8.860  0.2921  0.3904  0.2230
  609TMC3     H 9028   4.442   0.196   8.521  0.7586 -0.7710 -1.9868
  609TMC3    H1 9029   4.496   4.638   8.850 -0.8854  0.1723 -0.3970
  609TMC3    H2 9030   0.044   4.658   8.515  0.5189  0.8288  1.2536
  609TMC3    C7 9031   0.005   4.560   8.777 -0.6938  0.6231 -0.1053
  609TMC3    C8 9032   4.657   0.110   8.387 -0.9580 -0.4699  0.4737
  609TMC3    O1 9033   4.716   4.565   8.898 -0.3911  0.3973 -0.0225
  609TMC3    O2 9034   4.687   0.009   8.325  0.0407  0.2289 -0.4726
  610TMC3    C1 9035   0.922   1.809  12.371  0.0113  0.3635  0.4096
  610TMC3    C2 9036   0.928   1.821  12.232  0.5272 -0.9778  0.7122
  610TMC3    C3 9037   1.017   1.744  12.162  0.3665 -0.6609  0.1259
  610TMC3    C4 9038   0.993   1.722  12.443  0.7973 -0.2363 -0.3298
  610TMC3    C5 9039   1.076   1.638  12.372 -0.7659  0.3268  0.7042
  610TMC3    C6 9040   1.087   1.655  12.236  0.2707 -0.3665 -0.2361
  610TMC3     C 9041   0.840   1.908  12.432 -0.4568  0.3207  0.2355
  610TMC3     O 9042   0.847   2.024  12.388 -0.3085  0.0096  0.6466
  610TMC3     H 9043   0.867   1.896  12.183 -1.1407 -0.8290  3.0579
  610TMC3    H1 9044   0.986   1.724  12.551 -1.4834  2.1658 -0.5487
  610TMC3    H2 9045   1.147   1.579  12.187  0.4660 -0.9759  0.9364
  610TMC3    C7 9046   1.120   1.518  12.430  0.2676  0.1707  0.4939
  610TMC3    C8 9047   0.997   1.717  12.025 -0.0641 -0.5360 -0.3326
  610TMC3    O1 9048   1.234   1.477  12.401  0.2847  0.1636  0.4524
  610TMC3    O2 9049   1.096   1.679  11.967 -0.1005  0.3449 -0.3790
  611MPD2     C 9050   0.781   1.660  10.379  0.2449  0.0873 -0.0305
  611MPD2    C1 9051   0.767   1.756  10.278  0.0777 -0.3703  1.0805
  611MPD2    C2 9052   0.875   1.840  10.255  0.4418  0.6884  0.7533
  611MPD2    C3 9053   0.998   1.818  10.312  0.6230 -0.4575  0.1081
  611MPD2    C4 9054   1.007   1.720  10.406  0.1568  0.2839 -0.5860
  611MPD2    C5 9055   0.896   1.648  10.449 -0.2798 -0.4581  0.0861
  611MPD2     H 9056   0.860   1.917  10.180 -2.3083 -0.7780 -0.1986
  611MPD2    H1 9057   1.095   1.700  10.466  0.6776  0.6692 -1.2340
  611MPD2    H2 9058   0.705   1.588  10.408  0.7906  0.1577  1.5255
  611MPD2    H3 9059   0.911   1.570  10.523 -0.0614 -1.7279 -1.2827
  611MPD2     N 9060   1.110   1.890  10.280  0.5690  0.2311  0.0553
  611MPD2    H5 9061   1.189   1.868  10.340 -1.0054 -1.7092  1.4017
  611MPD2    N1 9062   0.636   1.763  10.222 -0.3082 -0.7632 -0.4749
  611MPD2    H7 9063   0.576   1.689  10.255 -2.7603  0.7911 -1.4773
  612TMC3    C1 9064   1.230   2.080  10.203  0.0611 -0.1241  0.0712
  612TMC3    C2 9065   1.293   2.087  10.326 -1.2596 -0.4781  0.3943
  612TMC3    C3 9066   1.407   2.162  10.338  0.2206 -0.5118 -0.7176
  612TMC3    C4 9067   1.280   2.137  10.088  0.0754 -0.8134 -0.0658
  612TMC3    C5 9068   1.390   2.213  10.101  0.0091 -0.1445 -0.8186
  612TMC3    C6 9069   1.456   2.227  10.223 -0.3014  0.7729  0.2292
  612TMC3     C 9070   1.116   1.992  10.186  0.0817 -0.2875 -0.2673
  612TMC3     O 9071   1.032   2.035  10.107  0.5490  0.3645  0.5939
  612TMC3     H 9072   1.247   2.022  10.399 -0.8914 -0.5124  0.5968
  612TMC3    H1 9073   1.224   2.130   9.995 -2.5781 -1.1443  1.5700
  612TMC3    H2 9074   1.543   2.291  10.233  0.0063  0.2148  1.0789
  612TMC3    C7 9075   1.413   2.302   9.992 -0.7380 -0.2386  0.0355
  612TMC3    C8 9076   1.494   2.138  10.448 -0.5208  0.5393 -0.5884
  612TMC3    O1 9077   1.328   2.303   9.905 -0.8648 -0.0568  0.2747
  612TMC3    O2 9078   1.611   2.169  10.436  0.2926 -0.4290  0.1463
  613MPD2     C 9079   3.599   4.381  15.952 -0.3378  0.0909 -0.4739
  613MPD2    C1 9080   3.690   4.297  15.995  0.0832 -0.6552 -0.2678
  613MPD2    C2 9081   3.660   4.180  16.062  0.0219  0.3777  0.1854
  613MPD2    C3 9082   3.528   4.139  16.071  0.2377  0.0981 -0.2709
  613MPD2    C4 9083   3.429   4.219  16.021  0.0066  0.7025  0.0947
  613MPD2    C5 9084   3.471   4.342  15.966  0.1219  0.0001  0.4920
  613MPD2     H 9085   3.736   4.117  16.106 -1.7982 -0.7297  1.7600
  613MPD2    H1 9086   3.323   4.201  16.015 -0.0042  0.9034 -0.3051
  613MPD2    H2 9087   3.621   4.473  15.899  0.0194  2.1228  3.2061
  613MPD2    H3 9088   3.408   4.406  15.905 -1.4019 -0.9647  1.0505
  613MPD2     N 9089   3.509   4.017  16.138 -0.4774  0.2993  0.0453
  613MPD2    H5 9090   3.593   3.971  16.172 -1.4233 -1.1403  0.4452
  613MPD2    N1 9091   3.823   4.338  15.963  1.0674 -0.8281 -0.7408
  613MPD2    H7 9092   3.833   4.415  15.897 -0.9279  0.8162  0.8840
  614TMC3    C1 9093   4.063   4.303  15.913  0.4167  0.2686 -0.0773
  614TMC3    C2 9094   4.173   4.221  15.941  0.0392 -0.2041  0.0961
  614TMC3    C3 9095   4.236   4.152  15.841  0.7062  0.0807  0.5041
  614TMC3    C4 9096   4.034   4.315  15.779  0.6669 -0.2320 -0.6658
  614TMC3    C5 9097   4.096   4.242  15.682 -0.6083  0.1581 -0.3055
  614TMC3    C6 9098   4.202   4.167  15.712  0.4145  0.6789  0.4029
  614TMC3     C 9099   3.946   4.281  15.998 -0.2043 -0.8076 -0.9695
  614TMC3     O 9100   3.969   4.188  16.075  0.7382  0.1499  0.4361
  614TMC3     H 9101   4.216   4.212  16.041 -1.1322  2.3236  0.8319
  614TMC3    H1 9102   3.948   4.377  15.758 -0.4295 -1.2848  0.6703
  614TMC3    H2 9103   4.243   4.096  15.641 -2.2375  1.4668 -1.9029
  614TMC3    C7 9104   4.079   4.287  15.547  0.1933  0.8864 -0.0925
  614TMC3    C8 9105   4.233   4.010  15.882 -0.2593  0.1223 -0.0245
  614TMC3    O1 9106   4.099   4.407  15.520 -0.0636 -0.0810  0.4542
  614TMC3    O2 9107   4.275   3.934  15.799 -0.3836 -0.3602 -0.3433
  615MPD2     C 9108   3.415   0.628  15.875 -0.3080  0.5122 -0.0697
  615MPD2    C1 9109   3.315   0.718  15.849  0.4243 -0.0562 -0.5355
  615MPD2    C2 9110   3.212   0.698  15.758  0.8837  0.2581  0.5653
  615MPD2    C3 9111   3.203   0.574  15.694  0.3922 -0.2077  0.0331
  615MPD2    C4 9112   3.301   0.482  15.719  0.1377  0.5457 -0.1114
  615MPD2    C5 9113   3.403   0.504  15.807  0.2130  1.2473  0.0740
  615MPD2     H 9114   3.135   0.772  15.738 -0.1522 -1.2329 -1.0028
  615MPD2    H1 9115   3.306   0.387  15.667  0.4725  1.0164 -0.9563
  615MPD2    H2 9116   3.499   0.643  15.942  1.1064  0.0843 -1.7421
  615MPD2    H3 9117   3.476   0.428  15.835 -1.5219 -0.6050 -0.3928
  615MPD2     N 9118   3.092   0.556  15.609 -0.3787  0.4519  0.1122
  615MPD2    H5 9119   3.031   0.633  15.585 -0.0886  1.1686  1.7232
  615MPD2    N1 9120   3.303   0.841  15.910 -0.0193  0.3612  0.0509
  615MPD2    H7 9121   3.218   0.896  15.903 -1.5644 -2.0911 -0.6941
  616TMC3    C1 9122   3.361   1.006  16.063 -0.4932  0.5121 -0.8606
  616TMC3    C2 9123   3.452   1.104  16.074  0.2181  0.0829 -0.5918
  616TMC3    C3 9124   3.425   1.204  16.162  0.4733  0.0416 -0.3078
  616TMC3    C4 9125   3.239   1.008  16.123 -0.3205  0.4566  0.7393
  616TMC3    C5 9126   3.206   1.113  16.209 -0.6941  0.0950 -0.2687
  616TMC3    C6 9127   3.301   1.215  16.222  0.9256 -1.0593  0.1172
  616TMC3     C 9128   3.403   0.895  15.979 -0.2289  0.7290  0.0740
  616TMC3     O 9129   3.522   0.866  15.981 -0.1367  0.5089 -0.2382
  616TMC3     H 9130   3.535   1.106  16.005 -0.3588 -1.9370 -1.3451
  616TMC3    H1 9131   3.179   0.918  16.112  0.6058 -0.0292 -0.3046
  616TMC3    H2 9132   3.294   1.291  16.298 -0.3201 -2.8831  1.8342
  616TMC3    C7 9133   3.081   1.127  16.272 -0.3118  0.1303  0.0388
  616TMC3    C8 9134   3.513   1.318  16.176  0.5097 -0.7242 -0.3207
  616TMC3    O1 9135   3.081   1.204  16.366 -0.0377  0.5341  0.1407
  616TMC3    O2 9136   3.468   1.423  16.213  0.6967  0.2349  0.2560
  617MPD2     C 9137   1.438   3.994  13.695 -0.2374 -0.4378  0.2281
  617MPD2    C1 9138   1.492   3.877  13.744  0.4577 -0.0132 -0.0987
  617MPD2    C2 9139   1.410   3.769  13.764  0.3913 -0.5055 -0.0150
  617MPD2    C3 9140   1.269   3.774  13.765  0.2855 -0.5668 -0.1653
  617MPD2    C4 9141   1.215   3.900  13.738 -0.4751  0.9092  1.0348
  617MPD2    C5 9142   1.296   4.001  13.693 -0.1691  0.1810 -0.0940
  617MPD2     H 9143   1.463   3.677  13.788  2.2898  0.6430  0.1677
  617MPD2    H1 9144   1.110   3.895  13.711 -0.5161 -2.1348  1.7450
  617MPD2    H2 9145   1.498   4.081  13.668 -1.6583  1.1751  2.2922
  617MPD2    H3 9146   1.258   4.095  13.653 -1.9900  0.3540  2.0469
  617MPD2     N 9147   1.184   3.664  13.795 -0.9047 -0.0500  0.2685
  617MPD2    H5 9148   1.083   3.680  13.790 -0.7556  0.9479  0.4814
  617MPD2    N1 9149   1.629   3.870  13.730 -0.7162  0.0488 -0.8023
  617MPD2    H7 9150   1.670   3.954  13.688  0.0988  0.6799  1.2604
  618TMC3    C1 9151   1.844   3.767  13.711 -0.0623 -0.1520 -0.7899
  618TMC3    C2 9152   1.939   3.693  13.779 -0.1519  0.5236 -0.7076
  618TMC3    C3 9153   2.069   3.711  13.726 -0.2245  0.1196 -0.0748
  618TMC3    C4 9154   1.864   3.847  13.596  0.3898 -0.9498  0.1870
  618TMC3    C5 9155   1.993   3.835  13.545  0.2960 -0.3083  0.0127
  618TMC3    C6 9156   2.093   3.768  13.608  0.1041  0.2318 -0.0083
  618TMC3     C 9157   1.700   3.761  13.759  0.9054 -0.3932 -0.5785
  618TMC3     O 9158   1.677   3.658  13.821  0.3201  0.0088 -0.4552
  618TMC3     H 9159   1.902   3.629  13.858 -0.3479  1.2113 -0.2414
  618TMC3    H1 9160   1.784   3.905  13.551 -0.6002 -1.0621  1.8127
  618TMC3    H2 9161   2.191   3.771  13.562 -0.3701 -0.2677 -1.0444
  618TMC3    C7 9162   2.008   3.879  13.408  0.2744  0.5630 -0.4162
  618TMC3    C8 9163   2.176   3.651  13.806 -0.2342  0.7355 -0.4660
  618TMC3    O1 9164   1.896   3.914  13.363 -0.0826 -0.7563  1.1808
  618TMC3    O2 9165   2.150   3.626  13.927  0.1194 -0.6589  0.5413
  619MPD2     C 9166   2.995   0.140  13.079  0.5674  0.3332  0.4681
  619MPD2    C1 9167   2.911   0.242  13.117  0.4996  0.2300 -0.2883
  619MPD2    C2 9168   2.779   0.207  13.133 -0.1633  0.5431 -0.7311
  619MPD2    C3 9169   2.732   0.077  13.133  0.0782 -0.6508 -0.1918
  619MPD2    C4 9170   2.827   4.699  13.117 -0.0065 -0.1492  0.3457
  619MPD2    C5 9171   2.952   0.014  13.098 -0.6801  0.8314  0.0615
  619MPD2     H 9172   2.711   0.291  13.145 -0.2964  0.4510 -0.8304
  619MPD2    H1 9173   2.812   4.592  13.110  0.2789 -0.1352 -0.5089
  619MPD2    H2 9174   3.101   0.156  13.062  0.4814 -0.5949 -0.9392
  619MPD2    H3 9175   3.029   4.668  13.066 -0.5426  0.1750  1.8214
  619MPD2     N 9176   2.596   0.036  13.151  0.3695 -0.6453  0.2574
  619MPD2    H5 9177   2.570   4.661  13.154 -0.9269 -0.3347 -0.4402
  619MPD2    N1 9178   2.937   0.376  13.131 -0.3152  0.0489 -0.5286
  619MPD2    H7 9179   2.860   0.441  13.143  1.8989  2.1899  2.1858
  620TMC3    C1 9180   3.084   0.575  13.147  0.3543  0.1878 -0.4137
  620TMC3    C2 9181   3.076   0.642  13.032  0.3591  0.4865  0.2592
  620TMC3    C3 9182   3.055   0.777  13.035 -0.6761  0.4895  0.2533
  620TMC3    C4 9183   3.043   0.624  13.267  0.6857  0.4238  0.3670
  620TMC3    C5 9184   3.012   0.760  13.268 -0.5960  0.1502  0.1224
  620TMC3    C6 9185   3.031   0.841  13.154  0.3167 -0.5059  0.3174
  620TMC3     C 9186   3.066   0.431  13.120  0.0285 -0.4543  0.0793
  620TMC3     O 9187   3.169   0.373  13.094 -0.2156  0.4154  0.4890
  620TMC3     H 9188   3.089   0.584  12.942 -1.6866 -0.4570  0.5705
  620TMC3    H1 9189   3.018   0.561  13.352  1.0878  0.1018  0.2499
  620TMC3    H2 9190   3.014   0.948  13.160  2.8587 -0.1244  0.9325
  620TMC3    C7 9191   2.951   0.814  13.384  0.6325 -0.4086  0.6562
  620TMC3    C8 9192   3.056   0.852  12.908 -0.0987 -0.0370  0.2370
  620TMC3    O1 9193   2.974   0.769  13.497 -0.6434 -0.1939  0.7750
  620TMC3    O2 9194   3.152   0.827  12.838  0.1172  0.3214 -0.2198
  621MPD2     C 9195   4.144   4.225   9.959  0.2773  0.2856  0.6492
  621MPD2    C1 9196   4.039   4.279   9.898  0.0723  0.5755  0.2122
  621MPD2    C2 9197   4.052   4.408   9.843  0.1855 -0.7740 -0.6640
  621MPD2    C3 9198   4.179   4.473   9.855  0.0761 -0.0972  0.1206
  621MPD2    C4 9199   4.286   4.416   9.921  0.3209 -0.2989  0.9850
  621MPD2    C5 9200   4.267   4.291   9.974  0.5436  0.0430  0.9535
  621MPD2     H 9201   3.974   4.453   9.783  0.1553  0.1635  0.0699
  621MPD2    H1 9202   4.376   4.470   9.948  1.8730 -2.6175  0.4095
  621MPD2    H2 9203   4.144   4.121   9.987  0.3710  0.4985  1.4293
  621MPD2    H3 9204   4.345   4.242  10.031  0.4815  0.1659  1.1454
  621MPD2     N 9205   4.196   4.594   9.780  0.4177 -0.0711 -0.0623
  621MPD2    H5 9206   4.112   4.624   9.732 -0.5785 -0.6385  1.3518
  621MPD2    N1 9207   3.912   4.213   9.873  0.2287 -0.6861  0.0190
  621MPD2    H7 9208   3.844   4.246   9.805  1.6132  1.4779 -0.2804
  622TMC3    C1 9209   3.767   4.035   9.867 -0.0337  0.1531 -0.4578
  622TMC3    C2 9210   3.682   3.981   9.954 -0.0575 -0.6173  0.3620
  622TMC3    C3 9211   3.613   3.862   9.919  0.1675  0.2034  0.0260
  622TMC3    C4 9212   3.791   3.982   9.745 -0.2639 -0.3475  0.4236
  622TMC3    C5 9213   3.719   3.867   9.708 -0.2513 -0.5068 -0.3211
  622TMC3    C6 9214   3.633   3.804   9.798 -0.5972 -0.1866  0.0972
  622TMC3     C 9215   3.881   4.096   9.923 -0.7213  0.4426 -0.4678
  622TMC3     O 9216   3.925   4.050  10.025 -0.2285  0.0126 -0.2021
  622TMC3     H 9217   3.665   4.029  10.050 -1.7391  2.2495 -1.3823
  622TMC3    H1 9218   3.874   4.020   9.687 -2.3367  2.1119 -0.9512
  622TMC3    H2 9219   3.587   3.707   9.790 -0.2604 -0.4177  0.9220
  622TMC3    C7 9220   3.749   3.785   9.593 -0.4291  0.8725 -0.0899
  622TMC3    C8 9221   3.469   3.857   9.949 -0.3173  0.3680  0.6159
  622TMC3    O1 9222   3.710   3.666   9.594 -0.0411  0.5862  0.0406
  622TMC3    O2 9223   3.408   3.753   9.921 -0.0949  0.2477 -0.3532
  623MPD2     C 9224   2.181   1.253  16.105 -0.7269  0.3113 -0.1896
  623MPD2    C1 9225   2.084   1.337  16.161 -0.3689 -0.3922 -0.7980
  623MPD2    C2 9226   2.118   1.431  16.256 -0.4806 -0.3416 -0.4879
  623MPD2    C3 9227   2.256   1.454  16.290  0.1678  0.2700  0.8173
  623MPD2    C4 9228   2.350   1.370  16.239  0.7046  0.3637 -0.1644
  623MPD2    C5 9229   2.310   1.275  16.146 -0.1997  0.3828  0.3880
  623MPD2     H 9230   2.037   1.479  16.311  1.2840  1.4212  0.5509
  623MPD2    H1 9231   2.455   1.394  16.248  0.9452 -0.1580 -1.6368
  623MPD2    H2 9232   2.163   1.168  16.040  2.2412 -0.9992  0.6960
  623MPD2    H3 9233   2.388   1.208  16.110 -1.6629 -0.4263 -1.2782
  623MPD2     N 9234   2.284   1.542  16.400 -0.0752  0.3000 -0.3778
  623MPD2    H5 9235   2.379   1.520  16.426 -0.1694 -0.3986 -0.6224
  623MPD2    N1 9236   1.941   1.336  16.132  0.4567 -0.1249  0.2122
  623MPD2    H7 9237   1.881   1.405  16.175 -0.7229  0.2907 -2.0746
  624TMC3    C1 9238   2.336   1.556  16.740  0.1704  0.1298 -0.1978
  624TMC3    C2 9239   2.223   1.531  16.806 -0.2826 -0.0298 -0.2897
  624TMC3    C3 9240   2.104   1.587  16.762 -0.0336  0.2991  0.0263
  624TMC3    C4 9241   2.342   1.634  16.627 -0.2100  0.0840  0.6217
  624TMC3    C5 9242   2.227   1.685  16.583  0.1575 -0.4243  0.2743
  624TMC3    C6 9243   2.111   1.666  16.653  0.5208  0.0481  0.2878
  624TMC3     C 9244   2.454   1.489  16.791  0.5692 -0.2109  0.3325
  624TMC3     O 9245   2.434   1.407  16.882 -0.8561  0.2429 -0.4062
  624TMC3     H 9246   2.215   1.474  16.897 -1.2188 -0.8601 -0.8879
  624TMC3    H1 9247   2.431   1.669  16.577 -0.5792  0.8191  0.4730
  624TMC3    H2 9248   2.017   1.701  16.611  0.4767 -0.5536 -0.1289
  624TMC3    C7 9249   2.205   1.648  16.442  0.0128  0.3216 -0.0868
  624TMC3    C8 9250   2.013   1.484  16.728  0.3115  0.1536  0.4126
  624TMC3    O1 9251   2.095   1.683  16.394 -0.3498 -0.1241 -0.4336
  624TMC3    O2 9252   2.069   1.387  16.678 -0.4127  0.1559 -0.2665
  625MPD2     C 9253   2.602   2.971   0.647  0.5459  0.4680 -0.1882
  625MPD2    C1 9254   2.638   2.952   0.514  0.7601 -0.4873  0.0738
  625MPD2    C2 9255   2.764   2.897   0.488 -0.7532 -0.2449 -0.0435
  625MPD2    C3 9256   2.838   2.843   0.588  0.6991  1.1141  0.2670
  625MPD2    C4 9257   2.802   2.860   0.720 -0.3670  0.5057  0.0409
  625MPD2    C5 9258   2.683   2.926   0.751  0.0719  0.1775  0.4604
  625MPD2     H 9259   2.802   2.893   0.387 -1.2239 -0.5542 -0.2044
  625MPD2    H1 9260   2.861   2.823   0.803 -0.4327 -0.0372 -0.1499
  625MPD2    H2 9261   2.521   3.037   0.676  0.3278 -0.2346  0.7857
  625MPD2    H3 9262   2.658   2.961   0.850 -1.8331  0.2216 -0.0291
  625MPD2     N 9263   2.962   2.771   0.562  0.0761 -0.0347  0.5223
  625MPD2    H5 9264   2.998   2.784   0.468 -1.0743 -0.8060 -0.0225
  625MPD2    N1 9265   2.561   3.016   0.408 -0.2065  0.1679  0.0193
  625MPD2    H7 9266   2.483   3.079   0.427 -0.2755  0.1055 -0.0545
  626TMC3    C1 9267   2.468   3.064   0.205 -0.3196  0.1026 -0.1268
  626TMC3    C2 9268   2.406   2.979   0.109  0.1535  0.0384  0.3254
  626TMC3    C3 9269   2.276   3.010   0.072 -0.1858 -0.7827 -0.3590
  626TMC3    C4 9270   2.401   3.170   0.259  0.0140 -0.1832 -0.4759
  626TMC3    C5 9271   2.265   3.186   0.218 -0.3694  0.4187  0.3420
  626TMC3    C6 9272   2.203   3.115   0.126 -0.5905  0.3798 -0.2682
  626TMC3     C 9273   2.579   3.003   0.272 -0.0527 -0.7256  0.5120
  626TMC3     O 9274   2.655   2.926   0.212  0.2729 -0.1025 -0.8303
  626TMC3     H 9275   2.463   2.893   0.076  0.2105  0.2804 -0.2103
  626TMC3    H1 9276   2.449   3.232   0.334 -0.8542  1.0586 -0.9642
  626TMC3    H2 9277   2.106   3.137   0.084 -2.4488 -4.8369  1.2071
  626TMC3    C7 9278   2.185   3.271   0.307  0.2115 -0.0978  0.0859
  626TMC3    C8 9279   2.221   2.960  17.642 -0.6155 -1.0827  0.9941
  626TMC3    O1 9280   2.241   3.352   0.375  0.7367  0.0668  0.1406
  626TMC3    O2 9281   2.302   2.946  17.551  0.1633 -0.2280 -0.7114
  627MPD2     C 9282   1.491   1.937  13.558 -0.4988 -0.4725  0.0700
  627MPD2    C1 9283   1.416   2.027  13.627  0.4970  0.0274 -0.1887
  627MPD2    C2 9284   1.297   1.989  13.682 -0.0607 -0.2767 -0.2900
  627MPD2    C3 9285   1.252   1.860  13.661  0.0296  0.5355  0.2393
  627MPD2    C4 9286   1.323   1.776  13.584  0.3936  0.5465 -0.2704
  627MPD2    C5 9287   1.449   1.809  13.548 -0.3005 -0.0585 -0.4628
  627MPD2     H 9288   1.227   2.051  13.736  1.4051  0.4412  0.7929
  627MPD2    H1 9289   1.283   1.682  13.548 -3.0544  1.7047  0.5271
  627MPD2    H2 9290   1.586   1.972  13.520  0.4130 -2.9188  0.0556
  627MPD2    H3 9291   1.509   1.753  13.478  0.1201  3.3345 -2.8437
  627MPD2     N 9292   1.125   1.818  13.714  0.0576 -0.0027  0.2768
  627MPD2    H5 9293   1.066   1.887  13.760  1.1842  0.6859  0.6879
  627MPD2    N1 9294   1.468   2.155  13.656 -0.0545  0.5341  0.6817
  627MPD2    H7 9295   1.567   2.169  13.639 -0.5429 -0.8608 -3.3273
  628TMC3    C1 9296   1.464   2.357  13.769  0.7053  0.3283  0.0646
  628TMC3    C2 9297   1.589   2.317  13.814  0.2526 -0.0249  0.3910
  628TMC3    C3 9298   1.626   2.350  13.946 -0.0382  0.5011 -0.2022
  628TMC3    C4 9299   1.385   2.443  13.839  0.1984  0.2296  1.2542
  628TMC3    C5 9300   1.434   2.482  13.960  0.3832 -0.3517 -0.7976
  628TMC3    C6 9301   1.558   2.448  14.013  0.5076 -1.0575 -0.2321
  628TMC3     C 9302   1.390   2.260  13.691 -0.4143 -0.9283  0.4487
  628TMC3     O 9303   1.268   2.269  13.683 -0.0371  0.1870 -0.3010
  628TMC3     H 9304   1.653   2.251  13.758  0.5791 -1.1786  2.1301
  628TMC3    H1 9305   1.287   2.474  13.806  0.5493  1.3512  1.2562
  628TMC3    H2 9306   1.574   2.467  14.119 -2.1212 -1.9648  0.3011
  628TMC3    C7 9307   1.391   2.615  13.990 -0.4791 -0.0419  0.1181
  628TMC3    C8 9308   1.743   2.275  13.990 -0.6322 -0.0774 -0.8253
  628TMC3    O1 9309   1.282   2.647  13.950  0.0676  0.1871 -0.0478
  628TMC3    O2 9310   1.832   2.257  13.912 -0.4624 -0.3153 -0.2611
  629MPD2     C 9311   3.971   1.538  16.141  0.3933  0.0067  0.1013
  629MPD2    C1 9312   3.986   1.405  16.120  0.1696 -0.1667 -0.5753
  629MPD2    C2 9313   3.871   1.323  16.111 -0.6091 -0.3008  0.3762
  629MPD2    C3 9314   3.745   1.377  16.135  0.2158  0.4686 -0.5633
  629MPD2    C4 9315   3.735   1.512  16.153  0.3592 -0.7926  0.2394
  629MPD2    C5 9316   3.845   1.588  16.170 -1.2138  0.0615  0.7071
  629MPD2     H 9317   3.879   1.220  16.081 -0.4433 -0.1481 -0.1112
  629MPD2    H1 9318   3.646   1.569  16.178  0.2075 -0.8415 -0.1863
  629MPD2    H2 9319   4.058   1.603  16.141 -0.1599  0.7615 -1.1862
  629MPD2    H3 9320   3.835   1.694  16.186 -0.3446  0.4584 -1.3831
  629MPD2     N 9321   3.641   1.285  16.140  0.0753 -0.2735  0.1018
  629MPD2    H5 9322   3.650   1.188  16.111  1.2100 -0.3699  0.8109
  629MPD2    N1 9323   4.113   1.361  16.090  0.5917 -0.5606 -0.0337
  629MPD2    H7 9324   4.182   1.433  16.070 -0.3662  0.4998  0.4494
  630TMC3    C1 9325   4.307   1.241  16.081  0.2766  0.3243 -0.2652
  630TMC3    C2 9326   4.342   1.275  15.954 -0.5693  0.0408 -0.4237
  630TMC3    C3 9327   4.458   1.246  15.900 -0.2850  0.0619 -0.4822
  630TMC3    C4 9328   4.386   1.154  16.148 -0.3014  0.4124 -0.6808
  630TMC3    C5 9329   4.501   1.111  16.092  0.1517  0.3326  0.8196
  630TMC3    C6 9330   4.543   1.161  15.971  0.4883 -0.8043  0.0095
  630TMC3     C 9331   4.166   1.239  16.113  0.4008  0.4071  0.6872
  630TMC3     O 9332   4.123   1.149  16.185 -0.4849  0.3358  0.6745
  630TMC3     H 9333   4.266   1.327  15.896 -1.0848  0.8007  0.9478
  630TMC3    H1 9334   4.341   1.105  16.234 -1.3704  1.8369 -0.4248
  630TMC3    H2 9335   4.634   1.125  15.925 -0.3881 -5.4070  1.9317
  630TMC3    C7 9336   4.608   1.076  16.176 -0.2591 -0.6425 -0.9778
  630TMC3    C8 9337   4.529   1.366  15.871  0.2735 -0.2068 -0.9526
  630TMC3    O1 9338   4.587   0.996  16.268 -0.0150  0.4512  0.3458
  630TMC3    O2 9339   4.610   1.399  15.959  0.3112 -0.1328  0.2703
  631MPD2     C 9340   2.239   0.933  15.410 -0.7683  0.1885  0.2039
  631MPD2    C1 9341   2.305   0.929  15.287 -0.1535  0.5215  0.4842
  631MPD2    C2 9342   2.402   0.833  15.262  0.1490 -0.4585  0.2684
  631MPD2    C3 9343   2.445   0.758  15.365  0.1426  0.3193 -0.3535
  631MPD2    C4 9344   2.378   0.757  15.488  0.4694 -0.5483 -0.0458
  631MPD2    C5 9345   2.276   0.843  15.506 -0.0121 -0.1862 -0.8070
  631MPD2     H 9346   2.461   0.839  15.171  0.4216  1.6211  0.5748
  631MPD2    H1 9347   2.395   0.689  15.570 -2.5143  0.8049  1.6834
  631MPD2    H2 9348   2.164   1.012  15.422 -0.5500  0.1948  1.4888
  631MPD2    H3 9349   2.233   0.844  15.605  0.7244 -2.7440 -0.4460
  631MPD2     N 9350   2.561   0.685  15.351 -0.8063 -0.4656  0.1335
  631MPD2    H5 9351   2.596   0.670  15.256 -0.2945 -0.8494  0.3833
  631MPD2    N1 9352   2.268   1.026  15.183  0.2815 -0.1153  0.1434
  631MPD2    H7 9353   2.226   1.110  15.221  0.7515  0.2625 -0.1722
  632TMC3    C1 9354   2.315   1.168  15.006 -0.1503 -0.8101  0.1437
  632TMC3    C2 9355   2.317   1.262  15.102  1.2066 -0.8055  0.3326
  632TMC3    C3 9356   2.396   1.368  15.084  0.4654  0.2082 -0.1743
  632TMC3    C4 9357   2.388   1.183  14.883  0.1297  0.5182 -0.1500
  632TMC3    C5 9358   2.460   1.295  14.867 -0.1826  0.3904  0.2317
  632TMC3    C6 9359   2.465   1.390  14.963 -0.7751  0.5271  0.5561
  632TMC3     C 9360   2.316   1.030  15.056  0.4637  0.8440  0.7570
  632TMC3     O 9361   2.366   0.937  14.991 -0.0888  0.0784  0.1267
  632TMC3     H 9362   2.272   1.254  15.201  1.7060 -1.6215  0.5024
  632TMC3    H1 9363   2.407   1.101  14.815  3.1651 -0.2862  1.6320
  632TMC3    H2 9364   2.537   1.472  14.966 -1.0254  0.6945  1.6645
  632TMC3    C7 9365   2.588   1.297  14.790  0.2397  0.0517  0.5735
  632TMC3    C8 9366   2.402   1.471  15.181 -0.4107 -0.0223 -0.1386
  632TMC3    O1 9367   2.683   1.341  14.858 -0.0500 -0.4977 -0.3682
  632TMC3    O2 9368   2.503   1.543  15.178 -0.2825 -0.0050  0.9356
  633MPD2     C 9369   2.097   3.740  17.056 -0.5414  0.0687 -0.0576
  633MPD2    C1 9370   2.149   3.700  16.929  0.0861 -0.1598 -0.6838
  633MPD2    C2 9371   2.127   3.569  16.879  0.2258  0.6061 -0.3022
  633MPD2    C3 9372   2.040   3.490  16.950  0.4669  0.3329  0.3874
  633MPD2    C4 9373   2.000   3.530  17.072  0.5162 -0.1703 -0.4750
  633MPD2    C5 9374   2.023   3.651  17.126 -0.5697 -0.1382  0.3541
  633MPD2     H 9375   2.173   3.535  16.787  0.1405 -3.7078  1.2608
  633MPD2    H1 9376   1.934   3.461  17.123 -0.6018  1.9459  0.9651
  633MPD2    H2 9377   2.127   3.829  17.111  1.5189 -1.6604  1.6536
  633MPD2    H3 9378   1.982   3.679  17.222 -0.8133 -1.0572  0.5150
  633MPD2     N 9379   2.012   3.363  16.914  0.6346  0.2403  0.0959
  633MPD2    H5 9380   1.969   3.295  16.976  0.2289  1.1327  0.7967
  633MPD2    N1 9381   2.235   3.789  16.856  0.0362  0.4910  0.0422
  633MPD2    H7 9382   2.267   3.764  16.763  0.0259  0.9517 -0.0846
  634TMC3    C1 9383   2.343   3.981  16.780  0.2232 -0.7228 -0.6157
  634TMC3    C2 9384   2.412   3.901  16.698 -0.1377 -0.0238  0.2103
  634TMC3    C3 9385   2.468   3.972  16.592 -0.1581  0.4786  0.0380
  634TMC3    C4 9386   2.311   4.109  16.754 -0.0396 -0.4874 -0.2131
  634TMC3    C5 9387   2.378   4.175  16.657  0.7447 -0.5736  0.0679
  634TMC3    C6 9388   2.453   4.108  16.570  0.3248 -0.0997  0.0398
  634TMC3     C 9389   2.260   3.916  16.884  0.7121  0.3162 -1.0117
  634TMC3     O 9390   2.241   3.980  16.983  0.3449  0.2504 -0.3192
  634TMC3     H 9391   2.448   3.800  16.716  0.0916  0.0155 -0.0120
  634TMC3    H1 9392   2.240   4.158  16.820  1.8808  0.8067  0.8867
  634TMC3    H2 9393   2.501   4.162  16.489  0.2742  0.2489  0.2436
  634TMC3    C7 9394   2.326   4.291  16.599  0.5386 -0.3200 -0.3286
  634TMC3    C8 9395   2.497   3.892  16.476 -0.5195 -0.8381  0.7148
  634TMC3    O1 9396   2.319   4.304  16.476 -0.0516 -0.2328 -0.0477
  634TMC3    O2 9397   2.476   3.770  16.488 -0.6253 -0.4165  0.0389
  635TMC3    C1 9398   2.840   0.007  17.507  0.5710  0.2330 -0.0745
  635TMC3    C2 9399   2.863   4.717  17.371 -0.2433  0.0625 -0.4680
  635TMC3    C3 9400   2.871   4.595  17.308  0.1053 -0.1261 -0.2944
  635TMC3    C4 9401   2.838   4.621  17.588  0.3149  0.3832 -0.3060
  635TMC3    C5 9402   2.831   4.496  17.521  0.0975  0.1927 -0.2250
  635TMC3    C6 9403   2.855   4.478  17.382  0.1750  0.2848 -0.0599
  635TMC3     C 9404   2.791   0.137  17.557  1.3732  0.4518 -0.0433
  635TMC3     O 9405   2.758   0.132  17.675 -0.2042  0.2188 -0.3113
  635TMC3     H 9406   2.885   0.080  17.309  2.0080  0.9747  1.6251
  635TMC3    H1 9407   2.822   4.634  17.694 -0.7644 -0.1795 -0.4000
  635TMC3    H2 9408   2.858   4.381  17.335 -0.0879  0.6398 -0.7991
  635TMC3    C7 9409   2.869   4.380  17.607 -0.3122  0.0193  0.1378
  635TMC3    C8 9410   2.892   4.592  17.162  0.1831 -0.5449  0.0127
  635TMC3    O1 9411   2.913   4.286  17.543 -0.3941 -0.0057  0.8125
  635TMC3    O2 9412   2.888   4.694  17.103 -0.3254 -0.4793  0.4201
  636MPD2     C 9413   3.553   3.572  15.517 -0.1963 -0.0170 -0.4707
  636MPD2    C1 9414   3.539   3.700  15.565  0.7991  0.3233 -0.3806
  636MPD2    C2 9415   3.517   3.717  15.699  1.0140  0.0338  0.8731
  636MPD2    C3 9416   3.499   3.607  15.787  0.3187 -0.1108  0.1251
  636MPD2    C4 9417   3.524   3.479  15.738 -0.2268 -0.2802  0.6853
  636MPD2    C5 9418   3.547   3.465  15.604  0.3830 -0.3808 -0.3215
  636MPD2     H 9419   3.512   3.813  15.749  2.2466  0.7213 -0.3074
  636MPD2    H1 9420   3.509   3.396  15.807 -2.1489 -0.6210 -0.1604
  636MPD2    H2 9421   3.573   3.557  15.411  2.1191  0.3472 -0.0785
  636MPD2    H3 9422   3.566   3.367  15.562 -0.0884 -0.4528 -0.3696
  636MPD2     N 9423   3.460   3.633  15.918 -1.2415 -0.2782 -0.3714
  636MPD2    H5 9424   3.425   3.727  15.937 -0.6682 -0.2145  0.4000
  636MPD2    N1 9425   3.536   3.816  15.489  0.5638  0.0571  0.5461
  636MPD2    H7 9426   3.517   3.899  15.545  1.3630  0.5034  0.1552
  637TMC3    C1 9427   3.476   3.622  16.151  0.1038 -0.7487  0.4110
  637TMC3    C2 9428   3.383   3.721  16.156  0.6549  0.3902  0.7750
  637TMC3    C3 9429   3.413   3.833  16.226  0.2809  0.5302  0.2281
  637TMC3    C4 9430   3.598   3.618  16.215 -0.1931 -0.3661  0.8682
  637TMC3    C5 9431   3.625   3.738  16.281  0.0055 -1.1078  0.9146
  637TMC3    C6 9432   3.530   3.834  16.296 -0.6093  0.3317  0.5587
  637TMC3     C 9433   3.476   3.549  16.033 -0.8892  0.2613 -0.9036
  637TMC3     O 9434   3.535   3.442  16.031  0.1071  0.2887  0.7292
  637TMC3     H 9435   3.292   3.709  16.099  0.6197 -0.5446  1.0238
  637TMC3    H1 9436   3.673   3.545  16.188 -1.5051 -1.8076  1.1414
  637TMC3    H2 9437   3.565   3.923  16.348 -1.0220  0.3018  0.8853
  637TMC3    C7 9438   3.759   3.789  16.255 -0.1494  0.3817  0.0556
  637TMC3    C8 9439   3.392   3.954  16.145  0.2191 -0.4346 -0.3522
  637TMC3    O1 9440   3.776   3.911  16.255  0.1928  0.1238  0.2424
  637TMC3    O2 9441   3.291   3.965  16.079  0.3409  0.6204  0.0563
  638MPD2     C 9442   3.231   2.935  14.976  0.6116  0.0532  0.2623
  638MPD2    C1 9443   3.224   2.814  14.899 -0.2226  0.2031  0.3023
  638MPD2    C2 9444   3.174   2.699  14.964 -1.0107  0.5718 -0.5016
  638MPD2    C3 9445   3.157   2.693  15.103  0.4427 -0.2364  0.4999
  638MPD2    C4 9446   3.177   2.810  15.174 -0.8087 -0.9603 -0.3293
  638MPD2    C5 9447   3.208   2.927  15.108  0.3559 -0.3412  0.0661
  638MPD2     H 9448   3.155   2.611  14.904 -2.7595  1.1391 -0.7874
  638MPD2    H1 9449   3.165   2.808  15.281 -1.2519 -1.1316 -0.3851
  638MPD2    H2 9450   3.275   3.024  14.933 -0.4608 -0.1081 -1.1676
  638MPD2    H3 9451   3.241   3.014  15.164 -1.3097  0.9822 -1.0089
  638MPD2     N 9452   3.140   2.561  15.162  0.1920 -0.2795 -0.0512
  638MPD2    H5 9453   3.122   2.475  15.111  1.6211  0.0789 -1.1576
  638MPD2    N1 9454   3.240   2.829  14.759 -0.5228  0.2816 -0.1511
  638MPD2    H7 9455   3.277   2.918  14.728  0.5087  0.0243  0.3446
  639TMC3    C1 9456   3.096   2.394  15.315  0.0265 -0.0014  0.1651
  639TMC3    C2 9457   2.991   2.343  15.242  0.5945 -1.0328  0.1490
  639TMC3    C3 9458   2.939   2.225  15.280 -0.1402 -0.8349  0.4844
  639TMC3    C4 9459   3.169   2.318  15.407  0.5832  0.0979 -0.0568
  639TMC3    C5 9460   3.114   2.189  15.429  0.0950  0.3984 -0.1780
  639TMC3    C6 9461   3.011   2.139  15.360 -0.0396 -0.4017 -0.0169
  639TMC3     C 9462   3.134   2.533  15.292  0.3662 -0.3342  0.0021
  639TMC3     O 9463   3.158   2.607  15.388 -0.0563 -1.0267  0.1241
  639TMC3     H 9464   2.945   2.387  15.154 -0.1405  0.8229  1.4641
  639TMC3    H1 9465   3.248   2.352  15.473  1.6605  0.8571 -1.7112
  639TMC3    H2 9466   2.952   2.062  15.410  1.4424 -1.8749 -0.5277
  639TMC3    C7 9467   3.190   2.102  15.510 -0.3263 -0.0572  0.1551
  639TMC3    C8 9468   2.862   2.159  15.171 -0.2688  0.3470  0.1306
  639TMC3    O1 9469   3.127   2.019  15.577  0.3061 -0.4582 -0.1630
  639TMC3    O2 9470   2.920   2.165  15.063  0.1211  0.5535  0.3574
  640MPD2     C 9471   4.460   0.525   9.770 -0.5237 -0.1040 -0.2192
  640MPD2    C1 9472   4.561   0.612   9.740 -0.0764 -1.3133 -0.7523
  640MPD2    C2 9473   4.567   0.730   9.813  0.0876  0.1457  0.0198
  640MPD2    C3 9474   4.473   0.770   9.902 -0.5523 -0.2103 -0.2368
  640MPD2    C4 9475   4.374   0.683   9.927  0.1202  0.5435 -0.3718
  640MPD2    C5 9476   4.376   0.556   9.869  0.3677  0.0725  0.3127
  640MPD2     H 9477   4.653   0.795   9.816  1.6200 -1.9203  0.3935
  640MPD2    H1 9478   4.288   0.694   9.993  1.3361  0.1659  1.2858
  640MPD2    H2 9479   4.457   0.427   9.723  2.7667 -0.1074 -0.4312
  640MPD2    H3 9480   4.293   0.494   9.899 -0.0601  0.6600  0.3345
  640MPD2     N 9481   4.465   0.891   9.967  0.3039  0.4849 -0.3170
  640MPD2    H5 9482   4.393   0.895  10.039  1.5001  1.9588  0.7967
  640MPD2    N1 9483   4.666   0.581   9.653  0.7911  0.5164  1.0185
  640MPD2    H7 9484   4.668   0.489   9.611  0.4147  0.0191  2.0959
  641TMC3    C1 9485   0.130   0.606   9.510 -0.3740 -0.3430  0.2310
  641TMC3    C2 9486   0.182   0.479   9.531 -0.2540 -0.2622  0.3059
  641TMC3    C3 9487   0.293   0.447   9.456 -0.3521 -0.1028  0.5154
  641TMC3    C4 9488   0.188   0.698   9.428  0.1189 -0.1236 -0.1599
  641TMC3    C5 9489   0.295   0.660   9.348  0.6874  0.4096  1.1387
  641TMC3    C6 9490   0.352   0.532   9.371  0.2071  0.3247  0.3968
  641TMC3     C 9491   0.043   0.664   9.613  0.3445  0.0513  0.4995
  641TMC3     O 9492   0.048   0.789   9.622 -0.7399  0.6200 -0.2662
  641TMC3     H 9493   0.137   0.400   9.591 -1.4495 -1.3356 -1.9981
  641TMC3    H1 9494   0.131   0.789   9.413  0.8370  0.6352  1.7283
  641TMC3    H2 9495   0.437   0.500   9.312 -1.0673 -0.3177 -1.0892
  641TMC3    C7 9496   0.395   0.754   9.310 -0.7469 -0.0433 -0.1816
  641TMC3    C8 9497   0.366   0.334   9.493 -0.3162  0.8353  0.0359
  641TMC3    O1 9498   0.514   0.717   9.299 -0.3153 -0.2261 -0.4779
  641TMC3    O2 9499   0.435   0.277   9.413 -0.8417  0.1039  0.6775
  642TMC3    C1 9500   0.437   2.491  11.963  0.0243 -0.4228 -0.2115
  642TMC3    C2 9501   0.561   2.475  11.902 -0.1264 -0.0148  0.7724
  642TMC3    C3 9502   0.573   2.379  11.804 -0.2607  0.6666 -0.2541
  642TMC3    C4 9503   0.324   2.408  11.929 -0.0323 -0.3476  0.0170
  642TMC3    C5 9504   0.341   2.311  11.834 -0.2859 -0.0802  0.6932
  642TMC3    C6 9505   0.464   2.302  11.770  0.2133 -0.4880 -0.3843
  642TMC3     C 9506   0.421   2.612  12.051  0.3468 -0.6459 -0.3614
  642TMC3     O 9507   0.510   2.699  12.057  0.3760 -0.1085  0.0194
  642TMC3     H 9508   0.643   2.545  11.915  0.0942 -0.0893 -0.2388
  642TMC3    H1 9509   0.225   2.430  11.966  0.1311 -3.7573  2.4232
  642TMC3    H2 9510   0.471   2.221  11.698 -0.6979 -2.7480  2.0208
  642TMC3    C7 9511   0.269   2.183  11.857 -0.3585  0.9730  0.3239
  642TMC3    C8 9512   0.704   2.344  11.755  0.3259  0.0940 -0.5189
  642TMC3    O1 9513   0.272   2.109  11.762  0.2004  0.3926 -0.2562
  642TMC3    O2 9514   0.715   2.286  11.649 -0.3974 -0.8945  0.0865
  643TMC3    C1 9515   3.882   2.371  17.558 -0.0508 -0.3038 -0.0139
  643TMC3    C2 9516   3.750   2.414  17.553 -0.8847 -0.0589  0.2805
  643TMC3    C3 9517   3.683   2.393  17.441 -0.8216  0.5974  0.0230
  643TMC3    C4 9518   3.937   2.307  17.451  0.2828 -0.8370 -0.1785
  643TMC3    C5 9519   3.858   2.272  17.344  0.4384 -0.0512 -0.1815
  643TMC3    C6 9520   3.728   2.313  17.341  0.2947 -0.1303  0.1727
  643TMC3     C 9521   3.960   2.465  17.635 -0.1201 -0.1848 -0.1406
  643TMC3     O 9522   3.930   2.583  17.624  0.4805  0.4668  0.1694
  643TMC3     H 9523   3.710   2.458  17.644  1.8401  2.4082  0.2636
  643TMC3    H1 9524   4.042   2.281  17.442  0.0984 -1.2603 -1.2358
  643TMC3    H2 9525   3.666   2.285  17.257  0.9899  1.0834 -0.7593
  643TMC3    C7 9526   3.930   2.318  17.220 -0.8690  0.1291  0.0782
  643TMC3    C8 9527   3.628   2.512  17.384 -0.1415  0.7519 -0.2499
  643TMC3    O1 9528   4.050   2.299  17.194  0.1330 -0.0686  0.2381
  643TMC3    O2 9529   3.596   2.505  17.269  0.0352  0.0017 -0.1801
  644MPD2     C 9530   0.318   1.819   9.377  0.2683  0.7505  0.1210
  644MPD2    C1 9531   0.249   1.719   9.445  0.2032 -0.0462 -0.0332
  644MPD2    C2 9532   0.131   1.746   9.503 -0.4064 -0.1291 -0.4882
  644MPD2    C3 9533   0.080   1.871   9.495 -0.2514  0.5725 -0.1944
  644MPD2    C4 9534   0.152   1.975   9.432 -0.2915  0.0978  0.3072
  644MPD2    C5 9535   0.271   1.944   9.375  0.2453  0.1616  0.1550
  644MPD2     H 9536   0.070   1.674   9.557  1.6351 -0.7804  0.9171
  644MPD2    H1 9537   0.131   2.081   9.421  0.4502  0.1451 -0.6940
  644MPD2    H2 9538   0.412   1.799   9.326  0.9380 -1.0413  2.1125
  644MPD2    H3 9539   0.334   2.010   9.318  1.8199  0.6794  2.4821
  644MPD2     N 9540   4.673   1.892   9.552  0.5812  0.0749  0.0952
  644MPD2    H5 9541   4.625   1.806   9.576 -0.1635  0.8528  1.3893
  644MPD2    N1 9542   0.315   1.599   9.459  0.0766 -0.1155 -0.4714
  644MPD2    H7 9543   0.401   1.590   9.406  0.4194  1.3502 -0.1650
  645TMC3    C1 9544   4.481   2.012   9.640  0.1726  0.1446  0.4768
  645TMC3    C2 9545   4.428   1.890   9.676 -0.6591  0.1557 -0.4282
  645TMC3    C3 9546   4.338   1.891   9.782 -0.2665 -0.2085  1.1664
  645TMC3    C4 9547   4.456   2.129   9.710  0.4119 -0.0890  0.2551
  645TMC3    C5 9548   4.363   2.121   9.810  0.5419 -0.0471  0.3770
  645TMC3    C6 9549   4.309   2.003   9.852  0.3684 -0.3382  0.1893
  645TMC3     C 9550   4.608   2.015   9.562  0.0865  0.9540  0.5644
  645TMC3     O 9551   4.643   2.129   9.539 -0.0815 -0.2767  0.2829
  645TMC3     H 9552   4.416   1.814   9.599 -0.2348  1.5777 -1.8942
  645TMC3    H1 9553   4.509   2.221   9.687 -1.2692  0.4803 -1.3468
  645TMC3    H2 9554   4.244   2.001   9.938 -0.5006 -0.8869 -0.4836
  645TMC3    C7 9555   4.295   2.242   9.854  0.0167  0.5939  0.3191
  645TMC3    C8 9556   4.267   1.767   9.825  0.5326  0.3367 -0.7218
  645TMC3    O1 9557   4.173   2.224   9.865 -0.4036 -0.0003  0.1117
  645TMC3    O2 9558   4.195   1.783   9.923 -0.0381  0.5245  0.4740
  646MPD2     C 9559   3.345   1.328  14.823  0.3464  0.3256 -0.0316
  646MPD2    C1 9560   3.248   1.377  14.908 -0.3535  0.4844  0.5046
  646MPD2    C2 9561   3.156   1.461  14.851  0.5434  0.6258  0.4714
  646MPD2    C3 9562   3.147   1.478  14.711  0.4953  0.3101 -0.7866
  646MPD2    C4 9563   3.242   1.424  14.634 -0.4644 -0.6272  0.1900
  646MPD2    C5 9564   3.346   1.359  14.690 -0.0220  0.8829  0.1005
  646MPD2     H 9565   3.078   1.499  14.916  0.4762  0.6790  0.3611
  646MPD2    H1 9566   3.246   1.436  14.526  0.3510  3.3636  0.6828
  646MPD2    H2 9567   3.436   1.289  14.867 -0.3053 -0.5026  0.5855
  646MPD2    H3 9568   3.435   1.338  14.631  0.9463  1.7573  1.2400
  646MPD2     N 9569   3.036   1.557  14.659  0.1268 -0.4442 -0.1273
  646MPD2    H5 9570   2.967   1.596  14.724  1.6698  0.8186  0.7539
  646MPD2    N1 9571   3.263   1.352  15.049 -0.3725 -0.1098  0.5503
  646MPD2    H7 9572   3.342   1.294  15.074  1.5672  1.5980 -1.5714
  647TMC3    C1 9573   3.222   1.347  15.271  0.0825 -0.2901  0.8377
  647TMC3    C2 9574   3.172   1.229  15.321 -0.2245  0.2774 -0.0010
  647TMC3    C3 9575   3.251   1.141  15.392  1.5715  0.1034 -0.4132
  647TMC3    C4 9576   3.353   1.371  15.287  0.0418  0.4310  0.0288
  647TMC3    C5 9577   3.424   1.296  15.374  0.4559 -0.0440 -0.4501
  647TMC3    C6 9578   3.367   1.188  15.436 -0.1394 -0.7740  0.9092
  647TMC3     C 9579   3.169   1.381  15.143 -0.0718  0.5316  0.1890
  647TMC3     O 9580   3.050   1.396  15.128 -0.0228 -0.3334 -0.0860
  647TMC3     H 9581   3.080   1.192  15.277 -0.6318 -0.3692  1.3838
  647TMC3    H1 9582   3.393   1.452  15.227 -0.8464  0.0496 -1.0723
  647TMC3    H2 9583   3.430   1.113  15.483 -1.2154 -1.0100  1.9957
  647TMC3    C7 9584   3.560   1.269  15.334 -0.1545  0.3773  0.6851
  647TMC3    C8 9585   3.243   0.995  15.374 -0.5298 -0.1856 -0.1600
  647TMC3    O1 9586   3.605   1.165  15.372  0.3017  0.2839 -0.0650
  647TMC3    O2 9587   3.298   0.936  15.463  0.2620  0.3993 -0.3585
  648TMC3    C1 9588   2.938   3.916  15.812 -0.6914  0.2309  0.7468
  648TMC3    C2 9589   2.949   3.806  15.734  0.1565 -0.4346  0.3152
  648TMC3    C3 9590   2.899   3.813  15.606  0.3266 -0.3290 -0.0618
  648TMC3    C4 9591   2.888   4.036  15.763  0.9451  0.1772 -0.3133
  648TMC3    C5 9592   2.849   4.040  15.628 -0.6280  0.1182 -0.0815
  648TMC3    C6 9593   2.848   3.926  15.552 -0.5135 -0.4656  0.8372
  648TMC3     C 9594   2.949   3.918  15.958 -0.4833 -0.4300 -0.5727
  648TMC3     O 9595   2.944   4.028  16.014 -0.1748  0.2692  0.8292
  648TMC3     H 9596   2.962   3.711  15.785 -1.5101 -1.1942 -0.6982
  648TMC3    H1 9597   2.908   4.128  15.817 -1.4053 -0.5064  1.7329
  648TMC3    H2 9598   2.826   3.933  15.447  2.9763  0.1042  0.1361
  648TMC3    C7 9599   2.803   4.160  15.565 -0.0360 -0.4350 -0.5333
  648TMC3    C8 9600   2.866   3.691  15.529 -0.1554 -0.4149 -0.4731
  648TMC3    O1 9601   2.808   4.166  15.445  0.0716 -0.1277 -0.0989
  648TMC3    O2 9602   2.760   3.689  15.470 -0.2393  0.4699 -0.3460
  649TMC3    C1 9603   1.855   0.036  12.771  0.6555 -0.1026 -0.2026
  649TMC3    C2 9604   1.987   0.056  12.766  0.0734  0.6464 -0.2043
  649TMC3    C3 9605   2.060   0.027  12.879 -0.2688 -0.7168  0.2578
  649TMC3    C4 9606   1.798   4.722  12.895  0.4530 -0.7259 -0.0103
  649TMC3    C5 9607   1.876   4.708  13.005 -0.6037 -0.2475  0.0361
  649TMC3    C6 9608   2.010   4.711  12.996 -0.6084  1.1710 -0.6357
  649TMC3     C 9609   1.766   0.079  12.666 -0.7359 -0.5619 -0.0163
  649TMC3     O 9610   1.655   0.117  12.699  0.1799 -0.3716  0.1172
  649TMC3     H 9611   2.024   0.105  12.677 -0.8949  0.7799 -0.5262
  649TMC3    H1 9612   1.692   4.704  12.885  0.4858  0.0402 -1.7727
  649TMC3    H2 9613   2.081   4.692  13.075 -1.4588 -0.7246 -0.3085
  649TMC3    C7 9614   1.813   4.660  13.123  0.8549 -0.3777 -0.4138
  649TMC3    C8 9615   2.207   0.027  12.869  0.5051  0.4330 -0.7505
  649TMC3    O1 9616   1.695   4.691  13.142  0.3120  0.4997  0.6767
  649TMC3    O2 9617   2.265   4.670  12.940  0.1973 -0.3873 -0.0047
  650TMC3    C1 9618   4.252   1.806  12.003  0.0992 -0.1351  0.4113
  650TMC3    C2 9619   4.246   1.860  12.126  0.4376  0.2626 -0.5644
  650TMC3    C3 9620   4.312   1.978  12.144  0.4635  0.3124  0.6060
  650TMC3    C4 9621   4.311   1.866  11.895 -0.4459  0.8063 -0.1555
  650TMC3    C5 9622   4.368   1.989  11.920  0.5285 -0.3276  0.7539
  650TMC3    C6 9623   4.371   2.046  12.042  0.3278  0.2399 -0.0677
  650TMC3     C 9624   4.196   1.668  11.979 -0.3871 -0.5046  0.2163
  650TMC3     O 9625   4.146   1.652  11.874 -0.2182  0.1145  0.5169
  650TMC3     H 9626   4.202   1.811  12.212  1.3401  0.2047 -0.1368
  650TMC3    H1 9627   4.342   1.806  11.810  0.8703 -0.7370  1.4113
  650TMC3    H2 9628   4.433   2.132  12.065  0.2671  0.4409 -0.6863
  650TMC3    C7 9629   4.436   2.058  11.811 -0.2669  0.0286  0.0444
  650TMC3    C8 9630   4.320   2.041  12.273 -0.4444  0.1147 -0.4029
  650TMC3    O1 9631   4.462   2.005  11.703  0.6537 -0.4722  0.3034
  650TMC3    O2 9632   4.418   2.109  12.286 -0.4149  0.5128 -0.6482
  651MPD2     C 9633   3.475   3.647  10.256  0.2638  0.6091  0.6014
  651MPD2    C1 9634   3.436   3.758  10.327  0.5941 -0.1783 -0.6117
  651MPD2    C2 9635   3.533   3.854  10.359  0.3272  0.0066  0.3822
  651MPD2    C3 9636   3.666   3.843  10.334 -0.4807 -0.0311 -0.1620
  651MPD2    C4 9637   3.707   3.734  10.257 -0.0202 -0.0482  0.4130
  651MPD2    C5 9638   3.609   3.643  10.220 -0.1073 -0.3529  0.1239
  651MPD2     H 9639   3.502   3.947  10.405 -0.4281  0.2803 -0.6841
  651MPD2    H1 9640   3.808   3.708  10.227  1.5150  3.1509  2.8839
  651MPD2    H2 9641   3.405   3.576  10.215 -0.4121  0.1431  2.5657
  651MPD2    H3 9642   3.648   3.560  10.163  0.3861 -0.7749  1.0727
  651MPD2     N 9643   3.751   3.950  10.378 -0.1071 -0.1105  0.8718
  651MPD2    H5 9644   3.703   4.037  10.397 -0.8569 -0.3771  0.1806
  651MPD2    N1 9645   3.306   3.772  10.370  0.0903 -0.4059 -0.1532
  651MPD2    H7 9646   3.292   3.856  10.425 -2.1307 -0.9171  0.0682
  652TMC3    C1 9647   4.178   4.137  10.410  0.4623 -0.1484 -0.7461
  652TMC3    C2 9648   4.077   4.054  10.449  0.0219  0.5309 -0.6465
  652TMC3    C3 9649   3.949   4.068  10.402 -0.5995  0.0322  0.3571
  652TMC3    C4 9650   4.159   4.232  10.315  0.6343 -0.7650 -0.2161
  652TMC3    C5 9651   4.031   4.251  10.274 -0.0453  0.2994  0.0833
  652TMC3    C6 9652   3.922   4.172  10.312  0.2492 -0.3380  0.1331
  652TMC3     C 9653   4.305   4.126  10.479 -0.0408 -0.0019  0.3635
  652TMC3     O 9654   4.298   4.109  10.604 -0.1118  0.2335 -0.2545
  652TMC3     H 9655   4.092   3.979  10.526  0.1482 -1.1293 -2.2989
  652TMC3    H1 9656   4.245   4.295  10.293  1.0830 -1.0088  0.7942
  652TMC3    H2 9657   3.828   4.182  10.260  0.7293 -0.6406 -0.7804
  652TMC3    C7 9658   3.989   4.390  10.234  0.4477 -0.4767 -0.8348
  652TMC3    C8 9659   3.887   3.944  10.393 -0.1761 -0.2672  0.0617
  652TMC3    O1 9660   3.868   4.407  10.226  0.0540 -0.0385 -0.5095
  652TMC3    O2 9661   3.946   3.838  10.403 -0.2636  0.0053 -0.0085
  653MPD2     C 9662   1.895   3.884  17.553 -0.3368 -0.1791 -1.2131
  653MPD2    C1 9663   1.939   3.990  17.470  0.3050  0.0299 -0.4762
  653MPD2    C2 9664   1.903   3.989  17.342  0.2668 -0.2962  0.5213
  653MPD2    C3 9665   1.816   3.892  17.293 -0.0426 -0.0523 -0.4550
  653MPD2    C4 9666   1.766   3.797  17.371  0.2552 -0.1385 -0.1696
  653MPD2    C5 9667   1.813   3.784  17.504  0.0266  0.2879 -0.4976
  653MPD2     H 9668   1.938   4.072  17.283  0.7253  0.2594  1.5821
  653MPD2    H1 9669   1.695   3.722  17.339 -1.9232  0.9460  2.1785
  653MPD2    H2 9670   1.928   3.865  17.654 -1.5804  1.8926 -0.4374
  653MPD2    H3 9671   1.757   3.715  17.566 -0.6807  0.5866 -0.8056
  653MPD2     N 9672   1.768   3.899  17.157 -0.2875 -0.1881 -0.7644
  653MPD2    H5 9673   1.800   3.979  17.103  0.6444  0.7257  1.1344
  653MPD2    N1 9674   2.025   4.095  17.516 -0.3536 -0.2163 -0.3453
  653MPD2    H7 9675   2.062   4.163  17.450  0.9205 -0.9480 -0.3937
  654TMC3    C1 9676   1.667   3.825  16.947  0.0994  0.0045  0.1337
  654TMC3    C2 9677   1.593   3.936  16.917 -0.6298  0.2300 -0.8768
  654TMC3    C3 9678   1.557   3.951  16.782  0.3519 -0.3767 -0.6216
  654TMC3    C4 9679   1.687   3.720  16.856  0.6166 -0.2711 -0.6208
  654TMC3    C5 9680   1.654   3.743  16.728  0.6540  0.3450 -0.1470
  654TMC3    C6 9681   1.584   3.850  16.691  0.3799 -0.6404 -0.4861
  654TMC3     C 9682   1.704   3.794  17.086  1.3311  0.1396 -0.4517
  654TMC3     O 9683   1.669   3.683  17.120 -0.6437 -0.7190 -0.0566
  654TMC3     H 9684   1.576   4.013  16.991  0.3505  1.7891 -2.2650
  654TMC3    H1 9685   1.746   3.636  16.891  0.5976 -1.1299 -2.5942
  654TMC3    H2 9686   1.551   3.850  16.587 -1.7842 -1.3262  0.2072
  654TMC3    C7 9687   1.663   3.634  16.619 -0.0896 -0.2675  0.4504
  654TMC3    C8 9688   1.457   4.045  16.736 -0.1821  0.0579 -0.0659
  654TMC3    O1 9689   1.645   3.667  16.501 -0.0513 -0.9642  0.2201
  654TMC3    O2 9690   1.441   4.065  16.615 -0.1702  0.2393 -0.3715
  655MPD2     C 9691   3.226   3.983  15.492  0.5906 -0.3524 -0.4963
  655MPD2    C1 9692   3.195   4.114  15.456  0.2724 -0.3709  0.2422
  655MPD2    C2 9693   3.165   4.143  15.325  0.0595 -0.1204  0.0958
  655MPD2    C3 9694   3.149   4.034  15.236 -0.0881 -0.6059  0.4618
  655MPD2    C4 9695   3.157   3.908  15.284 -0.2680  0.0474  0.4065
  655MPD2    C5 9696   3.217   3.883  15.402 -0.2812  0.1656 -0.3016
  655MPD2     H 9697   3.151   4.242  15.284 -0.6273 -0.8192 -1.3345
  655MPD2    H1 9698   3.142   3.829  15.213 -0.1336 -0.6465  1.1492
  655MPD2    H2 9699   3.243   3.960  15.596  2.2724  2.1476 -0.2051
  655MPD2    H3 9700   3.236   3.783  15.438 -3.0145 -0.3233 -0.2315
  655MPD2     N 9701   3.118   4.044  15.100 -0.1028  0.1558 -0.1290
  655MPD2    H5 9702   3.114   3.950  15.061  2.6246 -0.6490  1.5239
  655MPD2    N1 9703   3.189   4.216  15.550 -0.3835  0.4829 -0.0477
  655MPD2    H7 9704   3.162   4.306  15.511  0.0661  0.9754  0.7733
  656TMC3    C1 9705   3.200   4.355  15.742 -0.7965 -0.1223  0.1433
  656TMC3    C2 9706   3.141   4.345  15.865 -0.7454 -0.9149 -0.1459
  656TMC3    C3 9707   3.069   4.453  15.900 -0.4953 -0.0824  0.2148
  656TMC3    C4 9708   3.197   4.462  15.664  0.8965 -0.1209  0.2160
  656TMC3    C5 9709   3.128   4.564  15.703 -0.1800 -0.2862  0.0303
  656TMC3    C6 9710   3.058   4.568  15.824 -0.2804 -0.3957  0.2119
  656TMC3     C 9711   3.219   4.222  15.684 -0.3141  0.1352 -0.2069
  656TMC3     O 9712   3.256   4.130  15.753 -0.2263  0.4041 -0.0084
  656TMC3     H 9713   3.129   4.256  15.924 -3.3989 -2.5760 -3.1530
  656TMC3    H1 9714   3.259   4.469  15.576 -1.3668 -1.7763 -1.4933
  656TMC3    H2 9715   2.991   4.646  15.857  1.1454  1.0516 -0.3192
  656TMC3    C7 9716   3.083   4.646  15.589 -0.8114  0.3105  0.0502
  656TMC3    C8 9717   2.939   4.412  15.959 -0.0069  0.2015  0.4216
  656TMC3    O1 9718   3.155   4.640  15.490 -0.4465 -0.0886  0.4535
  656TMC3    O2 9719   2.866   4.335  15.897 -0.0192  0.0509 -0.0948
  657TMC3    C1 9720   2.079   3.109  14.790 -0.3943 -0.5982 -0.2081
  657TMC3    C2 9721   1.946   3.060  14.794 -0.0494 -0.5071 -0.1896
  657TMC3    C3 9722   1.845   3.146  14.817  1.1846  0.3724 -0.9074
  657TMC3    C4 9723   2.107   3.245  14.800 -0.1451  0.8776 -0.1843
  657TMC3    C5 9724   1.992   3.324  14.818 -0.2566 -0.1777 -0.1141
  657TMC3    C6 9725   1.864   3.281  14.820 -0.8707 -0.2806 -0.4087
  657TMC3     C 9726   2.169   3.018  14.714  0.0880 -0.1660  0.6401
  657TMC3     O 9727   2.251   3.080  14.649 -0.0711 -0.1088 -0.0062
  657TMC3     H 9728   1.927   2.963  14.748  0.4608 -1.9605  2.6322
  657TMC3    H1 9729   2.206   3.287  14.813  0.6396 -1.4141  1.3730
  657TMC3    H2 9730   1.786   3.346  14.858  2.5766  3.0470  0.8214
  657TMC3    C7 9731   2.006   3.451  14.877 -0.3419  0.1618 -0.0926
  657TMC3    C8 9732   1.710   3.093  14.834  0.3913 -0.2940 -0.0629
  657TMC3    O1 9733   1.951   3.476  14.986  0.2173 -0.2183 -0.3728
  657TMC3    O2 9734   1.621   3.173  14.805 -0.8138 -0.6057  0.0804
  658MPD2     C 9735   3.401   3.811  14.750  0.2150  0.3482  0.2430
  658MPD2    C1 9736   3.338   3.892  14.656 -0.4343  0.0516 -0.4073
  658MPD2    C2 9737   3.372   3.869  14.524 -0.4230 -0.0830 -0.1272
  658MPD2    C3 9738   3.457   3.766  14.486 -0.2616  0.2808 -0.2207
  658MPD2    C4 9739   3.509   3.674  14.575 -0.1434 -0.1414  0.6030
  658MPD2    C5 9740   3.484   3.704  14.711 -0.0746  1.2929 -0.3155
  658MPD2     H 9741   3.335   3.937  14.448 -2.4902  1.9486  2.6583
  658MPD2    H1 9742   3.569   3.586  14.553  0.9650  1.0733 -1.1981
  658MPD2    H2 9743   3.380   3.819  14.856 -2.5671 -3.6653  0.0044
  658MPD2    H3 9744   3.512   3.632  14.787  1.1765  0.3906 -1.6430
  658MPD2     N 9745   3.470   3.748  14.347 -0.2068 -0.6193 -0.2362
  658MPD2    H5 9746   3.408   3.798  14.284 -1.3132 -0.4373  0.9842
  658MPD2    N1 9747   3.240   3.988  14.693  0.5280  0.0776  0.1878
  658MPD2    H7 9748   3.258   4.017  14.788  1.8205  0.2868 -0.1158
  659TMC3    C1 9749   3.061   4.127  14.678  0.5106  0.3636 -0.4644
  659TMC3    C2 9750   3.112   4.169  14.796  0.6545  0.2037  0.5461
  659TMC3    C3 9751   3.034   4.148  14.908 -0.6457 -0.2760  0.7958
  659TMC3    C4 9752   2.927   4.079  14.669  0.6581  0.6161  0.1314
  659TMC3    C5 9753   2.865   4.058  14.783 -0.5091  0.5854  0.8745
  659TMC3    C6 9754   2.917   4.087  14.908  0.3200 -0.6354 -0.6250
  659TMC3     C 9755   3.161   4.054  14.606 -0.1833  0.3596  0.0809
  659TMC3     O 9756   3.125   4.013  14.498  0.3886  0.2326  0.2219
  659TMC3     H 9757   3.191   4.244  14.794 -0.1875  1.0883  0.7185
  659TMC3    H1 9758   2.888   4.030  14.581  0.7400 -0.0264  0.4566
  659TMC3    H2 9759   2.878   4.057  15.004 -0.3845  1.5806 -0.2272
  659TMC3    C7 9760   2.780   3.937  14.787 -1.2153  0.0260  0.4743
  659TMC3    C8 9761   3.109   4.166  15.031  0.0440 -0.9193  1.1926
  659TMC3    O1 9762   2.676   3.935  14.844  0.2194 -0.4428  0.2737
  659TMC3    O2 9763   3.125   4.282  15.066  0.2345  0.2683 -0.2009
  660MPD2     C 9764   1.595   2.612  12.397 -1.2706  0.0693  0.4844
  660MPD2    C1 9765   1.461   2.643  12.399 -0.3335  0.6325  0.0822
  660MPD2    C2 9766   1.396   2.649  12.519  0.2640 -0.8183 -0.2685
  660MPD2    C3 9767   1.462   2.615  12.635  0.3458  0.3119  0.5673
  660MPD2    C4 9768   1.596   2.576  12.622  0.6258 -0.2127 -0.8262
  660MPD2    C5 9769   1.665   2.579  12.509 -0.1392 -0.1673 -0.5472
  660MPD2     H 9770   1.298   2.693  12.527  0.8650  0.5158 -0.1396
  660MPD2    H1 9771   1.648   2.558  12.715 -1.5423 -0.1016  0.4090
  660MPD2    H2 9772   1.647   2.630  12.304 -1.6817  1.1817  0.4700
  660MPD2    H3 9773   1.771   2.555  12.516 -0.0409  0.1215 -1.0650
  660MPD2     N 9774   1.406   2.616  12.762 -0.1922 -0.5380 -0.2598
  660MPD2    H5 9775   1.470   2.582  12.833 -1.0128  1.5303  1.4815
  660MPD2    N1 9776   1.401   2.677  12.279  0.2410  0.2579 -0.5695
  660MPD2    H7 9777   1.447   2.680  12.189  0.1466 -1.7593 -0.6665
  661TMC3    C1 9778   1.238   2.767  12.134 -0.3638  0.0778 -0.1366
  661TMC3    C2 9779   1.339   2.797  12.047  0.4732 -0.6183  0.3727
  661TMC3    C3 9780   1.302   2.837  11.922 -0.8084 -0.2220  0.5372
  661TMC3    C4 9781   1.105   2.766  12.102  0.4140 -0.7037 -0.0678
  661TMC3    C5 9782   1.077   2.808  11.975  0.0987  0.2674  0.2152
  661TMC3    C6 9783   1.170   2.844  11.884  0.4538  0.0859  0.2733
  661TMC3     C 9784   1.272   2.727  12.273  0.0810  0.1969 -0.5388
  661TMC3     O 9785   1.174   2.723  12.343  0.1012 -0.4755  0.0891
  661TMC3     H 9786   1.443   2.786  12.074  0.5104 -0.5363  0.2614
  661TMC3    H1 9787   1.026   2.743  12.173 -0.7360 -1.3473 -1.5659
  661TMC3    H2 9788   1.140   2.867  11.782  0.1816 -1.5267 -0.0139
  661TMC3    C7 9789   0.934   2.834  11.955 -0.0718  0.0813 -0.0398
  661TMC3    C8 9790   1.410   2.856  11.819 -0.4402 -0.4313  0.5149
  661TMC3    O1 9791   0.874   2.845  12.061  1.1638 -0.5764  0.0335
  661TMC3    O2 9792   1.515   2.800  11.856 -0.6406 -0.0960  0.1249
  662MPD2     C 9793   1.112   2.505  16.777 -0.2188 -0.5729 -0.2338
  662MPD2    C1 9794   1.241   2.520  16.823  0.6759 -0.2358  0.2514
  662MPD2    C2 9795   1.293   2.644  16.814  0.0029 -0.2325  0.0597
  662MPD2    C3 9796   1.216   2.754  16.775 -0.3595 -0.0922  0.1756
  662MPD2    C4 9797   1.087   2.728  16.732  1.0922  0.6729  0.0449
  662MPD2    C5 9798   1.034   2.602  16.728  0.1794 -0.4852 -0.5550
  662MPD2     H 9799   1.395   2.665  16.847 -0.6388  0.2925  1.7101
  662MPD2    H1 9800   1.026   2.813  16.703 -2.4264 -1.2379  1.8270
  662MPD2    H2 9801   1.066   2.407  16.775  1.1564 -1.2663  2.7191
  662MPD2    H3 9802   0.933   2.589  16.692 -1.0876  1.3417  2.3464
  662MPD2     N 9803   1.262   2.885  16.770  0.3378  0.4598  0.9721
  662MPD2    H5 9804   1.203   2.949  16.717  0.7538  2.2503  2.6594
  662MPD2    N1 9805   1.326   2.410  16.866  0.6207 -0.9013  0.0554
  662MPD2    H7 9806   1.414   2.435  16.910  0.8706  1.3688 -1.7486
  663TMC3    C1 9807   1.367   2.182  16.942 -0.4501 -0.1454  0.3714
  663TMC3    C2 9808   1.431   2.254  17.039  0.3949  0.1254  0.5588
  663TMC3    C3 9809   1.450   2.187  17.155 -0.3187 -0.2304 -0.2550
  663TMC3    C4 9810   1.301   2.063  16.965  0.5082  0.8346  0.2159
  663TMC3    C5 9811   1.293   2.022  17.092  0.0148 -0.1031  0.1040
  663TMC3    C6 9812   1.357   2.091  17.186 -0.2423  0.4846  0.0415
  663TMC3     C 9813   1.294   2.274  16.849 -0.2436  0.3727  0.0082
  663TMC3     O 9814   1.204   2.219  16.789  0.2349  0.6281 -0.0107
  663TMC3     H 9815   1.510   2.323  17.012  0.3302  0.4905  1.3091
  663TMC3    H1 9816   1.243   2.023  16.882  0.8141  0.2608  0.2731
  663TMC3    H2 9817   1.370   2.041  17.281  1.0849 -0.2155 -0.5123
  663TMC3    C7 9818   1.196   1.925  17.137  0.1059  0.4926 -0.4613
  663TMC3    C8 9819   1.504   2.276  17.261  0.5593  1.0118  0.1784
  663TMC3    O1 9820   1.156   1.927  17.254 -1.1148 -0.2904 -0.3428
  663TMC3    O2 9821   1.578   2.367  17.232  0.4260 -0.0820  0.2898
  664MPD2     C 9822   4.172   1.029  17.070 -0.9423 -0.8970 -0.0663
  664MPD2    C1 9823   4.264   1.106  17.137 -0.2319 -0.1061 -0.3525
  664MPD2    C2 9824   4.251   1.113  17.276 -0.0377  0.4106 -0.4568
  664MPD2    C3 9825   4.142   1.058  17.340  0.0357  0.0085 -0.2619
  664MPD2    C4 9826   4.048   0.983  17.268 -0.2627  0.0569  0.3702
  664MPD2    C5 9827   4.070   0.974  17.133 -0.6054  0.4327  0.3964
  664MPD2     H 9828   4.329   1.155  17.338  1.5049 -2.9369 -0.1206
  664MPD2    H1 9829   3.957   0.934  17.301 -1.1817 -0.0553 -2.3999
  664MPD2    H2 9830   4.185   0.999  16.967 -0.0152  1.0986 -0.5423
  664MPD2    H3 9831   3.996   0.919  17.076  2.5913 -1.3240 -2.0688
  664MPD2     N 9832   4.145   1.061  17.484  0.0321  0.1553  0.3741
  664MPD2    H5 9833   4.216   1.108  17.539 -0.4998  1.3691  0.0392
  664MPD2    N1 9834   4.385   1.147  17.079  0.0574 -0.0232  0.6566
  664MPD2    H7 9835   4.438   1.212  17.136  0.3523  0.9062 -0.6866
  665TMC3    C1 9836   4.057   1.036   0.010  0.0349  0.2079 -0.0385
  665TMC3    C2 9837   3.989   0.960   0.101 -1.1586 -0.0046 -0.3658
  665TMC3    C3 9838   3.987   0.993   0.234 -0.0185  0.3759  0.5614
  665TMC3    C4 9839   4.112   1.153   0.048 -1.3277 -0.1854 -0.5364
  665TMC3    C5 9840   4.113   1.190   0.180  0.0315 -0.1264 -0.5257
  665TMC3    C6 9841   4.053   1.102   0.273 -0.3522  0.3531  0.2675
  665TMC3     C 9842   4.044   1.008  17.566  0.4106 -0.1880 -0.1388
  665TMC3     O 9843   3.961   0.919  17.543 -0.4546 -0.0706 -0.9301
  665TMC3     H 9844   3.935   0.877   0.058 -2.5855  1.6366 -1.7643
  665TMC3    H1 9845   4.121   1.233  17.670  2.3136 -0.8199 -0.7677
  665TMC3    H2 9846   4.062   1.122   0.380 -1.2430 -0.8031  0.5616
  665TMC3    C7 9847   4.082   1.329   0.201 -0.1899 -0.4112 -0.6327
  665TMC3    C8 9848   3.871   0.961   0.316  0.2829  0.3576  0.5743
  665TMC3    O1 9849   4.039   1.395   0.105 -0.3419 -0.7383  0.1153
  665TMC3    O2 9850   3.888   0.942   0.435  0.0580 -0.3362 -0.0840
  666TMC3    C1 9851   4.303   0.043   9.657  0.3035  0.3856  0.6439
  666TMC3    C2 9852   4.407   0.054   9.567  0.3422  0.2368  0.1393
  666TMC3    C3 9853   4.425   0.185   9.523 -0.7159 -0.4660  0.4129
  666TMC3    C4 9854   4.218   0.144   9.686  0.1496 -0.2988 -0.2146
  666TMC3    C5 9855   4.236   0.267   9.629 -0.8500 -0.8714 -0.6041
  666TMC3    C6 9856   4.338   0.286   9.539  0.0278 -0.1832  0.2519
  666TMC3     C 9857   4.318   4.651   9.745  0.1672 -0.2557  0.3676
  666TMC3     O 9858   4.431   4.609   9.760 -0.4513  0.0868  0.4396
  666TMC3     H 9859   4.482   4.700   9.567 -0.5490 -0.6233 -2.1401
  666TMC3    H1 9860   4.156   0.134   9.775 -1.0226  0.6511 -0.9290
  666TMC3    H2 9861   4.343   0.376   9.479 -0.8500  0.0817  0.5779
  666TMC3    C7 9862   4.136   0.370   9.660  0.2399  0.6016  0.3259
  666TMC3    C8 9863   4.556   0.228   9.474 -0.5101 -0.3620  0.4632
  666TMC3    O1 9864   4.079   0.364   9.770  0.2611  0.4003 -0.1329
  666TMC3    O2 9865   4.583   0.344   9.484 -0.4171 -0.0909  0.0042
  667MPD2     C 9866   0.072   0.780  14.706 -0.4545  0.6993 -0.1089
  667MPD2    C1 9867   0.022   0.730  14.823  0.3132 -0.6146  0.5215
  667MPD2    C2 9868   4.629   0.656  14.819 -0.6730  0.5214 -0.5335
  667MPD2    C3 9869   4.574   0.628  14.699  0.9592 -0.4422  0.5662
  667MPD2    C4 9870   4.631   0.665  14.582  0.6071  0.4504  0.1806
  667MPD2    C5 9871   0.015   0.752  14.589  0.5831 -0.5668 -0.1241
  667MPD2     H 9872   4.581   0.631  14.913 -1.0931  0.9262 -0.6369
  667MPD2    H1 9873   4.582   0.644  14.487  1.0363  1.7815 -0.3336
  667MPD2    H2 9874   0.156   0.848  14.694 -0.7756  0.7406 -2.0739
  667MPD2    H3 9875   0.053   0.787  14.493 -2.0054  0.2828 -0.8389
  667MPD2     N 9876   4.449   0.559  14.693 -0.4012 -0.2849  0.1504
  667MPD2    H5 9877   4.410   0.541  14.602  0.5828 -0.1136 -0.3010
  667MPD2    N1 9878   0.083   0.755  14.943  0.3045  0.2819 -0.4736
  667MPD2    H7 9879   0.035   0.724  15.027 -1.3533  0.2570 -1.4432
  668TMC3    C1 9880   0.259   0.840  15.097  0.5026  0.8885  0.6184
  668TMC3    C2 9881   0.373   0.912  15.113 -0.2279  0.5718 -0.3195
  668TMC3    C3 9882   0.401   0.975  15.229  0.2330 -0.2788 -0.2967
  668TMC3    C4 9883   0.170   0.837  15.206  0.3816 -0.0708  0.6058
  668TMC3    C5 9884   0.216   0.887  15.327  0.1600 -0.2228 -0.1688
  668TMC3    C6 9885   0.330   0.959  15.339  0.6201 -0.1212 -0.2357
  668TMC3     C 9886   0.218   0.802  14.958 -0.3180 -0.4268  0.0471
  668TMC3     O 9887   0.303   0.796  14.873  0.1080  0.0447  0.1725
  668TMC3     H 9888   0.439   0.942  15.033  1.6041 -1.8036  0.2804
  668TMC3    H1 9889   0.082   0.774  15.201  0.8627 -0.5599 -1.4760
  668TMC3    H2 9890   0.350   1.012  15.431  1.2447 -0.7510 -0.0215
  668TMC3    C7 9891   0.148   0.851  15.450  0.3060  0.4783  0.7903
  668TMC3    C8 9892   0.497   1.087  15.231 -0.4905 -0.3385  0.3339
  668TMC3    O1 9893   0.212   0.848  15.554  0.8485 -0.5714 -0.0942
  668TMC3    O2 9894   0.524   1.120  15.346 -0.1218  0.0138  0.0204
  669TMC3    C1 9895   2.804   0.621  14.270  0.1025 -0.2303  0.3849
  669TMC3    C2 9896   2.681   0.634  14.224 -0.2591  0.1632  0.1209
  669TMC3    C3 9897   2.621   0.759  14.199 -0.1832 -0.4254  0.3673
  669TMC3    C4 9898   2.885   0.736  14.271 -0.4003  0.2051 -0.1577
  669TMC3    C5 9899   2.831   0.848  14.234 -0.5016 -0.3677 -0.1698
  669TMC3    C6 9900   2.703   0.869  14.195  0.2982  0.2290 -0.1737
  669TMC3     C 9901   2.860   0.487  14.258 -0.4186  0.3848 -0.5744
  669TMC3     O 9902   2.795   0.388  14.253 -0.0202  0.2279 -0.2560
  669TMC3     H 9903   2.617   0.548  14.229  1.3842 -1.1246 -1.1243
  669TMC3    H1 9904   2.989   0.732  14.302 -0.8048  0.9102  1.2555
  669TMC3    H2 9905   2.665   0.967  14.168  1.5300  0.2069 -2.0047
  669TMC3    C7 9906   2.933   0.935  14.172  0.1053  0.4664 -0.7584
  669TMC3    C8 9907   2.494   0.749  14.122  0.4914 -0.1994  0.7120
  669TMC3    O1 9908   3.033   0.958  14.235  0.0873 -0.5217  0.2431
  669TMC3    O2 9909   2.451   0.635  14.116  0.4859 -0.1673  0.6877
  670MPD2     C 9910   1.327   3.654  13.310  0.3860  0.0318 -0.0231
  670MPD2    C1 9911   1.433   3.580  13.262  0.7192  0.0325  0.2823
  670MPD2    C2 9912   1.442   3.447  13.308  0.3710  0.8006 -0.4358
  670MPD2    C3 9913   1.381   3.423  13.430  0.6880 -0.5281 -0.1376
  670MPD2    C4 9914   1.296   3.514  13.488 -0.3164 -0.1952 -0.0125
  670MPD2    C5 9915   1.272   3.634  13.429 -0.1994 -0.0842 -0.3239
  670MPD2     H 9916   1.518   3.379  13.270 -0.4349 -0.9178  1.0386
  670MPD2    H1 9917   1.235   3.485  13.573  1.1412  1.6210  1.6719
  670MPD2    H2 9918   1.283   3.742  13.264 -0.4847  0.5761  1.8271
  670MPD2    H3 9919   1.199   3.704  13.469 -1.3606 -1.5488  0.1649
  670MPD2     N 9920   1.399   3.293  13.486 -0.1783 -0.1103  0.9333
  670MPD2    H5 9921   1.451   3.224  13.433  1.0109  1.0342  0.6095
  670MPD2    N1 9922   1.511   3.622  13.152  0.3088 -0.3805  0.1788
  670MPD2    H7 9923   1.569   3.549  13.110  1.8351 -1.1163  3.5916
  671TMC3    C1 9924   1.399   3.106  13.634  0.7162 -0.1168  1.3695
  671TMC3    C2 9925   1.532   3.063  13.639 -0.0394  0.1255  0.0195
  671TMC3    C3 9926   1.554   2.930  13.671 -0.1571 -0.2683 -0.1066
  671TMC3    C4 9927   1.295   3.027  13.686  0.0519  0.0772  0.4229
  671TMC3    C5 9928   1.324   2.898  13.727 -0.3133 -0.2767 -0.1663
  671TMC3    C6 9929   1.449   2.850  13.711  0.4855 -0.0772  1.2251
  671TMC3     C 9930   1.362   3.250  13.615  0.5061 -0.1759 -0.7542
  671TMC3     O 9931   1.278   3.296  13.692  0.1547 -0.1043  0.2978
  671TMC3     H 9932   1.611   3.124  13.596  0.2678  0.7059  1.3906
  671TMC3    H1 9933   1.193   3.062  13.682  0.0839 -0.2328 -2.4501
  671TMC3    H2 9934   1.468   2.751  13.750  0.8587 -1.5478 -2.6961
  671TMC3    C7 9935   1.224   2.796  13.709 -0.2560 -0.5507  0.5831
  671TMC3    C8 9936   1.683   2.868  13.668  0.5625  0.3483  0.4893
  671TMC3    O1 9937   1.261   2.705  13.641 -0.3427 -0.2464 -0.4693
  671TMC3    O2 9938   1.676   2.746  13.686 -0.3323  0.4199 -0.1756
  672MPD2     C 9939   1.649   3.784   1.107  0.5910  0.8894  1.2079
  672MPD2    C1 9940   1.627   3.681   1.015  0.1209 -0.1662  0.2401
  672MPD2    C2 9941   1.728   3.611   0.958 -0.0526  0.2833  0.4168
  672MPD2    C3 9942   1.857   3.644   0.990 -0.7929 -0.3240  0.3125
  672MPD2    C4 9943   1.879   3.747   1.078  0.5492  0.3547  0.0377
  672MPD2    C5 9944   1.775   3.820   1.135 -0.6684 -0.1626  0.1525
  672MPD2     H 9945   1.695   3.539   0.884  0.6733 -1.0901  1.4383
  672MPD2    H1 9946   1.973   3.783   1.120  0.7032  0.4749 -0.4039
  672MPD2    H2 9947   1.563   3.841   1.139  0.1018  1.2094 -0.6895
  672MPD2    H3 9948   1.801   3.904   1.198 -1.2591  1.4748 -1.7745
  672MPD2     N 9949   1.973   3.582   0.944  0.0126 -0.2252 -0.8081
  672MPD2    H5 9950   2.060   3.620   0.980 -1.0088  1.4906 -0.1102
  672MPD2    N1 9951   1.496   3.651   0.967  0.1512 -0.8672  0.2165
  672MPD2    H7 9952   1.494   3.571   0.905 -3.4330  0.2336 -1.0687
  673TMC3    C1 9953   1.288   3.693   0.883 -0.8044 -0.2556  0.1584
  673TMC3    C2 9954   1.258   3.562   0.894  0.0736 -0.3779  0.4570
  673TMC3    C3 9955   1.160   3.520   0.813 -0.1750  0.3416  0.4567
  673TMC3    C4 9956   1.237   3.782   0.792  0.0319  0.4965 -0.1613
  673TMC3    C5 9957   1.147   3.728   0.701  0.5075  0.2984  0.1733
  673TMC3    C6 9958   1.110   3.598   0.710  0.4292 -0.1577  0.0167
  673TMC3     C 9959   1.394   3.740   0.971  0.2360 -0.1587  0.6379
  673TMC3     O 9960   1.407   3.862   0.983 -0.9382  0.0321  0.0167
  673TMC3     H 9961   1.294   3.502   0.977  3.9999  0.7409 -0.4263
  673TMC3    H1 9962   1.273   3.884   0.802 -2.2845  1.3982 -0.8894
  673TMC3    H2 9963   1.048   3.549   0.636 -1.0504 -0.3156  1.3486
  673TMC3    C7 9964   1.162   3.776   0.567  0.4947 -0.3236 -0.2040
  673TMC3    C8 9965   1.111   3.383   0.831 -0.1015 -0.0563  0.2428
  673TMC3    O1 9966   1.096   3.715   0.480  0.4486 -0.0219  0.4677
  673TMC3    O2 9967   0.991   3.371   0.834  0.3585  0.1185 -0.3814
  674MPD2     C 9968   1.917   3.644   0.240 -0.5140  0.4399  0.1495
  674MPD2    C1 9969   1.893   3.530   0.165  0.1699 -0.5616 -0.5880
  674MPD2    C2 9970   1.760   3.488   0.155  0.1746 -0.2287 -0.1208
  674MPD2    C3 9971   1.661   3.557   0.225  0.7628  0.6574 -0.2733
  674MPD2    C4 9972   1.692   3.660   0.309 -0.1557  0.0930 -0.4702
  674MPD2    C5 9973   1.824   3.703   0.322 -0.4070 -0.0819  0.0751
  674MPD2     H 9974   1.727   3.411   0.086  1.8393 -2.0561  1.1207
  674MPD2    H1 9975   1.612   3.716   0.355 -1.0375 -1.8541  0.3633
  674MPD2    H2 9976   2.019   3.679   0.254 -0.6861  1.3564 -0.9590
  674MPD2    H3 9977   1.845   3.787   0.386  0.2227  0.1694 -0.4628
  674MPD2     N 9978   1.526   3.524   0.196  0.9694 -0.4394 -0.4700
  674MPD2    H5 9979   1.506   3.459   0.121 -2.5888 -0.3707  0.3898
  674MPD2    N1 9980   1.995   3.487   0.085 -0.3466 -0.2763 -0.5136
  674MPD2    H7 9981   2.083   3.538   0.096  0.9848 -2.3139 -1.7377
  675TMC3    C1 9982   2.090   3.365  17.608  0.0378  0.7380  0.1715
  675TMC3    C2 9983   2.074   3.253  17.536 -0.4192  0.6814 -0.3073
  675TMC3    C3 9984   2.075   3.254  17.400 -0.4530  0.3308  0.0032
  675TMC3    C4 9985   2.138   3.472  17.543  0.1707  0.3060 -0.0818
  675TMC3    C5 9986   2.173   3.472  17.411 -0.1146 -0.2184  0.2957
  675TMC3    C6 9987   2.143   3.358  17.335 -0.2016  0.0394  0.5483
  675TMC3     C 9988   1.982   3.379   0.004  0.7721  0.2691  0.0824
  675TMC3     O 9989   1.889   3.305  17.680 -0.1417  0.0820  0.0861
  675TMC3     H 9990   2.029   3.164  17.578  0.8250  0.4292  0.4815
  675TMC3    H1 9991   2.175   3.556  17.600  0.0420  0.7163 -0.6011
  675TMC3    H2 9992   2.141   3.361  17.226 -1.3408 -1.1481  0.5298
  675TMC3    C7 9993   2.268   3.571  17.365  0.1406  0.7323  0.2338
  675TMC3    C8 9994   1.959   3.192  17.339 -0.7348  0.2317  0.5820
  675TMC3    O1 9995   2.287   3.670  17.440  0.1104  0.0245 -0.5102
  675TMC3    O2 9996   1.968   3.170  17.217  0.5190 -0.5071  0.9592
  676MPD2     C 9997   0.144   1.788  10.874  0.4461  0.9359 -0.5587
  676MPD2    C1 9998   0.031   1.725  10.937  0.3593 -0.3145 -1.3255
  676MPD2    C2 9999   4.723   1.599  10.901  0.3504 -0.4523  0.7887
  676MPD2    C310000   0.065   1.529  10.801  0.2395 -0.8635 -0.2817
  676MPD2    C410001   0.166   1.600  10.734 -0.4406 -0.0340 -0.4413
  676MPD2    C510002   0.208   1.718  10.782  0.6249  0.1805 -0.5467
  676MPD2     H10003   4.648   1.551  10.963  1.8420 -0.4374  2.6062
  676MPD2    H110004   0.225   1.552  10.656  0.3195 -1.3148  0.9053
  676MPD2    H210005   0.174   1.889  10.902 -1.4749  1.4103 -0.1674
  676MPD2    H310006   0.289   1.763  10.726  0.9592  0.1210 -0.1082
  676MPD2     N10007   0.035   1.394  10.765  0.5668 -0.2125  0.2664
  676MPD2    H510008   0.096   1.358  10.692 -0.9448  0.3057 -1.2728
  676MPD2    N110009   4.680   1.789  11.035 -0.0789  0.2255 -0.5730
  676MPD2    H710010   4.604   1.733  11.074  1.3202 -0.8247  0.6750
  677TMC3    C110011   4.598   1.940  11.191  0.1452 -0.4351 -0.1596
  677TMC3    C210012   4.538   1.835  11.258  0.1888  0.4107 -0.0103
  677TMC3    C310013   4.422   1.859  11.318 -0.0081 -0.5931 -0.0112
  677TMC3    C410014   4.554   2.065  11.204 -0.1502  0.6385  0.2559
  677TMC3    C510015   4.446   2.089  11.281 -0.2005  0.0389  0.0436
  677TMC3    C610016   4.376   1.984  11.338  0.4512 -0.2256 -0.3243
  677TMC3     C10017   4.699   1.911  11.089  0.3686 -0.0166  0.3287
  677TMC3     O10018   0.048   2.000  11.050  0.2147  0.0402 -0.0680
  677TMC3     H10019   4.590   1.741  11.262 -0.0781  0.2237 -1.0912
  677TMC3    H110020   4.602   2.141  11.144  3.3847 -2.4745 -0.8447
  677TMC3    H210021   4.289   2.005  11.398  0.7191  1.0864 -0.3942
  677TMC3    C710022   4.429   2.224  11.338 -0.0266 -0.5904  1.0057
  677TMC3    C810023   4.375   1.754  11.399  0.2973 -0.1944  1.1369
  677TMC3    O110024   4.310   2.260  11.358 -0.0795 -0.6044  0.8793
  677TMC3    O210025   4.457   1.670  11.424 -0.2667 -0.6242 -0.2043
  678MPD2     C10026   0.189   2.062   1.407 -0.0715  0.1612 -0.5501
  678MPD2    C110027   0.179   2.048   1.269  0.4304  0.0696 -0.1159
  678MPD2    C210028   0.065   2.083   1.207 -0.0964 -0.1156 -0.3529
  678MPD2    C310029   4.679   2.125   1.276 -0.3333 -0.5493 -0.4998
  678MPD2    C410030   4.679   2.122   1.414  0.1072 -1.0124  0.2172
  678MPD2    C510031   0.074   2.093   1.476 -0.2429  0.2333 -0.8570
  678MPD2     H10032   0.058   2.063   1.101  1.6485 -2.0055 -0.1048
  678MPD2    H110033   4.596   2.156   1.474  1.0711 -1.4224  1.7726
  678MPD2    H210034   0.272   2.039   1.473  0.0140  0.2885 -0.6137
  678MPD2    H310035   0.077   2.088   1.584  1.3056 -1.3773 -0.9740
  678MPD2     N10036   4.560   2.154   1.199 -0.1458  0.1199  0.7091
  678MPD2    H510037   4.569   2.133   1.100 -2.1586 -2.2234  1.0204
  678MPD2    N110038   0.288   1.998   1.191 -0.7368  0.4947 -0.7060
  678MPD2    H710039   0.276   1.994   1.090 -1.5119 -0.2576 -0.5798
  679TMC3    C110040   0.657   1.741   1.064 -0.0926  0.4065  0.3876
  679TMC3    C210041   0.556   1.779   1.153  0.2562  0.9620 -0.7039
  679TMC3    C310042   0.487   1.895   1.135  0.8750  0.8325 -0.3890
  679TMC3    C410043   0.686   1.832   0.963 -0.0105  0.4293  0.0716
  679TMC3    C510044   0.612   1.946   0.944  0.0321 -0.8567  0.2296
  679TMC3    C610045   0.514   1.984   1.034 -0.1980 -0.2648  0.0977
  679TMC3     C10046   0.764   1.647   1.099  0.1159  0.5928  0.0266
  679TMC3     O10047   0.853   1.638   1.017  0.0930 -0.7546  0.3261
  679TMC3     H10048   0.541   1.721   1.244  1.5724 -0.8147 -1.6125
  679TMC3    H110049   0.772   1.815   0.900 -0.3703  0.7802 -0.5205
  679TMC3    H210050   0.460   2.077   1.019 -2.2057 -1.5157 -0.3705
  679TMC3    C710051   0.629   2.025   0.815  0.4019 -0.2105 -0.4998
  679TMC3    C810052   0.398   1.940   1.240  0.2612 -0.1110 -0.2484
  679TMC3    O110053   0.737   2.014   0.755  0.4619 -0.0794  0.1666
  679TMC3    O210054   0.433   1.898   1.351  0.3512 -0.4573  0.3181
  680MPD2     C10055   1.046   0.283  13.503  0.8240 -0.1533 -0.4876
  680MPD2    C110056   1.146   0.230  13.582  0.1601  0.6092 -0.1833
  680MPD2    C210057   1.214   0.317  13.668  0.2789 -0.3399  0.0336
  680MPD2    C310058   1.189   0.455  13.672 -0.2492 -0.2073  0.0886
  680MPD2    C410059   1.078   0.500  13.601  0.6140 -0.0302  0.1409
  680MPD2    C510060   1.005   0.411  13.520  0.7468  0.8113  0.4117
  680MPD2     H10061   1.292   0.275  13.730 -1.0404 -1.1189  1.1683
  680MPD2    H110062   1.052   0.605  13.596  1.4501  0.1008 -1.5350
  680MPD2    H210063   0.993   0.223  13.430 -0.6730  0.2663  0.2512
  680MPD2    H310064   0.916   0.444  13.468  0.9023 -0.7893 -0.9018
  680MPD2     N10065   1.262   0.545  13.750  1.0166 -0.0965  0.3142
  680MPD2    H510066   1.239   0.643  13.753  0.1786 -0.3161  1.3943
  680MPD2    N110067   1.181   0.094  13.576 -0.6704 -0.5042  0.1922
  680MPD2    H710068   1.256   0.061  13.636  0.3408 -0.5432 -1.0964
  681TMC3    C110069   1.161   4.587  13.553  1.1105 -0.1912 -0.3655
  681TMC3    C210070   1.081   4.502  13.626  0.0720  0.1491 -0.1327
  681TMC3    C310071   1.147   4.427  13.724  0.4422 -0.2066 -0.6948
  681TMC3    C410072   1.301   4.589  13.555  0.4564  0.0079 -0.4145
  681TMC3    C510073   1.356   4.512  13.655 -0.0033 -0.6602 -0.3605
  681TMC3    C610074   1.278   4.412  13.715  0.1892  0.9111 -0.1577
  681TMC3     C10075   1.101   4.717  13.526  0.2137 -0.6139  0.2851
  681TMC3     O10076   0.988   4.723  13.483  0.1510 -0.2373  0.0598
  681TMC3     H10077   0.974   4.518  13.624  0.4175  2.7057  1.4078
  681TMC3    H110078   1.360   4.669  13.511  1.3047 -1.3347 -1.7030
  681TMC3    H210079   1.332   4.331  13.762  0.3125  0.6015 -0.8325
  681TMC3    C710080   1.494   4.474  13.656  0.1383 -0.3780 -0.1183
  681TMC3    C810081   1.100   4.477  13.851 -0.1891 -0.1605 -0.3002
  681TMC3    O110082   1.534   4.414  13.758  0.1319 -0.2350  0.0711
  681TMC3    O210083   0.993   4.533  13.861  0.0715 -0.4610  0.4091
  682MPD2     C10084   3.767   1.352  10.109  0.7669  0.6716  0.0745
  682MPD2    C110085   3.659   1.294  10.175 -0.9224 -0.1712 -0.2792
  682MPD2    C210086   3.609   1.338  10.295 -0.1032 -0.5902 -0.1378
  682MPD2    C310087   3.667   1.453  10.347 -0.0439  0.3070  0.0310
  682MPD2    C410088   3.768   1.517  10.282  0.3181  0.3807  0.3839
  682MPD2    C510089   3.817   1.470  10.162  0.5361  0.5461 -0.2144
  682MPD2     H10090   3.523   1.284  10.332 -0.5970  1.6253  1.9885
  682MPD2    H110091   3.818   1.607  10.318  1.8848 -1.8703  3.7771
  682MPD2    H210092   3.816   1.307  10.023 -1.9888  0.9729 -1.6635
  682MPD2    H310093   3.893   1.533  10.118  0.5829  0.1243 -0.7328
  682MPD2     N10094   3.633   1.510  10.473  0.0313  0.6955 -0.5108
  682MPD2    H510095   3.683   1.595  10.495  1.0412 -0.0144 -0.1200
  682MPD2    N110096   3.596   1.177  10.120 -0.6498  0.3439 -0.6808
  682MPD2    H710097   3.539   1.116  10.178  2.1025  1.2195  3.0038
  683TMC3    C110098   3.552   1.755  10.779 -0.3106 -0.8990 -0.1731
  683TMC3    C210099   3.549   1.696  10.902  0.5992 -0.0855  0.3082
  683TMC3    C310100   3.514   1.561  10.914  0.5725  0.0794 -0.4047
  683TMC3    C410101   3.540   1.678  10.663  0.1606  0.1221 -0.7285
  683TMC3    C510102   3.518   1.543  10.676 -0.6405 -0.0775  0.5228
  683TMC3    C610103   3.499   1.481  10.798 -0.6067 -0.4621  0.6066
  683TMC3     C10104   3.566   1.905  10.782  0.4639 -0.2479  0.0383
  683TMC3     O10105   3.532   1.959  10.889 -0.0780 -0.0361  0.6801
  683TMC3     H10106   3.558   1.757  10.991 -0.2159  0.2509  0.1566
  683TMC3    H110107   3.547   1.735  10.571  0.3600  0.6650 -0.3753
  683TMC3    H210108   3.460   1.380  10.801 -3.0961  0.4648 -0.7232
  683TMC3    C710109   3.530   1.463  10.555 -0.4505 -0.4816  0.2420
  683TMC3    C810110   3.427   1.536  11.023  0.2426 -0.1509  0.2282
  683TMC3    O110111   3.472   1.357  10.553 -0.4811 -0.1014  0.4479
  683TMC3    O210112   3.362   1.628  11.068  0.0988  0.5070  0.2887
  684MPD2     C10113   1.074   1.409  16.228 -0.1742  0.0945  0.8645
  684MPD2    C110114   1.203   1.461  16.218 -0.8157 -0.0658 -0.5313
  684MPD2    C210115   1.215   1.596  16.240 -0.4509  0.8795  0.2930
  684MPD2    C310116   1.107   1.682  16.255  0.3160  0.0236  0.8038
  684MPD2    C410117   0.985   1.624  16.257  1.0249 -0.3188 -0.7320
  684MPD2    C510118   0.967   1.489  16.247  0.1357 -0.1367  0.1762
  684MPD2     H10119   1.309   1.641  16.212 -0.6082  0.8476 -0.2847
  684MPD2    H110120   0.893   1.682  16.263  0.8852 -0.3395 -2.5835
  684MPD2    H210121   1.061   1.301  16.222 -0.7139  0.2705 -1.0580
  684MPD2    H310122   0.866   1.451  16.255 -0.0180  0.3065  0.3115
  684MPD2     N10123   1.130   1.818  16.268 -0.4961 -0.2059  0.2709
  684MPD2    H510124   1.229   1.844  16.267 -0.5923  0.2042  1.2105
  684MPD2    N110125   1.309   1.376  16.179  0.0276  0.5685  0.4398
  684MPD2    H710126   1.286   1.281  16.149  3.2095  0.0754 -0.4074
  685TMC3    C110127   1.525   1.332  16.092 -0.5180 -0.1250  0.0895
  685TMC3    C210128   1.475   1.272  15.980  0.4276 -0.1234 -0.2078
  685TMC3    C310129   1.557   1.208  15.894  0.0841 -0.6365 -0.7890
  685TMC3    C410130   1.661   1.332  16.116 -0.3049 -0.7915 -0.3520
  685TMC3    C510131   1.739   1.262  16.025  0.1257  0.2539 -0.3079
  685TMC3    C610132   1.690   1.197  15.917 -0.3855  0.0958  0.5560
  685TMC3     C10133   1.440   1.407  16.193  0.6889 -0.9633  0.6353
  685TMC3     O10134   1.496   1.498  16.252 -0.3527 -0.0703 -0.0243
  685TMC3     H10135   1.366   1.268  15.976  0.3370  1.2766  0.5208
  685TMC3    H110136   1.693   1.392  16.201 -0.7241  0.7241 -1.2572
  685TMC3    H210137   1.758   1.151  15.846  0.6604  0.7936  1.0910
  685TMC3    C710138   1.887   1.237  16.050  0.1884  0.1628  0.1147
  685TMC3    C810139   1.502   1.119  15.796  0.6180  0.0965 -0.6516
  685TMC3    O110140   1.943   1.154  15.988 -0.2097  0.2323 -0.1514
  685TMC3    O210141   1.574   1.021  15.772 -0.9350 -0.1958 -0.3834
  686MPD2     C10142   2.708   0.888  15.075 -0.4957  0.3512 -0.0372
  686MPD2    C110143   2.794   0.835  15.170 -0.4699 -0.0646 -0.4625
  686MPD2    C210144   2.835   0.706  15.140  0.5308 -0.1178  0.5937
  686MPD2    C310145   2.786   0.628  15.037  0.9840  0.0369  0.2641
  686MPD2    C410146   2.712   0.686  14.939  0.3210 -0.3134  0.4896
  686MPD2    C510147   2.669   0.817  14.963  0.4610 -0.0069 -0.7451
  686MPD2     H10148   2.917   0.667  15.198 -0.5624 -1.5033  1.2011
  686MPD2    H110149   2.670   0.631  14.856 -1.0765  3.2004 -1.1259
  686MPD2    H210150   2.666   0.988  15.076 -0.4320  0.3652  1.1391
  686MPD2    H310151   2.606   0.863  14.889  0.0607 -0.4687 -0.6943
  686MPD2     N10152   2.832   0.494  15.017 -0.1740 -0.7207 -0.2979
  686MPD2    H510153   2.827   0.464  14.920 -1.5412 -1.1907 -0.0720
  686MPD2    N110154   2.828   0.912  15.284 -0.5803  0.8954  0.4460
  686MPD2    H710155   2.781   1.001  15.286 -1.1143  0.6589 -1.3592
  687TMC3    C110156   2.850   0.421  15.251 -0.3137  0.7662 -0.4220
  687TMC3    C210157   2.727   0.480  15.292 -0.4470 -0.0884  0.5034
  687TMC3    C310158   2.727   0.526  15.426  0.3874 -0.0935 -0.0458
  687TMC3    C410159   2.955   0.392  15.333 -0.0882  0.0342  0.1735
  687TMC3    C510160   2.947   0.443  15.460 -0.2521 -0.7857  0.8259
  687TMC3    C610161   2.840   0.507  15.504  0.0978  0.2960 -1.3154
  687TMC3     C10162   2.886   0.405  15.112  0.7989 -0.0039 -0.1382
  687TMC3     O10163   2.947   0.302  15.088 -0.5678 -0.3554 -0.1059
  687TMC3     H10164   2.637   0.488  15.231 -1.7347 -0.1600  2.3711
  687TMC3    H110165   3.042   0.336  15.301 -0.3527 -1.8112  2.6710
  687TMC3    H210166   2.836   0.527  15.610  0.4134 -0.6618 -1.1263
  687TMC3    C710167   3.067   0.439  15.543  0.2722  0.5948 -0.2843
  687TMC3    C810168   2.629   0.629  15.459  0.6733  0.1471 -0.2657
  687TMC3    O110169   3.137   0.340  15.531 -0.0624  0.6313  0.3249
  687TMC3    O210170   2.619   0.658  15.576  0.4194 -0.0479 -0.8917
  688MPD2     C10171   2.439   4.555  17.220 -0.0733 -0.2092 -0.1078
  688MPD2    C110172   2.470   4.422  17.242  0.3303  0.3989 -0.5542
  688MPD2    C210173   2.527   4.352  17.136  0.3400 -0.3606  0.5493
  688MPD2    C310174   2.554   4.413  17.014 -0.1036  0.2347  0.7289
  688MPD2    C410175   2.535   4.546  17.002 -0.4941 -0.2117 -0.4936
  688MPD2    C510176   2.476   4.615  17.098  0.6729  0.0466 -0.9587
  688MPD2     H10177   2.553   4.247  17.144  1.3103 -0.1306  0.4901
  688MPD2    H110178   2.563   4.597  16.911 -1.8111  0.1660 -0.6966
  688MPD2    H210179   2.390   4.619  17.292  1.9193 -1.9488  2.7611
  688MPD2    H310180   2.473   4.722  17.084 -0.3391 -0.2436 -2.8870
  688MPD2     N10181   2.634   4.346  16.914  0.1385  0.5153 -0.1607
  688MPD2    H510182   2.668   4.411  16.844  1.2776  0.3765  0.2745
  688MPD2    N110183   2.439   4.355  17.364  0.2609  0.0210  0.4078
  688MPD2    H710184   2.418   4.256  17.368  1.7384 -0.2782  0.9464
  689TMC3    C110185   2.360   4.335  17.584 -1.0195 -0.3952 -1.1437
  689TMC3    C210186   2.406   4.364   0.016 -0.1039  0.5942  0.2740
  689TMC3    C310187   2.339   4.301   0.118 -0.9532  0.1299 -0.1250
  689TMC3    C410188   2.248   4.263  17.549  0.4187  0.3326  0.0180
  689TMC3    C510189   2.188   4.200  17.653  0.2453 -1.1819 -0.1787
  689TMC3    C610190   2.232   4.217   0.090 -0.2052 -0.1956  0.3430
  689TMC3     C10191   2.411   4.423  17.478  0.6361  0.2612 -0.0783
  689TMC3     O10192   2.469   4.527  17.516 -0.5639  0.3371  0.2949
  689TMC3     H10193   2.499   4.419   0.024 -0.8985  1.8621  0.6461
  689TMC3    H110194   2.213   4.245  17.448  2.9404 -0.8809 -0.6627
  689TMC3    H210195   2.169   4.182   0.171 -0.8558  0.4344  0.1119
  689TMC3    C710196   2.081   4.097  17.639  0.4272  0.1073 -0.2098
  689TMC3    C810197   2.365   4.335   0.259 -0.4142 -0.2417  0.3190
  689TMC3    O110198   2.054   4.037   0.042 -0.2206 -0.0487  0.0101
  689TMC3    O210199   2.305   4.258   0.334  0.2050  0.5258 -0.5897
  690MPD2     C10200   3.830   1.681  15.156  0.2700 -0.2985  0.4888
  690MPD2    C110201   3.947   1.620  15.205 -0.5452  0.4459  0.0643
  690MPD2    C210202   4.066   1.631  15.132  0.1368 -0.5180 -0.4348
  690MPD2    C310203   4.072   1.703  15.014  0.0197 -0.1438  0.0551
  690MPD2    C410204   3.955   1.762  14.969 -0.5444 -0.2318 -0.1794
  690MPD2    C510205   3.837   1.754  15.041 -0.0987 -0.3828  0.4175
  690MPD2     H10206   4.159   1.584  15.161  1.4516  1.8570 -0.8036
  690MPD2    H110207   3.953   1.828  14.882 -3.3765  1.5891  1.2709
  690MPD2    H210208   3.736   1.676  15.209 -1.0999  0.3043 -1.9173
  690MPD2    H310209   3.755   1.806  14.992  0.2250 -2.4225 -2.3093
  690MPD2     N10210   4.201   1.714  14.963  0.0267  0.8026 -0.3519
  690MPD2    H510211   4.271   1.672  15.024 -1.6600 -1.1194  0.2626
  690MPD2    N110212   3.940   1.531  15.310 -0.1019 -0.1446  0.2695
  690MPD2    H710213   4.022   1.476  15.337  0.2686  0.4445  0.3363
  691TMC3    C110214   3.864   1.418  15.507  0.4533 -0.0406  0.6631
  691TMC3    C210215   3.770   1.416  15.605 -0.0635 -0.1990 -1.1774
  691TMC3    C310216   3.743   1.290  15.664  0.4573  0.0072 -0.3456
  691TMC3    C410217   3.948   1.310  15.473  0.3864  0.0960 -0.0754
  691TMC3    C510218   3.921   1.191  15.535 -1.1047 -0.0250 -0.7960
  691TMC3    C610219   3.812   1.184  15.620  0.0780  0.2123  0.3889
  691TMC3     C10220   3.836   1.512  15.393  0.6452  0.0321 -0.4368
  691TMC3     O10221   3.734   1.575  15.401 -0.1283  0.0599 -0.7668
  691TMC3     H10222   3.721   1.505  15.644  0.0702 -0.3312 -0.7101
  691TMC3    H110223   4.009   1.308  15.383  2.4433  2.0338  1.2517
  691TMC3    H210224   3.788   1.090  15.667  2.1269  0.4355  1.9071
  691TMC3    C710225   3.986   1.072  15.487 -0.0126  1.3104  0.7533
  691TMC3    C810226   3.620   1.259  15.739 -0.1076 -0.2964 -0.4025
  691TMC3    O110227   4.098   1.079  15.428  0.7113 -0.3160  0.5699
  691TMC3    O210228   3.594   1.146  15.777  0.3638  0.1104  0.5415
  692TMC3    C110229   1.022   2.947  15.564 -0.0056 -0.2533  0.1700
  692TMC3    C210230   1.128   2.995  15.635  0.3582  0.8953 -0.1637
  692TMC3    C310231   1.249   2.927  15.623  0.6140  0.4701  0.2992
  692TMC3    C410232   1.030   2.830  15.486  0.1856 -0.6011  0.0797
  692TMC3    C510233   1.151   2.776  15.481  0.2047  0.0143 -0.0220
  692TMC3    C610234   1.260   2.825  15.533  0.3156  0.2254  0.2833
  692TMC3     C10235   0.888   3.002  15.587  0.3672 -0.1731 -0.3448
  692TMC3     O10236   0.785   2.933  15.569  0.1579  0.0289  0.9011
  692TMC3     H10237   1.121   3.062  15.720  0.8202  1.8377 -0.8568
  692TMC3    H110238   0.943   2.783  15.443  0.2233 -0.3544 -0.2728
  692TMC3    H210239   1.355   2.774  15.537  0.2850  0.3398  2.6811
  692TMC3    C710240   1.149   2.633  15.467 -0.7198 -1.0550  0.5568
  692TMC3    C810241   1.315   2.899  15.754 -0.5508 -0.1703  0.2791
  692TMC3    O110242   1.079   2.587  15.377 -0.4276 -0.2187 -0.3794
  692TMC3    O210243   1.327   2.775  15.768  0.6772  0.1641 -0.2644
  693MPD2     C10244   0.977   0.525  11.095  0.3346 -0.2865  0.3478
  693MPD2    C110245   0.929   0.439  11.192 -0.3758  0.3882 -0.0223
  693MPD2    C210246   1.019   0.396  11.292  0.8015 -0.1398  0.4892
  693MPD2    C310247   1.153   0.428  11.284  0.8298 -0.7156  0.5656
  693MPD2    C410248   1.197   0.498  11.176 -0.1993  0.0320 -0.6156
  693MPD2    C510249   1.110   0.541  11.085  0.2403 -0.4847 -0.0555
  693MPD2     H10250   0.985   0.330  11.372 -2.1397 -0.2513 -0.8496
  693MPD2    H110251   1.300   0.528  11.160  0.9215 -2.5284  1.6602
  693MPD2    H210252   0.917   0.568  11.015 -0.5143  0.6943  1.5042
  693MPD2    H310253   1.149   0.603  11.005  1.8003 -0.1511  0.9501
  693MPD2     N10254   1.258   0.374  11.364 -0.2120  0.1333  0.4469
  693MPD2    H510255   1.347   0.418  11.341  0.3733 -0.8359  0.8778
  693MPD2    N110256   0.791   0.428  11.192 -0.0651 -1.0613  0.2277
  693MPD2    H710257   0.749   0.469  11.109 -1.6140 -1.2923  0.8987
  694TMC3    C110258   0.574   0.346  11.273 -0.2152 -0.0669 -0.1323
  694TMC3    C210259   0.531   0.315  11.147  0.0511  0.7733  0.7550
  694TMC3    C310260   0.425   0.228  11.146 -0.5533  0.1015  0.2379
  694TMC3    C410261   0.516   0.297  11.387 -0.0594  0.3499  0.1053
  694TMC3    C510262   0.402   0.213  11.375 -0.2199 -0.4578 -0.6053
  694TMC3    C610263   0.361   0.169  11.255  0.5738 -0.2874  0.2644
  694TMC3     C10264   0.718   0.364  11.291 -0.3515  0.1276 -0.2316
  694TMC3     O10265   0.766   0.301  11.389 -0.5519  0.2686 -0.4493
  694TMC3     H10266   0.590   0.347  11.062  0.4091 -0.7713  0.4141
  694TMC3    H110267   0.550   0.325  11.486  0.4566 -0.3004  0.1169
  694TMC3    H210268   0.279   0.098  11.255  2.9900 -3.0801  1.4736
  694TMC3    C710269   0.377   0.130  11.491  0.0211  0.2849 -0.4966
  694TMC3    C810270   0.368   0.180  11.021  0.4659 -0.1278  0.1427
  694TMC3    O110271   0.448   0.158  11.580 -0.1189 -0.0128 -0.3200
  694TMC3    O210272   0.260   0.122  11.033 -0.6062  0.1472  0.2153
  695MPD2     C10273   1.739   2.089  13.377  0.3978  0.4962 -0.4423
  695MPD2    C110274   1.739   2.209  13.442 -0.2054 -0.0976  0.0450
  695MPD2    C210275   1.639   2.293  13.409  0.0777 -0.2906 -0.5475
  695MPD2    C310276   1.526   2.252  13.343 -0.1812 -0.0735 -0.7004
  695MPD2    C410277   1.526   2.125  13.281  0.8390 -0.1396 -0.1142
  695MPD2    C510278   1.638   2.050  13.291 -0.1559  0.6307 -0.1998
  695MPD2     H10279   1.649   2.389  13.458 -1.2441  0.0749 -0.9804
  695MPD2    H110280   1.445   2.086  13.221  0.5510 -2.8467  2.0239
  695MPD2    H210281   1.824   2.022  13.382 -0.0019  0.0834  0.8140
  695MPD2    H310282   1.639   1.958  13.234  1.0247  0.0810  0.7078
  695MPD2     N10283   1.422   2.341  13.328  0.2688 -0.2639 -0.5066
  695MPD2    H510284   1.451   2.435  13.354  0.0152 -0.2884 -0.1361
  695MPD2    N110285   1.843   2.244  13.531  0.1302  0.4598 -0.2364
  695MPD2    H710286   1.836   2.342  13.557  1.0358  0.6651 -0.7818
  696TMC3    C110287   1.199   2.413  13.327 -0.1523  0.3268 -0.1842
  696TMC3    C210288   1.080   2.381  13.376 -0.2243  0.7833 -0.2739
  696TMC3    C310289   0.985   2.475  13.399  0.1547 -0.7629  0.5105
  696TMC3    C410290   1.228   2.541  13.292 -0.1585 -0.2223 -0.2259
  696TMC3    C510291   1.130   2.635  13.319  0.2777 -0.3569  0.0179
  696TMC3    C610292   1.005   2.604  13.364 -0.1755  0.6356 -0.3564
  696TMC3     C10293   1.295   2.307  13.320  0.4893 -0.4815 -0.3192
  696TMC3     O10294   1.245   2.193  13.322 -0.0884 -0.3253  0.2980
  696TMC3     H10295   1.066   2.279  13.409  1.7520  0.2903 -0.9580
  696TMC3    H110296   1.326   2.583  13.271  0.1491 -1.4917 -1.3045
  696TMC3    H210297   0.932   2.684  13.375  0.3667  1.0433  0.2980
  696TMC3    C710298   1.159   2.771  13.292 -0.2144  0.1887  0.7640
  696TMC3    C810299   0.858   2.439  13.450 -0.2408  0.0258 -0.3220
  696TMC3    O110300   1.245   2.795  13.209  0.3170  0.5179 -0.1106
  696TMC3    O210301   0.830   2.329  13.414 -0.8756  0.0552  0.3994
  697MPD2     C10302   1.093   4.186  15.848  0.2416 -0.4370 -0.2037
  697MPD2    C110303   0.993   4.157  15.754  0.0586 -0.5107  0.1018
  697MPD2    C210304   0.986   4.239  15.644 -0.6609 -0.2409  0.4162
  697MPD2    C310305   1.054   4.352  15.633 -0.0112  0.8073 -0.8507
  697MPD2    C410306   1.151   4.389  15.733 -0.3535 -0.0227 -0.4850
  697MPD2    C510307   1.160   4.302  15.843 -0.2862  0.4762 -0.0214
  697MPD2     H10308   0.930   4.196  15.562  0.9335  0.3877 -1.0123
  697MPD2    H110309   1.221   4.471  15.723 -0.7816  0.1516 -2.0353
  697MPD2    H210310   1.111   4.119  15.931  0.5327  0.2761  0.3096
  697MPD2    H310311   1.241   4.314  15.913 -1.0414 -0.0725  0.9533
  697MPD2     N10312   1.034   4.423  15.513 -0.2368 -0.5883  0.3361
  697MPD2    H510313   0.968   4.381  15.447  3.6910 -2.6261 -2.2550
  697MPD2    N110314   0.920   4.036  15.748 -0.4873  0.4452 -0.1501
  697MPD2    H710315   0.854   4.013  15.674 -0.7680 -0.5344  0.3938
  698TMC3    C110316   1.054   4.585  15.346 -0.9583 -0.4846  0.0197
  698TMC3    C210317   1.072   4.716  15.320  0.1479 -0.0383 -0.2929
  698TMC3    C310318   1.094   0.032  15.193  0.5931 -0.4887  0.2651
  698TMC3    C410319   1.054   4.486  15.250 -0.2314  0.4687  0.3017
  698TMC3    C510320   1.073   4.531  15.119 -0.1574 -0.1593  0.0402
  698TMC3    C610321   1.104   4.663  15.088  0.6993  0.4492  0.1170
  698TMC3     C10322   1.083   4.548  15.479  0.1311 -0.0918 -0.2375
  698TMC3     O10323   1.150   4.629  15.540 -0.5067  0.2485 -0.8476
  698TMC3     H10324   1.068   0.061  15.404  1.0581 -1.0636  0.5645
  698TMC3    H110325   1.063   4.381  15.274  3.3029 -0.0255 -3.0737
  698TMC3    H210326   1.136   4.700  14.991  1.1046 -0.0834  0.0442
  698TMC3    C710327   1.047   4.451  15.005  0.2208 -0.1263  0.3498
  698TMC3    C810328   1.153   0.165  15.168 -0.1711  0.1283 -0.3427
  698TMC3    O110329   1.026   4.508  14.898  0.0944 -0.3245 -0.0193
  698TMC3    O210330   1.229   0.177  15.070 -0.1011  0.4405 -0.4013
  699TMC3    C110331   1.231   2.592  12.921  0.1365 -0.8186  0.1426
  699TMC3    C210332   1.268   2.461  12.941  0.7992  0.2406  0.3353
  699TMC3    C310333   1.166   2.380  12.991  0.2551  0.2465  0.2188
  699TMC3    C410334   1.103   2.645  12.952  0.3595 -0.1307 -0.1325
  699TMC3    C510335   1.009   2.554  12.995 -0.0965 -0.5949 -0.0229
  699TMC3    C610336   1.041   2.420  13.019  0.3004 -0.2691 -0.3083
  699TMC3     C10337   1.281   2.656  12.806 -0.1347  0.3100 -0.2426
  699TMC3     O10338   1.194   2.704  12.732 -0.5484 -0.7176 -0.1393
  699TMC3     H10339   1.366   2.421  12.918  0.1033 -0.5246 -1.2806
  699TMC3    H110340   1.076   2.746  12.924  0.9170  0.5817  1.9305
  699TMC3    H210341   0.963   2.361  13.068  1.3409  0.9603  2.8149
  699TMC3    C710342   0.896   2.603  13.066 -0.0772 -0.0045 -0.7984
  699TMC3    C810343   1.179   2.235  12.981  0.0291  0.5651 -0.0722
  699TMC3    O110344   0.807   2.526  13.092  0.2839 -0.1174  0.2031
  699TMC3    O210345   1.072   2.176  12.982  0.1756  0.2100 -0.0184
  700TMC3    C110346   4.393   0.099  16.859 -0.3530 -0.4634 -0.2973
  700TMC3    C210347   4.490   0.035  16.791 -0.3341 -0.6748  0.4856
  700TMC3    C310348   4.542   4.648  16.854 -0.2333  0.0513 -0.3709
  700TMC3    C410349   4.332   0.046  16.970 -0.7146 -0.2547  0.1789
  700TMC3    C510350   4.391   4.657  17.032 -1.0184 -0.0652  0.0358
  700TMC3    C610351   4.493   4.588  16.973 -0.2598  0.0917  0.8452
  700TMC3     C10352   4.368   0.241  16.828 -0.2370  0.4176 -0.5810
  700TMC3     O10353   4.268   0.290  16.882  0.4016 -0.3614  0.4634
  700TMC3     H10354   4.526   0.070  16.695 -0.0120 -1.4298  0.3246
  700TMC3    H110355   4.267   0.109  17.029  1.2676 -0.8215  2.9914
  700TMC3    H210356   4.522   4.494  17.018  0.7785 -0.1011 -0.2509
  700TMC3    C710357   4.335   4.602  17.157  0.1422 -0.8838  0.3231
  700TMC3    C810358   4.665   4.596  16.788  0.5589 -0.0107 -0.3861
  700TMC3    O110359   4.310   4.483  17.153 -0.2538 -0.5076 -0.7474
  700TMC3    O210360   0.003   4.666  16.707 -0.0880  0.3043 -0.9003
  701TMC3    C110361   0.036   3.571  15.521  0.2350 -0.4668  0.2698
  701TMC3    C210362   0.075   3.509  15.406 -0.6027  0.9342  0.0798
  701TMC3    C310363   0.166   3.583  15.337  1.4031  0.5477  0.4409
  701TMC3    C410364   0.070   3.695  15.558 -0.1833 -0.1106 -0.1304
  701TMC3    C510365   0.153   3.767  15.481 -0.4736  0.1597  0.3664
  701TMC3    C610366   0.198   3.708  15.367 -0.3355  0.4652 -0.5012
  701TMC3     C10367   4.647   3.502  15.571  0.7220 -0.7342 -0.4331
  701TMC3     O10368   4.667   3.386  15.593 -0.4142 -0.1164 -0.6692
  701TMC3     H10369   0.039   3.410  15.381 -1.1042  1.5640 -1.6680
  701TMC3    H110370   0.020   3.742  15.642 -2.5327  1.2864 -2.3184
  701TMC3    H210371   0.269   3.758  15.302  0.3863  2.1247  1.5586
  701TMC3    C710372   0.177   3.907  15.517  0.2107 -0.3407  0.0799
  701TMC3    C810373   0.194   3.545  15.202 -0.0181  0.5522  0.5875
  701TMC3    O110374   0.233   3.979  15.437 -0.5409  0.4401 -0.6202
  701TMC3    O210375   0.305   3.564  15.152  0.0045  0.3158  0.1429
  702MPD2     C10376   0.093   1.086  10.142 -0.0869 -0.5801  0.6883
  702MPD2    C110377   0.092   1.175  10.244  0.3577 -0.5287 -0.1636
  702MPD2    C210378   0.130   1.306  10.217 -0.0964 -0.8033  0.1668
  702MPD2    C310379   0.160   1.357  10.092 -0.5097 -0.3096 -0.4131
  702MPD2    C410380   0.156   1.263   9.988  0.1589  0.0666 -0.3818
  702MPD2    C510381   0.124   1.133  10.020 -0.1908 -0.7165  0.7507
  702MPD2     H10382   0.138   1.375  10.300  2.2081  1.0292 -1.5824
  702MPD2    H110383   0.184   1.295   9.889  1.8845  2.4579  0.8595
  702MPD2    H210384   0.061   0.983  10.147  0.7701 -0.8737  0.1298
  702MPD2    H310385   0.125   1.059   9.940 -2.1293  0.3537 -0.2456
  702MPD2     N10386   0.206   1.492  10.086 -0.1108 -0.1787  0.4625
  702MPD2    H510387   0.244   1.517   9.995 -0.2297  0.7213  0.6539
  702MPD2    N110388   0.073   1.146  10.380 -0.2006  0.4679  0.3392
  702MPD2    H710389   0.082   1.216  10.452 -2.5861  0.6168  0.5084
  703TMC3    C110390   0.255   1.716  10.143  0.3275  0.6645  0.0174
  703TMC3    C210391   0.182   1.838  10.155  0.2868  0.0585  0.1118
  703TMC3    C310392   0.246   1.958  10.133 -0.2009 -0.5595 -0.5915
  703TMC3    C410393   0.388   1.720  10.114  0.1463  0.8682 -0.2394
  703TMC3    C510394   0.454   1.843  10.111  0.3625  0.2549  0.2008
  703TMC3    C610395   0.380   1.953  10.114  0.5180  0.6051 -0.2607
  703TMC3     C10396   0.186   1.595  10.178 -0.2397 -0.0323  0.4837
  703TMC3     O10397   0.141   1.599  10.290  0.1365 -0.1633 -0.2784
  703TMC3     H10398   0.074   1.838  10.165  0.4429 -1.7724  1.6866
  703TMC3    H110399   0.433   1.621  10.115  1.4507  1.4497 -0.9614
  703TMC3    H210400   0.433   2.046  10.100  1.4265  0.2995  1.0313
  703TMC3    C710401   0.596   1.854  10.136  0.3120  0.1022 -0.1251
  703TMC3    C810402   0.207   2.078  10.207 -0.7102 -0.6272  0.2437
  703TMC3    O110403   0.658   1.945  10.084 -0.1487 -0.3684 -0.1622
  703TMC3    O210404   0.267   2.181  10.181 -0.0039  0.4903 -0.6600
  704TMC3    C110405   2.600   4.074  12.573  0.1660  0.0975 -0.3092
  704TMC3    C210406   2.715   4.091  12.495 -0.0726  0.0435 -0.6272
  704TMC3    C310407   2.841   4.074  12.550  0.4056  0.7764 -0.9750
  704TMC3    C410408   2.610   4.037  12.706  0.1156 -0.5020  0.0264
  704TMC3    C510409   2.737   4.005  12.745  0.4414 -0.5308 -0.9751
  704TMC3    C610410   2.852   4.029  12.677  0.1395 -0.3117 -0.4800
  704TMC3     C10411   2.474   4.031  12.518 -0.1300 -0.5228  0.7155
  704TMC3     O10412   2.379   4.011  12.594 -0.1505 -0.3260 -0.1021
  704TMC3     H10413   2.716   4.104  12.388  0.1755  1.3234 -0.4811
  704TMC3    H110414   2.521   4.035  12.767  0.4179 -2.1611  0.4260
  704TMC3    H210415   2.936   3.965  12.698 -1.3803 -2.2097 -0.1730
  704TMC3    C710416   2.764   3.929  12.868  0.0332  0.3652  0.0134
  704TMC3    C810417   2.930   4.014  12.447 -0.8825 -0.5067  0.0993
  704TMC3    O110418   2.869   3.952  12.925 -0.3055  0.3086 -0.4687
  704TMC3    O210419   2.880   3.939  12.363 -0.1942  0.1849 -0.5519
  705MPD2     C10420   1.644   2.581  16.278 -0.0497  0.4296 -0.0822
  705MPD2    C110421   1.533   2.541  16.212  0.4108 -0.2337  0.6591
  705MPD2    C210422   1.407   2.572  16.256 -0.1150  0.5671  0.0411
  705MPD2    C310423   1.389   2.681  16.340  0.3828 -0.2188 -0.7208
  705MPD2    C410424   1.500   2.731  16.403 -0.4792 -0.3189 -0.0309
  705MPD2    C510425   1.626   2.676  16.381 -0.3271 -0.3009  0.0063
  705MPD2     H10426   1.325   2.538  16.193  0.8786 -1.2955 -0.2476
  705MPD2    H110427   1.497   2.812  16.474 -0.9291  0.0210 -0.4331
  705MPD2    H210428   1.746   2.550  16.262 -0.3141 -1.1409  1.2061
  705MPD2    H310429   1.710   2.724  16.430  0.9853 -2.8868  0.2999
  705MPD2     N10430   1.256   2.725  16.354 -0.2106 -0.4846 -0.1152
  705MPD2    H510431   1.182   2.659  16.330 -0.2170 -1.4903  2.6723
  705MPD2    N110432   1.538   2.453  16.098 -0.0086  0.8200  0.6774
  705MPD2    H710433   1.452   2.431  16.048 -0.2610  0.9207  1.0669
  706TMC3    C110434   1.742   2.280  15.722 -0.2065 -0.6958  0.5695
  706TMC3    C210435   1.676   2.365  15.641 -0.2366  0.9202  0.6232
  706TMC3    C310436   1.591   2.450  15.692  0.3248  0.5019 -0.1143
  706TMC3    C410437   1.729   2.281  15.861  0.0566  0.5682  0.0735
  706TMC3    C510438   1.628   2.367  15.908  0.8115  0.3207  0.3845
  706TMC3    C610439   1.558   2.446  15.826 -0.0527  0.1605  0.4276
  706TMC3     C10440   1.845   2.199  15.659 -0.5502 -0.6133  0.3745
  706TMC3     O10441   1.935   2.155  15.729  0.2067  0.2668  0.5480
  706TMC3     H10442   1.707   2.389  15.540 -0.7640  1.8168  0.6711
  706TMC3    H110443   1.795   2.220  15.921  0.4201 -0.2740 -1.1927
  706TMC3    H210444   1.495   2.525  15.866  0.4133  0.5299  0.4388
  706TMC3    C710445   1.654   2.404  16.044  0.4878 -0.5038 -0.9276
  706TMC3    C810446   1.607   2.584  15.650  0.9970  0.6448  0.2856
  706TMC3    O110447   1.760   2.393  16.100 -0.0769 -0.3439 -0.0583
  706TMC3    O210448   1.596   2.603  15.529  0.0193 -0.3779  0.5235
  707TMC3    C110449   2.967   2.064   0.956 -0.2742 -0.3898  0.7664
  707TMC3    C210450   2.938   1.942   0.907  0.8705 -0.6824  0.3716
  707TMC3    C310451   2.813   1.913   0.882 -0.4375 -0.0280  0.1188
  707TMC3    C410452   2.867   2.144   1.001  0.0134  0.0336 -0.5680
  707TMC3    C510453   2.738   2.118   0.961  0.3225  0.4432  0.0541
  707TMC3    C610454   2.714   1.998   0.900 -0.8150  0.3342  0.6431
  707TMC3     C10455   3.091   2.070   1.034  0.1629 -0.2060 -0.3460
  707TMC3     O10456   3.191   2.043   0.968  0.2102  0.4223  0.2129
  707TMC3     H10457   3.027   1.888   0.877  0.0885 -0.6978 -1.9299
  707TMC3    H110458   2.897   2.230   1.059  1.7079 -1.7877  1.2476
  707TMC3    H210459   2.615   1.972   0.865 -0.2446 -0.0826 -0.6263
  707TMC3    C710460   2.659   2.240   0.935  0.2936  0.1745 -0.0684
  707TMC3    C810461   2.772   1.778   0.874 -0.2897 -0.2377 -0.0708
  707TMC3    O110462   2.731   2.340   0.922 -0.1685 -0.0841 -0.3044
  707TMC3    O210463   2.664   1.741   0.834 -0.1056 -0.7521  0.5024
  708MPD2     C10464   0.672   0.536  13.652  0.2142  0.2729  0.8647
  708MPD2    C110465   0.541   0.581  13.642  0.1362  0.1442 -0.3926
  708MPD2    C210466   0.442   0.502  13.705 -0.1113 -0.8196  0.9996
  708MPD2    C310467   0.467   0.385  13.779 -0.1658  0.6374 -0.1289
  708MPD2    C410468   0.600   0.345  13.788  0.3554  0.3604  0.4842
  708MPD2    C510469   0.701   0.427  13.735 -0.3661 -0.3101  0.2139
  708MPD2     H10470   0.340   0.540  13.700 -0.0793 -0.9810 -0.7823
  708MPD2    H110471   0.619   0.252  13.839  0.2192 -1.0744 -2.1224
  708MPD2    H210472   0.758   0.594  13.623 -0.4418  1.6354  1.6452
  708MPD2    H310473   0.803   0.391  13.745 -0.0741  0.4827  0.1131
  708MPD2     N10474   0.369   0.302  13.827 -0.3632  0.1254  0.7763
  708MPD2    H510475   0.399   0.229  13.891 -0.5340 -0.0250  0.6881
  708MPD2    N110476   0.500   0.702  13.602 -0.1936 -0.2769  0.2668
  708MPD2    H710477   0.404   0.727  13.623 -0.6898 -0.5034 -1.7634
  709TMC3    C110478   0.508   0.929  13.533 -0.4911  0.2674  0.3679
  709TMC3    C210479   0.510   0.979  13.402 -0.2732 -0.4502  0.6848
  709TMC3    C310480   0.389   1.031  13.355 -0.2537 -0.3493  0.0233
  709TMC3    C410481   0.393   0.930  13.614  0.1512  0.1988 -0.3856
  709TMC3    C510482   0.276   0.962  13.553  0.7428  0.8190 -0.2721
  709TMC3    C610483   0.273   1.010  13.419  0.1562 -0.7561  0.3083
  709TMC3     C10484   0.583   0.805  13.552 -0.5809 -0.3395 -1.0624
  709TMC3     O10485   0.701   0.806  13.519 -0.0428 -0.1504  0.1530
  709TMC3     H10486   0.594   0.972  13.334 -2.3050 -2.2930 -1.6499
  709TMC3    H110487   0.403   0.913  13.721 -1.1763 -0.0204 -0.2992
  709TMC3    H210488   0.181   1.027  13.363  0.9670  0.8043 -0.5459
  709TMC3    C710489   0.180   0.867  13.598  0.2466 -0.3844 -0.1396
  709TMC3    C810490   0.392   1.127  13.247 -0.0427 -0.3717 -0.0348
  709TMC3    O110491   0.234   0.780  13.662 -0.5711 -0.0392 -0.3671
  709TMC3    O210492   0.484   1.204  13.242 -0.3141  0.0712 -0.4474
  710TMC3    C110493   1.002   2.635   0.284  0.4835  0.2268 -0.0274
  710TMC3    C210494   1.093   2.571   0.203 -0.3730  0.6055 -0.0718
  710TMC3    C310495   1.094   2.432   0.192 -0.2319  0.0106 -0.0067
  710TMC3    C410496   0.926   2.555   0.369  0.6924 -0.0649 -0.2343
  710TMC3    C510497   0.931   2.419   0.357 -0.1444 -0.0558  0.0085
  710TMC3    C610498   1.015   2.355   0.268  0.0107 -0.3551  0.7540
  710TMC3     C10499   1.005   2.778   0.301  0.1959  0.0040 -0.2612
  710TMC3     O10500   1.072   2.843   0.223 -0.3686  0.2338 -0.1348
  710TMC3     H10501   1.143   2.628   0.127 -0.4034  0.7954  0.0512
  710TMC3    H110502   0.863   2.587   0.452  1.1025 -0.8031  0.3661
  710TMC3    H210503   1.018   2.250   0.240  0.2506 -0.0958 -0.1720
  710TMC3    C710504   0.839   2.339   0.426 -0.1993  0.5956  0.6435
  710TMC3    C810505   1.193   2.368   0.110 -0.1368 -0.4018 -0.4045
  710TMC3    O110506   0.881   2.230   0.456  0.9085 -0.1321 -0.0939
  710TMC3    O210507   1.167   2.267   0.051  0.0568 -0.0215  1.0228
  711TMC3    C110508   0.459   3.177  14.634  0.1283 -0.4686  0.7192
  711TMC3    C210509   0.459   3.253  14.750  0.6411 -0.1064  0.2051
  711TMC3    C310510   0.577   3.326  14.763  0.2540 -0.2071  0.2912
  711TMC3    C410511   0.566   3.173  14.550 -0.3971  0.0720 -0.4499
  711TMC3    C510512   0.682   3.234  14.587 -0.2364 -0.6761 -1.0396
  711TMC3    C610513   0.686   3.322  14.689  0.6138  0.1078 -0.1968
  711TMC3     C10514   0.356   3.074  14.622 -0.4096 -0.7263  0.0003
  711TMC3     O10515   0.346   3.017  14.511 -0.6994 -0.5587  0.1782
  711TMC3     H10516   0.373   3.282  14.811  1.4055 -2.3250  2.3299
  711TMC3    H110517   0.565   3.113  14.460 -1.1774 -0.5688 -0.0155
  711TMC3    H210518   0.770   3.388  14.706 -0.4187  1.1817  0.7583
  711TMC3    C710519   0.802   3.151  14.591  0.5101  0.1356 -0.3983
  711TMC3    C810520   0.593   3.384  14.889  0.6908 -0.3675  0.1216
  711TMC3    O110521   0.877   3.187  14.682 -0.0859  0.6968  0.1958
  711TMC3    O210522   0.497   3.437  14.951  0.1540  1.1350  0.5400
  712MPD2     C10523   2.386   4.415  14.057 -0.0819  0.1622  0.3570
  712MPD2    C110524   2.416   4.364  13.928  0.2606  0.2870 -0.2866
  712MPD2    C210525   2.402   4.433  13.812  0.3372 -0.3119  0.1346
  712MPD2    C310526   2.388   4.570  13.819 -0.2796 -0.5842 -0.4979
  712MPD2    C410527   2.367   4.634  13.939 -0.3758 -0.4008  0.0285
  712MPD2    C510528   2.368   4.553  14.057  0.2401 -0.5468  0.3127
  712MPD2     H10529   2.410   4.378  13.718  1.3259  0.1951 -0.0743
  712MPD2    H110530   2.370   0.018  13.948 -2.4711 -0.2289 -1.1861
  712MPD2    H210531   2.377   4.359  14.149  1.4748 -0.1662  0.3120
  712MPD2    H310532   2.357   4.591  14.158 -2.9963  0.6553 -0.5026
  712MPD2     N10533   2.368   4.648  13.700 -0.3692  0.2545  0.0222
  712MPD2    H510534   2.332   0.019  13.711  1.4462  0.8930  0.3864
  712MPD2    N110535   2.443   4.220  13.912  0.4321 -0.3274 -0.3822
  712MPD2    H710536   2.477   4.182  13.824  0.2624  0.2869 -0.7068
  713TMC3    C110537   2.341   4.670  13.466  0.1473 -0.7771 -0.3991
  713TMC3    C210538   2.423   4.679  13.357  0.4696  0.1437 -0.4339
  713TMC3    C310539   2.386   0.057  13.269  0.2023 -0.0663 -0.8592
  713TMC3    C410540   2.224   0.018  13.483  0.9551  0.3824 -0.3936
  713TMC3    C510541   2.183   0.100  13.384  0.0280 -0.0254  0.1555
  713TMC3    C610542   2.265   0.125  13.276  0.1659 -0.3238  0.1299
  713TMC3     C10543   2.397   4.599  13.576  0.0099 -0.4751 -0.3556
  713TMC3     O10544   2.466   4.505  13.541  0.5782 -0.0440  0.0998
  713TMC3     H10545   2.523   4.637  13.358  0.4254  0.0500  0.0080
  713TMC3    H110546   2.152   4.716  13.559  1.6587  0.4281  0.2886
  713TMC3    H210547   2.242   0.204  13.206  3.7994  0.6952  0.0719
  713TMC3    C710548   2.059   0.173  13.394  0.1079 -0.8632  1.2740
  713TMC3    C810549   2.495   0.128  13.195 -0.3073  0.3133 -0.1623
  713TMC3    O110550   2.000   0.204  13.289  0.0216  0.3562 -0.2639
  713TMC3    O210551   2.479   0.244  13.166  0.3312  0.3100 -0.1337
  714MPD2     C10552   3.663   3.041   0.975 -0.3328  0.5205 -0.0207
  714MPD2    C110553   3.754   3.135   1.026 -0.1147 -0.2537  0.6007
  714MPD2    C210554   3.711   3.262   1.045 -0.6257  0.3569 -0.0306
  714MPD2    C310555   3.581   3.293   1.025  0.3639  0.2821 -0.6781
  714MPD2    C410556   3.490   3.200   0.972 -0.2719  0.4688  0.2956
  714MPD2    C510557   3.531   3.070   0.949 -0.4875  0.0763 -0.2190
  714MPD2     H10558   3.782   3.325   1.098  1.4893 -2.0024 -0.0725
  714MPD2    H110559   3.388   3.219   0.940 -1.0855 -3.1857  0.7244
  714MPD2    H210560   3.680   2.935   0.963 -0.9003  0.2629  1.4131
  714MPD2    H310561   3.464   2.996   0.906 -0.8801  0.2594  0.0675
  714MPD2     N10562   3.539   3.421   1.054 -0.0965 -0.2396  0.2854
  714MPD2    H510563   3.617   3.478   1.086 -0.5862 -0.7551  2.4353
  714MPD2    N110564   3.889   3.107   1.071 -0.0856 -0.2336  0.0062
  714MPD2    H710565   3.949   3.185   1.095  1.4775 -1.2526 -0.5608
  715TMC3    C110566   4.086   2.971   1.099 -0.1443 -0.1631 -0.6702
  715TMC3    C210567   4.167   2.886   1.027  0.0644  0.4948 -0.5673
  715TMC3    C310568   4.302   2.879   1.058 -0.3688  0.0719 -0.3608
  715TMC3    C410569   4.133   3.042   1.208  0.3767  0.0258  0.1630
  715TMC3    C510570   4.269   3.033   1.232  0.7940  0.4992 -0.3608
  715TMC3    C610571   4.350   2.950   1.162  0.5216  0.4938 -0.1745
  715TMC3     C10572   3.946   2.984   1.055  0.7232  0.3639 -0.0215
  715TMC3     O10573   3.908   2.890   0.989 -0.1041 -0.5113  0.7042
  715TMC3     H10574   4.135   2.814   0.952  1.4976 -0.8170  0.0723
  715TMC3    H110575   4.068   3.091   1.280 -0.2691  0.1808 -0.5273
  715TMC3    H210576   4.456   2.937   1.183  0.4338  1.0670  0.6151
  715TMC3    C710577   4.324   3.124   1.332 -0.1036  0.4974 -0.4538
  715TMC3    C810578   4.374   2.777   0.998  0.0294  0.9175 -0.5663
  715TMC3    O110579   4.435   3.087   1.371  0.1181  0.5723 -0.7946
  715TMC3    O210580   4.341   2.743   0.884  0.1947 -0.0802 -0.1688
  716MPD2     C10581   0.377   0.159   9.814  0.3191 -0.9017  0.7594
  716MPD2    C110582   0.386   0.170   9.676  0.3478  0.0987 -0.2131
  716MPD2    C210583   0.414   0.069   9.597 -0.1650  0.1774 -0.9566
  716MPD2    C310584   0.424   4.665   9.650  0.2500 -1.1066 -0.8248
  716MPD2    C410585   0.414   4.653   9.794 -0.6205 -0.1315 -0.4735
  716MPD2    C510586   0.390   0.037   9.871 -0.2310  0.1023 -0.0675
  716MPD2     H10587   0.431   0.079   9.491  0.7110  2.0630 -0.6322
  716MPD2    H110588   0.410   4.558   9.845 -0.2733  0.4612  0.6433
  716MPD2    H210589   0.342   0.245   9.870  3.6535  1.9945 -1.5792
  716MPD2    H310590   0.368   0.016   9.975 -1.1242  0.3096 -0.2115
  716MPD2     N10591   0.436   4.551   9.570 -0.2520 -0.7422  0.2303
  716MPD2    H510592   0.452   4.559   9.470 -1.0476  0.6429  0.2052
  716MPD2    N110593   0.352   0.299   9.624  0.1410  1.0673  0.5578
  716MPD2    H710594   0.317   0.364   9.694 -2.2197  0.6608 -0.2339
  717TMC3    C110595   0.434   4.330   9.504  0.2363 -0.0426  0.0806
  717TMC3    C210596   0.366   4.361   9.393  0.1736  0.2581 -0.0171
  717TMC3    C310597   0.377   4.283   9.282  0.3270 -0.8347  0.2778
  717TMC3    C410598   0.509   4.217   9.508  0.2276  0.1309 -0.5700
  717TMC3    C510599   0.513   4.135   9.396 -0.0445  0.2012  0.0791
  717TMC3    C610600   0.461   4.176   9.275 -0.6720 -0.3995 -0.1241
  717TMC3     C10601   0.438   4.416   9.619  0.4692  0.2517 -0.1166
  717TMC3     O10602   0.437   4.372   9.732 -0.2168  0.1293 -0.2396
  717TMC3     H10603   0.286   4.433   9.400  0.4855  0.3278  2.7896
  717TMC3    H110604   0.587   4.215   9.583 -0.7857 -0.0438  0.4799
  717TMC3    H210605   0.454   4.109   9.191 -2.3127 -0.5208  0.1060
  717TMC3    C710606   0.620   4.037   9.390 -0.0330 -0.7047 -0.1120
  717TMC3    C810607   0.316   4.337   9.160 -0.1789  0.1592 -0.1746
  717TMC3    O110608   0.683   4.038   9.287 -0.1375  0.4468 -0.2235
  717TMC3    O210609   0.227   4.420   9.163 -0.0041  0.6073 -0.3844
  718MPD2     C10610   3.961   0.048  12.978  0.0930 -0.2319  0.4896
  718MPD2    C110611   4.013   4.644  12.949  0.5043 -0.1319  0.1167
  718MPD2    C210612   4.003   4.541  13.043 -0.2903  0.2670 -1.4582
  718MPD2    C310613   3.931   4.562  13.164  0.5631 -0.4116 -0.0660
  718MPD2    C410614   3.867   4.683  13.186 -0.4014  0.4436  0.1990
  718MPD2    C510615   3.886   0.059  13.093  0.4099 -0.4123 -0.5421
  718MPD2     H10616   4.029   4.438  13.021 -0.8321  0.1614 -1.6016
  718MPD2    H110617   3.801   4.700  13.270  0.2008 -1.6053  1.0846
  718MPD2    H210618   3.971   0.134  12.913 -1.2417 -2.1249 -2.2122
  718MPD2    H310619   3.853   0.158  13.122 -0.9822 -0.9411 -0.3574
  718MPD2     N10620   3.922   4.458  13.253 -0.4178  0.2147  0.3930
  718MPD2    H510621   3.848   4.456  13.321  0.3604  2.1484  1.2857
  718MPD2    N110622   4.076   4.622  12.822 -0.5742 -0.2168 -0.4502
  718MPD2    H710623   4.061   4.691  12.749 -0.4655  1.0140  0.7093
  719TMC3    C110624   4.176   4.493  12.653  0.0489 -0.0846 -0.2516
  719TMC3    C210625   4.181   4.362  12.613  0.2264 -0.0363 -0.8528
  719TMC3    C310626   4.285   4.312  12.542  0.1480  0.4681 -0.7030
  719TMC3    C410627   4.282   4.562  12.627  0.1941 -0.5338  0.3627
  719TMC3    C510628   4.396   4.515  12.565 -0.5594  0.4884  0.1044
  719TMC3    C610629   4.395   4.389  12.515  0.3723 -0.2031 -0.0356
  719TMC3     C10630   4.135   4.504  12.783  0.5364  0.8370 -0.2798
  719TMC3     O10631   4.151   4.401  12.842  0.0048 -0.2645  0.2198
  719TMC3     H10632   4.086   4.310  12.622 -0.6590  1.5150 -1.2211
  719TMC3    H110633   4.285   4.660  12.673  0.1498 -0.3003 -0.1286
  719TMC3    H210634   4.481   4.344  12.467  0.3714 -1.6346  1.2881
  719TMC3    C710635   4.457   4.601  12.468 -0.4936  0.8210 -0.5747
  719TMC3    C810636   4.316   4.178  12.599  0.5801  0.4166  0.3142
  719TMC3    O110637   4.542   4.556  12.391  0.5250 -0.0845 -0.3000
  719TMC3    O210638   4.397   4.109  12.541  0.3184  0.6444 -0.0600
  720MPD2     C10639   2.002   1.548  13.525  0.4698 -0.1512 -0.2174
  720MPD2    C110640   2.116   1.579  13.460 -0.7039  0.3393 -0.2615
  720MPD2    C210641   2.236   1.526  13.504 -0.1056  0.3108 -0.0673
  720MPD2    C310642   2.242   1.466  13.628  0.1288  0.7166  0.4203
  720MPD2    C410643   2.125   1.448  13.704  0.0925 -0.1895  0.2760
  720MPD2    C510644   2.003   1.479  13.646  0.5313  0.1778 -0.4849
  720MPD2     H10645   2.325   1.549  13.446  0.9121  1.6276  2.0162
  720MPD2    H110646   2.137   1.405  13.803 -2.4501 -1.0708  0.1916
  720MPD2    H210647   1.899   1.562  13.493  0.4481  0.1037 -0.0421
  720MPD2    H310648   1.904   1.454  13.682 -0.2578  1.3599 -1.8008
  720MPD2     N10649   2.373   1.421  13.667 -0.2640  0.5067 -0.1325
  720MPD2    H510650   2.444   1.432  13.595 -0.4869 -0.0941 -0.4446
  720MPD2    N110651   2.118   1.647  13.335 -0.1241 -0.5016  0.5197
  720MPD2    H710652   2.206   1.651  13.285 -1.3350 -0.7994 -1.6285
  721TMC3    C110653   2.546   1.335  13.814  0.8056  0.0126 -0.0678
  721TMC3    C210654   2.599   1.321  13.937  0.7189 -0.0258  1.1350
  721TMC3    C310655   2.729   1.288  13.954  0.1194 -0.0307  0.2981
  721TMC3    C410656   2.624   1.337  13.703  0.0340 -0.3345  0.2381
  721TMC3    C510657   2.755   1.304  13.728  0.2720  0.2895  0.5265
  721TMC3    C610658   2.820   1.294  13.847 -0.5807 -0.4085  0.6842
  721TMC3     C10659   2.404   1.364  13.791  0.1422  0.3635  0.7359
  721TMC3     O10660   2.327   1.342  13.888 -0.1911  0.0685 -0.8460
  721TMC3     H10661   2.532   1.329  14.022  0.5975 -0.2742  1.0604
  721TMC3    H110662   2.600   1.351  13.599  1.9922  0.8916 -0.0338
  721TMC3    H210663   2.918   1.249  13.855  0.7137  2.4980  1.0889
  721TMC3    C710664   2.832   1.288  13.605 -0.1151 -0.5173 -0.0661
  721TMC3    C810665   2.791   1.277  14.081  0.3379 -0.1379  0.3504
  721TMC3    O110666   2.775   1.279  13.495  0.2407 -0.6620  0.2139
  721TMC3    O210667   2.915   1.277  14.085  0.4214 -0.1158  0.3348
  722MPD2     C10668   1.155   4.656  13.085  0.0196  0.2702 -0.0728
  722MPD2    C110669   1.077   0.043  13.104  0.0880 -0.0707  0.5362
  722MPD2    C210670   0.937   0.038  13.073 -0.5468 -0.0015 -0.7213
  722MPD2    C310671   0.880   4.654  13.009 -0.1577 -0.7033  0.8561
  722MPD2    C410672   0.963   4.541  12.989  0.0474 -0.6748  0.0177
  722MPD2    C510673   1.094   4.548  13.028  0.3395  1.0642  0.0747
  722MPD2     H10674   0.878   0.128  13.087 -3.2763 -1.8117 -0.5115
  722MPD2    H110675   0.929   4.456  12.930  0.2611 -0.7188 -0.0421
  722MPD2    H210676   1.261   4.651  13.107  0.0947 -1.3208 -0.7691
  722MPD2    H310677   1.154   4.462  13.000 -0.2059  0.3234  1.1628
  722MPD2     N10678   0.739   4.642  12.997 -0.2631 -0.1870  0.1770
  722MPD2    H510679   0.675   4.709  13.039 -1.0277 -1.0825  0.4648
  722MPD2    N110680   1.123   0.158  13.165 -0.2306 -0.4593 -0.4461
  722MPD2    H710681   1.061   0.239  13.166  1.3169  0.7157  1.1178
  723TMC3    C110682   0.534   4.549  12.933  0.2049 -0.6261 -0.8559
  723TMC3    C210683   0.476   4.432  12.973  0.4194  0.0219 -0.0407
  723TMC3    C310684   0.340   4.439  12.992  0.6788 -0.3553  0.8484
  723TMC3    C410685   0.471   4.663  12.928 -0.2776  0.0602 -0.0140
  723TMC3    C510686   0.339   4.669  12.963 -0.6384  0.2229  0.2374
  723TMC3    C610687   0.267   4.557  12.985  0.3042  0.3128  0.1365
  723TMC3     C10688   0.673   4.538  12.927 -0.9183  0.1888 -0.2545
  723TMC3     O10689   0.716   4.430  12.889  0.2495  0.1986 -0.2722
  723TMC3     H10690   0.533   4.342  12.994 -0.6057 -1.3426 -3.1658
  723TMC3    H110691   0.521   0.030  12.896 -0.6681  1.1950  2.6300
  723TMC3    H210692   0.159   4.564  12.997  0.0684  0.4646 -2.1949
  723TMC3    C710693   0.279   0.080  12.930  0.6519 -0.1693  0.4453
  723TMC3    C810694   0.258   4.324  13.013 -0.2393 -0.1922 -0.0262
  723TMC3    O110695   0.350   0.173  12.894 -0.1856 -0.3118 -0.1000
  723TMC3    O210696   0.158   4.341  13.078  0.3461  0.5245  0.8881
  724TMC3    C110697   1.559   4.111   8.462  0.2428 -0.2403 -1.0386
  724TMC3    C210698   1.689   4.133   8.457 -0.8462 -0.3423 -0.1261
  724TMC3    C310699   1.775   4.040   8.518  0.2846  0.0314 -0.4697
  724TMC3    C410700   1.505   4.004   8.530  0.0757  0.5661 -0.0843
  724TMC3    C510701   1.595   3.918   8.589 -0.3737  0.2303  0.0775
  724TMC3    C610702   1.730   3.934   8.588  0.4701 -0.2761 -0.9250
  724TMC3     C10703   1.459   4.196   8.405 -0.6069 -0.1315 -0.7949
  724TMC3     O10704   1.346   4.160   8.408  0.8614  0.5240  0.1110
  724TMC3     H10705   1.737   4.195   8.382 -0.7020 -2.8099 -2.0457
  724TMC3    H110706   1.399   3.987   8.547 -0.0836  2.1756  0.4613
  724TMC3    H210707   1.792   3.861   8.640 -0.4511 -0.1667  0.3063
  724TMC3    C710708   1.543   3.805   8.665  0.3266  0.6429  0.1990
  724TMC3    C810709   1.913   4.062   8.504 -0.4460  0.4430  0.3790
  724TMC3    O110710   1.624   3.718   8.680 -0.3837  0.3660  0.1483
  724TMC3    O210711   1.984   3.963   8.505  0.0608  0.3469 -0.2236
  725TMC3    C110712   2.707   1.712  12.018  0.1775  0.6135 -0.5051
  725TMC3    C210713   2.728   1.711  11.883 -0.1261 -0.0314  1.3954
  725TMC3    C310714   2.755   1.588  11.822  0.4305 -0.1083  0.0243
  725TMC3    C410715   2.709   1.601  12.092 -0.3275 -0.5937 -0.2098
  725TMC3    C510716   2.734   1.480  12.030 -0.4186  0.1533  0.3808
  725TMC3    C610717   2.760   1.475  11.895  0.1249 -0.2054 -0.3928
  725TMC3     C10718   2.698   1.835  12.092 -0.6807 -0.1872 -0.5645
  725TMC3     O10719   2.723   1.824  12.211 -0.4425  0.3272  0.1157
  725TMC3     H10720   2.719   1.806  11.831 -1.2409  1.3087  4.0331
  725TMC3    H110721   2.692   1.600  12.199 -0.0110  1.3909 -0.1254
  725TMC3    H210722   2.787   1.377  11.856  1.0633  0.0425 -0.3664
  725TMC3    C710723   2.713   1.351  12.098 -0.8319  0.0526  0.6348
  725TMC3    C810724   2.785   1.568  11.680  0.2715 -0.1979 -0.0645
  725TMC3    O110725   2.717   1.250  12.030  0.0173  0.0551  0.4622
  725TMC3    O210726   2.800   1.453  11.640  1.0102  0.0438 -0.1376
  726MPD2     C10727   1.360   2.956   9.933 -1.1440 -0.1029  0.2221
  726MPD2    C110728   1.274   3.056   9.898 -0.8770  0.1515 -0.2519
  726MPD2    C210729   1.145   3.046   9.934 -0.0041 -1.1633  0.5500
  726MPD2    C310730   1.097   2.941  10.007  0.5284  0.6956 -0.3478
  726MPD2    C410731   1.177   2.831  10.034  0.8810 -0.4957 -0.2806
  726MPD2    C510732   1.312   2.838   9.993 -0.1600 -0.2924 -0.7891
  726MPD2     H10733   1.079   3.129   9.912  1.3418  0.1384  1.4092
  726MPD2    H110734   1.138   2.745  10.088  1.2337 -0.0560  0.6667
  726MPD2    H210735   1.468   2.960   9.923 -1.0974 -3.2578 -0.5941
  726MPD2    H310736   1.387   2.763  10.014 -0.6017 -0.3020  0.7179
  726MPD2     N10737   0.962   2.934  10.049  0.1831  0.7954 -0.3718
  726MPD2    H510738   0.932   2.858  10.109  1.0750  0.1620 -0.7218
  726MPD2    N110739   1.314   3.169   9.824  0.5728 -0.3562 -0.1900
  726MPD2    H710740   1.256   3.252   9.825  1.1390  0.0410 -0.8682
  727TMC3    C110741   1.459   3.309   9.716 -0.0144  0.2565 -0.4047
  727TMC3    C210742   1.433   3.404   9.812  0.3397  0.1499  0.1429
  727TMC3    C310743   1.460   3.536   9.771  0.7285  0.4901 -0.3493
  727TMC3    C410744   1.510   3.340   9.591  0.1791 -0.8340  0.8600
  727TMC3    C510745   1.538   3.469   9.564 -0.2180  0.0525  0.9680
  727TMC3    C610746   1.513   3.569   9.651 -0.2051  0.0875  0.4360
  727TMC3     C10747   1.434   3.177   9.758  0.6426 -0.4938 -0.2157
  727TMC3     O10748   1.516   3.090   9.733  0.3769  0.1821  0.7807
  727TMC3     H10749   1.392   3.380   9.909 -1.0561 -1.6432 -0.8774
  727TMC3    H110750   1.513   3.254   9.525  1.9037 -1.4594  1.7683
  727TMC3    H210751   1.531   3.672   9.622  0.6224  0.1966  1.3371
  727TMC3    C710752   1.555   3.513   9.424 -0.6544 -0.3497  0.2976
  727TMC3    C810753   1.447   3.638   9.878 -0.7557  0.1846 -0.3507
  727TMC3    O110754   1.534   3.635   9.400  0.3773  0.7656  0.3942
  727TMC3    O210755   1.452   3.595   9.991  0.6755  0.3911  0.6249
  728TMC3    C110756   4.370   1.732  14.800  0.3862  0.5606 -0.4246
  728TMC3    C210757   4.464   1.664  14.882  0.1475 -0.1392  0.1782
  728TMC3    C310758   4.583   1.630  14.823  0.6660  0.3803 -0.1922
  728TMC3    C410759   4.402   1.765  14.674 -0.2318 -0.5324 -0.1790
  728TMC3    C510760   4.516   1.711  14.616  0.5539 -0.3125 -0.5904
  728TMC3    C610761   4.603   1.632  14.690  0.2722 -0.6943  0.8135
  728TMC3     C10762   4.233   1.750  14.833 -0.1030 -0.0832  0.5696
  728TMC3     O10763   4.162   1.764  14.734 -0.6192 -0.5769  0.9480
  728TMC3     H10764   4.452   1.647  14.988 -2.4792 -0.0799 -0.0986
  728TMC3    H110765   4.342   1.835  14.618 -1.1075 -0.2601  1.1018
  728TMC3    H210766   4.685   1.583  14.638 -0.2306 -1.5158  0.7939
  728TMC3    C710767   4.558   1.765  14.488  0.3711 -0.8572 -0.2993
  728TMC3    C810768   4.693   1.595  14.908  0.2242 -0.2672 -0.4328
  728TMC3    O110769   4.641   1.697  14.432  0.0207 -0.5762 -0.1082
  728TMC3    O210770   4.671   1.542  15.015 -0.4845 -0.0016  0.2555
  729MPD2     C10771   2.171   3.086  16.059  0.2890  0.7716 -0.5646
  729MPD2    C110772   2.279   3.086  16.143  0.5206  0.4249 -0.6459
  729MPD2    C210773   2.256   3.041  16.276 -0.5949  0.2665 -0.1141
  729MPD2    C310774   2.135   2.987  16.315 -0.0127  0.1492  0.6292
  729MPD2    C410775   2.034   2.970  16.220  0.7919 -0.2331 -0.1590
  729MPD2    C510776   2.052   3.026  16.094 -0.5202  0.5454  0.2358
  729MPD2     H10777   2.334   3.063  16.348 -0.7790  3.0946 -0.7583
  729MPD2    H110778   1.934   2.933  16.239  1.2694 -1.2537  0.3859
  729MPD2    H210779   2.182   3.139  15.965 -2.1395  1.7543 -0.2894
  729MPD2    H310780   1.969   3.028  16.025 -0.2796  0.5038 -0.0557
  729MPD2     N10781   2.103   2.976  16.448  0.3511  0.7383 -0.0629
  729MPD2    H510782   2.005   2.958  16.468  0.0229 -0.0736 -2.3895
  729MPD2    N110783   2.390   3.158  16.098  0.0933  0.0606 -0.4189
  729MPD2    H710784   2.375   3.199  16.006 -1.1834  0.1575 -0.1613
  730TMC3    C110785   2.143   2.996  16.679 -0.6831  0.8473 -0.5763
  730TMC3    C210786   2.217   2.959  16.787 -0.3187  0.2032 -0.5160
  730TMC3    C310787   2.191   3.020  16.906 -0.1760  0.0952  0.1459
  730TMC3    C410788   2.068   3.113  16.683 -0.0754 -0.0649  0.6257
  730TMC3    C510789   2.048   3.170  16.804  0.1801 -0.0357 -1.0263
  730TMC3    C610790   2.112   3.131  16.920 -0.1509  0.0282 -0.4858
  730TMC3     C10791   2.191   2.949  16.549 -0.2167 -0.3138 -0.0334
  730TMC3     O10792   2.303   2.899  16.544 -0.5777  0.4574 -0.0402
  730TMC3     H10793   2.285   2.875  16.785  2.2323  2.2636 -0.1758
  730TMC3    H110794   2.023   3.155  16.594 -0.4225  0.1316  0.8896
  730TMC3    H210795   2.083   3.157  17.021 -2.2264  1.1712 -1.3799
  730TMC3    C710796   2.041   3.313  16.790  0.2638 -0.4231 -0.5422
  730TMC3    C810797   2.265   2.990  17.029  0.0547 -0.3852  0.5422
  730TMC3    O110798   2.066   3.371  16.682 -0.4325 -0.1354  0.0970
  730TMC3    O210799   2.210   2.923  17.118 -0.4885 -0.0386  0.3775
  731MPD2     C10800   2.183   0.003  12.222  0.2108  0.2830  0.0157
  731MPD2    C110801   2.121   0.100  12.148 -0.4723 -0.0888  0.4303
  731MPD2    C210802   2.082   0.219  12.208 -0.0565  0.2330  0.0382
  731MPD2    C310803   2.110   0.239  12.342 -0.3581 -0.0694 -0.2880
  731MPD2    C410804   2.167   0.133  12.419  0.2254  0.2528 -0.4016
  731MPD2    C510805   2.204   0.019  12.355  0.2122 -0.6258 -0.1955
  731MPD2     H10806   2.014   0.287  12.158 -2.2083 -1.8991  0.1221
  731MPD2    H110807   2.211   0.136  12.518  0.2176 -0.5724 -0.3740
  731MPD2    H210808   2.250   4.655  12.176  0.5739  1.2205 -0.9207
  731MPD2    H310809   2.281   4.683  12.404  0.6711  0.6813  0.6555
  731MPD2     N10810   2.091   0.365  12.394  0.2205 -0.3572  0.3762
  731MPD2    H510811   2.064   0.442  12.334 -0.3367 -0.7187  0.1595
  731MPD2    N110812   2.102   0.084  12.007 -0.0293 -0.7770 -0.0880
  731MPD2    H710813   2.090   0.175  11.964 -2.6031 -0.4942  1.2145
  732TMC3    C110814   2.158   4.719  11.795  0.0847 -0.0438  0.2043
  732TMC3    C210815   2.077   0.089  11.734 -0.2306 -0.2190 -0.8621
  732TMC3    C310816   2.103   0.114  11.600 -0.2398  0.6793 -0.3719
  732TMC3    C410817   2.271   4.680  11.738 -0.1458  0.3907  1.2162
  732TMC3    C510818   2.298   4.702  11.605 -1.1928 -0.3389  0.1247
  732TMC3    C610819   2.205   0.054  11.531  0.1020 -0.8359  0.4714
  732TMC3     C10820   2.139   4.696  11.937  0.0984 -0.3787  0.1684
  732TMC3     O10821   2.166   4.587  11.979  0.2312 -0.5221 -0.9100
  732TMC3     H10822   1.998   0.132  11.793  0.7133 -0.3971  0.5208
  732TMC3    H110823   2.336   4.620  11.802  0.5041  0.9389  1.0721
  732TMC3    H210824   2.222   0.075  11.426 -1.5592  1.7189  0.7091
  732TMC3    C710825   2.430   0.030  11.578 -0.1700 -0.6564 -0.2739
  732TMC3    C810826   2.077   0.255  11.568  0.3223  0.0497 -0.0422
  732TMC3    O110827   2.461   0.060  11.463 -0.4969 -0.0942 -0.4985
  732TMC3    O210828   1.999   0.305  11.647 -0.0989  0.7236 -0.8488
  733TMC3    C110829   3.793   4.093  13.375  0.4124 -0.4180 -0.0699
  733TMC3    C210830   3.832   4.218  13.359  0.0290 -0.3238 -0.5727
  733TMC3    C310831   3.968   4.243  13.343 -0.3266 -0.2048  0.1836
  733TMC3    C410832   3.884   3.987  13.372 -0.0477 -0.3336 -0.1431
  733TMC3    C510833   4.014   4.011  13.352  0.6569  0.5427  0.6418
  733TMC3    C610834   4.053   4.140  13.350  0.5154  0.0210  0.5374
  733TMC3     C10835   3.649   4.075  13.372 -0.8398 -0.6251 -0.9820
  733TMC3     O10836   3.588   4.167  13.322 -0.1451 -0.4422  0.8788
  733TMC3     H10837   3.762   4.301  13.355 -1.0904 -1.4087 -3.2829
  733TMC3    H110838   3.847   3.886  13.361 -0.7987  0.0518 -1.1858
  733TMC3    H210839   4.159   4.163  13.346  0.6869 -0.5208  2.0477
  733TMC3    C710840   4.089   3.933  13.251  0.8005  0.5870 -0.1655
  733TMC3    C810841   4.009   4.354  13.262  0.0879  0.3953 -1.5224
  733TMC3    O110842   4.076   3.814  13.235  0.0946  0.9096  0.3764
  733TMC3    O210843   4.110   4.326  13.196  0.0931  0.2038  0.6414
  734MPD2     C10844   0.445   1.840  12.246 -0.3684 -0.3904 -0.0586
  734MPD2    C110845   0.413   1.766  12.136 -0.9265 -0.7984  0.9896
  734MPD2    C210846   0.466   1.806  12.016  0.2401 -0.8541 -0.2946
  734MPD2    C310847   0.559   1.901  12.011  0.6790 -0.3325 -0.5145
  734MPD2    C410848   0.598   1.969  12.124  0.0260 -0.3465  0.2623
  734MPD2    C510849   0.538   1.935  12.243 -0.0901 -0.3824 -0.0168
  734MPD2     H10850   0.442   1.749  11.927 -2.2737 -0.3887  0.0912
  734MPD2    H110851   0.665   2.054  12.123 -0.6426  0.1600 -1.2813
  734MPD2    H210852   0.395   1.830  12.341 -0.5982 -2.3876 -0.3768
  734MPD2    H310853   0.568   1.987  12.334  1.0936 -1.2431  0.0866
  734MPD2     N10854   0.613   1.930  11.886  0.8563 -0.4601  0.5982
  734MPD2    H510855   0.576   1.892  11.799  0.6344 -0.2359  0.5954
  734MPD2    N110856   0.322   1.662  12.144  0.0233  0.5849  0.4830
  734MPD2    H710857   0.291   1.630  12.235  0.7317 -1.2888  0.0473
  735TMC3    C110858   0.247   1.451  12.072 -0.3324  0.5965 -0.8805
  735TMC3    C210859   0.183   1.393  11.966  0.0591  0.2330  0.0527
  735TMC3    C310860   0.223   1.267  11.930  0.1521  0.7502  1.0348
  735TMC3    C410861   0.339   1.392  12.154  0.0325  0.6124 -0.6866
  735TMC3    C510862   0.376   1.270  12.119  0.2087  0.0207 -0.1393
  735TMC3    C610863   0.324   1.204  12.011  0.4601  0.4313 -0.1883
  735TMC3     C10864   0.267   1.587  12.042 -0.4555 -0.1988 -0.2162
  735TMC3     O10865   0.283   1.593  11.920  0.5646  0.5022  0.3013
  735TMC3     H10866   0.113   1.447  11.904 -1.3025 -0.1528  1.2656
  735TMC3    H110867   0.406   1.438  12.225  0.1187 -1.7712  0.7684
  735TMC3    H210868   0.379   1.116  11.981 -1.1698 -0.3866 -0.7644
  735TMC3    C710869   0.505   1.223  12.166  0.0496  0.2866 -0.2045
  735TMC3    C810870   0.246   1.251  11.791 -0.4836 -0.7985 -0.5295
  735TMC3    O110871   0.593   1.309  12.182 -0.1773 -0.8995 -0.0796
  735TMC3    O210872   0.278   1.142  11.752 -0.0148 -0.1649  0.0459
  736MPD2     C10873   0.616   0.878  12.220  0.3763 -0.1646 -0.0085
  736MPD2    C110874   0.626   1.016  12.210  0.4668 -0.2720 -0.1580
  736MPD2    C210875   0.751   1.070  12.229 -0.2146 -0.1561  1.1574
  736MPD2    C310876   0.868   0.988  12.241 -0.8344 -0.1025 -0.2663
  736MPD2    C410877   0.855   0.855  12.254 -0.3796  0.9911  0.1826
  736MPD2    C510878   0.732   0.809  12.240 -0.6093 -0.7454  0.2818
  736MPD2     H10879   0.762   1.178  12.237  1.7538 -0.3241  0.5644
  736MPD2    H110880   0.937   0.786  12.270  0.0140  1.5834  0.7203
  736MPD2    H210881   0.532   0.815  12.194 -1.1868  1.6677  0.5984
  736MPD2    H310882   0.722   0.701  12.248  0.8552 -0.9948 -1.1416
  736MPD2     N10883   0.999   1.044  12.255  0.5762  0.2366 -0.4468
  736MPD2    H510884   1.069   0.971  12.268  0.4159  0.4990  1.7796
  736MPD2    N110885   0.507   1.088  12.188 -0.2085 -0.0481  0.4296
  736MPD2    H710886   0.420   1.036  12.184 -0.6388  0.5836  1.4015
  737TMC3    C110887   1.187   1.188  12.225 -0.9666 -0.5572 -0.6971
  737TMC3    C210888   1.240   1.304  12.172 -0.6381  0.6140 -0.6869
  737TMC3    C310889   1.374   1.309  12.140  0.2243  0.7816  0.4177
  737TMC3    C410890   1.271   1.081  12.248 -0.1537 -0.1628 -0.2388
  737TMC3    C510891   1.405   1.089  12.214  0.4389  0.0699  0.2748
  737TMC3    C610892   1.454   1.203  12.152  0.2868  0.8215 -0.4561
  737TMC3     C10893   1.044   1.172  12.245  0.7617 -0.0929  0.0569
  737TMC3     O10894   0.973   1.272  12.227  0.2665 -0.0477  0.0890
  737TMC3     H10895   1.172   1.388  12.162 -2.9733 -1.0443  1.0030
  737TMC3    H110896   1.246   0.994  12.307 -0.5820 -0.8161 -1.3808
  737TMC3    H210897   1.560   1.209  12.133  0.6811 -0.2728  1.3481
  737TMC3    C710898   1.471   0.960  12.192  0.4456  0.2859 -0.0661
  737TMC3    C810899   1.442   1.419  12.084  0.8534  0.2229 -0.4658
  737TMC3    O110900   1.451   0.867  12.271 -0.2118 -0.2443 -0.0518
  737TMC3    O210901   1.555   1.443  12.130  0.2537 -0.1515  0.4461
  738MPD2     C10902   1.049   0.495  15.300 -0.3665  1.1129 -0.0402
  738MPD2    C110903   1.137   0.405  15.236 -0.2701  0.3629 -0.4744
  738MPD2    C210904   1.231   0.457  15.156  1.3110 -0.3687  0.1926
  738MPD2    C310905   1.242   0.593  15.133  0.7722  0.2859  0.7215
  738MPD2    C410906   1.154   0.678  15.193 -0.1873  0.5014  0.1042
  738MPD2    C510907   1.060   0.630  15.279  0.0608 -0.8753  0.4346
  738MPD2     H10908   1.307   0.387  15.121 -0.9558 -1.0554 -3.3175
  738MPD2    H110909   1.141   0.780  15.158  0.0345 -0.3607 -2.5281
  738MPD2    H210910   0.967   0.462  15.363  1.0869  1.5994  2.1323
  738MPD2    H310911   0.988   0.698  15.323 -1.2288 -1.0855 -1.2971
  738MPD2     N10912   1.342   0.647  15.050 -0.6974  0.3520  0.1243
  738MPD2    H510913   1.345   0.748  15.042  1.1381  0.1897 -1.1540
  738MPD2    N110914   1.100   0.264  15.244  0.2472 -0.3936 -0.1962
  738MPD2    H710915   1.019   0.243  15.302 -0.9611  1.1516 -1.3150
  739TMC3    C110916   1.538   0.668  14.933 -0.6136  0.1483  0.5284
  739TMC3    C210917   1.629   0.609  14.844  0.4636 -0.2586 -0.3545
  739TMC3    C310918   1.716   0.690  14.789  0.8942  0.0815 -0.0098
  739TMC3    C410919   1.558   0.793  14.986 -0.0094 -0.0014 -0.2576
  739TMC3    C510920   1.657   0.872  14.930  0.4396  0.2680 -0.3156
  739TMC3    C610921   1.737   0.815  14.833  0.1631  0.1759  0.1334
  739TMC3     C10922   1.442   0.584  14.984 -0.7516 -0.0583  0.3735
  739TMC3     O10923   1.479   0.465  14.982  0.0868 -0.1521  0.4600
  739TMC3     H10924   1.625   0.510  14.800  1.7013 -0.6761  0.4775
  739TMC3    H110925   1.498   0.832  15.068  0.9212  1.9087 -0.4768
  739TMC3    H210926   1.815   0.872  14.785  2.5099 -1.0715  2.4789
  739TMC3    C710927   1.679   1.003  14.984  0.7104 -1.3115  0.0614
  739TMC3    C810928   1.755   0.667  14.648  0.6667  0.3323 -0.3556
  739TMC3    O110929   1.578   1.060  15.030 -0.5404  0.6880 -0.1662
  739TMC3    O210930   1.694   0.587  14.575 -0.1499  1.1808  0.6049
  740TMC3    C110931   1.866   1.720  13.914  0.8755 -0.3191  0.6088
  740TMC3    C210932   1.898   1.619  14.005 -0.4538 -0.7500  0.6987
  740TMC3    C310933   2.028   1.590  14.026 -0.4499 -0.3649  0.3413
  740TMC3    C410934   1.969   1.771  13.833 -0.0521 -0.6334  0.9985
  740TMC3    C510935   2.100   1.738  13.868 -0.3221 -1.0593 -0.1506
  740TMC3    C610936   2.131   1.658  13.970 -0.3608 -0.2699  0.3189
  740TMC3     C10937   1.739   1.790  13.924 -0.1322 -0.3268 -0.4003
  740TMC3     O10938   1.727   1.878  13.831  0.6770 -0.0087  0.0676
  740TMC3     H10939   1.821   1.584  14.073  1.0120 -1.5890  1.9531
  740TMC3    H110940   1.944   1.834  13.748  2.0954  1.2275  1.7549
  740TMC3    H210941   2.234   1.631  13.990 -0.5988 -2.6245 -1.6384
  740TMC3    C710942   2.207   1.778  13.778 -0.6563 -0.1494  0.2815
  740TMC3    C810943   2.058   1.513  14.150 -0.0384 -0.5781 -0.5497
  740TMC3    O110944   2.318   1.745  13.820 -0.1831  0.3650  0.0491
  740TMC3    O210945   2.147   1.551  14.227 -0.1058 -0.0850 -0.4534
  741TMC3    C110946   1.511   1.329  14.011 -0.1409 -0.0757 -0.5917
  741TMC3    C210947   1.493   1.196  14.043  0.1463  0.2197  1.2934
  741TMC3    C310948   1.535   1.154  14.162 -0.0064 -0.8034 -0.6664
  741TMC3    C410949   1.556   1.425  14.097  0.2577  0.1908 -0.5471
  741TMC3    C510950   1.588   1.378  14.220  0.3592  0.2438 -0.3114
  741TMC3    C610951   1.585   1.241  14.252  0.4192 -0.1880  0.0199
  741TMC3     C10952   1.478   1.376  13.875 -0.1505  0.0090 -0.2101
  741TMC3     O10953   1.537   1.475  13.839  0.2497  0.1890 -0.3216
  741TMC3     H10954   1.470   1.120  13.970 -1.0873  2.7406 -0.9330
  741TMC3    H110955   1.568   1.529  14.071 -1.1621  0.8229  1.3837
  741TMC3    H210956   1.614   1.216  14.354  0.3506  3.1781  0.8887
  741TMC3    C710957   1.665   1.469  14.306 -0.1615 -0.0070 -0.2210
  741TMC3    C810958   1.528   1.012  14.200 -0.4664  0.3265 -0.2597
  741TMC3    O110959   1.675   1.584  14.267  0.2048 -0.1897  0.5166
  741TMC3    O210960   1.596   0.978  14.300  0.0486  0.2771  0.9216
  742TMC3    C110961   1.457   4.170  15.160  0.0345  0.1429 -0.1460
  742TMC3    C210962   1.420   4.185  15.022  0.2141  0.7077  0.4559
  742TMC3    C310963   1.435   4.068  14.952  0.5009  0.5755 -0.4703
  742TMC3    C410964   1.528   4.063  15.203 -0.2611 -0.5639  0.4451
  742TMC3    C510965   1.544   3.950  15.126 -0.4171  0.9072  0.2477
  742TMC3    C610966   1.497   3.950  14.999  0.0109 -0.3070  0.6323
  742TMC3     C10967   1.431   4.277  15.260 -0.3164  0.5135  0.5225
  742TMC3     O10968   1.325   4.340  15.255  0.8435 -0.4033 -0.0263
  742TMC3     H10969   1.346   4.257  14.991  1.3052 -0.1760 -4.1145
  742TMC3    H110970   1.568   4.068  15.304 -0.1477 -0.6944  0.4068
  742TMC3    H210971   1.486   3.853  14.951  1.6379 -0.6775  1.0174
  742TMC3    C710972   1.654   3.860  15.154 -0.1126  0.2045 -0.1595
  742TMC3    C810973   1.404   4.059  14.806  0.1931 -0.2431 -0.3218
  742TMC3    O110974   1.682   3.769  15.076  0.3987 -0.8080  0.0374
  742TMC3    O210975   1.430   3.958  14.743  0.3886  0.1944  0.1685
  743MPD2     C10976   3.727   1.510   1.413 -0.1268 -0.0681  0.5468
  743MPD2    C110977   3.780   1.431   1.313 -0.2569 -0.4361 -0.2747
  743MPD2    C210978   3.921   1.410   1.307 -0.2342  0.0089 -0.1182
  743MPD2    C310979   4.003   1.464   1.401 -0.1827  0.0483  0.6733
  743MPD2    C410980   3.950   1.533   1.511 -0.5701 -0.0885  0.1046
  743MPD2    C510981   3.814   1.554   1.507 -0.5160 -0.1879 -0.0166
  743MPD2     H10982   3.963   1.350   1.227 -0.1892  1.3542 -1.1034
  743MPD2    H110983   4.011   1.586   1.583 -2.9158  1.8251  0.6749
  743MPD2    H210984   3.623   1.535   1.428 -0.2542  0.1287 -0.6380
  743MPD2    H310985   3.768   1.607   1.589  0.8149  1.1445 -0.1256
  743MPD2     N10986   4.138   1.433   1.392 -0.5247  0.3164  0.4273
  743MPD2    H510987   4.176   1.405   1.303 -1.4067  3.4736 -0.9577
  743MPD2    N110988   3.692   1.378   1.222  0.2821 -0.3452  0.1832
  743MPD2    H710989   3.598   1.416   1.226 -0.1297 -1.3186 -0.2762
  744TMC3    C110990   3.599   1.253   1.036 -0.3149  0.3180  0.6486
  744TMC3    C210991   3.479   1.296   1.071 -0.6375 -0.4980 -0.7240
  744TMC3    C310992   3.374   1.242   0.998  0.3456 -0.3562  0.2123
  744TMC3    C410993   3.619   1.158   0.941  0.4734 -0.7802 -0.0856
  744TMC3    C510994   3.517   1.131   0.857 -0.2549  0.3349  0.3787
  744TMC3    C610995   3.389   1.172   0.888 -0.1653 -0.3646  0.1402
  744TMC3     C10996   3.715   1.274   1.135 -0.7318  0.2636 -0.1112
  744TMC3     O10997   3.816   1.203   1.127  0.3349 -0.2997  0.2183
  744TMC3     H10998   3.461   1.342   1.168  0.1537  1.3812 -1.4772
  744TMC3    H110999   3.719   1.142   0.902  0.7743 -1.0714  0.7947
  744TMC3    H211000   3.305   1.124   0.839 -1.2256 -0.2011  1.8156
  744TMC3    C711001   3.541   1.079   0.729  0.3402 -0.6235  0.3057
  744TMC3    C811002   3.260   1.343   0.991  0.3416 -0.2558 -0.0069
  744TMC3    O111003   3.638   1.007   0.725  0.2713  0.6800  0.6996
  744TMC3    O211004   3.291   1.458   1.016 -0.3464 -0.1823 -0.4408
  745TMC3    C111005   2.391   4.012  13.991  0.6577  0.3032  0.4756
  745TMC3    C211006   2.302   3.998  14.087 -0.0355 -0.1308  0.1578
  745TMC3    C311007   2.166   4.003  14.060  0.2728  1.1984 -0.6078
  745TMC3    C411008   2.341   4.010  13.860  0.4089 -0.3240  0.0700
  745TMC3    C511009   2.208   4.025  13.830  0.3717 -0.6894 -0.9010
  745TMC3    C611010   2.115   4.016  13.929 -0.5822 -0.0793  0.4802
  745TMC3     C11011   2.454   4.135  14.020  0.1482 -0.3630 -0.1848
  745TMC3     O11012   2.459   4.165  14.139  0.2775 -0.2746 -0.5146
  745TMC3     H11013   2.337   3.964  14.184  0.3665  0.2028  0.1306
  745TMC3    H111014   2.404   3.967  13.783 -0.0172  0.4133 -0.6894
  745TMC3    H211015   2.008   4.025  13.921 -0.6590 -0.8416  0.6498
  745TMC3    C711016   2.162   4.081  13.703 -0.4381  0.4204  0.6456
  745TMC3    C811017   2.087   4.060  14.169 -0.1609  0.1676 -0.4112
  745TMC3    O111018   2.046   4.123  13.689 -0.1760 -0.4018 -0.5570
  745TMC3    O211019   1.963   4.057  14.160 -0.0362  0.5085 -0.1951
  746TMC3    C111020   4.649   1.187  10.742 -0.1648  0.9305  0.1605
  746TMC3    C211021   4.710   1.174  10.618 -0.3585  0.5386 -0.0887
  746TMC3    C311022   4.701   1.049  10.559  0.6338 -0.9526 -1.2144
  746TMC3    C411023   4.591   1.083  10.811  0.6960 -0.3244 -0.1630
  746TMC3    C511024   4.587   0.963  10.746  0.2256  0.0981 -0.0601
  746TMC3    C611025   4.646   0.946  10.622 -0.0232 -0.0452 -0.1632
  746TMC3     C11026   4.659   1.316  10.814 -0.2508 -0.0065 -0.3747
  746TMC3     O11027   4.571   1.346  10.894 -0.1281  0.1763  0.1170
  746TMC3     H11028   0.008   1.266  10.565  1.0927 -0.4412 -1.2219
  746TMC3    H111029   4.541   1.107  10.904  0.6652 -2.5706  0.3852
  746TMC3    H211030   4.639   0.849  10.574 -1.3216 -0.3815  0.6980
  746TMC3    C711031   4.503   0.857  10.796  0.2715  0.0414  0.5006
  746TMC3    C811032   0.009   1.033  10.421  0.2184  0.4447  0.0283
  746TMC3    O111033   4.478   0.771  10.711  0.7568  0.0078 -0.0191
  746TMC3    O211034   4.682   0.936  10.362 -0.0165 -0.2872 -0.0612
  747TMC3    C111035   1.663   0.692  11.207 -0.5500 -0.3334 -0.9551
  747TMC3    C211036   1.654   0.642  11.337  0.6399 -0.2221 -0.4600
  747TMC3    C311037   1.727   0.714  11.427  0.3386  0.4443  0.0437
  747TMC3    C411038   1.725   0.806  11.176  0.9079 -0.2926  0.2480
  747TMC3    C511039   1.784   0.885  11.274  0.0098 -0.4440 -0.6314
  747TMC3    C611040   1.784   0.829  11.404 -0.5608  0.6231 -0.1161
  747TMC3     C11041   1.591   0.630  11.102 -0.1403 -0.2749 -0.1388
  747TMC3     O11042   1.555   0.696  11.004  0.0400 -0.3503  0.1200
  747TMC3     H11043   1.607   0.550  11.371 -1.1704  1.3652  1.3981
  747TMC3    H111044   1.711   0.846  11.076  1.7892  1.1027  0.6724
  747TMC3    H211045   1.851   0.875  11.476 -0.0414 -1.5290  0.7777
  747TMC3    C711046   1.883   0.987  11.248  0.4741 -0.2297  0.9387
  747TMC3    C811047   1.712   0.668  11.563 -0.2068  0.3471 -0.1212
  747TMC3    O111048   1.926   1.056  11.335  0.0590 -0.1212  0.1781
  747TMC3    O211049   1.684   0.549  11.579  0.5065  0.0393  0.2910
  748MPD2     C11050   2.584   2.325   1.238 -0.5946 -0.6071  0.5575
  748MPD2    C111051   2.673   2.241   1.298  0.0908  0.0154  0.1068
  748MPD2    C211052   2.806   2.281   1.318 -0.3635  0.4131  0.3674
  748MPD2    C311053   2.851   2.408   1.281 -0.6655 -0.2894  0.1052
  748MPD2    C411054   2.755   2.487   1.223 -0.5292 -0.2074  0.0080
  748MPD2    C511055   2.631   2.449   1.195  0.0880  0.1919 -0.3613
  748MPD2     H11056   2.867   2.212   1.376  0.4269 -0.5593 -1.6488
  748MPD2    H111057   2.775   2.581   1.172 -0.5452 -0.7385 -0.9904
  748MPD2    H211058   2.489   2.288   1.203  0.4978 -2.5840 -0.3814
  748MPD2    H311059   2.566   2.514   1.138  0.6426  0.7909 -0.3157
  748MPD2     N11060   2.985   2.447   1.281  0.2492  0.4553  0.3511
  748MPD2    H511061   3.003   2.540   1.242  0.4184 -0.9191 -2.8782
  748MPD2    N111062   2.630   2.108   1.324 -0.8269  0.1199 -0.0828
  748MPD2    H711063   2.528   2.105   1.331 -0.7653 -1.0094  0.3864
  749TMC3    C111064   3.224   2.432   1.300  0.0535 -0.2013 -0.2651
  749TMC3    C211065   3.337   2.376   1.356  0.2324  1.0768  0.1601
  749TMC3    C311066   3.460   2.409   1.304  0.2356  0.4055 -0.4156
  749TMC3    C411067   3.235   2.510   1.186  0.3712  0.2068  0.0974
  749TMC3    C511068   3.362   2.529   1.140 -0.0932  0.4342  0.5507
  749TMC3    C611069   3.479   2.483   1.190 -0.3071 -0.4296  0.6250
  749TMC3     C11070   3.091   2.385   1.343 -0.6708  0.3934 -0.3024
  749TMC3     O11071   3.078   2.300   1.431  0.2886  0.3353  0.3355
  749TMC3     H11072   3.334   2.330   1.454  0.1910  1.3209  0.2728
  749TMC3    H111073   3.148   2.559   1.145  0.3163  0.3129  0.3420
  749TMC3    H211074   3.580   2.506   1.157 -1.4792  3.1186 -0.5115
  749TMC3    C711075   3.379   2.616   1.029  0.1296 -1.0736 -0.2426
  749TMC3    C811076   3.574   2.366   1.377  0.4925 -1.0882 -0.3459
  749TMC3    O111077   3.300   2.709   1.010  0.1150 -0.1859 -0.1360
  749TMC3    O211078   3.564   2.343   1.500 -0.5390 -0.4715  0.3200
  750MPD2     C11079   0.245   3.402  11.191  0.0481 -0.1286  0.0122
  750MPD2    C111080   0.111   3.369  11.210 -0.5230  0.1011  0.4278
  750MPD2    C211081   0.071   3.259  11.137  0.0010 -0.7577  0.8594
  750MPD2    C311082   0.155   3.172  11.070  0.0319  0.0268  0.7807
  750MPD2    C411083   0.285   3.210  11.053  0.2613  0.1284  0.0224
  750MPD2    C511084   0.329   3.326  11.115  0.4690  0.2810 -0.4245
  750MPD2     H11085   4.691   3.226  11.144 -0.2336 -0.4327 -1.1450
  750MPD2    H111086   0.355   3.153  10.992  2.1268  1.6110  0.7917
  750MPD2    H211087   0.280   3.496  11.230  0.1857  0.6063 -1.8932
  750MPD2    H311088   0.434   3.353  11.111  0.3451  1.3281  3.3517
  750MPD2     N11089   0.119   3.052  11.004 -0.0956  0.1276 -0.9009
  750MPD2    H511090   0.188   3.016  10.939 -1.8152 -1.1066 -2.0603
  750MPD2    N111091   0.029   3.465  11.275  0.2432 -0.7232  0.2044
  750MPD2    H711092   0.076   3.552  11.299 -0.9401  0.3255 -1.2458
  751TMC3    C111093   4.709   2.849  10.974 -0.5083  0.2802  0.5164
  751TMC3    C211094   4.590   2.781  11.001 -0.3879 -0.2148  0.3014
  751TMC3    C311095   4.584   2.655  10.945  0.0391 -0.5266 -0.6939
  751TMC3    C411096   0.091   2.793  10.901  0.1441 -0.2316 -0.6851
  751TMC3    C511097   0.073   2.662  10.860  0.4093 -0.4865  0.3376
  751TMC3    C611098   4.683   2.596  10.876 -0.1997  0.0664 -0.3381
  751TMC3     C11099   4.714   2.989  11.028  0.6639 -0.1176 -0.6166
  751TMC3     O11100   4.618   3.015  11.099  0.0787 -0.0717 -0.4247
  751TMC3     H11101   4.505   2.816  11.058 -0.0919 -0.3059  0.8022
  751TMC3    H111102   0.187   2.840  10.878 -0.0871  1.1057  1.0831
  751TMC3    H211103   4.663   2.504  10.821  1.4698  0.6743 -1.9396
  751TMC3    C711104   0.183   2.587  10.813  0.0153  0.5157  0.5583
  751TMC3    C811105   4.457   2.590  10.940  0.9375 -0.1725 -0.0309
  751TMC3    O111106   0.271   2.641  10.752  0.5298  0.5638  0.1865
  751TMC3    O211107   4.443   2.518  10.843 -0.2252  0.2775 -0.0108
  752TMC3    C111108   3.317   3.422  16.752 -0.1550  0.0081 -0.3991
  752TMC3    C211109   3.237   3.332  16.816  0.0844 -0.4447 -0.3683
  752TMC3    C311110   3.219   3.339  16.954  0.3825 -0.1711  0.1079
  752TMC3    C411111   3.389   3.517  16.820  0.3173 -0.0422  0.1553
  752TMC3    C511112   3.363   3.519  16.959  0.1652  0.6666 -0.8147
  752TMC3    C611113   3.287   3.431  17.023 -0.0057 -0.1609  0.1992
  752TMC3     C11114   3.347   3.405  16.614  0.4479 -0.4569 -0.7125
  752TMC3     O11115   3.455   3.440  16.567  0.4180 -0.0083 -0.7516
  752TMC3     H11116   3.199   3.250  16.757  3.4412 -1.2373 -1.3881
  752TMC3    H111117   3.463   3.578  16.770  1.3254 -4.8783 -4.1699
  752TMC3    H211118   3.284   3.439  17.131  2.2790  0.8290  0.1833
  752TMC3    C711119   3.413   3.635  17.034 -0.0692  0.0128 -0.3552
  752TMC3    C811120   3.131   3.238  17.000 -0.9482 -0.4620  0.2603
  752TMC3    O111121   3.394   3.633  17.153 -0.3372 -0.0317 -0.3299
  752TMC3    O211122   3.066   3.190  16.910  0.0592 -0.1374  0.4122
  753TMC3    C111123   0.260   3.841  13.419 -0.6646 -0.0719  0.3653
  753TMC3    C211124   0.239   3.843  13.550 -0.6375 -0.0688  0.5128
  753TMC3    C311125   0.161   3.751  13.603 -0.7295 -0.3301  0.1750
  753TMC3    C411126   0.211   3.748  13.337 -0.2180 -0.3478  0.2849
  753TMC3    C511127   0.132   3.650  13.393  0.1243 -0.0766 -0.3933
  753TMC3    C611128   0.101   3.657  13.528 -0.2615  0.5324  0.0068
  753TMC3     C11129   0.310   3.959  13.369 -0.0943  0.1649  0.0912
  753TMC3     O11130   0.266   4.055  13.430  0.6245  0.5480 -0.1715
  753TMC3     H11131   0.291   3.913  13.614  0.5867 -0.7541  0.2717
  753TMC3    H111132   0.231   3.744  13.231 -2.0794 -0.5431 -0.0731
  753TMC3    H211133   0.055   3.577  13.586 -1.7130  0.6247 -1.0281
  753TMC3    C711134   0.083   3.531  13.321 -0.9003  0.5025  1.0775
  753TMC3    C811135   0.111   3.777  13.733 -0.9744  0.4228  0.2280
  753TMC3    O111136   0.101   3.527  13.202  0.0070  0.5988  0.4379
  753TMC3    O211137   4.711   3.782  13.738 -0.2831  0.0845  0.0148
  754MPD2     C11138   3.685   2.316  12.698 -0.5266  0.3696 -0.4738
  754MPD2    C111139   3.613   2.334  12.814  0.0169  0.0057  0.0858
  754MPD2    C211140   3.475   2.325  12.808  0.5625 -0.7088  0.5229
  754MPD2    C311141   3.408   2.302  12.691  0.0867 -0.4796  0.4335
  754MPD2    C411142   3.479   2.270  12.577 -0.0065  0.0173  0.1307
  754MPD2    C511143   3.620   2.278  12.583  0.2270  0.5628  0.2555
  754MPD2     H11144   3.415   2.348  12.895  1.2622  2.3453  0.2125
  754MPD2    H111145   3.429   2.240  12.485  0.5962 -0.2778 -0.0961
  754MPD2    H211146   3.792   2.338  12.702 -0.7226  1.7202 -2.7105
  754MPD2    H311147   3.673   2.262  12.490  0.7004 -0.2963  0.6845
  754MPD2     N11148   3.264   2.279  12.683  0.2175  1.0540 -0.3898
  754MPD2    H511149   3.232   2.252  12.590  0.8470 -1.7752  0.2387
  754MPD2    N111150   3.671   2.370  12.935  1.4252 -0.3671  0.2965
  754MPD2    H711151   3.618   2.351  13.020 -0.7310 -0.6182 -1.0954
  755MPD2     C11152   2.645   2.993  12.851 -0.0243  0.8183 -0.1659
  755MPD2    C111153   2.682   2.901  12.941  0.2834 -0.1493  0.1944
  755MPD2    C211154   2.695   2.770  12.910  0.6304 -0.3937  0.3135
  755MPD2    C311155   2.689   2.725  12.780  0.0986  0.5373 -1.3347
  755MPD2    C411156   2.661   2.820  12.688 -0.2333 -0.5296 -0.1247
  755MPD2    C511157   2.633   2.949  12.725 -0.5849  0.3930  0.4495
  755MPD2     H11158   2.721   2.701  12.990  0.7516 -1.5543 -0.7255
  755MPD2    H111159   2.655   2.805  12.581  2.8581  0.4457 -0.4234
  755MPD2    H211160   2.631   3.098  12.876  1.1823  0.9188  0.0989
  755MPD2    H311161   2.601   3.015  12.645 -0.6929 -1.0120 -0.6788
  755MPD2     N11162   2.732   2.601  12.740  0.4620  0.5922  0.0840
  755MPD2    H511163   2.746   2.588  12.640  0.1970  1.1761 -0.0333
  755MPD2    N111164   2.692   2.933  13.079  0.8067  0.0847  0.1240
  755MPD2    H711165   2.700   2.853  13.140  0.4274 -0.5680 -0.6886
  756MPD2     C11166   4.523   2.966   9.455  0.6385 -0.5298  0.0313
  756MPD2    C111167   4.426   2.990   9.549  0.0602  0.4572  0.0640
  756MPD2    C211168   4.339   2.886   9.566 -0.5217  0.3284  0.0384
  756MPD2    C311169   4.351   2.760   9.505  0.0811 -0.5473 -0.3032
  756MPD2    C411170   4.455   2.739   9.420  0.3028  0.2172 -0.7155
  756MPD2    C511171   4.530   2.845   9.392  0.4302 -0.7939 -1.1552
  756MPD2     H11172   4.261   2.900   9.640  1.0745  3.7566  1.0670
  756MPD2    H111173   4.464   2.648   9.362  2.5907 -0.5773  0.9089
  756MPD2    H211174   4.601   3.035   9.426 -1.9596  0.8082 -3.8685
  756MPD2    H311175   4.605   2.828   9.315  1.7813  2.9140 -0.6554
  756MPD2     N11176   4.266   2.651   9.534 -0.1246 -0.4562  0.0839
  756MPD2    H511177   4.180   2.680   9.578  1.3905 -0.5793  3.1174
  756MPD2    N111178   4.409   3.109   9.625  0.4168 -0.5304 -0.0314
  756MPD2    H711179   4.329   3.106   9.688  1.0994 -1.0193  0.8033
  757MPD2     C11180   3.916   1.603   9.586 -0.9179  0.1994 -0.5631
  757MPD2    C111181   3.863   1.681   9.685 -0.1764 -0.0103 -0.5048
  757MPD2    C211182   3.909   1.807   9.709  0.1611 -0.0685  0.0757
  757MPD2    C311183   4.003   1.856   9.617  0.2447  0.1302  0.2718
  757MPD2    C411184   4.062   1.775   9.529 -0.3768 -0.2614  0.4683
  757MPD2    C511185   4.012   1.654   9.507  0.6493 -0.2368  0.1002
  757MPD2     H11186   3.878   1.871   9.791 -1.0633  0.5699 -0.8847
  757MPD2    H111187   4.131   1.804   9.451 -0.2850  1.8446  1.3371
  757MPD2    H211188   3.877   1.507   9.553  1.0039 -1.0754  0.8968
  757MPD2    H311189   4.038   1.595   9.420 -0.9994  0.1296 -0.6365
  757MPD2     N11190   4.032   1.991   9.625 -0.4887  0.3589 -0.4704
  757MPD2    H511191   3.982   2.045   9.695  1.4942  1.7455 -0.1231
  757MPD2    N111192   3.762   1.612   9.758 -0.3205  0.3321  0.1837
  757MPD2    H711193   3.747   1.513   9.741 -1.7100  0.7313 -0.9032
  758MPD2     C11194   0.004   2.884  15.317  0.6128  0.0565  0.2267
  758MPD2    C111195   4.689   2.757  15.303 -0.1133 -0.2414 -0.4684
  758MPD2    C211196   4.557   2.716  15.285  0.6086 -0.3697 -0.3882
  758MPD2    C311197   4.461   2.806  15.325 -0.1119  0.0738 -0.2508
  758MPD2    C411198   4.500   2.934  15.342 -0.0816 -0.5614 -1.0243
  758MPD2    C511199   4.628   2.977  15.334  0.1781 -0.1727 -0.4629
  758MPD2     H11200   4.526   2.613  15.271  0.4973 -0.4867  0.7417
  758MPD2    H111201   4.432   3.015  15.367  0.0481 -1.0884  1.0148
  758MPD2    H211202   0.104   2.921  15.337  1.1435 -1.3039  0.0971
  758MPD2    H311203   4.652   3.080  15.357  1.3900 -0.7220  0.7391
  758MPD2     N11204   4.327   2.778  15.341  0.0539  0.0360  0.1754
  758MPD2    H511205   4.262   2.848  15.374 -0.2165  0.1960 -0.7002
  758MPD2    N111206   0.063   2.653  15.279  0.7465 -0.0326 -0.6607
  758MPD2    H711207   0.024   2.570  15.236  2.3704 -0.2546 -1.6946
  759MPD2     C11208   3.545   0.173  10.020 -0.6952 -0.4882 -0.8442
  759MPD2    C111209   3.453   0.151   9.918 -0.3792 -0.1212  0.9223
  759MPD2    C211210   3.485   0.170   9.783  0.4006 -0.4586  0.2694
  759MPD2    C311211   3.607   0.222   9.745 -0.0612 -0.5469  0.4183
  759MPD2    C411212   3.696   0.246   9.849  0.0633  1.0775  0.0302
  759MPD2    C511213   3.661   0.226   9.979  0.3093 -0.3662  0.0826
  759MPD2     H11214   3.411   0.145   9.708  0.9767  1.3665 -0.9124
  759MPD2    H111215   3.784   0.305   9.832  0.3929  1.0069  1.4826
  759MPD2    H211216   3.518   0.168  10.125 -1.1842  0.8920 -0.9020
  759MPD2    H311217   3.734   0.248  10.057 -0.6139  0.5095  0.7014
  759MPD2     N11218   3.632   0.253   9.608  0.1688  0.4391 -0.1388
  759MPD2    H511219   3.558   0.271   9.541  0.7382  1.1200 -0.5723
  759MPD2    N111220   3.327   0.097   9.939  0.7589  0.3287 -0.4758
  759MPD2    H711221   3.268   0.083   9.857  0.7830 -0.0738 -0.4252
  760MPD2     C11222   2.646   2.876  11.539 -0.1148  0.2260  0.3131
  760MPD2    C111223   2.766   2.901  11.483 -0.1252 -0.3832  1.1241
  760MPD2    C211224   2.819   2.796  11.408 -0.3395 -0.2225  0.0149
  760MPD2    C311225   2.747   2.677  11.382  0.4979 -0.7831  0.3444
  760MPD2    C411226   2.625   2.655  11.441  0.0185  0.1236  0.5029
  760MPD2    C511227   2.577   2.755  11.526  0.6997  0.1441  0.5145
  760MPD2     H11228   2.918   2.812  11.365 -0.2279  0.8661  0.6837
  760MPD2    H111229   2.556   2.572  11.432 -0.7660  0.9398 -0.9350
  760MPD2    H211230   2.600   2.938  11.615  0.9044 -0.1321  1.2350
  760MPD2    H311231   2.484   2.740  11.579  0.4349 -0.3095 -0.0803
  760MPD2     N11232   2.789   2.579  11.295 -0.4143 -0.5453 -0.4667
  760MPD2    H511233   2.717   2.509  11.285 -0.2133 -0.3260 -3.4268
  760MPD2    N111234   2.829   3.025  11.491 -0.7266  0.3526  0.1529
  760MPD2    H711235   2.908   3.042  11.429 -0.9806  1.8962  0.2563
  761MPD2     C11236   3.973   2.479  11.076 -0.6364 -0.1314  0.5908
  761MPD2    C111237   4.039   2.449  10.961  0.2351 -0.2326  0.2023
  761MPD2    C211238   4.167   2.498  10.948 -0.3885  0.2065 -0.2992
  761MPD2    C311239   4.230   2.574  11.052  0.5938 -0.4627  0.1900
  761MPD2    C411240   4.145   2.617  11.157 -0.6478  0.1645 -0.3825
  761MPD2    C511241   4.019   2.565  11.164  0.2590  0.0701 -0.5119
  761MPD2     H11242   4.230   2.456  10.871  0.6725  2.2536 -0.5640
  761MPD2    H111243   4.182   2.684  11.233 -2.3098 -0.4095  0.9567
  761MPD2    H211244   3.871   2.442  11.070 -0.2972 -0.8099 -0.9476
  761MPD2    H311245   3.957   2.609  11.240  0.0414  0.0578 -0.6826
  761MPD2     N11246   4.366   2.624  11.039  0.1715  0.0196 -0.3952
  761MPD2    H511247   4.388   2.703  11.098 -0.4067 -0.0836 -0.0373
  761MPD2    N111248   3.986   2.357  10.869 -0.1251 -0.1907 -0.2876
  761MPD2    H711249   3.908   2.302  10.904  0.9106 -0.2942  1.8919
  762MPD2     C11250   4.626   2.321  10.541 -0.2393  0.2997 -0.3954
  762MPD2    C111251   4.562   2.202  10.504  0.1701  0.5931  0.4077
  762MPD2    C211252   4.619   2.118  10.411  1.1213  0.7725  0.2847
  762MPD2    C311253   0.021   2.147  10.355  0.4369 -0.2724  0.9784
  762MPD2    C411254   0.079   2.266  10.390 -0.1243 -0.0810 -0.0654
  762MPD2    C511255   0.018   2.355  10.474 -0.8704  0.2903  0.0309
  762MPD2     H11256   4.561   2.034  10.375  0.9492  1.5020 -1.1421
  762MPD2    H111257   0.176   2.298  10.354  0.0883 -1.8444 -1.1051
  762MPD2    H211258   4.578   2.396  10.602  1.3358  0.8306  0.1834
  762MPD2    H311259   0.071   2.446  10.499  0.1333 -0.0506 -0.8634
  762MPD2     N11260   0.087   2.054  10.273 -0.3841 -0.0349  0.3303
  762MPD2    H511261   0.042   1.965  10.257 -0.3052 -0.7543  4.3137
  762MPD2    N111262   4.431   2.183  10.547 -0.6164  0.1528 -0.0347
  762MPD2    H711263   4.394   2.257  10.606 -2.0741  0.0561 -0.8142
  763MPD2     C11264   1.008   2.641  15.890  0.6239 -0.5985  0.7958
  763MPD2    C111265   0.906   2.727  15.854  0.2704  0.2397  0.1434
  763MPD2    C211266   0.907   2.858  15.901  0.2195 -0.5086  0.5198
  763MPD2    C311267   1.010   2.897  15.987 -0.0423 -0.4728 -0.9734
  763MPD2    C411268   1.103   2.800  16.026  0.6577  0.1379  0.0421
  763MPD2    C511269   1.100   2.671  15.984  0.0965 -0.2257 -0.1141
  763MPD2     H11270   0.835   2.930  15.866  1.0499  0.4590  0.8132
  763MPD2    H111271   1.180   2.817  16.101  0.2334 -0.0810  0.5298
  763MPD2    H211272   1.024   2.546  15.841  0.1292 -0.0283 -0.4633
  763MPD2    H311273   1.175   2.596  16.008 -0.7172 -1.2187 -0.6267
  763MPD2     N11274   1.036   3.023  16.040 -0.2303  0.9510 -0.0589
  763MPD2    H511275   1.125   3.034  16.088 -0.7969  1.6416  0.8403
  763MPD2    N111276   0.807   2.689  15.757 -0.3705 -0.4916 -0.1909
  763MPD2    H711277   0.760   2.762  15.704 -0.4861  0.2587  0.9546
  764MPD2     C11278   3.118   0.170  17.672 -0.6024 -0.0978 -0.4143
  764MPD2    C111279   3.170   0.070  17.587 -0.4070 -0.3402  0.3086
  764MPD2    C211280   3.189   4.668  17.642  0.0067  0.4588 -0.4610
  764MPD2    C311281   3.144   4.636   0.072  0.0263  0.0979 -0.0061
  764MPD2    C411282   3.094   0.014   0.150  0.9152 -0.3998  0.5450
  764MPD2    C511283   3.079   0.137   0.102 -0.5017  0.2122 -0.1911
  764MPD2     H11284   3.237   4.589  17.584 -0.6168 -1.5692  1.7722
  764MPD2    H111285   3.051   4.722   0.248  0.6204 -1.8163  0.1900
  764MPD2    H211286   3.116   0.276  17.650 -1.7734  0.6366  3.2653
  764MPD2    H311287   3.034   0.217   0.159  0.4038  0.2346  0.4999
  764MPD2     N11288   3.160   4.505   0.118 -0.0916 -0.2382 -0.0417
  764MPD2    H511289   3.186   4.436   0.049 -0.4314 -0.2966 -0.1125
  764MPD2    N111290   3.192   0.099  17.453 -0.1082  0.0945 -0.6145
  764MPD2    H711291   3.222   0.019  17.398 -0.8192 -0.6173  0.0184
  765MPD2     C11292   3.149   1.387  15.906  0.2731  0.4031 -0.9596
  765MPD2    C111293   3.223   1.502  15.899 -0.6640  0.1731 -0.8249
  765MPD2    C211294   3.359   1.491  15.856 -0.6530 -0.0408 -0.0668
  765MPD2    C311295   3.407   1.375  15.809  0.4559  0.2523  1.0898
  765MPD2    C411296   3.332   1.259  15.814 -0.4888 -0.1537  0.0276
  765MPD2    C511297   3.206   1.270  15.872  0.0538 -0.1186  0.2407
  765MPD2     H11298   3.425   1.577  15.857 -1.0731  0.2762  0.4467
  765MPD2    H111299   3.358   1.164  15.769 -1.7833 -1.2675  1.6610
  765MPD2    H211300   3.044   1.386  15.933  0.8273  1.9500  1.2450
  765MPD2    H311301   3.140   1.185  15.879  0.3233 -0.3266  0.2586
  765MPD2     N11302   3.539   1.373  15.754 -0.1530  0.0235 -0.1256
  765MPD2    H511303   3.592   1.459  15.764 -0.3681  0.1478 -0.0564
  765MPD2    N111304   3.157   1.627  15.924 -0.3205 -0.1567 -0.1103
  765MPD2    H711305   3.056   1.616  15.934 -0.4096  1.8508  1.1700
  766MPD2     C11306   2.714   1.779  15.478  0.4725  0.8497 -0.2322
  766MPD2    C111307   2.851   1.799  15.501 -0.7895  0.6399  0.4597
  766MPD2    C211308   2.936   1.786  15.397 -0.1073 -0.0126  0.1225
  766MPD2    C311309   2.891   1.751  15.273  0.1311 -0.3397  0.3202
  766MPD2    C411310   2.760   1.724  15.253  0.7404  0.2826  0.4475
  766MPD2    C511311   2.668   1.752  15.349 -0.4650 -0.1106 -0.2131
  766MPD2     H11312   3.040   1.798  15.426 -0.4850 -0.0636  1.4955
  766MPD2    H111313   2.741   1.680  15.156  0.2899 -0.4749  0.8800
  766MPD2    H211314   2.642   1.813  15.552  1.5910 -1.8977  2.1092
  766MPD2    H311315   2.564   1.739  15.320 -0.0334 -0.3886 -1.6766
  766MPD2     N11316   2.977   1.748  15.159 -1.1235  0.1617 -0.1667
  766MPD2    H511317   2.922   1.740  15.075 -0.3326 -0.6031 -0.6098
  766MPD2    N111318   2.904   1.847  15.622  0.3757 -0.0037 -0.3677
  766MPD2    H711319   3.005   1.851  15.631  0.3948 -1.4414  0.0110
  767MPD2     C11320   2.553   1.977  15.166  0.1380 -0.1922 -0.4415
  767MPD2    C111321   2.675   2.013  15.120 -0.1825 -0.7957  0.1729
  767MPD2    C211322   2.717   1.979  14.994 -0.0670 -0.4262 -0.2952
  767MPD2    C311323   2.637   1.908  14.910 -0.2036 -0.1598 -1.4457
  767MPD2    C411324   2.514   1.861  14.964  0.2081 -0.5240  0.4174
  767MPD2    C511325   2.469   1.898  15.084 -0.0451  0.0148  0.0895
  767MPD2     H11326   2.815   2.008  14.959 -0.5938  1.1653 -0.4726
  767MPD2    H111327   2.452   1.798  14.902  2.6894 -2.5399 -0.0069
  767MPD2    H211328   2.524   1.996  15.269 -1.0760  0.0340 -0.8250
  767MPD2    H311329   2.376   1.860  15.127 -0.4010  3.5031  2.4508
  767MPD2     N11330   2.686   1.868  14.786 -0.0115 -0.0455  0.2872
  767MPD2    H511331   2.781   1.895  14.766  0.6918 -1.8181  1.2148
  767MPD2    N111332   2.758   2.079  15.211 -0.4856  0.0936  0.1085
  767MPD2    H711333   2.737   2.085  15.310  2.6344  1.4258  0.6897
  768MPD2     C11334   4.434   0.193  10.502  0.5279 -0.1368 -0.5548
  768MPD2    C111335   4.413   0.247  10.626 -0.1730 -0.0350  0.1669
  768MPD2    C211336   4.530   0.311  10.683  0.6344 -0.2781 -0.4155
  768MPD2    C311337   4.645   0.333  10.615  0.5212  0.4212 -0.1876
  768MPD2    C411338   4.660   0.276  10.490  0.7812  0.0920 -0.4273
  768MPD2    C511339   4.555   0.208  10.436 -0.5479  0.3264 -0.1134
  768MPD2     H11340   4.527   0.338  10.788  0.0574 -2.9352  0.2588
  768MPD2    H111341   0.029   0.271  10.433  1.5403 -2.1060  1.0124
  768MPD2    H211342   4.355   0.137  10.453 -1.7908  2.1940  0.5507
  768MPD2    H311343   4.562   0.162  10.338  0.5845  1.7793 -0.7202
  768MPD2     N11344   0.034   0.394  10.683  0.2362  0.1327 -0.0135
  768MPD2    H511345   0.022   0.407  10.783 -0.6759 -0.8475  0.0072
  768MPD2    N111346   4.283   0.239  10.692  0.2265  0.3994 -0.4552
  768MPD2    H711347   4.273   0.295  10.775  0.8416 -1.7766  1.0984
  769MPD2     C11348   0.005   3.334  14.762 -1.0041 -0.0179 -0.0190
  769MPD2    C111349   4.645   3.300  14.874 -0.7065  0.5661  0.2678
  769MPD2    C211350   4.678   3.353  15.001 -0.3648  0.6443  0.7185
  769MPD2    C311351   0.067   3.422  15.023  0.1668  0.1120  0.1697
  769MPD2    C411352   0.148   3.451  14.916  0.4090 -0.2417  0.1192
  769MPD2    C511353   0.120   3.409  14.788 -0.0065 -0.0168  0.0385
  769MPD2     H11354   4.611   3.328  15.083 -1.0971  1.8528  0.4991
  769MPD2    H111355   0.240   3.509  14.923  0.7519 -0.7081 -0.4786
  769MPD2    H211356   4.710   3.293  14.663  0.7825  1.3608 -0.9000
  769MPD2    H311357   0.180   3.428  14.700 -1.1169 -0.6920 -0.8578
  769MPD2     N11358   0.091   3.471  15.151 -0.2809  0.9279 -0.0950
  769MPD2    H511359   0.015   3.445  15.214 -0.2104 -0.4378 -0.5797
  769MPD2    N111360   4.534   3.218  14.841 -0.1122 -0.1881 -0.4340
  769MPD2    H711361   4.531   3.194  14.743 -0.6468  0.9296 -0.6854
  770MPD2     C11362   3.808   2.453  15.191 -0.1617  0.0729 -0.3634
  770MPD2    C111363   3.916   2.408  15.124 -1.0065 -0.3997  0.3373
  770MPD2    C211364   3.997   2.492  15.051  0.1225 -0.0883 -0.1646
  770MPD2    C311365   3.979   2.629  15.054  0.3847 -0.2983  0.0915
  770MPD2    C411366   3.878   2.672  15.143 -0.5055  0.2545 -0.4433
  770MPD2    C511367   3.779   2.587  15.192  0.2894 -0.1469 -0.3107
  770MPD2     H11368   4.079   2.461  14.987  1.0895 -0.5446  1.3186
  770MPD2    H111369   3.861   2.778  15.159 -2.5942 -0.3009  0.9383
  770MPD2    H211370   3.741   2.390  15.248  0.6022 -1.4613 -1.1782
  770MPD2    H311371   3.688   2.627  15.234  1.3318  1.1095  0.7692
  770MPD2     N11372   4.072   2.717  14.984 -0.0705 -0.1865  0.3039
  770MPD2    H511373   4.136   2.674  14.917 -1.2449 -1.2358 -0.1322
  770MPD2    N111374   3.941   2.272  15.132  0.3898 -0.2748 -0.4693
  770MPD2    H711375   3.878   2.209  15.179 -0.4829 -0.2205 -1.5693
  771MPD2     C11376   0.874   0.952  13.133 -0.1199 -0.3786 -0.3007
  771MPD2    C111377   0.805   1.071  13.097  0.3128  0.4387 -0.8835
  771MPD2    C211378   0.681   1.063  13.044 -0.0820  0.4454 -0.1169
  771MPD2    C311379   0.625   0.942  13.006 -0.5648  0.0402 -0.3282
  771MPD2    C411380   0.695   0.824  13.030 -0.3286 -0.5261  0.5389
  771MPD2    C511381   0.813   0.837  13.094  1.0327  0.0963 -0.4169
  771MPD2     H11382   0.636   1.157  13.015 -1.2567  0.4018  1.5666
  771MPD2    H111383   0.656   0.724  13.011 -1.8212 -0.0671  1.1411
  771MPD2    H211384   0.962   0.963  13.196 -0.0780 -0.1118 -0.4028
  771MPD2    H311385   0.854   0.737  13.108 -1.5618 -1.0053 -0.5936
  771MPD2     N11386   0.498   0.942  12.938 -0.3018 -0.2358 -0.7967
  771MPD2    H511387   0.465   1.032  12.906  0.9786  0.8416  0.9244
  771MPD2    N111388   0.853   1.202  13.125  0.4814 -0.0098  0.0788
  771MPD2    H711389   0.789   1.281  13.114 -0.1751 -0.3103  1.8418
  772MPD2     C11390   0.694   1.761  13.613 -0.0748  0.4043  0.6247
  772MPD2    C111391   0.676   1.641  13.549  0.3056 -0.0486 -0.1625
  772MPD2    C211392   0.561   1.564  13.582 -0.8100  0.4377  0.2439
  772MPD2    C311393   0.463   1.612  13.664 -0.3554 -0.0202  0.3081
  772MPD2    C411394   0.478   1.738  13.720  1.1177  0.1844 -0.0204
  772MPD2    C511395   0.602   1.806  13.703  0.8644 -0.3125 -0.5273
  772MPD2     H11396   0.549   1.470  13.531 -0.4336  2.3283 -3.3735
  772MPD2    H111397   0.399   1.774  13.784  0.4088  0.2366 -0.9234
  772MPD2    H211398   0.789   1.814  13.612  1.9863 -3.3168  0.0326
  772MPD2    H311399   0.633   1.890  13.764 -0.0228  1.5610 -2.6243
  772MPD2     N11400   0.342   1.542  13.696 -0.5672  1.5132  0.3020
  772MPD2    H511401   0.264   1.591  13.739 -0.5378  0.7810  1.2006
  772MPD2    N111402   0.776   1.572  13.470 -0.2448 -0.2362  0.3208
  772MPD2    H711403   0.765   1.476  13.439 -0.4169 -0.2141  0.3105
  773MPD2     C11404   4.446   2.982   0.264 -0.2287  0.5029  0.0834
  773MPD2    C111405   4.376   2.959   0.146  0.7872 -0.3487 -0.6366
  773MPD2    C211406   4.399   2.844   0.073 -0.0862  0.3588  0.1911
  773MPD2    C311407   4.488   2.746   0.117  0.4848 -0.2076  0.0769
  773MPD2    C411408   4.551   2.759   0.236 -0.1827  0.3905 -0.3347
  773MPD2    C511409   4.529   2.874   0.310 -0.5643  0.0366 -1.0562
  773MPD2     H11410   4.358   2.831  17.668 -0.2072 -0.3744  0.3407
  773MPD2    H111411   4.609   2.675   0.274 -0.6976 -0.3649 -1.2290
  773MPD2    H211412   4.438   3.073   0.322 -0.0143  1.6341 -1.6896
  773MPD2    H311413   4.575   2.891   0.407 -0.7692 -2.3679 -0.5465
  773MPD2     N11414   4.514   2.640   0.026 -0.4985 -0.4476 -0.5012
  773MPD2    H511415   4.463   2.641  17.633 -0.0604  0.2220 -0.7456
  773MPD2    N111416   4.293   3.055   0.087  0.1613 -0.1301  0.4138
  773MPD2    H711417   4.279   3.048  17.682  0.0448  2.8638  0.2433
  774MPD2     C11418   3.401   1.994  13.524  0.0475 -0.0943 -0.0198
  774MPD2    C111419   3.534   1.955  13.497  0.5706 -0.2402 -0.7289
  774MPD2    C211420   3.625   2.052  13.467  0.7482  0.2268  0.3168
  774MPD2    C311421   3.582   2.189  13.450  0.6087 -0.3111 -0.6294
  774MPD2    C411422   3.454   2.222  13.471  0.6286  0.2092  0.6015
  774MPD2    C511423   3.364   2.125  13.508 -0.9235 -0.0164 -0.0124
  774MPD2     H11424   3.729   2.027  13.451  0.9319  0.0084  1.8416
  774MPD2    H111425   3.420   2.323  13.449  2.7204  0.7793  0.0034
  774MPD2    H211426   3.332   1.915  13.549 -1.2445  0.4859 -1.7222
  774MPD2    H311427   3.262   2.159  13.511 -0.9348 -0.1472  1.0923
  774MPD2     N11428   3.670   2.289  13.402  0.0761 -0.3724 -0.5027
  774MPD2    H511429   3.630   2.382  13.387  1.0173 -0.4162 -3.4031
  774MPD2    N111430   3.563   1.819  13.500 -0.3472  0.0828  0.6838
  774MPD2    H711431   3.490   1.749  13.492  0.3069 -0.3653 -1.3461
  775MPD2     C11432   0.227   3.345  15.724  0.2986 -0.1631  0.3630
  775MPD2    C111433   0.216   3.471  15.777  0.4384 -0.3810  0.0381
  775MPD2    C211434   0.303   3.568  15.741  0.0877  0.7805  0.1624
  775MPD2    C311435   0.407   3.536  15.652 -0.3713  0.3052 -0.9485
  775MPD2    C411436   0.418   3.411  15.599  0.1456  0.5444 -0.0584
  775MPD2    C511437   0.327   3.318  15.640  0.2405 -0.7486  0.2436
  775MPD2     H11438   0.295   3.671  15.776 -0.3884  0.8862 -0.2548
  775MPD2    H111439   0.501   3.382  15.536 -0.3777  3.0457 -1.9210
  775MPD2    H211440   0.162   3.262  15.750 -0.4423  0.7758  1.4567
  775MPD2    H311441   0.344   3.215  15.612  0.9067 -0.4218 -0.5920
  775MPD2     N11442   0.512   3.625  15.626 -0.8334  0.1989  0.3900
  775MPD2    H511443   0.597   3.585  15.587 -1.2017  1.4361 -1.7014
  775MPD2    N111444   0.104   3.498  15.858 -0.0951 -0.2375 -0.6513
  775MPD2    H711445   0.047   3.416  15.877  1.5541 -0.9170  1.3329
  776MPD2     C11446   4.448   4.235  11.212 -0.2344 -0.5439 -0.2316
  776MPD2    C111447   4.533   4.143  11.271 -0.7205 -0.0033  0.3256
  776MPD2    C211448   4.665   4.191  11.311 -0.0722  0.1505  0.1417
  776MPD2    C311449   4.705   4.327  11.288  0.3916 -0.8572  0.3706
  776MPD2    C411450   4.616   4.407  11.225  0.1066 -0.4138 -0.9972
  776MPD2    C511451   4.493   4.359  11.187  0.1229 -0.0751  1.1195
  776MPD2     H11452   0.014   4.122  11.352  1.0844 -0.4330 -2.8356
  776MPD2    H111453   4.632   4.511  11.199  0.5995 -0.6327 -1.5614
  776MPD2    H211454   4.349   4.210  11.176 -0.8180 -0.7075  1.4801
  776MPD2    H311455   4.427   4.429  11.136  1.2597  0.5762  0.5509
  776MPD2     N11456   0.106   4.389  11.333 -0.2874 -0.6242 -0.4191
  776MPD2    H511457   0.121   4.483  11.296  0.5777 -1.0752 -1.2149
  776MPD2    N111458   4.491   4.016  11.301  0.2086  0.6046  0.3028
  776MPD2    H711459   4.401   3.984  11.266  0.6367  0.9094 -1.0644
  777MPD2     C11460   3.950   1.754   0.470  0.0866  0.5441  0.2428
  777MPD2    C111461   4.038   1.676   0.545 -0.3085  0.0382  0.0799
  777MPD2    C211462   4.073   1.551   0.502  0.4487 -0.4475  0.0845
  777MPD2    C311463   4.043   1.501   0.375  0.6886  0.4769 -0.8458
  777MPD2    C411464   3.948   1.575   0.303  0.2046  0.2766 -0.3940
  777MPD2    C511465   3.904   1.701   0.349 -0.2392  0.7459  0.2261
  777MPD2     H11466   4.131   1.485   0.565  2.5764 -1.1897 -2.6465
  777MPD2    H111467   3.906   1.537   0.211 -1.1337 -2.0072  1.1517
  777MPD2    H211468   3.928   1.856   0.499  0.8337  1.2741 -1.7720
  777MPD2    H311469   3.825   1.745   0.289 -0.7695  0.9865  1.0942
  777MPD2     N11470   4.090   1.371   0.334 -0.3305  0.4716  0.4066
  777MPD2    H511471   4.149   1.314   0.394 -1.5484 -2.6254 -1.3428
  777MPD2    N111472   4.096   1.738   0.663  0.2910 -0.3826 -0.3037
  777MPD2    H711473   4.052   1.828   0.682  1.6888 -0.2615  2.3755
  778MPD2     C11474   0.701   1.298  15.193 -0.4677 -0.0935  0.3390
  778MPD2    C111475   0.606   1.255  15.096  0.9620  1.0218 -0.0907
  778MPD2    C211476   0.615   1.303  14.965  0.3290  0.1907 -0.3313
  778MPD2    C311477   0.701   1.406  14.932 -0.1907  0.1360 -0.2482
  778MPD2    C411478   0.795   1.452  15.028 -0.0533  0.2647 -0.6054
  778MPD2    C511479   0.794   1.398  15.158 -0.4901  0.2181  0.1221
  778MPD2     H11480   0.542   1.266  14.893  1.2720 -2.2424 -0.0298
  778MPD2    H111481   0.873   1.523  15.001 -0.4203  0.3520 -1.4188
  778MPD2    H211482   0.685   1.260  15.294 -3.0905 -0.8353 -0.3571
  778MPD2    H311483   0.867   1.423  15.235 -0.0880 -2.0454  0.4673
  778MPD2     N11484   0.688   1.459  14.800  0.5313 -0.9684 -0.2767
  778MPD2    H511485   0.634   1.409  14.729  0.0844  0.6739 -1.0879
  778MPD2    N111486   0.512   1.156  15.117 -0.2720  0.2222 -0.1275
  778MPD2    H711487   0.461   1.132  15.032  1.0102 -0.2765 -0.7470
  779MPD2     C11488   0.563   4.665  14.423  0.0454  0.2433  0.0076
  779MPD2    C111489   0.633   4.646  14.303 -0.4886 -0.3010 -0.0139
  779MPD2    C211490   0.684   0.031  14.230  0.4804 -0.2725 -0.4124
  779MPD2    C311491   0.670   0.157  14.286 -0.0759  0.5076  0.5140
  779MPD2    C411492   0.610   0.177  14.410 -0.0932 -0.7689 -0.1877
  779MPD2    C511493   0.551   0.071  14.468 -0.1409  0.0213  0.0409
  779MPD2     H11494   0.743   0.029  14.140 -0.4918  2.2423 -1.1289
  779MPD2    H111495   0.621   0.269  14.467 -0.7885 -1.3637  0.8950
  779MPD2    H211496   0.512   4.587  14.478  0.3782  1.1005  1.5261
  779MPD2    H311497   0.499   0.081  14.563 -0.4480 -0.5910 -0.0608
  779MPD2     N11498   0.712   0.267  14.201  0.2512 -0.2338 -0.0141
  779MPD2    H511499   0.760   0.242  14.115  0.8103  0.8116 -0.0036
  779MPD2    N111500   0.667   4.517  14.263 -0.7076  0.0369  0.0561
  779MPD2    H711501   0.699   4.515  14.166 -1.5627 -2.5471 -0.1700
  780MPD2     C11502   4.113   0.664   0.528 -0.0133  0.2412  0.0981
  780MPD2    C111503   4.164   0.535   0.532  0.7416 -0.3801  0.5119
  780MPD2    C211504   4.267   0.501   0.438 -0.2531  0.1121  0.8186
  780MPD2    C311505   4.322   0.595   0.353  0.1553 -0.2905 -0.1073
  780MPD2    C411506   4.264   0.721   0.349 -0.0985 -0.0353 -0.0339
  780MPD2    C511507   4.169   0.759   0.450 -0.4245  0.1152 -0.4748
  780MPD2     H11508   4.311   0.402   0.428  1.6108  1.1805 -1.5959
  780MPD2    H111509   4.282   0.803   0.279 -0.0471  0.4554  0.5580
  780MPD2    H211510   4.042   0.694   0.605  1.9197  0.6381  1.7541
  780MPD2    H311511   4.120   0.856   0.457 -0.9884 -0.2795  1.0223
  780MPD2     N11512   4.405   0.534   0.258  0.3189 -0.9790  0.0366
  780MPD2    H511513   4.431   0.437   0.268 -1.3332 -1.1946  2.1926
  780MPD2    N111514   4.113   0.452   0.629 -0.1956 -0.9504  0.0657
  780MPD2    H711515   4.028   0.488   0.673  0.6323  0.3975  0.5777
  781MPD2     C11516   2.226   2.015  11.625 -0.0745 -0.1239  0.1821
  781MPD2    C111517   2.247   1.903  11.703  0.1600 -0.3254 -0.8171
  781MPD2    C211518   2.288   1.786  11.644 -0.5859 -0.3289  0.2916
  781MPD2    C311519   2.318   1.775  11.509 -0.0621  0.0380  0.5162
  781MPD2    C411520   2.284   1.877  11.432  0.3004 -0.4456  0.2387
  781MPD2    C511521   2.239   1.996  11.491 -0.0461  0.2487 -0.1626
  781MPD2     H11522   2.321   1.708  11.713  1.0877 -0.7779 -1.0187
  781MPD2    H111523   2.299   1.878  11.325  1.0928 -1.9516  0.3466
  781MPD2    H211524   2.202   2.110  11.673 -0.0344  0.3608 -0.7575
  781MPD2    H311525   2.210   2.077  11.425 -0.4159  2.0307  2.1929
  781MPD2     N11526   2.374   1.661  11.448 -0.3405 -0.2307 -0.1089
  781MPD2    H511527   2.399   1.667  11.350 -0.6086  1.2669 -0.0848
  781MPD2    N111528   2.260   1.907  11.842  0.0061  0.1651  0.3329
  781MPD2    H711529   2.279   1.821  11.891  0.2551 -1.0814 -1.9454
  782MPD2     C11530   0.235   2.527  10.066 -0.2390  0.1134 -0.3387
  782MPD2    C111531   0.367   2.512  10.077  0.8004  0.2528 -0.0722
  782MPD2    C211532   0.439   2.634  10.089 -0.3052 -0.7421  0.2227
  782MPD2    C311533   0.374   2.757  10.083  0.0045 -0.1308  0.1076
  782MPD2    C411534   0.240   2.762  10.052  0.4475  0.1381  0.3357
  782MPD2    C511535   0.178   2.646  10.052 -0.2647 -0.0512 -0.2544
  782MPD2     H11536   0.546   2.638  10.107 -0.1622 -1.7023 -0.4723
  782MPD2    H111537   0.179   2.850  10.035 -0.2238 -0.2954  0.5033
  782MPD2    H211538   0.179   2.435  10.078  0.9046 -0.4846  0.4761
  782MPD2    H311539   0.071   2.649  10.037 -0.3657  1.4995  0.7847
  782MPD2     N11540   0.456   2.871  10.078  0.1517 -0.5162  0.3711
  782MPD2    H511541   0.556   2.855  10.083  0.1945 -0.9824 -1.9113
  782MPD2    N111542   0.429   2.389  10.093 -0.5980 -0.2744  0.1256
  782MPD2    H711543   0.370   2.313  10.125 -0.0101 -1.1847 -0.9560
  783MPD2     C11544   0.256   2.236  10.922  0.2613  0.2646 -0.6225
  783MPD2    C111545   0.260   2.346  10.832 -0.1659  0.5917  0.3893
  783MPD2    C211546   0.326   2.342  10.711  0.3331 -0.4898 -0.0468
  783MPD2    C311547   0.386   2.220  10.672 -0.3774  0.3636  0.1091
  783MPD2    C411548   0.383   2.113  10.756  0.2673  0.2723 -0.0065
  783MPD2    C511549   0.314   2.122  10.875 -0.8601  0.1016  0.0273
  783MPD2     H11550   0.326   2.429  10.646 -1.5754  1.3607  2.4428
  783MPD2    H111551   0.429   2.018  10.728 -1.5772 -1.0450  1.4217
  783MPD2    H211552   0.193   2.236  11.010  1.0164  1.5167 -0.0884
  783MPD2    H311553   0.297   2.040  10.943  0.3454 -0.1025  0.0856
  783MPD2     N11554   0.445   2.218  10.545  0.1758 -0.5325 -0.5053
  783MPD2    H511555   0.424   2.292  10.479 -0.6831  1.4971  2.0209
  783MPD2    N111556   0.179   2.462  10.867  0.2494  0.4443 -0.1164
  783MPD2    H711557   0.107   2.458  10.939  1.6846  0.2920  1.3311
  784MPD2     C11558   1.164   2.881   0.947 -0.0935 -0.4620 -0.4761
  784MPD2    C111559   1.291   2.931   0.918  0.6956  0.0530  0.0420
  784MPD2    C211560   1.310   3.066   0.892  0.3634  0.2463 -0.3973
  784MPD2    C311561   1.203   3.154   0.889 -0.1263 -0.7645  0.1967
  784MPD2    C411562   1.076   3.093   0.906  0.1062 -0.0044 -0.7808
  784MPD2    C511563   1.054   2.959   0.935 -0.3685 -0.0292  0.0590
  784MPD2     H11564   1.410   3.103   0.870  1.6223 -2.1552  1.2931
  784MPD2    H111565   0.992   3.159   0.921  0.9214  0.9297 -0.2900
  784MPD2    H211566   1.147   2.778   0.976 -0.7950 -0.8198 -2.1417
  784MPD2    H311567   0.958   2.921   0.967  0.6803 -3.1681 -0.5167
  784MPD2     N11568   1.215   3.299   0.860 -0.0097  0.5166 -0.1001
  784MPD2    H511569   1.313   3.326   0.851  0.3476 -1.7645 -3.2408
  784MPD2    N111570   1.399   2.845   0.887  0.2242  0.1844 -0.1721
  784MPD2    H711571   1.477   2.890   0.840 -0.0825 -0.4659 -1.3079
  785MPD2     C11572   2.241   4.460  10.306 -0.5416 -0.6668  0.0077
  785MPD2    C111573   2.234   4.561  10.397 -0.3006  0.2132 -0.6933
  785MPD2    C211574   2.119   4.641  10.408 -0.3449  0.7045  0.4525
  785MPD2    C311575   2.010   4.619  10.321 -0.0535 -0.6135 -0.3342
  785MPD2    C411576   2.023   4.517  10.230  0.0378 -0.1611 -0.6568
  785MPD2    C511577   2.136   4.439  10.220 -0.0850 -0.1337  0.1260
  785MPD2     H11578   2.123   4.721  10.481 -2.3254  1.2696 -0.0527
  785MPD2    H111579   1.934   4.485  10.177 -0.5022 -0.5751  0.5179
  785MPD2    H211580   2.337   4.411  10.293 -1.2104 -1.8507 -0.4502
  785MPD2    H311581   2.143   4.365  10.141  0.7145  1.4352 -1.2729
  785MPD2     N11582   1.890   4.699  10.336 -0.5475  0.0961 -0.6695
  785MPD2    H511583   1.896   0.047  10.409  1.6758  2.2422 -2.9392
  785MPD2    N111584   2.341   4.601  10.483 -0.0131 -0.3057  0.1877
  785MPD2    H711585   2.321   4.659  10.563  0.8580  0.0250  0.1617
  786MPD2     C11586   1.164   4.287  14.406  0.0343 -0.3570 -0.0178
  786MPD2    C111587   1.221   4.160  14.408  0.3351  0.0250  0.5449
  786MPD2    C211588   1.293   4.129  14.523  0.0775 -0.0013  0.5575
  786MPD2    C311589   1.305   4.216  14.633  0.6017  0.4706  0.6423
  786MPD2    C411590   1.245   4.335  14.625  0.0403  0.3991 -0.0263
  786MPD2    C511591   1.185   4.375  14.506  0.0207  0.3285 -0.6508
  786MPD2     H11592   1.333   4.029  14.539  0.9790  0.4171  0.9479
  786MPD2    H111593   1.248   4.406  14.706  0.8688  0.6082 -0.2355
  786MPD2    H211594   1.109   4.324  14.320 -0.2078 -2.1933 -0.6634
  786MPD2    H311595   1.147   4.476  14.493  2.5058  1.1902 -1.1653
  786MPD2     N11596   1.351   4.180  14.764  0.0535  0.4676  0.2609
  786MPD2    H511597   1.333   4.253  14.832 -1.6155  0.6887 -0.4126
  786MPD2    N111598   1.204   4.059  14.308  0.8580  0.5562  0.3781
  786MPD2    H711599   1.228   3.969  14.348 -1.2568 -0.0342  0.3404
  787MPD2     C11600   0.789   3.327  14.211 -0.6002 -0.2044  0.3235
  787MPD2    C111601   0.913   3.389  14.233 -0.1661  0.5553  0.3298
  787MPD2    C211602   1.025   3.322  14.274  0.6825 -0.2165 -0.0599
  787MPD2    C311603   1.013   3.187  14.296 -0.2565  0.1751 -0.0493
  787MPD2    C411604   0.890   3.119  14.263  0.9875  0.0344  0.2112
  787MPD2    C511605   0.779   3.193  14.222  0.0167  0.4926  0.4452
  787MPD2     H11606   1.117   3.379  14.283  0.3583  0.6553 -2.1448
  787MPD2    H111607   0.880   3.012  14.274 -0.2775  0.0428 -0.7997
  787MPD2    H211608   0.703   3.389  14.188 -0.4817 -0.9810 -2.1956
  787MPD2    H311609   0.683   3.148  14.201 -0.7495  2.0870  0.5679
  787MPD2     N11610   1.133   3.128  14.339 -0.7555  0.6993 -0.5418
  787MPD2    H511611   1.208   3.188  14.372  1.2814 -0.9511 -2.1161
  787MPD2    N111612   0.921   3.526  14.208  0.4622  0.6095  0.0741
  787MPD2    H711613   0.833   3.573  14.189  0.0429 -0.8189 -1.4548
  788MPD2     C11614   3.453   2.960   0.038 -0.2031 -0.7062  0.5602
  788MPD2    C111615   3.379   2.840   0.022 -0.3728 -0.6066  0.3875
  788MPD2    C211616   3.354   2.790  17.587 -0.2773  0.1687 -0.1296
  788MPD2    C311617   3.371   2.871  17.478 -0.0827 -0.2151  0.8466
  788MPD2    C411618   3.450   2.985  17.494  0.4536 -0.1005  0.1170
  788MPD2    C511619   3.499   3.018  17.616 -0.1853 -0.3208 -0.1176
  788MPD2     H11620   3.307   2.692  17.589  2.0300 -0.9015  1.2209
  788MPD2    H111621   3.476   3.050  17.411 -0.2518 -0.6502 -0.5347
  788MPD2    H211622   3.476   3.003   0.134 -2.5416  1.2310  0.2575
  788MPD2    H311623   3.551   3.113  17.619 -0.1184 -0.3489 -0.3736
  788MPD2     N11624   3.334   2.831  17.352  0.1892 -0.0466  0.5685
  788MPD2    H511625   3.376   2.880  17.274  0.1705  0.2325  0.7298
  788MPD2    N111626   3.340   2.771   0.138 -0.4276  0.6249 -0.0533
  788MPD2    H711627   3.305   2.678   0.119 -2.0659  1.5247 -1.5014
  789MPD2     C11628   3.437   2.062  16.194 -0.6247 -0.1502  0.3652
  789MPD2    C111629   3.331   2.030  16.275 -0.8898  0.5283  0.5754
  789MPD2    C211630   3.216   2.105  16.285 -0.0075  0.3650  0.0590
  789MPD2    C311631   3.218   2.232  16.224 -0.1500  0.1583 -0.2702
  789MPD2    C411632   3.328   2.269  16.151  0.1263 -0.2458  0.6370
  789MPD2    C511633   3.428   2.183  16.129  0.3619  0.5952  0.2240
  789MPD2     H11634   3.134   2.070  16.347  1.1902 -0.2250  1.2968
  789MPD2    H111635   3.332   2.361  16.094  1.7703 -0.7993 -0.1639
  789MPD2    H211636   3.525   1.999  16.183 -0.2574  0.1240  1.7556
  789MPD2    H311637   3.511   2.217  16.068 -0.7179 -1.4972 -2.4192
  789MPD2     N11638   3.099   2.307  16.212  0.5278 -0.7625 -0.3032
  789MPD2    H511639   3.127   2.400  16.183 -0.3846 -0.6966 -0.9804
  789MPD2    N111640   3.313   1.903  16.332  0.6527 -0.6368  0.5398
  789MPD2    H711641   3.223   1.886  16.376 -1.1252 -0.8082 -3.1502
  790MPD2     C11642   4.530   3.786  13.467 -0.7027  0.1185 -0.4104
  790MPD2    C111643   4.452   3.687  13.523 -0.3723  0.3353  0.1184
  790MPD2    C211644   4.377   3.606  13.442  0.8291 -0.3800 -0.5377
  790MPD2    C311645   4.406   3.609  13.303 -0.2129 -0.3812  0.1266
  790MPD2    C411646   4.492   3.701  13.249 -1.1082 -0.1080 -0.2072
  790MPD2    C511647   4.549   3.794  13.332 -0.0679 -0.1590  0.0405
  790MPD2     H11648   4.317   3.520  13.469 -0.0375  0.4433  0.1568
  790MPD2    H111649   4.518   3.692  13.144  0.2117 -4.5072  0.4996
  790MPD2    H211650   4.588   3.850  13.533  0.3910 -0.3653 -0.8890
  790MPD2    H311651   4.612   3.870  13.288  1.5469  0.1936  2.9616
  790MPD2     N11652   4.341   3.519  13.215 -0.0702  0.1360 -0.0356
  790MPD2    H511653   4.376   3.520  13.119  2.0215  0.2292  0.7325
  790MPD2    N111654   4.452   3.670  13.666  0.0148 -0.5847 -0.3059
  790MPD2    H711655   4.532   3.711  13.712 -0.0306 -1.2602  0.3736
  791MPD2     C11656   3.727   3.574  12.864 -0.1688 -0.2528  0.3064
  791MPD2    C111657   3.763   3.441  12.846  0.0264 -0.2094  0.0241
  791MPD2    C211658   3.684   3.359  12.767  0.2023 -0.4450  0.7187
  791MPD2    C311659   3.566   3.412  12.710  0.7931 -0.2965  0.3630
  791MPD2    C411660   3.534   3.543  12.732  0.6557 -0.4067  0.3196
  791MPD2    C511661   3.616   3.626  12.806 -0.1688  0.5632  0.1439
  791MPD2     H11662   3.720   3.261  12.739 -0.3182 -0.2549 -0.6212
  791MPD2    H111663   3.444   3.586  12.690 -0.9464 -2.2077  1.8485
  791MPD2    H211664   3.778   3.635  12.938  0.6243 -1.2385  0.5725
  791MPD2    H311665   3.581   3.727  12.821 -1.0825  0.3570 -0.6428
  791MPD2     N11666   3.493   3.327  12.627  0.1607  0.8622 -1.1094
  791MPD2    H511667   3.517   3.228  12.631  1.1345  1.1760  0.9662
  791MPD2    N111668   3.888   3.394  12.904  0.0683  0.0825  0.1491
  791MPD2    H711669   3.935   3.454  12.971  0.7965  0.5473 -0.7844
  792MPD2     C11670   0.198   3.607  10.889  0.2366 -0.6194 -1.1816
  792MPD2    C111671   0.097   3.665  10.963 -0.2269 -0.5252 -0.0415
  792MPD2    C211672   4.695   3.609  10.970 -0.3890 -0.1189  0.4003
  792MPD2    C311673   4.669   3.497  10.902 -0.8160 -0.0546 -0.0801
  792MPD2    C411674   0.047   3.439  10.832 -0.4744 -0.1021  0.2183
  792MPD2    C511675   0.172   3.494  10.819 -0.4952  0.3245  0.8793
  792MPD2     H11676   4.619   3.641  11.040  0.6751 -0.7974  1.8724
  792MPD2    H111677   0.032   3.345  10.780 -0.8108 -1.4123  2.6614
  792MPD2    H211678   0.299   3.648  10.887  0.5273 -1.1860  1.2987
  792MPD2    H311679   0.248   3.450  10.754  0.2408  2.7789  0.0497
  792MPD2     N11680   4.550   3.427  10.911  0.4636 -0.0466 -0.3343
  792MPD2    H511681   4.543   3.333  10.874 -1.4588 -0.3172  0.6874
  792MPD2    N111682   0.131   3.785  11.024  0.0271  0.6509  0.7686
  792MPD2    H711683   0.226   3.821  11.021  0.2422 -0.0052 -0.3588
  793MPD2     C11684   4.011   3.408  10.204  0.3979 -0.1364  0.3178
  793MPD2    C111685   4.148   3.400  10.217 -1.0723  0.4301 -0.1879
  793MPD2    C211686   4.201   3.378  10.338 -0.6254 -0.2120  0.0401
  793MPD2    C311687   4.117   3.372  10.455 -0.0468  0.0916  0.7716
  793MPD2    C411688   3.983   3.393  10.444 -0.0238  1.1455 -0.2347
  793MPD2    C511689   3.930   3.409  10.316  0.2542  0.3200 -0.3882
  793MPD2     H11690   4.309   3.368  10.351 -0.6088 -1.0805 -0.7455
  793MPD2    H111691   3.909   3.378  10.521  0.8300 -2.7506 -0.1925
  793MPD2    H211692   3.957   3.417  10.111  2.2875  0.5657 -0.7014
  793MPD2    H311693   3.824   3.426  10.297 -0.7918 -3.3776  2.0649
  793MPD2     N11694   4.170   3.333  10.578  0.1611 -0.1280  0.0791
  793MPD2    H511695   4.256   3.280  10.576  0.6127  0.6528 -1.1246
  793MPD2    N111696   4.242   3.395  10.115 -0.1329 -0.5249  0.4114
  793MPD2    H711697   4.337   3.393  10.152 -0.5806 -0.4906  1.5643
  794MPD2     C11698   4.017   3.876  17.694  0.1379 -0.4708 -0.2538
  794MPD2    C111699   3.974   3.783  17.598 -0.2664 -0.2994  0.2658
  794MPD2    C211700   3.945   3.834  17.476 -0.0942 -0.1628  0.2183
  794MPD2    C311701   3.953   3.965  17.438 -0.0566 -0.8034  0.1919
  794MPD2    C411702   3.983   4.053  17.534 -0.0223  0.5738 -0.9134
  794MPD2    C511703   4.031   4.010  17.654 -0.1015  0.0943  0.1064
  794MPD2     H11704   3.916   3.767  17.396 -0.1255 -0.4215  0.4423
  794MPD2    H111705   3.976   4.158  17.506 -2.3364  0.9387  1.0499
  794MPD2    H211706   4.048   3.852   0.100  0.0801 -1.3755 -0.4519
  794MPD2    H311707   4.057   4.079   0.039 -0.5076 -1.2521  1.4016
  794MPD2     N11708   3.916   4.018  17.314  0.3221 -0.5420  0.3844
  794MPD2    H511709   3.924   4.118  17.306  3.5854 -0.6865  1.7772
  794MPD2    N111710   3.981   3.646  17.614 -0.4271  0.5216 -0.1530
  794MPD2    H711711   3.971   3.582  17.536  0.0388 -2.1336  1.9573
  795MPD2     C11712   1.760   0.526  13.606 -0.3165  0.4439 -0.3548
  795MPD2    C111713   1.727   0.425  13.520  0.3867 -0.5215  0.2709
  795MPD2    C211714   1.816   0.326  13.492 -0.2696 -0.6911  0.0747
  795MPD2    C311715   1.938   0.320  13.550 -0.0867 -0.3328 -0.1091
  795MPD2    C411716   1.970   0.416  13.643  0.0074  0.0041  0.2063
  795MPD2    C511717   1.880   0.522  13.671 -0.3782 -0.1793 -0.1045
  795MPD2     H11718   1.795   0.257  13.411  1.0237  0.3298 -1.1397
  795MPD2    H111719   2.065   0.420  13.696  0.3165  1.4050 -0.4659
  795MPD2    H211720   1.703   0.613  13.637  0.4539  0.7984  0.0534
  795MPD2    H311721   1.896   0.610  13.731  2.2310 -0.5066 -0.3278
  795MPD2     N11722   2.040   0.228  13.523 -0.0110 -0.2430 -0.3464
  795MPD2    H511723   2.113   0.221  13.593 -0.2553 -1.9913 -0.2705
  795MPD2    N111724   1.607   0.419  13.448  0.6194 -0.1388 -0.2500
  795MPD2    H711725   1.587   0.330  13.403 -2.4168  0.6113 -0.3841
  796MPD2     C11726   1.159   2.158  15.673 -0.1047 -0.4456 -0.1648
  796MPD2    C111727   1.190   2.254  15.775 -0.3429  0.4212  0.1276
  796MPD2    C211728   1.210   2.388  15.742 -0.2372 -0.5959 -0.2658
  796MPD2    C311729   1.179   2.435  15.612  0.7015  0.7215  1.0408
  796MPD2    C411730   1.137   2.342  15.517  0.1287  0.0746  0.0707
  796MPD2    C511731   1.143   2.212  15.549 -0.2260 -0.0672 -0.1807
  796MPD2     H11732   1.233   2.462  15.818 -2.0345 -0.7707  0.4500
  796MPD2    H111733   1.128   2.377  15.414  0.4934  3.5328  1.1885
  796MPD2    H211734   1.150   2.053  15.696 -0.6332 -0.5804 -0.9740
  796MPD2    H311735   1.140   2.137  15.471  1.7693 -2.5705  2.1343
  796MPD2     N11736   1.190   2.572  15.584 -0.2612  0.0639  0.0261
  796MPD2    H511737   1.235   2.630  15.655  0.9139  0.2091 -0.8303
  796MPD2    N111738   1.203   2.206  15.911  0.5742 -0.9385  0.0712
  796MPD2    H711739   1.166   2.114  15.931 -2.0840 -0.2207 -1.4339
  797MPD2     C11740   2.391   2.170  17.594 -0.7538 -0.3397  0.0217
  797MPD2    C111741   2.308   2.067  17.561  0.7642  0.1254 -0.5237
  797MPD2    C211742   2.273   2.059  17.431  0.0583  0.0072  0.3212
  797MPD2    C311743   2.315   2.153  17.340 -0.4059 -0.3969  0.4874
  797MPD2    C411744   2.376   2.267  17.371  0.1728  0.2783  0.4986
  797MPD2    C511745   2.419   2.275  17.506 -0.0191  0.0823  0.0909
  797MPD2     H11746   2.218   1.973  17.393  1.7336 -1.9619  2.3114
  797MPD2    H111747   2.413   2.342  17.302 -1.3556  1.1326  0.5921
  797MPD2    H211748   2.424   2.180   0.002 -0.3534  0.5368 -0.1909
  797MPD2    H311749   2.475   2.362  17.538  0.5072 -0.5215  0.8334
  797MPD2     N11750   2.287   2.126  17.201  0.4372  0.0387  0.4334
  797MPD2    H511751   2.293   2.208  17.142 -2.9010  0.3401  0.5515
  797MPD2    N111752   2.265   1.966  17.651 -0.0629 -0.1062 -0.0977
  797MPD2    H711753   2.212   1.889  17.612  0.8739 -1.6401  1.6585
  798MPD2     C11754   1.817   1.606  17.216  0.0990 -0.0993 -0.2736
  798MPD2    C111755   1.938   1.669  17.220 -0.4013 -0.0171  0.2390
  798MPD2    C211756   2.006   1.668  17.345  0.0484 -0.4401 -0.1453
  798MPD2    C311757   1.956   1.597  17.456  0.0034  0.0103 -0.5893
  798MPD2    C411758   1.838   1.526  17.447 -0.0340 -0.3997  0.3016
  798MPD2    C511759   1.769   1.529  17.323  0.1395  0.7546 -0.2335
  798MPD2     H11760   2.105   1.708  17.359 -0.3784  0.0426  1.5620
  798MPD2    H111761   1.808   1.460  17.527 -1.2108  0.4918  0.6070
  798MPD2    H211762   1.762   1.594  17.123 -0.1380 -1.0775 -0.0154
  798MPD2    H311763   1.680   1.468  17.320 -0.0352  0.9823  0.2785
  798MPD2     N11764   2.030   1.608  17.572 -0.0109 -0.0193  0.0636
  798MPD2    H511765   2.114   1.664  17.563  0.1375 -0.1381  0.7357
  798MPD2    N111766   2.013   1.729  17.112 -0.5304  0.0680  0.3630
  798MPD2    H711767   2.109   1.753  17.137 -0.4919 -0.9647  1.1948
  799MPD2     C11768   1.638   2.885  14.051 -0.5526 -0.6852  0.1243
  799MPD2    C111769   1.512   2.833  14.039 -0.2765  0.3611  0.1272
  799MPD2    C211770   1.401   2.916  14.040  0.4292  0.3814  0.7422
  799MPD2    C311771   1.419   3.056  14.041  0.0962  0.4121  0.4560
  799MPD2    C411772   1.543   3.105  14.047 -0.0206 -0.5351  0.1415
  799MPD2    C511773   1.659   3.023  14.050 -0.0455 -0.3034 -1.2710
  799MPD2     H11774   1.303   2.871  14.046  1.0994 -1.0448  1.0907
  799MPD2    H111775   1.562   3.211  14.034  1.7247 -0.5675  2.3631
  799MPD2    H211776   1.726   2.822  14.057  1.2378  1.8654  0.2846
  799MPD2    H311777   1.759   3.065  14.061  0.0054 -0.3952 -1.3938
  799MPD2     N11778   1.312   3.150  14.035 -0.0522  0.2335 -0.2822
  799MPD2    H511779   1.334   3.248  14.050  3.3021 -0.5822  0.0841
  799MPD2    N111780   1.503   2.691  14.013 -0.4037 -0.4760 -0.2790
  799MPD2    H711781   1.596   2.649  14.019 -0.5180 -0.4584  1.6282
  800MPD2     C11782   2.122   4.365  14.576  0.6708  0.2803 -0.4662
  800MPD2    C111783   2.239   4.368  14.504 -0.2742 -0.2922 -0.5821
  800MPD2    C211784   2.254   4.278  14.402 -0.2413  0.0775  0.5442
  800MPD2    C311785   2.150   4.198  14.357 -0.1151 -0.0956  0.1805
  800MPD2    C411786   2.025   4.205  14.418  0.3264 -0.1725 -0.1865
  800MPD2    C511787   2.018   4.292  14.523  0.1434 -0.7892 -0.1680
  800MPD2     H11788   2.349   4.255  14.356  0.3922 -0.3399  2.0467
  800MPD2    H111789   1.938   4.149  14.387  0.8338 -0.9781 -0.1499
  800MPD2    H211790   2.095   4.427  14.661 -0.1260 -1.6495  0.6864
  800MPD2    H311791   1.925   4.291  14.578  0.5461  1.4609  0.5613
  800MPD2     N11792   2.176   4.132  14.240 -0.5566 -0.4949  0.7585
  800MPD2    H511793   2.272   4.128  14.208 -1.2538 -0.5686 -1.3720
  800MPD2    N111794   2.338   4.455  14.544  0.4552 -0.1707  0.1948
  800MPD2    H711795   2.331   4.498  14.635  0.5650  1.6752 -0.6732
  801MPD2     C11796   2.204   0.336  14.432  0.0059  0.2907  0.1698
  801MPD2    C111797   2.218   0.254  14.540 -0.4353 -0.0263  0.1401
  801MPD2    C211798   2.106   0.208  14.603 -0.6764 -0.3547  0.1757
  801MPD2    C311799   1.983   0.247  14.560  1.1501 -0.6156 -0.5325
  801MPD2    C411800   1.968   0.354  14.473  0.2890 -0.4656 -0.7201
  801MPD2    C511801   2.087   0.399  14.410 -0.3225  0.1350  0.1012
  801MPD2     H11802   2.112   0.128  14.677  1.6972 -0.7843 -0.4589
  801MPD2    H111803   1.867   0.383  14.448  0.2262 -0.1862 -0.1386
  801MPD2    H211804   2.292   0.367  14.377  1.1020 -1.7415  0.7821
  801MPD2    H311805   2.080   0.463  14.323  0.7093 -0.1473 -0.1902
  801MPD2     N11806   1.861   0.181  14.598 -0.4090  0.0752  0.1768
  801MPD2    H511807   1.781   0.188  14.536 -0.5888 -1.0477  0.2799
  801MPD2    N111808   2.334   0.183  14.572 -0.2547 -0.3411  0.4214
  801MPD2    H711809   2.327   0.116  14.648 -0.7340  0.8948  1.4737
  802MPD2     C11810   0.804   4.664  16.545  0.1595  0.4971 -0.0506
  802MPD2    C111811   0.907   4.708  16.629 -0.3655  0.2353 -0.9124
  802MPD2    C211812   1.036   4.681  16.584 -0.6091  0.3530 -0.0079
  802MPD2    C311813   1.061   4.639  16.457 -0.1682  0.3988  0.0321
  802MPD2    C411814   0.956   4.622  16.364 -0.5368 -0.1249 -0.7268
  802MPD2    C511815   0.829   4.624  16.416 -0.4395  0.3058 -0.0643
  802MPD2     H11816   1.118   4.673  16.654  0.2837 -1.9574 -1.3288
  802MPD2    H111817   0.971   4.597  16.260  0.2923 -1.4263 -0.2857
  802MPD2    H211818   0.700   4.684  16.568  0.5100  1.5161  0.6192
  802MPD2    H311819   0.741   4.610  16.354 -0.8793 -1.1906  0.8905
  802MPD2     N11820   1.201   4.607  16.432  0.4189 -0.4271 -0.5588
  802MPD2    H511821   1.262   4.630  16.510  1.7508 -2.9714 -0.8570
  802MPD2    N111822   0.885   0.030  16.763  0.1184  0.4411  0.5496
  802MPD2    H711823   0.967   0.043  16.822  0.5646 -1.4812  0.3606
  803MPD2     C11824   2.760   3.684  11.580  0.1701 -0.0803 -0.3987
  803MPD2    C111825   2.807   3.734  11.706 -0.7353  0.0244 -1.1004
  803MPD2    C211826   2.731   3.699  11.818 -0.4307  0.1813  0.7170
  803MPD2    C311827   2.625   3.612  11.817  0.3731 -0.1821  0.7616
  803MPD2    C411828   2.582   3.571  11.694  0.8735 -0.1068 -0.8447
  803MPD2    C511829   2.651   3.606  11.583 -0.7732 -0.3268  0.4647
  803MPD2     H11830   2.763   3.738  11.913  0.3805 -0.4018  0.6783
  803MPD2    H111831   2.498   3.504  11.682 -0.7021  0.8729  4.8559
  803MPD2    H211832   2.816   3.708  11.490  3.0361  0.0404  1.3909
  803MPD2    H311833   2.616   3.561  11.491  0.7911 -0.3270 -0.1268
  803MPD2     N11834   2.548   3.571  11.929 -0.4486 -0.0773 -0.0376
  803MPD2    H511835   2.472   3.505  11.913 -2.2235  1.9400  0.0036
  803MPD2    N111836   2.935   3.796  11.716 -0.5127 -0.1663 -0.2104
  803MPD2    H711837   2.960   3.832  11.808 -0.0541  1.3761 -0.9303
  804MPD2     C11838   1.735   0.165  16.784  0.8283 -0.6565  0.3917
  804MPD2    C111839   1.821   0.166  16.898  0.5746 -0.5699  0.2877
  804MPD2    C211840   1.835   0.279  16.974 -0.0094  0.0158 -0.2358
  804MPD2    C311841   1.774   0.398  16.946  0.4068  0.1346 -0.4653
  804MPD2    C411842   1.692   0.398  16.833  0.4416  0.5348 -0.4678
  804MPD2    C511843   1.669   0.286  16.755 -0.3033 -0.1153  0.7170
  804MPD2     H11844   1.900   0.276  17.061  0.3853 -0.8802 -0.5543
  804MPD2    H111845   1.640   0.487  16.797  1.8533  1.5452  0.0079
  804MPD2    H211846   1.720   0.076  16.725 -2.3872 -0.3350  0.7550
  804MPD2    H311847   1.601   0.289  16.671 -1.0317 -1.2571  1.2686
  804MPD2     N11848   1.791   0.513  17.027 -0.4249 -0.1424 -0.3291
  804MPD2    H511849   1.865   0.506  17.095  1.1927 -2.5555 -2.3384
  804MPD2    N111850   1.891   0.052  16.944  0.1702  0.6575 -0.0100
  804MPD2    H711851   1.945   0.066  17.029 -0.7000 -1.7934  0.9343
  805MPD2     C11852   0.670   3.331  15.176 -0.2099  0.5767 -0.2088
  805MPD2    C111853   0.758   3.326  15.071  0.6517  0.4831 -0.2690
  805MPD2    C211854   0.891   3.304  15.090  0.1725  0.1583 -0.1765
  805MPD2    C311855   0.948   3.295  15.219 -0.5139  0.3070 -0.0322
  805MPD2    C411856   0.858   3.308  15.324 -0.1779 -0.4992 -0.1248
  805MPD2    C511857   0.726   3.316  15.298 -0.5820  0.1204 -0.0554
  805MPD2     H11858   0.952   3.291  15.002  1.8227  1.5340  0.7692
  805MPD2    H111859   0.888   3.326  15.426 -0.0086 -2.8372  0.2176
  805MPD2    H211860   0.566   3.355  15.160 -0.3540  1.0103  1.3641
  805MPD2    H311861   0.663   3.316  15.386 -1.5551  0.3474 -0.7488
  805MPD2     N11862   1.090   3.280  15.235  0.3152 -0.3614 -0.9899
  805MPD2    H511863   1.144   3.286  15.149  1.4274 -0.1903 -0.2761
  805MPD2    N111864   0.719   3.342  14.933  0.0126  0.5462  0.6261
  805MPD2    H711865   0.791   3.316  14.866  1.0087  2.2443  1.0095
  806MPD2     C11866   1.491   2.987  17.411 -0.1426 -0.0733 -1.1122
  806MPD2    C111867   1.510   3.072  17.516  0.2545 -0.7711 -0.7378
  806MPD2    C211868   1.632   3.140  17.523  0.0776  0.2398  0.0721
  806MPD2    C311869   1.720   3.137  17.418  0.1922 -0.2956  0.9721
  806MPD2    C411870   1.694   3.057  17.313  0.0639  0.0995  0.0233
  806MPD2    C511871   1.582   2.984  17.308  0.0142  0.6800 -0.0702
  806MPD2     H11872   1.668   3.192  17.611  0.5428 -0.5138  0.3293
  806MPD2    H111873   1.769   3.027  17.241 -1.9596 -0.0648 -2.0258
  806MPD2    H211874   1.410   2.916  17.402 -1.7861  1.5177  1.0475
  806MPD2    H311875   1.569   2.909  17.231  0.7154 -2.0705  2.4897
  806MPD2     N11876   1.853   3.187  17.433  0.9168  0.1078 -0.9787
  806MPD2    H511877   1.868   3.221  17.527  1.9142 -0.2661 -0.9949
  806MPD2    N111878   1.430   3.067  17.631 -0.0213 -0.3932  0.0579
  806MPD2    H711879   1.362   2.992  17.635 -0.5797  0.0897 -0.5117
  807MPD2     C11880   1.430   2.476   0.377 -0.4326  0.5384  0.2362
  807MPD2    C111881   1.349   2.564   0.453  0.0517  0.4672 -0.0651
  807MPD2    C211882   1.274   2.519   0.560  0.2639  0.5868 -0.4472
  807MPD2    C311883   1.259   2.381   0.574 -0.6692  0.7947 -0.0949
  807MPD2    C411884   1.326   2.294   0.499 -0.7741 -0.4331 -0.7292
  807MPD2    C511885   1.416   2.342   0.404  0.7472 -0.1100 -0.9989
  807MPD2     H11886   1.225   2.592   0.622  2.0196 -1.0221  2.8004
  807MPD2    H111887   1.319   2.186   0.496 -1.6649 -0.3474 -1.5363
  807MPD2    H211888   1.504   2.501   0.301  0.3719 -0.5137  0.6680
  807MPD2    H311889   1.469   2.267   0.347  1.2667 -0.1213 -0.5069
  807MPD2     N11890   1.165   2.342   0.682  0.3460  0.1380  0.0824
  807MPD2    H511891   1.109   2.415   0.726 -0.4189 -0.7652  0.5971
  807MPD2    N111892   1.348   2.702   0.424 -0.0573 -0.0218 -0.0619
  807MPD2    H711893   1.309   2.761   0.498  0.8647  0.6716 -0.1247
  808MPD2     C11894   2.835   0.245   8.325  0.1940  0.2663  0.4708
  808MPD2    C111895   2.753   0.168   8.405  0.6042  0.0159 -0.0569
  808MPD2    C211896   2.808   0.112   8.522  0.4442  0.1675 -0.7287
  808MPD2    C311897   2.943   0.122   8.552  0.1843 -0.0482  0.3625
  808MPD2    C411898   3.028   0.184   8.459 -1.0949  0.4533 -0.1016
  808MPD2    C511899   2.968   0.247   8.351 -0.5376  1.1321  0.6017
  808MPD2     H11900   2.745   0.064   8.595  0.9684 -0.4806 -0.6972
  808MPD2    H111901   3.135   0.185   8.479 -1.4120  1.0648  1.5133
  808MPD2    H211902   2.795   0.296   8.238  1.7801  1.4242  0.4345
  808MPD2    H311903   3.037   0.298   8.284  0.6648 -0.6521  0.4694
  808MPD2     N11904   3.000   0.062   8.673  0.2094  0.4360 -0.3811
  808MPD2    H511905   3.101   0.076   8.675  0.2617  0.0423 -0.3479
  808MPD2    N111906   2.611   0.168   8.393  0.1623 -0.0656 -0.2976
  808MPD2    H711907   2.565   0.122   8.471 -0.2783 -0.4980 -0.8123
  809MPD2     C11908   3.763   4.559   8.562 -0.5831 -0.0412  0.3793
  809MPD2    C111909   3.753   4.491   8.682  0.0003  0.4582 -0.4304
  809MPD2    C211910   3.635   4.517   8.757 -0.6707 -0.6218  0.1857
  809MPD2    C311911   3.539   4.605   8.711 -0.2408 -0.3102  0.1465
  809MPD2    C411912   3.549   4.673   8.587 -0.6520  0.1087 -0.3199
  809MPD2    C511913   3.666   4.643   8.516 -0.2101 -0.2953  0.0384
  809MPD2     H11914   3.615   4.459   8.846  0.6173 -0.6707  0.4455
  809MPD2    H111915   3.472   0.018   8.552 -1.3979 -0.2373  0.6380
  809MPD2    H211916   3.847   4.549   8.494 -0.8666 -0.1076  0.0439
  809MPD2    H311917   3.681   4.683   8.417 -1.3426 -1.5307 -0.6305
  809MPD2     N11918   3.416   4.633   8.783 -0.3766  0.4829 -0.0349
  809MPD2    H511919   3.356   4.703   8.739 -1.7314  0.6738  2.1446
  809MPD2    N111920   3.843   4.397   8.733  0.6514  0.3255 -0.0160
  809MPD2    H711921   3.814   4.354   8.820 -1.7474 -0.4804 -1.2163
  810MPD2     C11922   2.268   3.754  10.609 -0.3641  0.0750 -0.2617
  810MPD2    C111923   2.172   3.665  10.629 -0.7402  0.1955  0.6699
  810MPD2    C211924   2.037   3.704  10.636  0.3417 -0.4970  0.4108
  810MPD2    C311925   2.012   3.842  10.641 -0.6036 -0.4874 -0.2005
  810MPD2    C411926   2.119   3.931  10.641 -0.2702  0.1383  0.3147
  810MPD2    C511927   2.246   3.886  10.624  0.4324  0.7824 -0.2315
  810MPD2     H11928   1.955   3.634  10.637  0.0623 -0.1706  0.3800
  810MPD2    H111929   2.091   4.036  10.643 -1.0138 -0.0595  0.3228
  810MPD2    H211930   2.373   3.730  10.599 -0.3867 -0.1687  0.0723
  810MPD2    H311931   2.322   3.962  10.616 -0.2507  1.7390  2.3669
  810MPD2     N11932   1.879   3.896  10.645 -0.5682  0.4568  0.1761
  810MPD2    H511933   1.858   3.989  10.680 -4.1968 -1.0238  1.9283
  810MPD2    N111934   2.211   3.530  10.642  0.0015  0.4465 -0.6904
  810MPD2    H711935   2.311   3.521  10.656  0.1552  0.6593 -1.7133
  811MPD2     C11936   2.168   3.125   9.963  0.3416 -0.4627 -0.2017
  811MPD2    C111937   2.171   3.218  10.062  0.1732  0.1668 -0.3577
  811MPD2    C211938   2.132   3.354  10.025  0.3660  0.0981 -0.2414
  811MPD2    C311939   2.070   3.387   9.905  0.9364 -1.0381 -0.1650
  811MPD2    C411940   2.047   3.278   9.812  0.7250  0.0615 -0.5681
  811MPD2    C511941   2.097   3.150   9.844 -0.2647 -0.0609  0.2058
  811MPD2     H11942   2.151   3.429  10.101  1.0943 -2.3114  1.9546
  811MPD2    H111943   1.998   3.292   9.716 -0.2020  0.8391  0.0264
  811MPD2    H211944   2.197   3.024   9.987 -0.1989 -0.8946 -1.3581
  811MPD2    H311945   2.089   3.071   9.770  1.1208 -1.0838  1.1559
  811MPD2     N11946   2.034   3.522   9.889 -0.9313  0.5631 -1.1171
  811MPD2    H511947   2.079   3.588   9.952 -1.8346  0.0782  0.0261
  811MPD2    N111948   2.215   3.185  10.189  0.0154  0.3729  0.1504
  811MPD2    H711949   2.253   3.092  10.208 -1.7551 -0.4531 -0.2940
  812MPD2     C11950   0.573   3.379  12.052  0.6126  0.3804 -0.6923
  812MPD2    C111951   0.500   3.404  12.159  0.0445 -0.3888 -0.7154
  812MPD2    C211952   0.473   3.300  12.247  0.4305 -0.9591 -0.1408
  812MPD2    C311953   0.539   3.179  12.239 -0.2641  0.5284 -0.0940
  812MPD2    C411954   0.622   3.162  12.133  0.1785  0.0058 -0.4877
  812MPD2    C511955   0.634   3.255  12.033  0.0888 -0.7635  0.2679
  812MPD2     H11956   0.399   3.304  12.326  1.4657  1.3402  0.7197
  812MPD2    H111957   0.694   3.083  12.119  1.0270  0.4770  1.1910
  812MPD2    H211958   0.600   3.461  11.988  3.0666 -0.7489 -1.1110
  812MPD2    H311959   0.695   3.246  11.944  2.2413 -1.8134  1.8408
  812MPD2     N11960   0.514   3.080  12.340 -0.2747  0.1547 -0.5767
  812MPD2    H511961   0.447   3.096  12.414 -0.5486  1.2142 -1.0548
  812MPD2    N111962   0.431   3.527  12.171  0.3576  1.1840 -0.2183
  812MPD2    H711963   0.445   3.590  12.093 -1.2745  0.0836 -1.4003
  813MPD2     C11964   4.260   0.549  12.891  0.4547 -0.4351  0.0567
  813MPD2    C111965   4.208   0.638  12.799 -0.2653  0.1867 -0.3991
  813MPD2    C211966   4.079   0.619  12.757  0.4536  0.1056 -0.7357
  813MPD2    C311967   3.999   0.527  12.822  1.1084  0.0092 -0.9600
  813MPD2    C411968   4.049   0.445  12.921 -0.2403  0.5389 -0.2586
  813MPD2    C511969   4.186   0.448  12.941  0.1528  0.1332  0.2660
  813MPD2     H11970   4.035   0.687  12.685 -0.4899 -0.3365 -0.5761
  813MPD2    H111971   3.995   0.378  12.986  0.9317 -0.9173 -0.7742
  813MPD2    H211972   4.366   0.556  12.913  0.7778  1.6658 -2.1280
  813MPD2    H311973   4.228   0.378  13.012 -0.5549 -0.2097  0.3469
  813MPD2     N11974   3.872   0.515  12.769 -0.0140  0.8684 -0.0022
  813MPD2    H511975   3.849   0.598  12.715 -1.0209  0.8326  0.3583
  813MPD2    N111976   4.299   0.732  12.744 -0.5104  0.4465  0.6395
  813MPD2    H711977   4.395   0.734  12.776 -0.4469 -0.9627  0.5251
  814MPD2     C11978   0.003   1.855  12.131 -0.2607  0.0157  0.9631
  814MPD2    C111979   0.026   1.859  11.994 -0.3818  0.1175 -0.0281
  814MPD2    C211980   0.096   1.969  11.946  0.4613  0.8124  0.4332
  814MPD2    C311981   0.143   2.066  12.031 -0.6896  0.3264  0.4265
  814MPD2    C411982   0.125   2.060  12.169 -0.3258  0.1611  0.1484
  814MPD2    C511983   0.051   1.957  12.217 -0.2529  0.6680 -0.1085
  814MPD2     H11984   0.114   1.969  11.839  2.3058 -2.0295  0.7377
  814MPD2    H111985   0.183   2.126  12.233 -2.2445  1.9808  0.0179
  814MPD2    H211986   4.671   1.779  12.184 -1.2021 -0.2003 -0.3423
  814MPD2    H311987   0.032   1.942  12.323  1.1721 -2.0869 -0.2495
  814MPD2     N11988   0.217   2.176  11.980 -0.4194  0.3301 -0.4651
  814MPD2    H511989   0.240   2.242  12.053  2.3297  0.2043 -1.1933
  814MPD2    N111990   4.694   1.773  11.903 -0.1454  0.0872 -0.8506
  814MPD2    H711991   4.696   1.809  11.808  2.3533  0.1536 -0.7678
  815MPD2     C11992   0.797   4.706  12.010  0.5596 -0.4486  0.3300
  815MPD2    C111993   0.770   4.708  11.879 -0.7676 -0.2251  0.4016
  815MPD2    C211994   0.660   0.058  11.840 -0.3558  0.8905  0.3235
  815MPD2    C311995   0.569   0.114  11.929  0.0043  0.0004 -0.5636
  815MPD2    C411996   0.595   0.095  12.066  0.3724 -0.2886  0.2633
  815MPD2    C511997   0.715   0.042  12.098 -0.6946 -0.8742  0.0246
  815MPD2     H11998   0.646   0.064  11.732 -2.6932 -1.0177  0.4948
  815MPD2    H111999   0.532   0.122  12.150  0.0210 -2.7406  0.7836
  815MPD2    H212000   0.876   4.645  12.051  2.0815  2.7409  2.1605
  815MPD2    H312001   0.731   0.014  12.202 -2.3282  0.6501  0.6970
  815MPD2     N12002   0.454   0.173  11.880  0.0819  0.2709 -0.2006
  815MPD2    H512003   0.438   0.175  11.779  0.6662 -1.1777 -0.3188
  815MPD2    N112004   0.864   4.650  11.796  0.3040 -0.3894  0.0424
  815MPD2    H712005   0.933   4.595  11.846  0.7831  1.0073  0.9006
  816MPD2     C12006   4.716   4.225  16.803 -0.0205  0.2879 -0.1277
  816MPD2    C112007   0.009   4.351  16.752 -0.1699 -0.8276  0.3562
  816MPD2    C212008   0.121   4.379  16.672 -0.0236 -0.3428 -0.0543
  816MPD2    C312009   0.212   4.285  16.646  0.2496 -0.4008  0.3994
  816MPD2    C412010   0.191   4.159  16.695 -0.1409 -0.6281  0.0397
  816MPD2    C512011   0.085   4.135  16.770 -0.8473  0.2311  0.6609
  816MPD2     H12012   0.150   4.480  16.646  0.8215 -0.8745 -1.1837
  816MPD2    H112013   0.269   4.084  16.683  0.6392  0.6519 -2.8347
  816MPD2    H212014   4.632   4.196  16.865 -0.1740 -1.4094 -1.1209
  816MPD2    H312015   0.073   4.031  16.799  1.4904  0.3587  2.0947
  816MPD2     N12016   0.336   4.319  16.585  0.4986  0.2045 -0.5050
  816MPD2    H512017   0.352   4.419  16.586  1.9660 -0.0560  1.4031
  816MPD2    N112018   4.654   4.457  16.797 -0.6532 -0.4061 -0.0915
  816MPD2    H712019   4.573   4.419  16.847  1.2217 -2.8338  1.1317
  817MPD2     C12020   0.414   0.583   9.853 -0.1437 -0.1634 -0.0373
  817MPD2    C112021   0.512   0.598   9.761 -0.2359  0.5384 -0.0127
  817MPD2    C212022   0.520   0.719   9.685 -0.5100  0.2203  0.5478
  817MPD2    C312023   0.420   0.808   9.707 -0.4811 -0.0765  0.0911
  817MPD2    C412024   0.312   0.789   9.790  0.2325 -0.2317 -0.6439
  817MPD2    C512025   0.316   0.675   9.869 -0.7886 -0.0119  0.2820
  817MPD2     H12026   0.606   0.739   9.622 -0.0251  1.4641  1.6021
  817MPD2    H112027   0.225   0.852   9.804  0.9164  0.4608  0.5006
  817MPD2    H212028   0.410   0.503   9.925 -2.4589 -1.4361 -1.5674
  817MPD2    H312029   0.240   0.659   9.945 -0.6572 -1.8109  0.0250
  817MPD2     N12030   0.429   0.938   9.642  0.0879 -0.5920 -0.4206
  817MPD2    H512031   0.513   0.965   9.592 -0.4718  2.0276  0.0576
  817MPD2    N112032   0.597   0.484   9.722 -0.1364 -0.0936 -0.4850
  817MPD2    H712033   0.648   0.495   9.634 -0.2654  0.7246 -0.4536
  818MPD2     C12034   3.815   0.731   9.467  0.2343  0.7149  0.1885
  818MPD2    C112035   3.832   0.683   9.594 -0.0070  0.2882  0.0371
  818MPD2    C212036   3.929   0.591   9.616 -0.0800 -1.0029 -0.0830
  818MPD2    C312037   4.008   0.537   9.522 -0.0432  0.4113  0.6770
  818MPD2    C412038   3.995   0.587   9.392 -0.3042  0.3697 -0.0675
  818MPD2    C512039   3.901   0.687   9.370 -0.1754 -0.2837  0.4971
  818MPD2     H12040   3.929   0.560   9.720 -0.4884 -2.2838 -0.4625
  818MPD2    H112041   4.056   0.553   9.310 -0.9436  2.6249 -1.4852
  818MPD2    H212042   3.744   0.810   9.448 -1.1690 -0.8578 -0.9815
  818MPD2    H312043   3.895   0.734   9.273 -1.3104 -1.3854  0.0434
  818MPD2     N12044   4.104   0.434   9.544 -0.2926  0.0984 -0.1535
  818MPD2    H512045   4.151   0.397   9.462  0.8985 -3.0690  1.9578
  818MPD2    N112046   3.753   0.719   9.706  0.1263  0.0993  0.0449
  818MPD2    H712047   3.783   0.689   9.798 -1.4373  1.0701  0.8750
  819MPD2     C12048   1.703   3.225  15.161  0.2549  0.5925 -0.1352
  819MPD2    C112049   1.669   3.093  15.195 -0.2252  0.5108  0.1998
  819MPD2    C212050   1.756   3.026  15.277  0.0740  0.0553 -0.0104
  819MPD2    C312051   1.869   3.081  15.333  0.1590 -0.5461  0.1584
  819MPD2    C412052   1.908   3.210  15.301  0.1156 -0.1685 -0.5223
  819MPD2    C512053   1.819   3.278  15.211  0.5538 -0.2747 -0.1773
  819MPD2     H12054   1.746   2.920  15.297  3.7465 -0.5297 -1.2748
  819MPD2    H112055   1.991   3.267  15.341 -0.3414 -1.8538  2.7926
  819MPD2    H212056   1.635   3.283  15.099 -0.0499  0.4782  0.0917
  819MPD2    H312057   1.824   3.385  15.190  0.0700 -0.1091  0.5663
  819MPD2     N12058   1.934   3.002  15.431  0.6686  0.1591 -0.6168
  819MPD2    H512059   1.887   2.914  15.449  0.7903  0.0422 -0.8729
  819MPD2    N112060   1.549   3.037  15.150 -0.4106 -0.5049  1.0172
  819MPD2    H712061   1.513   3.070  15.061  0.7988  4.2510  2.2783
  820MPD2     C12062   0.857   2.796  14.492  0.1411  0.4144 -0.1744
  820MPD2    C112063   0.856   2.910  14.578  0.7566 -0.3633 -0.2840
  820MPD2    C212064   0.931   2.896  14.691 -0.3553  0.0283  0.4874
  820MPD2    C312065   0.994   2.782  14.727  0.0177 -0.1622  0.2880
  820MPD2    C412066   0.992   2.670  14.639  0.5682  0.4638  0.1155
  820MPD2    C512067   0.924   2.680  14.528 -0.3764  0.1140 -0.0682
  820MPD2     H12068   0.936   2.980  14.759  0.8842 -0.1046  0.5542
  820MPD2    H112069   1.045   2.578  14.663 -1.2523 -0.4565  0.6299
  820MPD2    H212070   0.798   2.803  14.400  2.0984 -0.2527 -1.4711
  820MPD2    H312071   0.910   2.598  14.458 -0.9404 -0.6546  0.9562
  820MPD2     N12072   1.064   2.761  14.855  0.3385  0.9475  0.7332
  820MPD2    H512073   1.113   2.674  14.870  4.4753  2.3820 -4.1856
  820MPD2    N112074   0.780   3.024  14.544  0.0268 -0.5650  0.7011
  820MPD2    H712075   0.713   3.007  14.470 -0.3301  1.7471  0.5132
  821MPD2     C12076   2.180   4.221  13.441  0.1331  0.0806 -0.1643
  821MPD2    C112077   2.286   4.154  13.501 -0.1669 -0.6864  0.0660
  821MPD2    C212078   2.408   4.146  13.437 -0.4493 -0.3671 -0.1114
  821MPD2    C312079   2.431   4.211  13.317 -0.4792 -0.5230  0.5192
  821MPD2    C412080   2.326   4.285  13.266 -0.2690 -0.7734  0.0025
  821MPD2    C512081   2.198   4.285  13.324  0.2009  0.8922 -0.4502
  821MPD2     H12082   2.492   4.108  13.494 -0.1505  1.3630  0.6045
  821MPD2    H112083   2.331   4.335  13.170  1.4815 -1.0225 -0.0437
  821MPD2    H212084   2.084   4.230  13.491  0.0026  0.8010 -0.5397
  821MPD2    H312085   2.119   4.338  13.274 -1.4685  0.2133  1.4710
  821MPD2     N12086   2.551   4.190  13.247  0.4198  0.2798 -0.9628
  821MPD2    H512087   2.559   4.261  13.175  0.5522 -0.0691 -1.2927
  821MPD2    N112088   2.275   4.097  13.630 -0.1788 -0.1424 -0.7949
  821MPD2    H712089   2.357   4.040  13.648 -0.3811  0.3927  1.8411
  822MPD2     C12090   2.641   4.405  15.494  0.0075 -0.1294 -0.4301
  822MPD2    C112091   2.674   4.365  15.625  0.6152 -0.7026  0.2095
  822MPD2    C212092   2.623   4.438  15.729 -0.0765 -0.4822 -0.0032
  822MPD2    C312093   2.543   4.555  15.704  0.3856 -0.8907  0.2821
  822MPD2    C412094   2.500   4.585  15.574 -0.0595 -0.2053  0.4253
  822MPD2    C512095   2.547   4.504  15.472 -0.9245  0.2401  0.3952
  822MPD2     H12096   2.655   4.425  15.832 -1.6041  0.9029  0.6372
  822MPD2    H112097   2.430   4.666  15.556 -0.5421 -0.9742 -1.2091
  822MPD2    H212098   2.691   4.359  15.410 -0.4433 -1.9654  0.2965
  822MPD2    H312099   2.523   4.533  15.370  1.2666 -0.4007 -0.3139
  822MPD2     N12100   2.504   4.637  15.811 -0.3973 -0.3777  0.0796
  822MPD2    H512101   2.527   4.609  15.906 -4.6187 -1.6747  0.6864
  822MPD2    N112102   2.761   4.257  15.653  0.0177 -0.1263 -0.1226
  822MPD2    H712103   2.789   4.244  15.750 -1.2892 -1.5430  0.0697
  823MPD2     C12104   2.281   0.077  16.632  0.5016  0.3808 -0.3122
  823MPD2    C112105   2.295   4.716  16.529  0.1486  0.2286  0.2608
  823MPD2    C212106   2.293   4.581  16.545  0.4225 -0.1509 -0.6420
  823MPD2    C312107   2.291   4.520  16.670 -0.6952 -0.6892 -0.7048
  823MPD2    C412108   2.277   4.608  16.775 -0.6677  0.5950  0.6487
  823MPD2    C512109   2.274   0.023  16.761  0.0727  0.7789  0.3400
  823MPD2     H12110   2.296   4.523  16.453 -2.1447  0.7882 -1.3280
  823MPD2    H112111   2.270   4.573  16.877  1.7882 -2.3656 -0.1932
  823MPD2    H212112   2.292   0.183  16.616 -1.1093  0.5792 -0.1414
  823MPD2    H312113   2.269   0.089  16.846 -0.0661  1.2043  0.0053
  823MPD2     N12114   2.298   4.382  16.693 -0.3029 -0.4265  0.3267
  823MPD2    H512115   2.297   4.357  16.792 -0.2664  1.7207  0.8523
  823MPD2    N112116   2.319   0.046  16.400  0.2339 -0.0998  0.1184
  823MPD2    H712117   2.349   0.143  16.405  1.2855 -0.4153 -0.2176
  824MPD2     C12118   2.807   3.401  15.519 -0.0686 -0.5088  0.4187
  824MPD2    C112119   2.933   3.456  15.540 -0.0158 -0.0823  0.1814
  824MPD2    C212120   3.043   3.372  15.538  0.2807 -0.5452  0.5728
  824MPD2    C312121   3.033   3.240  15.505 -0.5009  0.4281  0.7011
  824MPD2    C412122   2.911   3.184  15.493 -0.0707  0.2500 -0.7565
  824MPD2    C512123   2.808   3.266  15.488  0.6697  0.2683  0.3776
  824MPD2     H12124   3.143   3.409  15.555  0.0079  0.8815 -0.9021
  824MPD2    H112125   2.887   3.082  15.468  0.5036 -0.1050  0.1242
  824MPD2    H212126   2.726   3.472  15.528 -0.8999 -1.4823  0.5430
  824MPD2    H312127   2.710   3.223  15.467  2.0272 -2.2666 -0.8064
  824MPD2     N12128   3.144   3.160  15.492 -0.2513  0.3548  0.1115
  824MPD2    H512129   3.230   3.213  15.486  0.6495 -1.1191  0.1914
  824MPD2    N112130   2.956   3.593  15.566  0.4277 -0.0474  0.3706
  824MPD2    H712131   3.042   3.619  15.613  2.2005 -1.0497 -2.3268
  825MPD2     C12132   3.758   2.962  14.968 -1.0718  0.6354 -0.2040
  825MPD2    C112133   3.711   3.049  15.064  0.8028 -0.0470  0.6142
  825MPD2    C212134   3.730   3.187  15.035  0.2205  0.1452 -0.5768
  825MPD2    C312135   3.802   3.237  14.921  0.5617  0.4401 -0.1936
  825MPD2    C412136   3.846   3.141  14.832  0.2320  0.3998 -0.5925
  825MPD2    C512137   3.819   3.010  14.854 -0.3809 -0.6566 -0.1737
  825MPD2     H12138   3.682   3.249  15.110 -0.7328 -0.7304 -0.4470
  825MPD2    H112139   3.885   3.159  14.733  1.0933 -1.8032 -0.6659
  825MPD2    H212140   3.743   2.855  14.981 -1.8654  0.7096 -0.5217
  825MPD2    H312141   3.852   2.936  14.781  0.5409  1.4383 -1.8770
  825MPD2     N12142   3.815   3.376  14.879  0.0129  0.1931  0.6941
  825MPD2    H512143   3.875   3.384  14.797 -0.8895 -1.1178 -0.1148
  825MPD2    N112144   3.627   3.001  15.174  0.0454 -0.3110 -0.4671
  825MPD2    H712145   3.606   2.902  15.170 -0.1599 -0.2850  0.0286
  826MPD2     C12146   3.231   3.241  13.627  0.3330  0.2476  0.1104
  826MPD2    C112147   3.195   3.333  13.530 -0.5653 -0.7477  0.8367
  826MPD2    C212148   3.085   3.417  13.551 -0.0395 -0.1414 -0.7531
  826MPD2    C312149   3.026   3.413  13.679  0.5314 -0.5862 -0.1045
  826MPD2    C412150   3.069   3.326  13.781  0.1384  0.3530 -0.2264
  826MPD2    C512151   3.168   3.239  13.752  0.3931 -0.4094  0.0056
  826MPD2     H12152   3.038   3.481  13.477  2.5264 -0.6842 -2.8417
  826MPD2    H112153   3.032   3.320  13.883 -1.0154 -0.7501 -0.7051
  826MPD2    H212154   3.320   3.182  13.612  0.4823  0.8049 -1.1496
  826MPD2    H312155   3.201   3.173  13.831  0.6626 -0.1117  0.1375
  826MPD2     N12156   2.922   3.506  13.716  0.3804  0.3582 -0.0457
  826MPD2    H512157   2.902   3.513  13.815  0.9224  0.4683  0.0537
  826MPD2    N112158   3.272   3.336  13.407 -0.0479 -0.2597 -0.3238
  826MPD2    H712159   3.359   3.283  13.405 -0.1085 -0.3041 -1.8869
  827MPD2     C12160   0.144   4.401  10.064  0.2478  0.1367  0.8366
  827MPD2    C112161   0.010   4.409  10.077  0.6857 -0.5386  0.2358
  827MPD2    C212162   4.654   4.366   9.973  0.1688  0.2761  0.2141
  827MPD2    C312163   4.704   4.314   9.857 -0.5805  0.0558 -0.0195
  827MPD2    C412164   0.116   4.306   9.845  0.0031 -0.6014 -0.4752
  827MPD2    C512165   0.194   4.352   9.948  0.1691 -0.4774 -0.6691
  827MPD2     H12166   4.546   4.365   9.986  0.0960 -1.5850 -0.5828
  827MPD2    H112167   0.167   4.258   9.762 -0.0951 -1.0706 -0.2632
  827MPD2    H212168   0.216   4.428  10.140  0.2265 -0.2704  0.9970
  827MPD2    H312169   0.300   4.361   9.926  0.0063  1.8559 -0.4768
  827MPD2     N12170   4.602   4.274   9.763  0.2236 -0.2148 -0.1231
  827MPD2    H512171   4.505   4.292   9.787 -0.0421 -0.0062 -1.3808
  827MPD2    N112172   4.691   4.473  10.193 -0.2795  0.0067 -0.0105
  827MPD2    H712173   0.032   4.532  10.245 -1.1245  1.6820 -0.8545
  828MPD2     C12174   2.876   4.373  12.310  0.1214 -0.1837 -0.4536
  828MPD2    C112175   2.826   4.322  12.191  0.7194 -0.7733  0.3769
  828MPD2    C212176   2.926   4.303  12.097 -0.3041  1.2028  0.1076
  828MPD2    C312177   3.060   4.314  12.113 -0.1940  0.9020 -0.1242
  828MPD2    C412178   3.100   4.332  12.240 -0.2993 -0.0399  0.8674
  828MPD2    C512179   3.008   4.361  12.342 -0.5470  0.3162  0.1249
  828MPD2     H12180   2.896   4.273  11.998  1.2230  1.2867 -0.3863
  828MPD2    H112181   3.206   4.330  12.262 -0.5256 -1.5257  1.8493
  828MPD2    H212182   2.810   4.389  12.395 -1.0152 -0.9450 -1.1943
  828MPD2    H312183   3.044   4.389  12.440  0.2100  0.4544 -0.1912
  828MPD2     N12184   3.160   4.300  12.003 -0.1140 -0.1232  0.1616
  828MPD2    H512185   3.257   4.323  12.023 -0.1075  0.2978 -0.3449
  828MPD2    N112186   2.689   4.311  12.156  0.0129 -0.1630  0.1924
  828MPD2    H712187   2.671   4.288  12.059 -1.2126  1.2752  0.0833
  829MPD2     C12188   2.457   4.384  11.416 -0.6536  0.3907 -0.4119
  829MPD2    C112189   2.363   4.287  11.452  0.2272  0.1421  0.0621
  829MPD2    C212190   2.329   4.290  11.587 -0.1000 -0.0933  0.1488
  829MPD2    C312191   2.406   4.361  11.676  0.2724  0.0453  0.0912
  829MPD2    C412192   2.518   4.423  11.637  0.1617  0.7611  0.6282
  829MPD2    C512193   2.537   4.448  11.506  0.4960 -0.3885 -0.9386
  829MPD2     H12194   2.239   4.241  11.623  0.4466 -2.2621 -1.4397
  829MPD2    H112195   2.574   4.479  11.711 -1.0331  1.6300  0.8701
  829MPD2    H212196   2.484   4.406  11.314  1.9266  2.5767  0.7517
  829MPD2    H312197   2.613   4.518  11.474 -0.8640  1.4552 -0.1826
  829MPD2     N12198   2.379   4.358  11.813 -0.0331 -0.2985  0.1782
  829MPD2    H512199   2.443   4.413  11.869 -1.6388  1.5540  0.1786
  829MPD2    N112200   2.284   4.228  11.354 -0.2747  0.4400  0.1589
  829MPD2    H712201   2.300   4.254  11.257  0.6474  0.3513  0.2875
  830MPD2     C12202   2.219   2.358  15.872 -0.4917 -0.2732  0.0131
  830MPD2    C112203   2.147   2.406  15.766  0.8452  0.5309  0.1168
  830MPD2    C212204   2.185   2.371  15.636  0.0066 -0.0717 -0.4249
  830MPD2    C312205   2.300   2.298  15.613  0.9165 -0.2238 -0.9678
  830MPD2    C412206   2.360   2.244  15.720  0.2673  0.0700 -0.3039
  830MPD2    C512207   2.322   2.271  15.847  0.3061  0.0679  1.4728
  830MPD2     H12208   2.137   2.424  15.554  0.4352  0.8639 -0.0671
  830MPD2    H112209   2.447   2.184  15.695  1.1242  1.4623 -0.7100
  830MPD2    H212210   2.188   2.385  15.972  1.1662 -0.6821  0.6350
  830MPD2    H312211   2.372   2.218  15.928  1.2551  0.4673  1.1545
  830MPD2     N12212   2.362   2.275  15.486 -0.3597  0.1961  0.3100
  830MPD2    H512213   2.451   2.228  15.480  0.0754  1.0543  0.0553
  830MPD2    N112214   2.054   2.514  15.782 -0.1831  0.4192  0.3064
  830MPD2    H712215   2.051   2.556  15.875  2.3875  0.1209  0.5251
  831MPD2     C12216   2.786   4.585  16.248 -0.4493 -0.6923 -0.1948
  831MPD2    C112217   2.795   4.505  16.139 -0.0550  0.7865 -0.2733
  831MPD2    C212218   2.691   4.417  16.117  0.5861  0.0378 -0.1727
  831MPD2    C312219   2.573   4.413  16.204  0.3618 -0.1267 -0.4799
  831MPD2    C412220   2.574   4.496  16.312  0.5362 -0.3109  0.0429
  831MPD2    C512221   2.681   4.575  16.334  0.0522 -0.6938  1.0327
  831MPD2     H12222   2.696   4.366  16.021  1.3852 -0.0511 -0.0866
  831MPD2    H112223   2.483   4.513  16.369 -0.1465 -2.9882 -0.2365
  831MPD2    H212224   2.867   4.650  16.280 -0.5564  0.0177 -1.3612
  831MPD2    H312225   2.667   4.642  16.417  1.1849  2.1202 -1.0260
  831MPD2     N12226   2.461   4.341  16.175  0.1729 -0.6476 -1.0418
  831MPD2    H512227   2.380   4.343  16.236 -0.5829  0.6245 -2.0939
  831MPD2    N112228   2.916   4.500  16.062 -0.3927  0.2171  0.4641
  831MPD2    H712229   2.993   4.557  16.095 -0.1517  0.0096  0.2627
  832MPD2     C12230   0.978   0.520  16.730 -0.3583 -0.4326  0.8388
  832MPD2    C112231   0.951   0.649  16.727 -0.1720  0.0006  0.4303
  832MPD2    C212232   0.834   0.694  16.678  0.3644 -0.5114  0.8975
  832MPD2    C312233   0.758   0.601  16.605  0.8632 -0.0100  0.6590
  832MPD2    C412234   0.794   0.467  16.602 -0.2392 -0.0306 -0.4377
  832MPD2    C512235   0.900   0.423  16.675  0.5217 -0.0905 -0.0062
  832MPD2     H12236   0.830   0.801  16.667  3.5038 -0.5594 -0.5727
  832MPD2    H112237   0.727   0.396  16.554 -0.6833  0.3868 -0.4312
  832MPD2    H212238   1.072   0.491  16.776 -0.1279 -3.6678 -1.6277
  832MPD2    H312239   0.925   0.317  16.668 -1.5188 -0.4924 -1.3864
  832MPD2     N12240   0.640   0.633  16.541 -0.0350  0.1157 -0.4696
  832MPD2    H512241   0.587   0.555  16.505 -0.6239 -0.5374  1.8262
  832MPD2    N112242   1.048   0.733  16.790 -1.0739 -0.2070  0.1607
  832MPD2    H712243   1.134   0.689  16.819  0.0970  1.3338 -0.9983
  833MPD2     C12244   3.136   2.200  11.544  0.8268  0.8605  0.2401
  833MPD2    C112245   3.180   2.331  11.553  0.4772  0.4890 -0.0568
  833MPD2    C212246   3.259   2.389  11.460  0.4238  0.1233 -0.6770
  833MPD2    C312247   3.309   2.309  11.360 -0.3334  0.3099  0.2310
  833MPD2    C412248   3.280   2.174  11.356  0.5362 -0.1087 -0.4475
  833MPD2    C512249   3.192   2.126  11.444  0.5054  0.2638 -0.5193
  833MPD2     H12250   3.282   2.495  11.455 -0.0269  0.2502 -0.0437
  833MPD2    H112251   3.324   2.102  11.288 -1.0608  0.3883 -2.0209
  833MPD2    H212252   3.067   2.149  11.609  0.5337 -1.3061 -1.7685
  833MPD2    H312253   3.173   2.020  11.433  2.6449 -0.3826  1.9625
  833MPD2     N12254   3.418   2.356  11.282 -0.7469  0.6748 -0.0361
  833MPD2    H512255   3.458   2.300  11.207 -0.6985 -1.1087  1.3365
  833MPD2    N112256   3.114   2.404  11.654  0.5437  0.1415  0.2371
  833MPD2    H712257   3.042   2.357  11.710  1.9323 -2.3674 -0.0569
  834MPD2     C12258   3.722   2.132  10.533 -0.4684  0.1388  0.2734
  834MPD2    C112259   3.651   2.091  10.645 -0.8958 -0.4265  0.1437
  834MPD2    C212260   3.632   2.192  10.740 -0.0712 -0.7307 -0.5676
  834MPD2    C312261   3.665   2.324  10.726 -0.4761  0.5632  0.5465
  834MPD2    C412262   3.735   2.362  10.615  0.6811 -0.0789 -0.5941
  834MPD2    C512263   3.778   2.258  10.534 -0.5055 -0.1117 -0.1062
  834MPD2     H12264   3.583   2.162  10.831 -0.8110 -0.4383 -0.8668
  834MPD2    H112265   3.759   2.466  10.595  0.0560  0.1612 -0.0982
  834MPD2    H212266   3.746   2.064  10.452  0.1970 -0.2668  0.8168
  834MPD2    H312267   3.845   2.286  10.453  1.3397  0.5152  1.6556
  834MPD2     N12268   3.642   2.407  10.833 -0.2894  0.5792  0.0015
  834MPD2    H512269   3.581   2.364  10.902  0.3732 -1.4115 -0.6725
  834MPD2    N112270   3.619   1.955  10.664 -0.0446 -0.0037 -0.2198
  834MPD2    H712271   3.662   1.898  10.592 -0.6808 -1.2109  0.3652
  835MPD2     C12272   3.801   4.720  10.828 -1.3623 -0.2600 -0.4688
  835MPD2    C112273   3.688   0.040  10.889 -0.3244  0.4608  0.4145
  835MPD2    C212274   3.686   0.052  11.028 -0.4045 -0.1118 -0.7455
  835MPD2    C312275   3.798   0.032  11.106  0.8008 -0.3500 -0.0483
  835MPD2    C412276   3.911   4.717  11.037 -0.3596 -0.6630  1.4259
  835MPD2    C512277   3.914   4.689  10.907 -0.1321  0.1886  0.1632
  835MPD2     H12278   3.602   0.077  11.091 -2.1431 -2.6599 -2.0641
  835MPD2    H112279   3.999   4.698  11.097  1.2837 -1.2525 -1.1495
  835MPD2    H212280   3.803   4.694  10.723 -0.0294 -1.1449 -0.2390
  835MPD2    H312281   4.006   4.653  10.863 -0.3193 -0.8421  0.5962
  835MPD2     N12282   3.802   0.039  11.251 -0.8281 -0.1982  0.1670
  835MPD2    H512283   3.892   0.032  11.296 -0.8160 -2.7526 -0.2044
  835MPD2    N112284   3.561   0.067  10.825  0.5722 -0.1239 -0.2529
  835MPD2    H712285   3.485   0.094  10.886  0.8787  1.4416 -0.5578
  836MPD2     C12286   3.166   4.638  11.517  0.3625  0.5014  0.5111
  836MPD2    C112287   3.235   4.668  11.632  0.9109  0.0628 -0.7463
  836MPD2    C212288   3.174   4.658  11.758  0.1803  0.1749 -0.0964
  836MPD2    C312289   3.045   4.616  11.762  0.1532  0.0969 -0.2269
  836MPD2    C412290   2.975   4.598  11.651 -0.4115 -0.3606 -0.2903
  836MPD2    C512291   3.035   4.605  11.529 -0.0918  0.6779 -0.5008
  836MPD2     H12292   3.224   4.680  11.851 -3.3503  2.9747  1.1486
  836MPD2    H112293   2.871   4.568  11.657 -0.9175  0.5326 -4.3697
  836MPD2    H212294   3.210   4.633  11.418 -0.6407 -0.6543  0.1186
  836MPD2    H312295   2.989   4.582  11.433 -0.6047  0.6726 -0.2519
  836MPD2     N12296   2.966   4.612  11.885 -0.3933  0.2224 -0.6028
  836MPD2    H512297   2.874   4.569  11.878 -0.4712  0.3381 -0.2723
  836MPD2    N112298   3.376   4.695  11.624  0.6479 -0.0768 -0.5232
  836MPD2    H712299   3.407   4.696  11.528  2.1015  0.4634 -0.0443
  837MPD2     C12300   2.295   4.212   9.867  0.2166  0.4958  0.5639
  837MPD2    C112301   2.159   4.239   9.864 -0.0880  0.4005 -0.7685
  837MPD2    C212302   2.113   4.351   9.805 -0.3559 -0.0663 -0.7156
  837MPD2    C312303   2.195   4.445   9.754 -0.5911  0.1408 -0.3210
  837MPD2    C412304   2.330   4.422   9.761 -0.0445 -0.5042  0.0267
  837MPD2    C512305   2.377   4.305   9.810  0.1589 -0.0602 -0.5313
  837MPD2     H12306   2.005   4.360   9.796 -0.5179 -2.8032 -1.5001
  837MPD2    H112307   2.399   4.484   9.704 -0.1495  0.3795  0.8629
  837MPD2    H212308   2.344   4.126   9.910  0.4291 -0.0070 -0.6675
  837MPD2    H312309   2.483   4.286   9.805 -0.0857 -2.0526  1.8497
  837MPD2     N12310   2.137   4.549   9.678  0.0028  0.9286  0.5638
  837MPD2    H512311   2.038   4.565   9.691 -0.1209  0.2560  0.4286
  837MPD2    N112312   2.064   4.144   9.891 -0.1145  0.1623  0.4642
  837MPD2    H712313   1.965   4.165   9.891 -0.2706 -0.5505  0.0744
  838MPD2     C12314   0.395   3.182  11.671  0.4809 -0.5595  0.3837
  838MPD2    C112315   0.302   3.096  11.618  0.7979 -0.1448 -0.4785
  838MPD2    C212316   0.191   3.053  11.693 -0.3837  0.6711  0.0383
  838MPD2    C312317   0.170   3.105  11.813 -0.3671 -0.5685  0.6931
  838MPD2    C412318   0.259   3.196  11.865 -0.7242 -0.8637  0.0339
  838MPD2    C512319   0.366   3.237  11.792  0.4402 -0.2096  0.1466
  838MPD2     H12320   0.121   2.978  11.658 -0.9334  1.2523 -0.1182
  838MPD2    H112321   0.247   3.245  11.961 -1.8417 -0.1943 -0.4492
  838MPD2    H212322   0.480   3.215  11.613 -1.0180  1.6677 -0.5668
  838MPD2    H312323   0.438   3.307  11.833  0.9140 -0.8505  0.4042
  838MPD2     N12324   0.056   3.063  11.880  0.0620  0.2438  0.2101
  838MPD2    H512325   4.714   3.008  11.825 -1.2067 -1.1556  3.1286
  838MPD2    N112326   0.309   3.041  11.488 -0.2829 -0.3198  0.4706
  838MPD2    H712327   0.231   2.986  11.455 -0.4195  0.5269 -0.6425
  839MPD2     C12328   4.433   2.519  11.379  0.4548 -0.2400  0.8009
  839MPD2    C112329   4.543   2.444  11.331  0.1714 -1.4024  0.7842
  839MPD2    C212330   4.661   2.509  11.297 -0.5638 -0.0580  0.3015
  839MPD2    C312331   4.673   2.644  11.306  0.0915  0.5855  0.3225
  839MPD2    C412332   4.565   2.713  11.356 -0.3971 -1.0242  0.3782
  839MPD2    C512333   4.451   2.654  11.398  0.6503  0.2178  0.3239
  839MPD2     H12334   0.023   2.448  11.271  1.0101  1.9089  0.8151
  839MPD2    H112335   4.576   2.819  11.375 -0.0004 -1.0472  0.2733
  839MPD2    H212336   4.339   2.478  11.416 -0.4533  0.9307 -0.2006
  839MPD2    H312337   4.369   2.711  11.440  0.4436 -0.1365  0.4023
  839MPD2     N12338   0.069   2.713  11.280 -0.0549  0.4087 -0.1134
  839MPD2    H512339   0.073   2.813  11.297 -1.1618  0.2009  1.3782
  839MPD2    N112340   4.537   2.301  11.313  0.0304 -0.2484  0.9505
  839MPD2    H712341   4.624   2.268  11.273 -1.3205 -3.4015  0.5508
  840MPD2     C12342   0.317   0.128  10.515 -0.4867 -0.7661  0.0042
  840MPD2    C112343   0.246   0.064  10.614 -0.2734 -0.3865  0.8692
  840MPD2    C212344   0.276   0.090  10.743  0.1531 -0.2390  0.0264
  840MPD2    C312345   0.380   0.180  10.774  0.4763 -0.0894 -0.6271
  840MPD2    C412346   0.447   0.244  10.675 -0.0567 -0.1029  0.1214
  840MPD2    C512347   0.417   0.211  10.549 -0.3563  0.2236 -0.9414
  840MPD2     H12348   0.230   0.030  10.821 -0.2348 -1.4121 -1.1034
  840MPD2    H112349   0.512   0.331  10.679 -0.7175  0.3226  1.5805
  840MPD2    H212350   0.292   0.121  10.410  2.9109  2.7315 -1.0058
  840MPD2    H312351   0.467   0.264  10.469  1.0309  1.0141  0.4490
  840MPD2     N12352   0.434   0.206  10.907  0.3765 -1.2470  0.4842
  840MPD2    H512353   0.523   0.254  10.917 -0.1348  0.0319 -1.1518
  840MPD2    N112354   0.137   4.704  10.569 -0.1137 -0.2518 -0.2815
  840MPD2    H712355   0.122   4.685  10.470  0.1001  0.1974 -0.4004
  841MPD2     C12356   4.177   4.413  14.975  0.2685  0.5505 -0.0587
  841MPD2    C112357   4.140   4.420  14.841  0.3764  0.3917 -0.3224
  841MPD2    C212358   4.122   4.548  14.788 -0.1666  0.3058  0.0241
  841MPD2    C312359   4.123   4.667  14.868  0.7730  1.2579 -0.0746
  841MPD2    C412360   4.156   4.649  15.003  0.2204 -0.6653  0.1443
  841MPD2    C512361   4.177   4.525  15.053  0.0135  0.4503  0.5026
  841MPD2     H12362   4.099   4.555  14.683  0.1241  0.5421 -0.0253
  841MPD2    H112363   4.165   0.014  15.064  1.1828  0.2060 -1.2482
  841MPD2    H212364   4.195   4.318  15.023  0.0060  0.0272 -0.9961
  841MPD2    H312365   4.195   4.514  15.159 -0.9925  0.0966  0.6435
  841MPD2     N12366   4.089   0.063  14.806 -0.1518  0.1210  0.1728
  841MPD2    H512367   4.086   0.065  14.704  0.0740 -0.4976  0.1566
  841MPD2    N112368   4.134   4.305  14.763  0.2544 -0.1793  0.5205
  841MPD2    H712369   4.096   4.323  14.671  0.7216  1.7186  0.7031
  842MPD2     C12370   0.193   1.279  16.208  0.1634 -0.6504 -0.1764
  842MPD2    C112371   0.093   1.193  16.246  0.2576 -0.4060  0.0867
  842MPD2    C212372   0.102   1.141  16.369  0.7461 -0.4652 -0.1121
  842MPD2    C312373   0.198   1.179  16.461 -0.2538  0.1581  0.5399
  842MPD2    C412374   0.294   1.271  16.423  0.3204  0.4143  0.0611
  842MPD2    C512375   0.290   1.316  16.296  0.1335 -0.9526  0.6340
  842MPD2     H12376   0.021   1.079  16.406  1.9611 -1.6623  0.5438
  842MPD2    H112377   0.371   1.313  16.487 -1.6727  1.8698  1.4891
  842MPD2    H212378   0.199   1.323  16.109  2.4973 -2.8641 -1.0159
  842MPD2    H312379   0.362   1.385  16.255  0.1868 -0.2616  1.8904
  842MPD2     N12380   0.194   1.147  16.597  0.2800  0.5195  0.0374
  842MPD2    H512381   0.258   1.202  16.653 -2.0419 -0.6318  3.8581
  842MPD2    N112382   4.705   1.176  16.159  0.7340 -0.2273 -0.5546
  842MPD2    H712383   4.695   1.255  16.096 -0.3376  0.9537  1.1035
  843MPD2     C12384   1.729   1.955  17.250 -0.3526  0.0597 -0.7679
  843MPD2    C112385   1.767   1.967  17.380 -0.2077 -0.2398 -0.1627
  843MPD2    C212386   1.851   2.073  17.416 -0.7286  0.1612 -0.0257
  843MPD2    C312387   1.893   2.162  17.325 -0.9726  0.3733  0.3451
  843MPD2    C412388   1.862   2.147  17.197  0.1311  0.0732 -0.4643
  843MPD2    C512389   1.779   2.048  17.161 -0.0956  0.1921 -0.4053
  843MPD2     H12390   1.863   2.096  17.521  3.3721 -1.4707 -0.1414
  843MPD2    H112391   1.905   2.214  17.124 -0.0195 -0.4930 -1.0792
  843MPD2    H212392   1.676   1.876  17.198  0.0781 -0.4229 -0.4798
  843MPD2    H312393   1.758   2.047  17.055  1.9065 -0.2271 -0.8008
  843MPD2     N12394   1.976   2.277  17.356 -0.8413 -0.9476 -0.1105
  843MPD2    H512395   2.010   2.330  17.276  0.0420 -1.0891  0.1735
  843MPD2    N112396   1.714   1.880  17.475  0.1902 -0.0196 -0.5351
  843MPD2    H712397   1.661   1.806  17.429  0.3207 -0.2796 -0.2729
  844MPD2     C12398   0.583   0.509  16.003 -0.2391 -0.1947 -0.7397
  844MPD2    C112399   0.712   0.458  16.004  0.1009  0.3600 -0.5681
  844MPD2    C212400   0.805   0.517  16.082  0.1236 -0.2193 -1.3828
  844MPD2    C312401   0.782   0.631  16.153  0.0083 -0.2437  0.5051
  844MPD2    C412402   0.656   0.685  16.145  0.4110  0.4931 -0.3888
  844MPD2    C512403   0.561   0.629  16.062 -0.3989  0.3327 -0.5493
  844MPD2     H12404   0.904   0.476  16.069  0.0635 -0.4740 -1.0463
  844MPD2    H112405   0.628   0.779  16.191  0.1225 -0.7121  1.8894
  844MPD2    H212406   0.509   0.448  15.951 -0.6117 -0.9650  0.6778
  844MPD2    H312407   0.461   0.666  16.044  0.7282  3.0890 -1.1631
  844MPD2     N12408   0.892   0.680  16.229 -0.0193 -0.6876 -0.4163
  844MPD2    H512409   0.976   0.623  16.231  1.0728  0.9821  1.0031
  844MPD2    N112410   0.757   0.346  15.935  0.3091  0.0800 -0.1582
  844MPD2    H712411   0.856   0.326  15.932 -0.2460 -2.6385 -0.6578
  845MPD2     C12412   1.084   1.564  16.695  0.7123  0.1211  0.1476
  845MPD2    C112413   0.983   1.475  16.718  0.2732  0.1979 -0.1331
  845MPD2    C212414   0.988   1.341  16.659  0.4197 -0.3280 -0.0064
  845MPD2    C312415   1.104   1.300  16.593 -0.4397  0.4124 -0.1381
  845MPD2    C412416   1.199   1.394  16.566  0.3418  0.2219 -1.2907
  845MPD2    C512417   1.193   1.520  16.618 -0.3370 -0.1267  0.4060
  845MPD2     H12418   0.905   1.271  16.655  0.4003 -0.3574  0.8712
  845MPD2    H112419   1.285   1.365  16.507 -0.4367 -0.3448 -2.1484
  845MPD2    H212420   1.078   1.670  16.718  2.8472 -0.4111  3.1570
  845MPD2    H312421   1.279   1.581  16.596  1.0184 -3.2321 -2.9884
  845MPD2     N12422   1.100   1.173  16.529 -0.7330 -0.6195  0.7343
  845MPD2    H512423   1.013   1.121  16.530 -1.2444  0.2672  2.3410
  845MPD2    N112424   0.868   1.520  16.782 -0.1991 -0.0026  0.1215
  845MPD2    H712425   0.848   1.619  16.785  0.4726  0.1479 -0.2800
  846MPD2     C12426   2.417   1.951  13.342  0.7005 -0.1334 -0.2116
  846MPD2    C112427   2.296   2.013  13.356  0.3919  0.2575  1.0651
  846MPD2    C212428   2.212   1.971  13.459  0.3157 -0.1506  0.7996
  846MPD2    C312429   2.259   1.896  13.563  0.1398 -0.0899 -0.3751
  846MPD2    C412430   2.391   1.861  13.553 -0.7078 -0.1500  0.4655
  846MPD2    C512431   2.464   1.876  13.437 -0.1569  0.0351 -0.2472
  846MPD2     H12432   2.116   2.020  13.473  0.3063 -0.0583  0.4106
  846MPD2    H112433   2.446   1.808  13.629  0.3914  1.1135  0.5583
  846MPD2    H212434   2.492   1.980  13.269  0.5788  0.6472 -0.0313
  846MPD2    H312435   2.567   1.842  13.438  0.0844  0.8753  2.4916
  846MPD2     N12436   2.170   1.858  13.673  0.2114  0.1523 -0.4782
  846MPD2    H512437   2.074   1.890  13.663  0.5686  1.2619 -0.2868
  846MPD2    N112438   2.250   2.120  13.280 -0.0530  0.0677  0.3808
  846MPD2    H712439   2.166   2.173  13.304  0.2826  0.9749 -0.4661
  847MPD2     C12440   2.338   2.827  14.059  0.0226 -0.1798  0.8960
  847MPD2    C112441   2.454   2.855  14.132 -0.4660 -0.4452 -0.4607
  847MPD2    C212442   2.548   2.759  14.152  0.7257  0.2776  0.2379
  847MPD2    C312443   2.515   2.628  14.128  0.4820  0.2382  0.3634
  847MPD2    C412444   2.402   2.592  14.062 -0.0694  0.5139 -0.0314
  847MPD2    C512445   2.321   2.695  14.020  0.8949  1.0579  0.0622
  847MPD2     H12446   2.640   2.783  14.205  2.7999 -0.8499 -2.9052
  847MPD2    H112447   2.383   2.491  14.027 -0.8566 -0.5433  3.4810
  847MPD2    H212448   2.259   2.897  14.035 -0.2201 -0.6040  0.4672
  847MPD2    H312449   2.231   2.678  13.963  0.7466  2.4630 -0.1089
  847MPD2     N12450   2.600   2.531  14.179 -0.4044  0.0504  0.5711
  847MPD2    H512451   2.683   2.569  14.225 -0.9363  0.9820  0.7745
  847MPD2    N112452   2.490   2.981  14.181  1.0970 -0.2110  0.0111
  847MPD2    H712453   2.575   2.991  14.236  1.2141  0.1674 -0.2357
  848MPD2     C12454   0.257   1.023  15.922 -0.1060  0.1699 -0.7443
  848MPD2    C112455   0.346   1.058  16.017 -0.7055  0.0686  0.1369
  848MPD2    C212456   0.423   1.167  15.979  0.2098  0.1234 -0.1321
  848MPD2    C312457   0.400   1.238  15.864  0.0326  0.5366 -0.6381
  848MPD2    C412458   0.324   1.184  15.766 -0.3828 -0.2005 -0.2013
  848MPD2    C512459   0.248   1.079  15.800 -0.9897  0.5056 -0.0885
  848MPD2     H12460   0.504   1.196  16.046 -0.1567  0.1788  0.2892
  848MPD2    H112461   0.307   1.227  15.667 -0.6564 -1.8842 -0.8775
  848MPD2    H212462   0.184   0.946  15.940  2.0315 -1.8830 -0.8339
  848MPD2    H312463   0.184   1.047  15.719 -1.7697  0.0615  0.7030
  848MPD2     N12464   0.467   1.359  15.830 -0.6496 -0.2524  0.1586
  848MPD2    H512465   0.453   1.390  15.734 -1.3957  0.2412  0.4231
  848MPD2    N112466   0.344   1.008  16.149  0.4360  0.1894  0.0151
  848MPD2    H712467   0.386   1.068  16.219  2.4203 -2.2926  0.9425
  849MPD2     C12468   4.553   0.804  13.522 -0.5949 -0.3493 -0.3690
  849MPD2    C112469   4.680   0.771  13.564 -0.2551  0.6344 -0.5123
  849MPD2    C212470   4.695   0.642  13.611 -0.2968  0.0097 -0.1033
  849MPD2    C312471   4.582   0.569  13.639 -0.1545 -1.0164  0.4958
  849MPD2    C412472   4.452   0.608  13.606 -0.2348  0.0085 -0.0984
  849MPD2    C512473   4.442   0.724  13.543  0.1382 -0.3572 -0.0495
  849MPD2     H12474   0.065   0.597  13.642  0.3250  1.9322  0.8498
  849MPD2    H112475   4.367   0.548  13.636  0.9813 -1.3905  0.5890
  849MPD2    H212476   4.528   0.897  13.472  2.1974  0.2383 -0.6232
  849MPD2    H312477   4.343   0.767  13.532  1.0757  1.4208 -1.5598
  849MPD2     N12478   4.613   0.459  13.728  0.0307 -0.4906  0.9869
  849MPD2    H512479   4.713   0.452  13.743  0.4932  1.2785 -1.4113
  849MPD2    N112480   0.057   0.871  13.539  0.1383  0.0043 -0.0898
  849MPD2    H712481   0.036   0.962  13.498 -1.9579 -0.0656  0.8553
  850MPD2     C12482   2.788   3.438  14.750 -0.0042  0.1474 -0.1840
  850MPD2    C112483   2.696   3.515  14.813 -0.6883  0.1598  0.5613
  850MPD2    C212484   2.699   3.650  14.795 -0.0038 -0.5116 -0.3690
  850MPD2    C312485   2.825   3.695  14.763  0.3181 -0.0409  0.1710
  850MPD2    C412486   2.924   3.612  14.714 -0.4414 -0.2820 -0.3050
  850MPD2    C512487   2.901   3.482  14.697 -0.1788  0.1840  0.0280
  850MPD2     H12488   2.617   3.719  14.813  0.6154  0.4249 -1.1413
  850MPD2    H112489   3.018   3.650  14.675 -1.4862  1.1617 -1.4180
  850MPD2    H212490   2.769   3.331  14.760 -2.2852  0.7889  2.2859
  850MPD2    H312491   2.969   3.425  14.636 -0.8029  1.6983 -2.0707
  850MPD2     N12492   2.852   3.833  14.743 -0.3692  0.2314 -0.6460
  850MPD2    H512493   2.948   3.855  14.719 -0.1416 -1.5413 -1.3390
  850MPD2    N112494   2.580   3.445  14.851  0.0226 -0.8777 -0.4771
  850MPD2    H712495   2.581   3.345  14.832  1.8448 -1.1060  0.8107
  851MPD2     C12496   2.734   3.005  15.261 -0.2555  0.8343  0.3711
  851MPD2    C112497   2.615   2.974  15.197 -0.0891  0.2105  0.2627
  851MPD2    C212498   2.583   2.845  15.161  0.1973 -0.2060 -0.4016
  851MPD2    C312499   2.673   2.749  15.184 -0.3439 -0.0996  1.1121
  851MPD2    C412500   2.800   2.778  15.226  0.4494 -0.7060  1.2786
  851MPD2    C512501   2.830   2.909  15.266 -0.7294 -0.3308 -0.6304
  851MPD2     H12502   2.492   2.814  15.112 -0.5014 -1.0925  1.4530
  851MPD2    H112503   2.870   2.696  15.239  1.8104 -0.1988 -2.7858
  851MPD2    H212504   2.768   3.106  15.281 -0.2107  0.7666  0.6366
  851MPD2    H312505   2.930   2.930  15.301 -0.8504 -1.4117  0.3502
  851MPD2     N12506   2.629   2.624  15.148  0.2051 -0.1962 -0.1376
  851MPD2    H512507   2.535   2.617  15.110  0.6194 -0.0468 -1.2140
  851MPD2    N112508   2.529   3.084  15.168  0.2586  0.3873  0.0185
  851MPD2    H712509   2.569   3.177  15.170  0.6873  0.2349 -0.9232
  852MPD2     C12510   1.792   0.694  10.046  0.1866  1.4888  0.1713
  852MPD2    C112511   1.889   0.635  10.119 -0.4886 -0.6345  0.7860
  852MPD2    C212512   2.014   0.694  10.132 -0.0650  0.1558  0.3484
  852MPD2    C312513   2.047   0.791  10.046  0.5887 -0.0120 -0.8681
  852MPD2    C412514   1.950   0.855   9.963 -0.4349 -0.5148 -0.0955
  852MPD2    C512515   1.824   0.806   9.969  0.1230  0.5263 -0.1261
  852MPD2     H12516   2.084   0.654  10.204  0.0942 -0.5156 -0.1765
  852MPD2    H112517   1.970   0.942   9.901  1.7363 -1.4289 -0.6717
  852MPD2    H212518   1.689   0.661  10.049 -0.5527  3.6275 -1.4199
  852MPD2    H312519   1.745   0.853   9.911 -1.0446 -1.7167 -0.3674
  852MPD2     N12520   2.181   0.838  10.045  0.1432  0.5204  0.4155
  852MPD2    H512521   2.247   0.787  10.103 -0.8918  0.4203  1.4983
  852MPD2    N112522   1.861   0.517  10.196 -0.1279  0.3753 -0.1090
  852MPD2    H712523   1.940   0.481  10.248  0.3861  1.1719 -0.3245
  853MPD2     C12524   4.066   0.842  11.810 -0.2014 -0.2866  0.1485
  853MPD2    C112525   4.010   0.951  11.751  0.3962 -0.9478 -0.5323
  853MPD2    C212526   4.071   1.007  11.641 -0.1020  0.3112 -0.0884
  853MPD2    C312527   4.192   0.960  11.600 -0.3455 -0.5325  0.6328
  853MPD2    C412528   4.251   0.845  11.652 -0.2343 -0.2671  0.5728
  853MPD2    C512529   4.187   0.790  11.763  0.0049 -0.6550 -0.3746
  853MPD2     H12530   4.023   1.093  11.596  1.1187  2.5468  2.9312
  853MPD2    H112531   4.348   0.809  11.621  1.1791  3.6192  0.4252
  853MPD2    H212532   4.019   0.790  11.892 -1.8398 -1.8248 -1.7682
  853MPD2    H312533   4.221   0.700  11.813  0.4237 -0.9606 -1.2194
  853MPD2     N12534   4.270   1.019  11.494  0.8229  0.1092 -0.0056
  853MPD2    H512535   4.368   0.991  11.490  1.1848  1.0861  1.9878
  853MPD2    N112536   3.887   0.989  11.803  0.5257  0.0876 -0.4406
  853MPD2    H712537   3.847   0.928  11.874  0.4972  1.5690  0.8274
  854MPD2     C12538   0.923   1.339  12.691  0.6473  0.4322  0.8273
  854MPD2    C112539   1.026   1.359  12.600  0.5909 -0.5710  0.2640
  854MPD2    C212540   1.134   1.271  12.600 -0.1052  0.0271 -0.1089
  854MPD2    C312541   1.137   1.186  12.711  0.1047 -0.3167  1.1175
  854MPD2    C412542   1.037   1.173  12.799 -0.3934  0.5902 -0.3116
  854MPD2    C512543   0.926   1.255  12.797 -0.0861  0.5835  0.5169
  854MPD2     H12544   1.224   1.289  12.541  0.4044 -0.1198  0.6175
  854MPD2    H112545   1.041   1.108  12.885 -0.4679 -1.3394 -1.7704
  854MPD2    H212546   0.841   1.407  12.678  0.6074  0.1646 -0.3682
  854MPD2    H312547   0.840   1.247  12.863 -0.6247  1.1836 -0.1068
  854MPD2     N12548   1.252   1.109  12.743  0.0780  0.9096 -0.2297
  854MPD2    H512549   1.243   1.061  12.832  2.0990  0.4643 -0.2582
  854MPD2    N112550   1.023   1.467  12.514  0.7300 -0.3505 -0.6083
  854MPD2    H712551   0.938   1.521  12.526  1.1274 -0.0365  0.8049
  855MPD2     C12552   1.633   1.130  13.528 -0.4697  0.5494  0.1926
  855MPD2    C112553   1.595   0.998  13.505  0.2227 -0.0276 -0.5454
  855MPD2    C212554   1.574   0.952  13.374  0.1677 -0.2853 -0.5054
  855MPD2    C312555   1.589   1.043  13.269  0.2092  0.0743 -0.2095
  855MPD2    C412556   1.626   1.171  13.294  0.4227  0.2351 -0.1101
  855MPD2    C512557   1.644   1.217  13.418 -0.4300  0.1649 -0.8324
  855MPD2     H12558   1.547   0.847  13.366 -1.9565 -0.1467  4.2943
  855MPD2    H112559   1.631   1.249  13.218  0.6449  0.4574  0.1336
  855MPD2    H212560   1.660   1.166  13.627 -0.2697 -0.7936  0.6237
  855MPD2    H312561   1.667   1.321  13.433  3.1316 -0.5826 -1.0681
  855MPD2     N12562   1.580   1.012  13.130  0.1998 -0.6293  0.1397
  855MPD2    H512563   1.616   1.077  13.061  2.2659 -3.6994 -1.6578
  855MPD2    N112564   1.574   0.904  13.614  0.7014  0.4733  0.6184
  855MPD2    H712565   1.548   0.809  13.593 -2.2402  0.6672  3.2928
  856MPD2     C12566   2.995   2.154  13.655  0.4148 -0.3748  0.5905
  856MPD2    C112567   3.052   2.190  13.780 -0.6313 -0.1698 -0.0274
  856MPD2    C212568   3.030   2.307  13.846 -0.1939  0.5007  0.1383
  856MPD2    C312569   2.934   2.387  13.780 -0.0061 -0.2264  0.4242
  856MPD2    C412570   2.864   2.352  13.665  0.3628 -0.1195 -0.4068
  856MPD2    C512571   2.907   2.242  13.598  0.0873 -0.4492 -0.3500
  856MPD2     H12572   3.067   2.335  13.945 -0.1143 -0.1077  0.2787
  856MPD2    H112573   2.787   2.412  13.618  1.3629  0.7845 -0.9014
  856MPD2    H212574   3.005   2.058  13.604 -2.4256 -0.2680 -0.1933
  856MPD2    H312575   2.849   2.208  13.513  0.8835 -0.5556 -0.8478
  856MPD2     N12576   2.895   2.506  13.842 -0.2498 -0.2742  0.5026
  856MPD2    H512577   2.823   2.556  13.792  0.4667 -1.5447 -1.8178
  856MPD2    N112578   3.140   2.102  13.846  0.0576 -0.0667  0.0192
  856MPD2    H712579   3.186   2.135  13.930 -0.8785  0.8552  0.1798
  857MPD2     C12580   0.134   3.819  12.979  0.5714 -0.1013 -0.1884
  857MPD2    C112581   0.248   3.847  12.901  0.2691  0.1510  0.3944
  857MPD2    C212582   0.293   3.979  12.887 -0.2536  0.1290 -0.4233
  857MPD2    C312583   0.241   4.081  12.964  0.1751 -0.1465 -0.5355
  857MPD2    C412584   0.136   4.045  13.045 -0.3585  0.4780  0.2866
  857MPD2    C512585   0.086   3.913  13.061  0.6968 -0.2244 -0.3429
  857MPD2     H12586   0.371   4.007  12.817  2.5397 -3.1488  1.3961
  857MPD2    H112587   0.084   4.120  13.104  0.7185  2.0819 -0.8015
  857MPD2    H212588   0.099   3.716  12.979  2.3358 -0.6889 -0.5111
  857MPD2    H312589   0.002   3.903  13.129  0.7907 -0.3783 -0.2502
  857MPD2     N12590   0.291   4.215  12.945  0.0245  0.1332  0.5771
  857MPD2    H512591   0.370   4.218  12.881 -1.3841 -1.4477 -1.2428
  857MPD2    N112592   0.301   3.739  12.830 -0.0601  0.3303 -0.1798
  857MPD2    H712593   0.274   3.644  12.853  1.3413  0.3919  1.7953
  858MPD2     C12594   0.788   3.819  16.228  0.1125 -0.6401  0.4314
  858MPD2    C112595   0.894   3.751  16.294  0.0800 -0.3142  0.6509
  858MPD2    C212596   0.914   3.787  16.424  0.6310 -0.6736  0.2700
  858MPD2    C312597   0.819   3.871  16.490 -0.6387  0.7668  0.1100
  858MPD2    C412598   0.709   3.916  16.423 -0.4651  0.2015 -0.3995
  858MPD2    C512599   0.696   3.887  16.296  0.2094  1.0161  0.5503
  858MPD2     H12600   0.994   3.730  16.470  3.0649  0.9072 -2.0524
  858MPD2    H112601   0.639   3.979  16.478  0.7901  0.5176  0.8435
  858MPD2    H212602   0.769   3.801  16.123 -0.5051 -2.9310  0.9222
  858MPD2    H312603   0.608   3.922  16.244  1.7304  1.4394 -1.7195
  858MPD2     N12604   0.831   3.923  16.623 -0.1826  0.1525  0.9094
  858MPD2    H512605   0.757   3.978  16.664 -1.6168  0.1164 -1.5831
  858MPD2    N112606   0.976   3.656  16.226  0.5091 -0.2922 -0.1705
  858MPD2    H712607   1.053   3.616  16.279 -1.5095 -0.9483  2.2443
  859MPD2     C12608   4.299   0.404  15.390  0.1446  0.4232 -0.0339
  859MPD2    C112609   4.325   0.419  15.252 -0.2774 -0.6167  0.7084
  859MPD2    C212610   4.382   0.314  15.187  0.2903  0.0794 -0.5306
  859MPD2    C312611   4.413   0.194  15.253  0.7898 -0.4779  1.0738
  859MPD2    C412612   4.399   0.184  15.385 -0.4988  0.5789  0.2224
  859MPD2    C512613   4.334   0.285  15.450 -0.5647 -0.4678 -0.2367
  859MPD2     H12614   4.398   0.332  15.082 -0.6025 -2.6402 -1.1238
  859MPD2    H112615   4.433   0.096  15.438  2.6365  1.2299 -0.7039
  859MPD2    H212616   4.241   0.479  15.444 -0.8033 -0.1126 -0.3142
  859MPD2    H312617   4.333   0.280  15.559 -3.0975 -0.6077 -0.2543
  859MPD2     N12618   4.455   0.080  15.186 -0.3877 -0.9779 -0.4747
  859MPD2    H512619   4.481   0.006  15.251  1.6373  1.6064  1.6708
  859MPD2    N112620   4.299   0.538  15.181  0.4229 -0.7875  0.0892
  859MPD2    H712621   4.343   0.552  15.090 -1.5952  0.7512 -0.6265
  860MPD2     C12622   2.290   0.466  11.348  0.4396 -0.3345 -0.0579
  860MPD2    C112623   2.187   0.441  11.442  0.0081 -0.6783 -0.5832
  860MPD2    C212624   2.118   0.543  11.499  0.5532  0.1653  0.0367
  860MPD2    C312625   2.147   0.676  11.472 -0.3453 -1.1590  0.5163
  860MPD2    C412626   2.242   0.705  11.381  0.0711  0.1309  0.1054
  860MPD2    C512627   2.312   0.606  11.313  0.1239  0.0383 -0.1435
  860MPD2     H12628   2.034   0.523  11.565  1.5168  1.1406  1.5591
  860MPD2    H112629   2.274   0.805  11.355  0.4989 -0.0316 -0.0010
  860MPD2    H212630   2.358   0.394  11.303  0.7502 -0.2227  0.2334
  860MPD2    H312631   2.382   0.641  11.238  0.8040  3.3098  2.0294
  860MPD2     N12632   2.077   0.764  11.563 -0.0096  0.5453 -0.1240
  860MPD2    H512633   2.015   0.717  11.628 -0.2346  3.3059  1.6458
  860MPD2    N112634   2.163   0.304  11.475 -0.2039  0.3216 -0.1871
  860MPD2    H712635   2.229   0.245  11.426 -2.1386 -0.7723 -1.4689
  861MPD2     C12636   0.840   3.519  10.739 -0.1585  0.4756  0.7455
  861MPD2    C112637   0.845   3.621  10.836 -0.9968 -0.0424 -0.5463
  861MPD2    C212638   0.815   3.743  10.793 -0.7013  0.2400 -0.0002
  861MPD2    C312639   0.792   3.779  10.660 -0.2681 -0.0294 -0.2516
  861MPD2    C412640   0.803   3.678  10.568  0.4141  0.7102  0.9520
  861MPD2    C512641   0.822   3.548  10.606 -0.0707  0.1987  0.4693
  861MPD2     H12642   0.802   3.819  10.870 -0.7618  0.3241 -0.0938
  861MPD2    H112643   0.796   3.703  10.462 -0.7754 -0.6718  0.6911
  861MPD2    H212644   0.853   3.415  10.765 -0.0936  0.9373  2.5166
  861MPD2    H312645   0.814   3.478  10.522 -1.2749  0.1179  0.6485
  861MPD2     N12646   0.789   3.911  10.617  0.6901  0.4952  0.1418
  861MPD2    H512647   0.790   3.925  10.516  1.8112  1.6835  0.3272
  861MPD2    N112648   0.878   3.592  10.974  0.5267 -0.2737 -0.0546
  861MPD2    H712649   0.873   3.671  11.038  0.4591 -1.2516  1.1355
  862MPD2     C12650   0.692   4.149  10.025 -0.3793  1.0079  0.2796
  862MPD2    C112651   0.758   4.086  10.124 -0.0975  0.2169 -0.3637
  862MPD2    C212652   0.777   3.950  10.109 -0.0985 -0.9500  0.5944
  862MPD2    C312653   0.742   3.880   9.994  0.2108  0.1558  0.1348
  862MPD2    C412654   0.684   3.952   9.893  0.5483 -0.1531  0.1942
  862MPD2    C512655   0.657   4.088   9.909  0.6923 -0.0527  0.0507
  862MPD2     H12656   0.827   3.893  10.188 -1.4164  1.3777  3.1128
  862MPD2    H112657   0.667   3.904   9.797  0.6644 -0.3471  0.2721
  862MPD2    H212658   0.655   4.248  10.049  2.4277  2.2843 -0.5815
  862MPD2    H312659   0.613   4.148   9.830  0.1538 -0.3483  0.1269
  862MPD2     N12660   0.769   3.744   9.977  0.3371 -0.6418 -0.0219
  862MPD2    H512661   0.723   3.698   9.899 -1.1027  1.4190 -0.3705
  862MPD2    N112662   0.791   4.147  10.247  0.4919 -0.4270 -0.3352
  862MPD2    H712663   0.840   4.090  10.315 -3.2722 -1.8727  1.1727
  863MPD2     C12664   3.920   2.131  15.731  0.3278 -0.5136  0.6962
  863MPD2    C112665   3.999   2.244  15.750  0.1920  0.8275  0.1440
  863MPD2    C212666   4.067   2.257  15.867 -0.0506  0.3928 -0.7513
  863MPD2    C312667   4.049   2.172  15.971  0.4899  0.7957 -0.7581
  863MPD2    C412668   3.963   2.060  15.952 -0.3278 -0.3783 -0.0540
  863MPD2    C512669   3.896   2.046  15.836 -0.6881 -0.4649  0.2862
  863MPD2     H12670   4.117   2.353  15.879  0.3809 -0.1156  1.5893
  863MPD2    H112671   3.955   1.977  16.021  0.3696  0.6267  1.2316
  863MPD2    H212672   3.878   2.107  15.633  0.6626 -1.1773  0.7126
  863MPD2    H312673   3.835   1.956  15.828 -2.3946  0.4103  3.3398
  863MPD2     N12674   4.093   2.204  16.096 -0.3204  0.2479 -0.8543
  863MPD2    H512675   4.062   2.144  16.172 -1.5973 -0.1182 -1.6828
  863MPD2    N112676   4.018   2.347  15.651 -0.5800  0.2111  0.2085
  863MPD2    H712677   4.092   2.413  15.672 -0.6631  1.0691 -2.2824
  864MPD2     C12678   4.248   4.033  17.115  0.8918 -1.1251  0.1423
  864MPD2    C112679   4.275   3.927  17.037 -0.2476  0.0163  0.5188
  864MPD2    C212680   4.340   3.952  16.919 -0.8212  0.1988  1.0816
  864MPD2    C312681   4.353   4.084  16.872 -0.5918  0.1438 -0.1569
  864MPD2    C412682   4.303   4.180  16.953 -0.8793 -0.0100 -1.4592
  864MPD2    C512683   4.258   4.163  17.074  1.3465  0.5814  0.6599
  864MPD2     H12684   4.374   3.872  16.856  0.2771  0.3061  1.5462
  864MPD2    H112685   4.304   4.286  16.930 -0.1006 -0.4188 -3.3049
  864MPD2    H212686   4.211   4.003  17.212  1.2179 -0.5878  0.4287
  864MPD2    H312687   4.247   4.253  17.133 -0.8056 -0.8414  2.4028
  864MPD2     N12688   4.420   4.118  16.748  0.1934  0.1036 -0.0177
  864MPD2    H512689   4.418   4.215  16.717  1.0382 -0.1097 -0.7368
  864MPD2    N112690   4.242   3.799  17.074 -0.2263 -0.7679 -0.4165
  864MPD2    H712691   4.206   3.784  17.168  0.2384  1.1796  0.0712
  865MPD2     C12692   4.539   4.188  15.915  0.1054  0.1424 -0.0923
  865MPD2    C112693   4.521   4.127  16.033 -0.1692 -0.6852 -0.6089
  865MPD2    C212694   4.499   4.202  16.146  0.1074  0.6252  0.3236
  865MPD2    C312695   4.513   4.343  16.141  0.2499 -1.1613 -0.1790
  865MPD2    C412696   4.530   4.402  16.019 -0.0276 -0.0763 -0.5453
  865MPD2    C512697   4.541   4.328  15.905  0.3157 -0.0326  0.2817
  865MPD2     H12698   4.463   4.152  16.235 -1.9467  0.8540 -0.3691
  865MPD2    H112699   4.545   4.508  16.002 -2.3544  0.4889  0.9587
  865MPD2    H212700   4.559   4.129  15.826  0.4919  1.0878 -0.6379
  865MPD2    H312701   4.561   4.374  15.809 -1.2692 -2.0294 -0.9998
  865MPD2     N12702   4.499   4.433  16.250  0.6955 -0.0249  0.0108
  865MPD2    H512703   4.502   4.532  16.231  0.9728 -0.2084 -0.8826
  865MPD2    N112704   4.504   3.980  16.033  0.2783 -0.3800 -0.0509
  865MPD2    H712705   4.527   3.935  15.945 -1.6138  0.4654 -0.9715
  866MPD2     C12706   1.840   3.703  11.386 -0.1520  0.4306  0.1978
  866MPD2    C112707   1.853   3.717  11.249 -0.4127  0.6465  0.8496
  866MPD2    C212708   1.743   3.767  11.184  0.8592 -0.0035 -0.5136
  866MPD2    C312709   1.623   3.787  11.244  0.0359  0.4544 -0.4517
  866MPD2    C412710   1.617   3.778  11.381  0.1079 -0.2519  0.1356
  866MPD2    C512711   1.725   3.737  11.454  0.2876  0.0312  0.2830
  866MPD2     H12712   1.755   3.782  11.077 -1.8043 -1.5283 -1.0164
  866MPD2    H112713   1.524   3.808  11.429  1.0762  1.0847  1.1886
  866MPD2    H212714   1.927   3.679  11.446 -0.7626  0.7548  1.2033
  866MPD2    H312715   1.723   3.730  11.562 -4.0895  0.5030  0.2379
  866MPD2     N12716   1.511   3.819  11.174 -0.6287  0.5351 -0.2013
  866MPD2    H512717   1.421   3.833  11.219 -0.4141  0.2439  0.3148
  866MPD2    N112718   1.974   3.668  11.194  0.7833 -0.0412 -0.4399
  866MPD2    H712719   2.044   3.626  11.256  0.3212  0.2102  0.2515
  867MPD2     C12720   3.668   4.487  16.639  0.0155  0.6217 -0.0439
  867MPD2    C112721   3.683   4.491  16.774 -0.2155 -0.1391  0.3865
  867MPD2    C212722   3.602   4.581  16.851 -0.0372 -1.7219  0.3030
  867MPD2    C312723   3.503   4.648  16.787  0.3068 -0.3472  0.7035
  867MPD2    C412724   3.490   4.631  16.647  0.0973  0.4954 -0.5232
  867MPD2    C512725   3.579   4.564  16.571  0.1270 -0.0608 -0.1360
  867MPD2     H12726   3.606   4.583  16.959 -0.3585 -1.4509  0.3078
  867MPD2    H112727   3.410   4.682  16.596  1.0680  2.3477 -0.2166
  867MPD2    H212728   3.723   4.416  16.578  0.3363  0.2255  0.7060
  867MPD2    H312729   3.568   4.553  16.464 -2.2921 -0.4350  0.1619
  867MPD2     N12730   3.413   0.003  16.866  0.1480  0.8370  0.1089
  867MPD2    H512731   3.319   0.011  16.827  0.9670 -1.9735 -2.4790
  867MPD2    N112732   3.772   4.399  16.831  0.7312  0.3265  0.1176
  867MPD2    H712733   3.812   4.339  16.761 -0.2631  0.2709 -0.4020
  868MPD2     C12734   0.797   2.932  13.188 -0.0961  0.8707 -0.0300
  868MPD2    C112735   0.784   2.804  13.153  0.4929  0.2774  0.3067
  868MPD2    C212736   0.655   2.749  13.173  0.2020  0.1132 -0.4974
  868MPD2    C312737   0.561   2.818  13.236  0.2396 -0.2473  0.2372
  868MPD2    C412738   0.590   2.937  13.299 -0.1874 -1.4902  0.0064
  868MPD2    C512739   0.703   2.989  13.265  0.1201  0.0814  0.2678
  868MPD2     H12740   0.625   2.661  13.117 -0.7378  0.5019 -0.5985
  868MPD2    H112741   0.515   3.000  13.346  1.1486 -0.6525  1.0001
  868MPD2    H212742   0.892   2.984  13.175  0.3667 -0.2671 -1.1295
  868MPD2    H312743   0.711   3.096  13.280 -0.0281  0.0591  0.5128
  868MPD2     N12744   0.427   2.776  13.227  0.3758 -0.0246  0.5122
  868MPD2    H512745   0.400   2.704  13.161 -1.3849  0.5670  0.5969
  868MPD2    N112746   0.887   2.741  13.079 -0.5885  0.4675  0.0670
  868MPD2    H712747   0.963   2.802  13.052  1.2176 -2.5412 -1.7245
  869MPD2     C12748   1.650   0.708   1.441 -0.8204  0.7361  0.0684
  869MPD2    C112749   1.750   0.800   1.427  0.7007  0.0258 -0.3316
  869MPD2    C212750   1.720   0.914   1.350  0.1737  0.3429 -0.5587
  869MPD2    C312751   1.609   0.921   1.276  0.5774  0.4035  0.3801
  869MPD2    C412752   1.514   0.831   1.302 -0.6745  0.1073  0.3533
  869MPD2    C512753   1.528   0.725   1.388 -0.7477 -0.0859 -0.0136
  869MPD2     H12754   1.780   1.003   1.365 -4.0382  3.0139  0.3749
  869MPD2    H112755   1.416   0.849   1.260  0.0380  0.7786 -1.0345
  869MPD2    H212756   1.676   0.626   1.507 -1.1668  0.8648  0.3740
  869MPD2    H312757   1.441   0.662   1.402  0.4333 -1.1720  2.3651
  869MPD2     N12758   1.568   1.040   1.209 -0.5055 -0.4745  0.1024
  869MPD2    H512759   1.472   1.037   1.179 -0.9653 -0.4419  1.5888
  869MPD2    N112760   1.865   0.783   1.511  1.1784 -0.1691 -0.2786
  869MPD2    H712761   1.872   0.698   1.567 -0.6358 -0.2852 -0.2166
  870MPD2     C12762   1.690   3.878   1.556  0.7014 -0.3005 -0.3051
  870MPD2    C112763   1.808   3.839   1.500 -0.2173  0.3530  1.3066
  870MPD2    C212764   1.904   3.931   1.464  0.2028  0.3749 -0.2651
  870MPD2    C312765   1.896   4.055   1.524 -0.5187  0.1267 -0.1390
  870MPD2    C412766   1.777   4.100   1.581 -0.2221  0.1103  0.0288
  870MPD2    C512767   1.674   4.007   1.603 -0.5946 -0.2635  0.2841
  870MPD2     H12768   1.985   3.905   1.397 -2.0023 -1.0490 -2.3836
  870MPD2    H112769   1.768   4.205   1.607  0.2634  0.4071 -0.9810
  870MPD2    H212770   1.614   3.801   1.568  0.2025 -0.0633 -1.9595
  870MPD2    H312771   1.584   4.036   1.657  1.4084  1.1126  2.8458
  870MPD2     N12772   2.004   4.145   1.504  0.0065 -0.4572  0.0973
  870MPD2    H512773   2.087   4.110   1.457 -0.8747  1.0850 -2.5811
  870MPD2    N112774   1.808   3.698   1.461 -0.3180  0.0603  0.1984
  870MPD2    H712775   1.721   3.647   1.470  0.1341 -0.3909  2.0117
  871MPD2     C12776   2.587   4.025  16.144  0.3887 -0.5668 -0.0794
  871MPD2    C112777   2.556   3.929  16.235  0.2893 -0.2775 -0.4826
  871MPD2    C212778   2.568   3.799  16.191 -0.0612  0.1359  0.6773
  871MPD2    C312779   2.601   3.761  16.065  0.6522  0.3789 -0.5664
  871MPD2    C412780   2.623   3.866  15.978  0.2256 -0.2733 -0.5723
  871MPD2    C512781   2.612   3.995  16.011 -0.5287  0.7974 -0.2791
  871MPD2     H12782   2.546   3.720  16.261 -0.8212  0.2138  0.5243
  871MPD2    H112783   2.663   3.850  15.878  1.3521  0.1658 -0.1974
  871MPD2    H212784   2.596   4.127  16.178  2.0823 -0.1282 -1.8645
  871MPD2    H312785   2.633   4.069  15.935 -0.3583  0.0146 -0.9987
  871MPD2     N12786   2.603   3.623  16.044 -0.0273  0.5089 -0.0847
  871MPD2    H512787   2.592   3.564  16.125  2.9732 -1.9549 -1.4698
  871MPD2    N112788   2.536   3.972  16.368  0.2621  0.3069 -0.1419
  871MPD2    H712789   2.535   4.071  16.389  0.2392  0.4321 -0.7104
  872MPD2     C12790   3.274   1.196  13.373  0.6789  0.5754  0.4987
  872MPD2    C112791   3.301   1.288  13.472  0.4527  0.0583  0.5897
  872MPD2    C212792   3.192   1.331  13.549  0.1805 -0.3966 -0.1364
  872MPD2    C312793   3.062   1.275  13.535 -0.2553 -0.4757  0.2123
  872MPD2    C412794   3.041   1.192  13.428 -0.3055 -0.3767  0.8359
  872MPD2    C512795   3.146   1.151  13.358  0.4682 -0.1956 -0.3852
  872MPD2     H12796   3.213   1.407  13.623 -1.4025  1.1798 -1.3014
  872MPD2    H112797   2.945   1.146  13.409 -0.4355  0.1962  0.1029
  872MPD2    H212798   3.355   1.166  13.306  0.8914 -0.2316  1.1245
  872MPD2    H312799   3.121   1.075  13.285  3.5678 -0.6070 -1.0246
  872MPD2     N12800   2.961   1.316  13.629  0.1282  0.1130  0.7588
  872MPD2    H512801   2.986   1.372  13.710 -1.4799  2.3299 -0.2592
  872MPD2    N112802   3.434   1.347  13.493  0.3350 -0.3914  0.0270
  872MPD2    H712803   3.433   1.427  13.556  1.0070  2.3148 -3.3544
  873MPD2     C12804   4.086   2.248   0.492  0.1907  0.4821  0.0930
  873MPD2    C112805   4.178   2.190   0.574  0.2284  0.1303  0.1578
  873MPD2    C212806   4.235   2.070   0.540 -0.7469 -0.2303 -0.4814
  873MPD2    C312807   4.205   2.016   0.414  0.3094  0.8377 -0.5086
  873MPD2    C412808   4.115   2.079   0.336  0.7323 -0.3217 -0.8307
  873MPD2    C512809   4.061   2.196   0.368 -0.3306  0.7254  0.1668
  873MPD2     H12810   4.308   2.031   0.610 -0.2618  0.9958 -0.2962
  873MPD2    H112811   4.103   2.042   0.235  0.1574  0.8312 -1.1723
  873MPD2    H212812   4.057   2.351   0.506 -0.9963 -0.3681  3.9375
  873MPD2    H312813   3.991   2.242   0.300  1.0127  0.3729 -1.4553
  873MPD2     N12814   4.266   1.903   0.366 -0.2943  0.0958  0.1413
  873MPD2    H512815   4.214   1.861   0.289 -0.5393  1.3932 -0.3884
  873MPD2    N112816   4.212   2.258   0.694  0.2099 -0.1305 -0.1482
  873MPD2    H712817   4.171   2.348   0.720 -2.0883 -1.9588  2.5596
  874MPD2     C12818   4.581   1.492  15.538 -0.5978 -0.1419  0.0026
  874MPD2    C112819   4.607   1.477  15.667 -0.1057  0.2865 -0.9135
  874MPD2    C212820   4.717   1.534  15.724 -0.5950 -0.5590 -0.1651
  874MPD2    C312821   0.089   1.591  15.641 -0.3365  1.2062 -0.0939
  874MPD2    C412822   0.064   1.608  15.507  0.2676 -1.2892  0.3790
  874MPD2    C512823   4.669   1.569  15.456  0.6512  0.9559  0.2263
  874MPD2     H12824   0.004   1.536  15.832  0.1549 -1.6470 -0.2118
  874MPD2    H112825   0.132   1.656  15.437 -1.8214  0.5953 -0.3726
  874MPD2    H212826   4.496   1.436  15.500  2.4114 -3.6346 -1.5869
  874MPD2    H312827   4.649   1.573  15.350  1.9995  1.3604 -0.0084
  874MPD2     N12828   0.209   1.637  15.704 -0.2138 -0.1334 -0.1051
  874MPD2    H512829   0.223   1.648  15.804  1.1156 -0.1600 -0.2989
  874MPD2    N112830   4.515   1.399  15.741  0.6588  0.0995 -0.3776
  874MPD2    H712831   4.436   1.354  15.696 -0.4046 -0.7940  2.3812
  875MPD2     C12832   0.999   3.991  14.768  0.4630  0.5732 -0.1696
  875MPD2    C112833   0.971   4.121  14.724  0.2951  0.4776  0.0525
  875MPD2    C212834   0.983   4.229  14.807 -0.3670  0.3522  0.4379
  875MPD2    C312835   1.036   4.215  14.937 -0.7863  0.4286  0.1924
  875MPD2    C412836   1.079   4.091  14.972  0.3816 -0.5202 -0.1066
  875MPD2    C512837   1.044   3.985  14.894  1.0802  0.4278 -0.7296
  875MPD2     H12838   0.968   4.330  14.772  0.2926  0.8237  1.5077
  875MPD2    H112839   1.120   4.072  15.070  0.3790  0.6491  0.1232
  875MPD2    H212840   0.998   3.901  14.708 -0.6978 -0.0630  0.7859
  875MPD2    H312841   1.082   3.886  14.918  1.0565  0.6935  0.4023
  875MPD2     N12842   1.064   4.317  15.030 -0.2107  0.3752 -0.2084
  875MPD2    H512843   1.110   4.284  15.114 -2.2037  0.7790  1.0501
  875MPD2    N112844   0.925   4.153  14.594  0.1932 -0.2984  0.2931
  875MPD2    H712845   0.891   4.248  14.583  0.4987 -0.1438  0.6455
  876MPD2     C12846   4.243   1.045  15.772 -0.0057  0.1033  0.0206
  876MPD2    C112847   4.369   1.006  15.728  0.0528  0.5157  0.9054
  876MPD2    C212848   4.437   0.912  15.804  0.4358  0.0448 -0.1626
  876MPD2    C312849   4.383   0.864  15.918  0.4383  0.7644  0.2040
  876MPD2    C412850   4.254   0.898  15.948  0.5659  0.0035 -0.3148
  876MPD2    C512851   4.182   0.988  15.878 -0.2408 -0.1831  0.3164
  876MPD2     H12852   4.537   0.883  15.775 -0.2652  0.0874 -2.6574
  876MPD2    H112853   4.195   0.869  16.034  2.0618 -0.2906  0.6218
  876MPD2    H212854   4.199   1.124  15.711  1.0082 -1.4348 -2.7088
  876MPD2    H312855   4.085   0.999  15.924 -0.5962  1.2463 -0.7823
  876MPD2     N12856   4.458   0.771  15.997  0.5585  0.1547  0.0496
  876MPD2    H512857   4.538   0.738  15.946  0.4578  1.2781 -0.8241
  876MPD2    N112858   4.422   1.064  15.606 -0.1044  0.2857 -0.6317
  876MPD2    H712859   4.367   1.127  15.548 -0.9655 -0.9102 -1.1016
  877MPD2     C12860   4.248   1.379  14.944  0.5122  0.0524 -0.6448
  877MPD2    C112861   4.385   1.344  14.932 -0.0770  0.1900  0.7882
  877MPD2    C212862   4.446   1.338  14.806  0.6156 -0.3487  0.0758
  877MPD2    C312863   4.369   1.361  14.695  0.5116  0.2280 -0.2178
  877MPD2    C412864   4.238   1.404  14.709  0.5529 -0.8153 -0.2793
  877MPD2    C512865   4.178   1.404  14.833  0.2224 -0.0386  0.0749
  877MPD2     H12866   4.549   1.311  14.785  0.9040 -0.9347  2.2454
  877MPD2    H112867   4.178   1.415  14.620  0.1516 -0.1520  0.0695
  877MPD2    H212868   4.195   1.375  15.039 -0.0335  1.0048 -0.8999
  877MPD2    H312869   4.073   1.430  14.837  0.4200  0.7615 -0.0972
  877MPD2     N12870   4.414   1.346  14.558  0.7856  0.8581  0.3346
  877MPD2    H512871   4.340   1.347  14.488 -2.3171  1.0325  3.6254
  877MPD2    N112872   4.465   1.309  15.041 -0.1595 -0.1847  0.4950
  877MPD2    H712873   4.562   1.286  15.020 -0.6994 -1.2604 -0.8044
  878MPD2     C12874   0.101   1.397  12.904  0.0273 -0.0585  0.7871
  878MPD2    C112875   0.056   1.265  12.907  0.3883  0.5326 -0.1572
  878MPD2    C212876   0.125   1.175  12.989  1.0684  0.1431 -0.4686
  878MPD2    C312877   0.240   1.203  13.056  0.2583  0.0962 -0.1582
  878MPD2    C412878   0.284   1.331  13.044 -0.4122  0.0135  0.1538
  878MPD2    C512879   0.225   1.423  12.965 -0.2545  0.9897  0.9608
  878MPD2     H12880   0.084   1.076  13.006  1.4282 -0.3155 -2.3029
  878MPD2    H112881   0.359   1.369  13.113 -1.3741  0.4791  0.9337
  878MPD2    H212882   0.043   1.474  12.855 -0.5229 -1.7445 -1.1748
  878MPD2    H312883   0.259   1.526  12.962 -0.9300  1.0984 -2.7540
  878MPD2     N12884   0.279   1.115  13.163  0.8223 -0.0809 -0.0784
  878MPD2    H512885   0.230   1.028  13.180 -0.7176  0.8448  0.2427
  878MPD2    N112886   4.657   1.237  12.833 -0.2024  0.0061  0.6773
  878MPD2    H712887   4.614   1.320  12.795  1.5005 -0.1658 -1.5589
  879MPD2     C12888   0.749   2.461  16.471 -0.0089  0.4581 -0.4271
  879MPD2    C112889   0.609   2.456  16.505 -0.2476  0.3272 -0.0818
  879MPD2    C212890   0.539   2.340  16.480 -0.3933  0.5423  0.1478
  879MPD2    C312891   0.599   2.229  16.423 -0.4285  0.4667 -0.4659
  879MPD2    C412892   0.730   2.231  16.398 -0.0485  0.0514  0.2841
  879MPD2    C512893   0.806   2.345  16.421  0.5596  0.0802  0.2666
  879MPD2     H12894   0.432   2.335  16.498 -0.8207 -0.0598 -2.4743
  879MPD2    H112895   0.783   2.145  16.357  0.1246  1.4624 -2.4062
  879MPD2    H212896   0.811   2.549  16.478  1.3993 -0.2777 -3.7548
  879MPD2    H312897   0.912   2.354  16.397  0.4984  0.8228  0.2840
  879MPD2     N12898   0.525   2.112  16.392  0.4049  0.5061 -0.2508
  879MPD2    H512899   0.563   2.051  16.320  0.1303  1.0948 -0.8942
  879MPD2    N112900   0.537   2.563  16.564  0.1711 -0.6861 -0.0206
  879MPD2    H712901   0.448   2.549  16.611  0.0607 -0.2043 -0.0892
  880MPD2     C12902   1.445   3.997   0.213 -0.3150 -0.2398 -0.4560
  880MPD2    C112903   1.497   4.027   0.335 -0.0582 -0.2904  0.6079
  880MPD2    C212904   1.433   3.984   0.449  0.2946  0.1743 -0.7404
  880MPD2    C312905   1.315   3.915   0.441 -0.4322  0.8102 -0.6286
  880MPD2    C412906   1.256   3.900   0.318 -0.0926  0.0633  0.5085
  880MPD2    C512907   1.327   3.931   0.208 -0.3729 -1.1330  0.1607
  880MPD2     H12908   1.473   4.011   0.546 -0.5785  1.1559 -0.6504
  880MPD2    H112909   1.152   3.868   0.307 -0.0881  0.3352 -0.3375
  880MPD2    H212910   1.483   4.023   0.115  0.1723  1.0462  0.0693
  880MPD2    H312911   1.278   3.918   0.112  1.1703  0.0307 -0.7941
  880MPD2     N12912   1.266   3.867   0.563 -0.3441 -0.3836  0.4415
  880MPD2    H512913   1.331   3.883   0.640  1.3257 -0.1901 -1.0276
  880MPD2    N112914   1.620   4.093   0.340 -0.1393  0.9285 -0.4881
  880MPD2    H712915   1.654   4.101   0.244  1.0243  1.1632 -0.0553
  881MPD2     C12916   2.159   4.713  17.512 -0.1831  0.6875 -0.8174
  881MPD2    C112917   2.103   4.586  17.487  0.3184  0.3396  0.4356
  881MPD2    C212918   2.054   4.518  17.599 -0.2395  0.7283 -0.3450
  881MPD2    C312919   2.077   4.558   0.036  0.2102 -0.0962 -0.4327
  881MPD2    C412920   2.137   4.675   0.057 -0.3127  0.0616 -0.4648
  881MPD2    C512921   2.195   0.016  17.644  0.0786 -0.1485 -0.0389
  881MPD2     H12922   2.011   4.421  17.579 -0.3462  0.3751  1.5772
  881MPD2    H112923   2.157   4.719   0.153  1.8563  1.0307 -1.3625
  881MPD2    H212924   2.210   0.045  17.434 -1.9307 -0.1090 -2.5026
  881MPD2    H312925   2.252   0.107  17.659  1.9657 -1.6927  2.1097
  881MPD2     N12926   2.033   4.491   0.151 -0.9985 -0.0872 -0.1538
  881MPD2    H512927   2.044   4.537   0.241 -0.8015  2.2439 -1.3675
  881MPD2    N112928   2.062   4.564  17.356  1.0326  0.4292  0.6605
  881MPD2    H712929   2.080   4.636  17.288 -1.0614  2.6100  2.4160
  882MPD2     C12930   4.302   1.149  13.770  0.4937  1.2591  0.2135
  882MPD2    C112931   4.278   1.230  13.876 -0.0684 -0.4536  0.3587
  882MPD2    C212932   4.154   1.283  13.889  0.4771 -0.3280 -0.3758
  882MPD2    C312933   4.055   1.251  13.798 -0.1118  0.1483 -0.4157
  882MPD2    C412934   4.077   1.171  13.691  0.9634  0.0033  0.2342
  882MPD2    C512935   4.208   1.122  13.677  0.3350  0.2940  0.0851
  882MPD2     H12936   4.138   1.354  13.969  1.1879 -0.4017 -0.1662
  882MPD2    H112937   4.009   1.152  13.610 -0.8938  0.2513  1.7378
  882MPD2    H212938   4.401   1.109  13.751 -0.2168 -0.4105 -0.0112
  882MPD2    H312939   4.242   1.055  13.598 -0.3774  0.9842 -0.8043
  882MPD2     N12940   3.926   1.304  13.806  0.0669  0.9358 -0.4897
  882MPD2    H512941   3.857   1.253  13.751  0.0058  0.8532 -0.3360
  882MPD2    N112942   4.385   1.256  13.968  0.1157  0.9620  0.5015
  882MPD2    H712943   4.473   1.209  13.948 -0.9469 -0.4984 -0.6991
  883MPD2     C12944   1.646   1.953  16.133  0.2728 -0.2442 -0.8256
  883MPD2    C112945   1.758   1.948  16.054  0.3457 -0.2144 -0.7205
  883MPD2    C212946   1.885   1.970  16.113  0.3633  0.1526  0.1996
  883MPD2    C312947   1.890   2.003  16.245  0.2255 -0.6713  0.4310
  883MPD2    C412948   1.774   2.023  16.320  0.1206  0.3682 -0.6084
  883MPD2    C512949   1.656   2.000  16.264 -0.1754  0.0617  0.4436
  883MPD2     H12950   1.979   1.974  16.059  0.5866  1.3011  0.6852
  883MPD2    H112951   1.767   2.060  16.421 -0.4031 -0.6017 -0.2868
  883MPD2    H212952   1.542   1.939  16.105 -0.5282  0.5035  1.7710
  883MPD2    H312953   1.563   2.022  16.315 -0.5193 -0.2560 -0.0438
  883MPD2     N12954   2.015   2.020  16.302 -0.3909  0.1883  0.3816
  883MPD2    H512955   2.102   2.028  16.250 -0.2195 -1.8282  0.3746
  883MPD2    N112956   1.755   1.924  15.913 -0.2710  0.1221  0.1415
  883MPD2    H712957   1.841   1.923  15.859 -0.5820 -0.2691 -0.3460
  884MPD2     C12958   3.632   1.872  15.584  0.1028 -0.4806 -0.1774
  884MPD2    C112959   3.648   1.956  15.478 -0.7208 -0.4189 -0.4028
  884MPD2    C212960   3.543   2.039  15.450 -0.2857  0.3359  0.8338
  884MPD2    C312961   3.423   2.018  15.511 -0.2040 -0.3323  0.3599
  884MPD2    C412962   3.411   1.925  15.609 -0.4814  0.1435 -0.1635
  884MPD2    C512963   3.516   1.849  15.649 -0.4877 -0.0526  0.1350
  884MPD2     H12964   3.561   2.115  15.374  1.8741 -1.4109 -0.4080
  884MPD2    H112965   3.317   1.896  15.654 -0.4244  1.4309  0.7593
  884MPD2    H212966   3.712   1.810  15.624  1.4007  0.8561 -0.7103
  884MPD2    H312967   3.509   1.774  15.727  1.3134  0.4277  0.7477
  884MPD2     N12968   3.325   2.106  15.475 -0.1429  0.0720  0.2301
  884MPD2    H512969   3.347   2.180  15.409  0.9470  0.1893  0.7371
  884MPD2    N112970   3.770   1.983  15.417 -0.5023  0.1455  0.0277
  884MPD2    H712971   3.770   2.066  15.359  0.5771 -0.5809 -1.0170
  885MPD2     C12972   1.891   2.828  17.616  0.3106  0.7097 -0.0158
  885MPD2    C112973   2.007   2.883  17.569  0.1413 -0.0919 -0.4065
  885MPD2    C212974   2.027   2.872  17.430 -0.4637  0.0652  0.7087
  885MPD2    C312975   1.933   2.817  17.346  0.3248  0.1385  0.0855
  885MPD2    C412976   1.818   2.766  17.397 -0.3767  0.1606 -0.6086
  885MPD2    C512977   1.801   2.769  17.531 -0.3589  0.0405  0.7886
  885MPD2     H12978   2.108   2.921  17.377  1.0231 -1.4532  1.5760
  885MPD2    H112979   1.749   2.705  17.339 -0.4177 -0.0890 -0.3017
  885MPD2    H212980   1.855   2.842   0.023  1.1823 -0.4876  0.4570
  885MPD2    H312981   1.705   2.732  17.565 -0.7993  2.3617  2.0215
  885MPD2     N12982   1.956   2.825  17.211  0.0305  0.2341 -0.4942
  885MPD2    H512983   2.045   2.863  17.183 -0.2903  0.0768 -1.7072
  885MPD2    N112984   2.089   2.930  17.662 -0.4379  0.1070 -0.0223
  885MPD2    H712985   2.065   2.928   0.066  3.9082  0.6304  1.0231
  886MPD2     C12986   3.238   0.538  15.113  0.6914 -0.1056 -0.3132
  886MPD2    C112987   3.289   0.584  15.237 -0.2842  0.1649  0.4974
  886MPD2    C212988   3.282   0.719  15.272 -0.0593  0.6599 -1.3386
  886MPD2    C312989   3.213   0.815  15.200 -0.1080 -0.4847  0.0286
  886MPD2    C412990   3.156   0.774  15.082 -0.2327  0.2098  0.5538
  886MPD2    C512991   3.171   0.638  15.043 -0.1517 -0.0075  0.1004
  886MPD2     H12992   3.344   0.737  15.359  0.5349 -1.8321 -1.2341
  886MPD2    H112993   3.104   0.842  15.016 -0.5340 -1.1079 -0.5775
  886MPD2    H212994   3.221   0.435  15.082  0.7800 -0.6815  1.5718
  886MPD2    H312995   3.105   0.611  14.961 -0.6190 -0.9711  0.7917
  886MPD2     N12996   3.201   0.953  15.248 -0.7056  1.2744 -0.0276
  886MPD2    H512997   3.168   1.020  15.179 -1.7224  1.7686  0.9182
  886MPD2    N112998   3.352   0.488  15.326  1.1459  0.5824  0.7914
  886MPD2    H712999   3.396   0.528  15.409  0.8670  0.9978  0.7356
  887MPD2     C13000   3.997   0.574  15.616  0.4294 -0.5078 -0.4523
  887MPD2    C113001   3.872   0.602  15.555  0.2909 -0.5977 -0.0484
  887MPD2    C213002   3.844   0.731  15.514 -0.0107 -0.0777  0.4340
  887MPD2    C313003   3.939   0.833  15.529  0.3276 -0.2302  0.0688
  887MPD2    C413004   4.068   0.798  15.569  0.6685 -0.6466 -0.5545
  887MPD2    C513005   4.090   0.672  15.628  0.3743  0.2557  0.1970
  887MPD2     H13006   3.745   0.751  15.473 -0.2242 -3.7869 -0.8973
  887MPD2    H113007   4.143   0.876  15.579  2.0368 -1.8668 -1.2428
  887MPD2    H213008   4.023   0.478  15.659  1.7222  0.0043 -0.1092
  887MPD2    H313009   4.186   0.638  15.667  0.3610  0.8776  0.7635
  887MPD2     N13010   3.896   0.962  15.496 -0.3788  0.0223  0.0730
  887MPD2    H513011   3.800   0.993  15.504  0.6961  2.7596  2.3107
  887MPD2    N113012   3.764   0.507  15.542  0.1366  0.0956 -0.5780
  887MPD2    H713013   3.686   0.552  15.496 -0.7723  0.3569  1.2074
  888MPD2     C13014   1.114   1.231  15.013 -0.2792 -0.4809 -0.0237
  888MPD2    C113015   1.202   1.326  15.067  0.4840 -0.5316 -0.1526
  888MPD2    C213016   1.219   1.439  14.996 -0.5514  0.6348  0.4619
  888MPD2    C313017   1.149   1.473  14.883  0.8257 -0.0904 -0.4184
  888MPD2    C413018   1.065   1.376  14.829 -0.0013  0.4472  0.1862
  888MPD2    C513019   1.059   1.255  14.891 -0.0946 -0.9132  0.6378
  888MPD2     H13020   1.286   1.510  15.043  0.1874  0.4568 -0.3213
  888MPD2    H113021   1.012   1.395  14.736  1.0812 -0.9859 -0.7268
  888MPD2    H213022   1.101   1.132  15.055  0.0237 -1.1938 -1.6293
  888MPD2    H313023   0.992   1.187  14.840  1.2600 -2.8865  1.4980
  888MPD2     N13024   1.168   1.595  14.814 -0.4072  0.3714  0.2791
  888MPD2    H513025   1.208   1.672  14.866  1.1720  1.4600 -2.5472
  888MPD2    N113026   1.285   1.310  15.184  0.5131 -0.5928 -0.0449
  888MPD2    H713027   1.337   1.390  15.217 -0.5845 -0.0161  0.2763
  889MPD2     C13028   4.653   0.198  12.977 -0.2395  0.2670 -0.1795
  889MPD2    C113029   0.055   0.197  12.925  0.7570  0.2806  0.5656
  889MPD2    C213030   0.096   0.317  12.867 -0.1314  0.0088 -0.1980
  889MPD2    C313031   0.007   0.422  12.851  0.5299  0.3587 -0.2334
  889MPD2    C413032   4.603   0.429  12.912  0.5541  0.5533  0.3092
  889MPD2    C513033   4.567   0.308  12.983 -0.6000 -0.6558 -0.0427
  889MPD2     H13034   0.193   0.334  12.823  1.2403 -1.6472  2.1712
  889MPD2    H113035   4.541   0.518  12.921 -0.7530 -0.2815 -0.4421
  889MPD2    H213036   4.625   0.114  13.040 -0.5121  0.8262  0.4487
  889MPD2    H313037   4.473   0.297  13.036  0.6935  1.4950  2.6736
  889MPD2     N13038   0.062   0.536  12.791  0.2570  0.0211  0.1189
  889MPD2    H513039   0.161   0.541  12.770  0.2979  3.2706  1.1439
  889MPD2    N113040   0.143   0.089  12.956 -0.4376 -0.0797  0.1155
  889MPD2    H713041   0.102   0.012  13.007  0.1384 -0.9155 -0.6718
  890MPD2     C13042   4.610   2.147  14.154  0.0931  0.1324  0.4039
  890MPD2    C113043   4.561   2.209  14.272 -0.0654  0.0172  0.4358
  890MPD2    C213044   4.526   2.121  14.375  0.2678  0.6441 -0.9055
  890MPD2    C313045   4.550   1.979  14.367 -0.2962  0.1210 -0.5132
  890MPD2    C413046   4.607   1.925  14.249  0.4150  0.2770 -0.5213
  890MPD2    C513047   4.634   2.013  14.147 -0.2935  0.8208 -0.1301
  890MPD2     H13048   4.476   2.165  14.461 -0.7146 -1.1569 -0.5406
  890MPD2    H113049   4.607   1.822  14.216  3.1179 -0.2882  1.2690
  890MPD2    H213050   4.643   2.207  14.070 -1.2814 -1.0163 -0.9521
  890MPD2    H313051   4.662   1.972  14.051 -0.8027  2.8635 -1.1629
  890MPD2     N13052   4.526   1.897  14.480  0.0616 -0.0315 -0.5428
  890MPD2    H513053   4.488   1.938  14.565 -0.4618  0.0971 -0.8418
  890MPD2    N113054   4.548   2.350  14.287 -0.3745  0.9326 -0.1476
  890MPD2    H713055   4.513   2.378  14.378 -1.1781  0.0887 -0.1922
  891MPD2     C13056   2.784   1.452  16.632 -0.0648 -0.1953 -0.9794
  891MPD2    C113057   2.692   1.433  16.732  0.7456  0.0315  0.4194
  891MPD2    C213058   2.721   1.350  16.841  0.0566 -0.2986  1.2226
  891MPD2    C313059   2.839   1.284  16.839 -0.1655  0.7232  0.1659
  891MPD2    C413060   2.934   1.308  16.747  0.1624 -0.7453 -0.5157
  891MPD2    C513061   2.908   1.387  16.639  0.7638 -0.6761  0.2667
  891MPD2     H13062   2.651   1.313  16.916 -1.1510 -0.8863 -0.2005
  891MPD2    H113063   3.028   1.255  16.746  1.8076  2.1655 -0.5329
  891MPD2    H213064   2.768   1.507  16.540  1.7333  1.1989 -0.4707
  891MPD2    H313065   2.984   1.407  16.565 -0.6375  0.1961 -0.9394
  891MPD2     N13066   2.843   1.181  16.934  0.4037 -0.3422  0.4915
  891MPD2    H513067   2.761   1.167  16.993  0.2204 -0.3944  0.2260
  891MPD2    N113068   2.566   1.500  16.713 -0.3262 -0.2723  0.0673
  891MPD2    H713069   2.554   1.560  16.632  0.5749  0.7907  0.7046
  892MPD2     C13070   3.729   1.625  14.726 -0.3629  0.5128  0.7509
  892MPD2    C113071   3.606   1.625  14.669  0.3604 -0.3554 -0.1031
  892MPD2    C213072   3.592   1.584  14.533 -0.6639  1.2611  1.1684
  892MPD2    C313073   3.702   1.535  14.460 -0.2141 -0.9257  0.8504
  892MPD2    C413074   3.826   1.558  14.520 -0.4779  0.7356 -0.7761
  892MPD2    C513075   3.835   1.594  14.650  0.8086  0.0310 -0.0738
  892MPD2     H13076   3.496   1.592  14.484 -1.4032  0.2960  2.4668
  892MPD2    H113077   3.914   1.527  14.465  1.7804  1.3761  2.5080
  892MPD2    H213078   3.734   1.667  14.825 -1.8469  0.0045  1.0360
  892MPD2    H313079   3.932   1.599  14.699  1.9533  1.2801 -2.4789
  892MPD2     N13080   3.692   1.491  14.321  0.2337 -0.5190 -0.3347
  892MPD2    H513081   3.780   1.460  14.280 -0.7871 -1.4797 -1.7811
  892MPD2    N113082   3.486   1.684  14.722  0.4621 -0.1469  0.1551
  892MPD2    H713083   3.403   1.689  14.664 -0.2534 -2.4305  1.0007
  893MPD2     C13084   3.534   0.619   1.553  0.6079 -0.3573 -0.0142
  893MPD2    C113085   3.530   0.484   1.544  0.1099  0.1242 -0.7980
  893MPD2    C213086   3.628   0.414   1.473  0.0040 -0.5001  0.0991
  893MPD2    C313087   3.737   0.479   1.417 -0.4284  0.1194  0.1320
  893MPD2    C413088   3.746   0.617   1.434 -0.1167 -0.0588  0.4284
  893MPD2    C513089   3.642   0.682   1.499 -0.2080  0.0497 -0.7317
  893MPD2     H13090   3.621   0.307   1.458 -0.6731 -0.7539  2.2519
  893MPD2    H113091   3.828   0.669   1.386 -0.4498  0.2053  0.1451
  893MPD2    H213092   3.471   0.682   1.615  1.0098  0.1092 -0.0774
  893MPD2    H313093   3.647   0.790   1.506 -3.1562 -0.0819  3.2292
  893MPD2     N13094   3.847   0.414   1.360  0.1129 -0.5682  0.0193
  893MPD2    H513095   3.924   0.476   1.337 -0.7168  1.4275  2.5351
  893MPD2    N113096   3.428   0.422   1.623  0.2771 -0.4100 -0.5766
  893MPD2    H713097   3.358   0.487   1.659 -0.8064 -2.9685  1.9445
  894MPD2     C13098   2.665   3.528   1.529  0.4050  0.2963 -0.9931
  894MPD2    C113099   2.733   3.437   1.449  0.0121  0.1600 -0.2660
  894MPD2    C213100   2.869   3.453   1.421  0.0951  0.2836 -0.0814
  894MPD2    C313101   2.945   3.563   1.465 -0.0454  0.5224  0.2839
  894MPD2    C413102   2.877   3.656   1.553 -0.2150 -0.1501 -0.2588
  894MPD2    C513103   2.741   3.637   1.574 -0.1296  0.7476  0.3760
  894MPD2     H13104   2.916   3.371   1.367  0.4735  1.1233 -1.0143
  894MPD2    H113105   2.936   3.732   1.602  0.6078 -0.5674 -0.5957
  894MPD2    H213106   2.565   3.523   1.570  0.5859 -0.1349 -0.6021
  894MPD2    H313107   2.700   3.708   1.645  0.6439  0.5277  1.0548
  894MPD2     N13108   3.077   3.566   1.414  0.8338  0.1254  0.0305
  894MPD2    H513109   3.089   3.498   1.339  0.3651  0.0859 -0.0082
  894MPD2    N113110   2.679   3.317   1.402 -0.0404  0.0011  0.2955
  894MPD2    H713111   2.736   3.259   1.341 -2.5416  0.3996 -2.4184
  895MPD2     C13112   2.532   1.006  13.635 -0.2897 -0.6064 -0.5564
  895MPD2    C113113   2.531   1.047  13.502 -0.3274  0.5689 -0.1487
  895MPD2    C213114   2.637   1.015  13.416 -0.1670  0.1863 -0.5422
  895MPD2    C313115   2.741   0.931  13.456  0.7841  0.4739  0.2012
  895MPD2    C413116   2.733   0.894  13.586  0.9235  0.4252 -0.7288
  895MPD2    C513117   2.635   0.927  13.676  0.3046 -0.0024 -0.1752
  895MPD2     H13118   2.627   1.040  13.311  0.5732 -3.2070 -1.4222
  895MPD2    H113119   2.801   0.824  13.632  0.6846 -0.6444 -2.0198
  895MPD2    H213120   2.454   1.044  13.700 -0.6758 -1.1281 -0.7140
  895MPD2    H313121   2.634   0.884  13.775 -1.2223  0.2203 -0.0916
  895MPD2     N13122   2.839   0.888  13.358  0.5624 -0.2307 -0.2182
  895MPD2    H513123   2.821   0.906  13.260 -2.7642 -1.8029  0.0875
  895MPD2    N113124   2.426   1.137  13.469 -0.0227 -0.0406 -0.4905
  895MPD2    H713125   2.345   1.134  13.530  0.1622  0.2408 -0.2257
  896MPD2     C13126   0.397   3.629   1.531 -0.1291  0.6001 -0.0313
  896MPD2    C113127   0.385   3.635   1.397 -0.5640 -0.8303  0.7190
  896MPD2    C213128   0.257   3.638   1.344  0.1805 -0.1636  0.6795
  896MPD2    C313129   0.146   3.631   1.427 -0.1874  0.4214 -0.3317
  896MPD2    C413130   0.162   3.622   1.567  0.2408  0.4553  0.3527
  896MPD2    C513131   0.289   3.620   1.615  0.0791 -0.0424  0.9693
  896MPD2     H13132   0.249   3.649   1.237 -1.0191 -1.5967  0.6189
  896MPD2    H113133   0.081   3.623   1.639  1.7238  0.5442  2.0199
  896MPD2    H213134   0.497   3.619   1.571  0.4681  1.8432 -1.2106
  896MPD2    H313135   0.318   3.609   1.719 -0.7173 -0.0672  1.1944
  896MPD2     N13136   0.025   3.660   1.366 -0.1791  0.3497 -0.3213
  896MPD2    H513137   0.030   3.646   1.265  0.3598  0.6501 -0.3409
  896MPD2    N113138   0.509   3.647   1.324 -0.2325  0.5273  0.2884
  896MPD2    H713139   0.587   3.671   1.384  1.2658  1.1103 -1.9058
  897MPD2     C13140   2.140   0.161  11.051  0.0813  1.0214  0.7870
  897MPD2    C113141   2.073   0.039  11.056  0.1722 -0.0103  0.2443
  897MPD2    C213142   1.965   0.021  11.145 -0.4370 -0.5360  0.1824
  897MPD2    C313143   1.912   0.127  11.215  0.0100  0.7448 -0.0607
  897MPD2    C413144   1.981   0.247  11.209 -0.1042  0.0610 -0.0547
  897MPD2    C513145   2.092   0.260  11.132  0.4782  0.0062  0.2027
  897MPD2     H13146   1.907   4.652  11.137 -1.3208  0.0930 -0.6402
  897MPD2    H113147   1.944   0.335  11.261 -0.6572  0.3207 -0.8908
  897MPD2    H213148   2.217   0.179  10.976 -0.3592 -2.6822 -0.5698
  897MPD2    H313149   2.136   0.357  11.113  1.7714 -0.5035  0.6025
  897MPD2     N13150   1.786   0.118  11.285 -0.5845  0.2153 -0.4419
  897MPD2    H513151   1.733   0.032  11.279  0.9247 -0.8721  1.4788
  897MPD2    N113152   2.108   4.676  10.954  0.2730  0.0199  0.1146
  897MPD2    H713153   2.160   4.715  10.876 -0.7754 -0.4955 -0.8414
  898MPD2     C13154   3.337   1.867  17.665  0.2413 -0.0866  0.2245
  898MPD2    C113155   3.353   1.750  17.594 -0.0630 -0.9317 -0.7350
  898MPD2    C213156   3.315   1.753  17.459  0.5807  0.1746 -0.0426
  898MPD2    C313157   3.253   1.860  17.407 -0.3174 -0.5091 -0.3430
  898MPD2    C413158   3.232   1.973  17.482  0.5126  0.2629  0.0321
  898MPD2    C513159   3.271   1.974  17.609 -0.8981 -0.0926 -0.4451
  898MPD2     H13160   3.330   1.671  17.390 -1.6864 -0.5250  0.2737
  898MPD2    H113161   3.176   2.060  17.450 -0.5569  0.0613  1.3942
  898MPD2    H213162   3.362   1.886   0.074 -0.9578 -1.0398  0.6975
  898MPD2    H313163   3.263   2.072  17.655  1.9435  0.4022 -0.9791
  898MPD2     N13164   3.246   1.857  17.265  0.2610  0.7958  0.0670
  898MPD2    H513165   3.274   1.771  17.220 -1.1049  0.2491  0.2745
  898MPD2    N113166   3.415   1.640  17.652  0.0061  0.1089  0.4836
  898MPD2    H713167   3.430   1.564  17.588  0.6282 -0.2850  1.0967
  899MPD2     C13168   3.844   2.501  16.754 -0.0496 -0.2992  0.1079
  899MPD2    C113169   3.940   2.407  16.796  0.4429 -0.1003 -0.3630
  899MPD2    C213170   3.953   2.381  16.929 -0.0239 -0.9993  1.0781
  899MPD2    C313171   3.849   2.422  17.011 -0.8574  0.1755  0.5013
  899MPD2    C413172   3.762   2.512  16.971 -0.0798 -0.5146 -0.0366
  899MPD2    C513173   3.773   2.565  16.848  0.2607 -0.0599 -0.4761
  899MPD2     H13174   4.025   2.309  16.967  2.7022  1.9580  1.5173
  899MPD2    H113175   3.683   2.542  17.038  0.4166 -0.4437  0.5203
  899MPD2    H213176   3.852   2.537  16.652  0.3184  1.2262  0.6610
  899MPD2    H313177   3.705   2.638  16.806 -0.0449 -1.1388 -1.8731
  899MPD2     N13178   3.840   2.397  17.145  0.4550 -0.0301  0.1246
  899MPD2    H513179   3.758   2.437  17.190  0.8168  0.9482 -0.0913
  899MPD2    N113180   4.032   2.354  16.709  0.3519  0.0179  0.5647
  899MPD2    H713181   4.111   2.301  16.744 -0.2499 -1.8465 -0.8884
  900MPD2     C13182   4.352   3.352  12.651 -0.4371  0.5005  0.3432
  900MPD2    C113183   4.259   3.273  12.585  0.3149  0.0714 -0.4065
  900MPD2    C213184   4.128   3.318  12.564  0.0744 -0.0196 -0.1930
  900MPD2    C313185   4.089   3.450  12.593  0.1110  0.6902  0.2324
  900MPD2    C413186   4.186   3.526  12.655  0.8609 -0.8863  0.1332
  900MPD2    C513187   4.313   3.477  12.683 -0.7686  0.1298  0.3208
  900MPD2     H13188   4.056   3.255  12.514  1.6595  0.1376 -2.6797
  900MPD2    H113189   4.161   3.622  12.698  1.2724  0.0275 -1.6687
  900MPD2    H213190   4.456   3.324  12.661 -0.6913 -1.4071 -2.1593
  900MPD2    H313191   4.384   3.542  12.733 -0.5614  1.5768 -1.8753
  900MPD2     N13192   3.969   3.498  12.544  0.4110  0.3261 -0.1276
  900MPD2    H513193   3.901   3.436  12.501  0.4504  0.5480 -0.5088
  900MPD2    N113194   4.299   3.141  12.555 -0.7017  0.5642  0.4024
  900MPD2    H713195   4.398   3.121  12.562 -0.3802  2.2333  0.5498
  901MPD2     C13196   4.052   2.102  12.525 -0.0285 -0.0859  0.8845
  901MPD2    C113197   4.163   2.121  12.437  0.8381 -0.2616 -0.5838
  901MPD2    C213198   4.228   2.241  12.465  1.2513  0.3836  0.2703
  901MPD2    C313199   4.187   2.329  12.564 -0.2909 -0.1319  0.2999
  901MPD2    C413200   4.074   2.306  12.639 -0.4612  0.7357  0.4278
  901MPD2    C513201   4.011   2.190  12.618 -0.2383 -1.4554 -0.5456
  901MPD2     H13202   4.319   2.270  12.413  1.9713 -1.3624  0.5532
  901MPD2    H113203   4.044   2.373  12.719  2.0231 -0.5691  2.4587
  901MPD2    H213204   3.991   2.014  12.510 -0.0126 -0.2238  1.6174
  901MPD2    H313205   3.927   2.164  12.681  0.4818 -1.9139  0.2210
  901MPD2     N13206   4.251   2.455  12.548 -0.4757 -0.6295 -0.2952
  901MPD2    H513207   4.335   2.460  12.491  1.7842  2.3384  3.3448
  901MPD2    N113208   4.196   2.028  12.337 -0.1301 -0.1186 -0.4724
  901MPD2    H713209   4.139   1.947  12.315  0.2298 -1.1057  2.2788
  902MPD2     C13210   2.808   1.299  12.454 -0.1815 -0.0920 -0.1581
  902MPD2    C113211   2.750   1.266  12.335 -0.0781  0.1201 -0.0080
  902MPD2    C213212   2.731   1.131  12.317 -0.1789 -0.2972 -0.5652
  902MPD2    C313213   2.749   1.037  12.417  0.9418 -0.5530  0.5787
  902MPD2    C413214   2.798   1.077  12.538  0.2944 -0.3236  0.5502
  902MPD2    C513215   2.838   1.205  12.555  0.2825  0.2008 -0.1706
  902MPD2     H13216   2.685   1.100  12.223 -0.0147  0.4614 -0.8944
  902MPD2    H113217   2.826   1.008  12.617  1.6462 -0.5120 -0.0904
  902MPD2    H213218   2.820   1.403  12.484 -1.2324  0.5469 -1.9138
  902MPD2    H313219   2.878   1.235  12.651  1.6507 -0.9181 -0.4002
  902MPD2     N13220   2.724   0.897  12.398  0.0526  0.5479 -0.3839
  902MPD2    H513221   2.747   0.837  12.476  1.6742 -3.1226 -3.6938
  902MPD2    N113222   2.737   1.368  12.236  0.1067 -0.0907 -0.1087
  902MPD2    H713223   2.755   1.463  12.269  0.2696  0.4511 -1.7618
  903MPD2     C13224   2.859   0.243  11.776 -0.7158 -0.1087  0.4778
  903MPD2    C113225   2.746   0.277  11.852  0.3653  0.2860  0.4207
  903MPD2    C213226   2.624   0.211  11.830  0.4248 -0.2296 -0.0080
  903MPD2    C313227   2.612   0.124  11.719 -0.2464  0.2078  0.9508
  903MPD2    C413228   2.722   0.096  11.638  0.0069 -1.1889  0.7373
  903MPD2    C513229   2.844   0.156  11.669  0.4662 -0.1487  0.0051
  903MPD2     H13230   2.541   0.208  11.900 -0.0704 -2.0151 -0.6765
  903MPD2    H113231   2.712   0.037  11.547  1.5670  0.4161 -0.4904
  903MPD2    H213232   2.956   0.284  11.803 -0.4081  0.1146 -0.9628
  903MPD2    H313233   2.924   0.140  11.598 -1.9811  0.2909 -2.8330
  903MPD2     N13234   2.485   0.065  11.700  0.3457  0.5657 -0.3226
  903MPD2    H513235   2.429   0.061  11.785 -2.2289 -1.9207 -2.1323
  903MPD2    N113236   2.761   0.369  11.960  0.2033 -0.1873  0.3074
  903MPD2    H713237   2.858   0.396  11.974  0.4886  0.0966 -2.1711
  904MPD2     C13238   2.702   0.125  13.656 -0.2774  0.3171  0.1845
  904MPD2    C113239   2.759   0.224  13.574 -0.3250  0.2827  1.3883
  904MPD2    C213240   2.892   0.257  13.612 -0.6661 -0.4692  0.3966
  904MPD2    C313241   2.960   0.189  13.713 -0.2427 -0.1634 -0.7568
  904MPD2    C413242   2.903   0.081  13.771  0.5627  0.3624 -0.9286
  904MPD2    C513243   2.774   0.052  13.744 -0.5220  0.0850 -0.2553
  904MPD2     H13244   2.933   0.342  13.560 -0.5543 -1.2938 -0.8437
  904MPD2    H113245   2.953   0.026  13.850 -3.6603 -0.0271  1.4794
  904MPD2    H213246   2.597   0.104  13.669 -0.1545 -0.8922 -0.7220
  904MPD2    H313247   2.718   4.702  13.801  0.8217  0.2927  1.3415
  904MPD2     N13248   3.083   0.239  13.749  0.0412  0.0910 -0.1830
  904MPD2    H513249   3.115   0.314  13.689 -1.1332 -0.8360 -1.9512
  904MPD2    N113250   2.681   0.312  13.493  0.4554  0.1381  0.3755
  904MPD2    H713251   2.727   0.398  13.465 -2.8406  2.5352  2.3333
  905MPD2     C13252   2.583   1.001  13.043 -0.1501 -0.2435 -0.0912
  905MPD2    C113253   2.643   0.883  13.064  0.3185  0.4689  0.0517
  905MPD2    C213254   2.763   0.859  12.989  0.1697  0.0063 -0.2162
  905MPD2    C313255   2.836   0.967  12.939 -0.0569  0.2101  0.4853
  905MPD2    C413256   2.771   1.088  12.927  0.0710 -0.2276 -0.9128
  905MPD2    C513257   2.643   1.106  12.982 -0.1936 -0.0092 -0.1928
  905MPD2     H13258   2.806   0.760  12.980  2.4157  0.8729  0.9612
  905MPD2    H113259   2.816   1.174  12.879  1.8687 -2.0203 -2.4387
  905MPD2    H213260   2.493   1.029  13.097 -0.8118  3.0400 -2.8526
  905MPD2    H313261   2.599   1.204  12.994  0.0431 -0.0848  1.2943
  905MPD2     N13262   2.964   0.957  12.884 -0.3229  0.3419  0.1738
  905MPD2    H513263   2.999   1.043  12.844 -1.4236  0.4282 -0.5998
  905MPD2    N113264   2.587   0.784  13.147 -0.0384 -0.4665 -0.2631
  905MPD2    H713265   2.496   0.812  13.182  1.8161  2.2881  2.3508
  906MPD2     C13266   0.246   4.691  11.690 -0.1083 -0.5422 -0.5155
  906MPD2    C113267   0.187   4.716  11.569  0.2785  0.7936  0.7081
  906MPD2    C213268   0.069   4.667  11.546 -0.1281  0.2365 -0.4060
  906MPD2    C313269   0.008   4.582  11.637  0.0920  0.4053 -0.5970
  906MPD2    C413270   0.075   4.535  11.749 -0.1732 -0.6011 -0.0079
  906MPD2    C513271   0.195   4.593  11.774  0.3512  0.4403 -0.6609
  906MPD2     H13272   0.030   4.690  11.448 -1.1938 -1.3178 -0.3469
  906MPD2    H113273   0.033   4.460  11.815 -1.5807  1.4051  1.3834
  906MPD2    H213274   0.347   4.718  11.717 -0.3869  2.2474 -2.3137
  906MPD2    H313275   0.245   4.565  11.867  0.3110  1.6870 -0.2593
  906MPD2     N13276   4.601   4.536  11.614  0.5441  0.0781 -0.3915
  906MPD2    H513277   4.567   4.466  11.679  0.7509  0.0716 -0.2886
  906MPD2    N113278   0.251   0.081  11.482  0.4278  0.4472  1.0147
  906MPD2    H713279   0.201   0.107  11.398  0.9345  1.4026  1.0148
  907MPD2     C13280   3.845   4.224  15.097  0.0314  0.6758  0.0953
  907MPD2    C113281   3.876   4.093  15.147  0.8990 -0.0734  0.0881
  907MPD2    C213282   3.924   4.082  15.275  0.2899  0.0481 -0.1020
  907MPD2    C313283   3.963   4.195  15.346 -0.4437 -0.0221  0.7712
  907MPD2    C413284   3.930   4.318  15.293 -0.1189  0.0589  0.1336
  907MPD2    C513285   3.870   4.333  15.166  0.3688  0.1452 -0.4469
  907MPD2     H13286   3.948   3.990  15.328  0.6926  1.0867  1.5221
  907MPD2    H113287   3.957   4.410  15.345 -0.4118  1.0855 -1.5397
  907MPD2    H213288   3.802   4.245  15.000  0.0499 -0.5393 -0.1707
  907MPD2    H313289   3.842   4.433  15.134 -0.2639  0.3773  0.8263
  907MPD2     N13290   4.024   4.184  15.471 -0.2300  0.4592  0.3137
  907MPD2    H513291   4.027   4.090  15.509  0.3421  0.2542 -0.2323
  907MPD2    N113292   3.865   3.976  15.069  0.0741 -0.5957 -0.4620
  907MPD2    H713293   3.903   3.894  15.116 -0.4261 -1.0532 -0.8621
  908MPD2     C13294   1.951   3.938  10.263 -0.6119 -0.4602  0.1480
  908MPD2    C113295   2.065   4.001  10.307 -0.1448  0.0022  0.4352
  908MPD2    C213296   2.058   4.120  10.383 -0.7501 -0.1361  0.0308
  908MPD2    C313297   1.936   4.179  10.418 -0.1995 -0.6934  0.8971
  908MPD2    C413298   1.821   4.125  10.354  0.4081  0.1724  0.2003
  908MPD2    C513299   1.834   4.004  10.284 -0.7592 -0.2139 -0.2327
  908MPD2     H13300   2.148   4.158  10.429 -0.3808 -0.5401 -0.3545
  908MPD2    H113301   1.719   4.162  10.355  0.3699  0.0681  0.1572
  908MPD2    H213302   1.950   3.854  10.194  2.1786  0.3317 -0.8824
  908MPD2    H313303   1.742   3.960  10.246 -0.7937  0.6096 -1.1090
  908MPD2     N13304   1.933   4.297  10.498 -0.1881  0.4347 -0.3120
  908MPD2    H513305   2.025   4.318  10.536 -0.3699  0.7128 -0.0208
  908MPD2    N113306   2.186   3.940  10.265 -0.4168  0.0090  0.5336
  908MPD2    H713307   2.177   3.848  10.223  1.4273 -1.6569  3.8643
  909MPD2     C13308   2.221   2.654  11.481  0.0408  0.5370 -0.4299
  909MPD2    C113309   2.221   2.793  11.471 -0.6714 -0.1103  0.5083
  909MPD2    C213310   2.144   2.871  11.563 -0.0526  0.3617 -0.4428
  909MPD2    C313311   2.066   2.808  11.658  0.3023 -0.1399 -0.6116
  909MPD2    C413312   2.073   2.674  11.666 -0.1623  0.5283  0.1283
  909MPD2    C513313   2.152   2.601  11.586 -0.7078  0.4269  0.1619
  909MPD2     H13314   2.150   2.980  11.566  0.0625  0.3318  0.3619
  909MPD2    H113315   2.024   2.624  11.748 -0.3400  1.5627  0.6601
  909MPD2    H213316   2.270   2.582  11.417 -1.0111 -1.5614  1.1451
  909MPD2    H313317   2.162   2.495  11.608  1.1309  0.5342 -0.1446
  909MPD2     N13318   1.976   2.886  11.738  0.5003  1.0180 -0.1693
  909MPD2    H513319   1.967   2.980  11.703 -0.3072  1.0555  0.1380
  909MPD2    N113320   2.296   2.868  11.374 -0.0506  0.1973 -0.0376
  909MPD2    H713321   2.286   2.969  11.378 -0.4034  0.1031  1.7173
  910MPD2     C13322   3.469   4.251  14.735  0.7861  0.5696 -0.4100
  910MPD2    C113323   3.520   4.319  14.842 -0.5899 -0.2193  0.6867
  910MPD2    C213324   3.563   4.447  14.826 -0.2371  0.2564 -0.5536
  910MPD2    C313325   3.577   4.503  14.698 -0.0236 -0.3280 -0.0423
  910MPD2    C413326   3.526   4.436  14.593 -0.0202  0.1645  0.1816
  910MPD2    C513327   3.468   4.311  14.613 -0.1943 -0.4542 -0.1845
  910MPD2     H13328   3.595   4.493  14.919  1.5439  0.3840 -1.2164
  910MPD2    H113329   3.521   4.470  14.490 -1.0269  1.3884  0.6326
  910MPD2    H213330   3.428   4.151  14.743 -2.0444  1.7959  0.7008
  910MPD2    H313331   3.436   4.252  14.528  1.3693 -1.1799 -0.2779
  910MPD2     N13332   3.623   4.637  14.679 -0.5513 -0.4030 -0.0695
  910MPD2    H513333   3.614   4.666  14.582  0.9385 -0.1219 -0.1253
  910MPD2    N113334   3.512   4.267  14.975  0.3270  0.3829  0.6686
  910MPD2    H713335   3.557   4.320  15.049  1.9751 -0.0561 -0.0082
  911MPD2     C13336   1.171   0.704  15.931 -0.3041  0.4149 -0.7769
  911MPD2    C113337   1.188   0.830  15.987 -1.1394 -0.7707  0.4938
  911MPD2    C213338   1.080   0.920  15.978  0.0159  0.0971 -0.3677
  911MPD2    C313339   0.958   0.882  15.924  0.1553 -0.1868  0.5894
  911MPD2    C413340   0.942   0.750  15.888 -0.2601 -0.3156  0.2834
  911MPD2    C513341   1.044   0.666  15.897  0.0073 -0.2585 -0.0074
  911MPD2     H13342   1.087   1.023  16.011  0.0267  0.0740 -0.2962
  911MPD2    H113343   0.851   0.703  15.852 -0.8296  0.5554  0.6103
  911MPD2    H213344   1.245   0.625  15.943  0.7687  1.5891  0.3243
  911MPD2    H313345   1.017   0.563  15.877 -0.6752 -0.0293 -0.2706
  911MPD2     N13346   0.852   0.966  15.890  0.0960 -0.5037  0.4919
  911MPD2    H513347   0.778   0.922  15.837 -1.4304  0.6575  1.6339
  911MPD2    N113348   1.314   0.857  16.057 -0.1131  0.2092 -0.5800
  911MPD2    H713349   1.381   0.782  16.069  0.1260  0.3258 -1.2459
  912MPD2     C13350   0.673   0.716  15.256  0.1433 -1.1736 -0.8071
  912MPD2    C113351   0.679   0.719  15.397  0.1678 -0.0700  0.1257
  912MPD2    C213352   0.687   0.597  15.465 -0.1915 -0.0178 -0.7735
  912MPD2    C313353   0.709   0.481  15.394  0.1714  0.3515  0.1952
  912MPD2    C413354   0.699   0.479  15.255 -0.8877 -1.2315 -0.1210
  912MPD2    C513355   0.682   0.601  15.190 -0.0842  0.0784 -0.6320
  912MPD2     H13356   0.698   0.593  15.573  0.4497 -0.9929 -0.8776
  912MPD2    H113357   0.708   0.391  15.191  1.0235 -0.3236 -1.1183
  912MPD2    H213358   0.661   0.802  15.190 -1.0243  0.2377  1.2328
  912MPD2    H313359   0.686   0.596  15.082  0.5134  0.3591 -0.6189
  912MPD2     N13360   0.738   0.373  15.477  0.3123 -0.2075 -0.2354
  912MPD2    H513361   0.721   0.385  15.576 -0.5060 -2.3568 -0.0986
  912MPD2    N113362   0.667   0.848  15.459 -0.1525 -0.4486  0.5318
  912MPD2    H713363   0.663   0.921  15.389  0.6039  0.9840  1.9921
  913MPD2     C13364   1.257   0.975  10.579 -0.0053  0.0184  0.5343
  913MPD2    C113365   1.348   1.069  10.563  0.4678  0.6306  0.7921
  913MPD2    C213366   1.315   1.159  10.464 -0.5008  0.1505  0.0134
  913MPD2    C313367   1.189   1.171  10.404  0.4726  0.3064  0.0480
  913MPD2    C413368   1.103   1.072  10.432  0.3457 -0.7170 -0.3586
  913MPD2    C513369   1.137   0.970  10.512  0.0513 -0.4784 -1.5678
  913MPD2     H13370   1.391   1.229  10.428  0.9569 -2.1380 -1.3445
  913MPD2    H113371   1.000   1.074  10.397 -0.3687  1.2798  1.8750
  913MPD2    H213372   1.270   0.899  10.655  0.1347 -2.0214 -1.5288
  913MPD2    H313373   1.070   0.892  10.549  1.3548 -1.1676 -0.6668
  913MPD2     N13374   1.147   1.274  10.316  0.3398 -0.5323  0.1378
  913MPD2    H513375   1.058   1.263  10.269  0.0413  2.5521 -0.0320
  913MPD2    N113376   1.468   1.071  10.639  0.0116 -0.3275 -0.6173
  913MPD2    H713377   1.462   1.009  10.719 -0.9770 -0.5347 -0.8433
  914MPD2     C13378   4.682   2.499  11.695  0.0622  0.4790  0.1198
  914MPD2    C113379   4.588   2.523  11.794 -0.0735 -0.3616  0.8949
  914MPD2    C213380   4.514   2.414  11.836 -0.3165  0.4826 -0.3621
  914MPD2    C313381   4.524   2.291  11.780  0.6158  0.1842 -0.0545
  914MPD2    C413382   4.602   2.267  11.672 -0.3647 -0.4062 -0.1220
  914MPD2    C513383   4.686   2.374  11.633  0.6124  0.1029 -0.1985
  914MPD2     H13384   4.454   2.424  11.926 -0.3613  0.3101 -0.3742
  914MPD2    H113385   4.591   2.177  11.613  1.9948  0.5030 -2.0002
  914MPD2    H213386   0.015   2.581  11.653 -0.1805  0.6498  0.1319
  914MPD2    H313387   0.028   2.352  11.549 -0.5519  2.8493 -1.8201
  914MPD2     N13388   4.444   2.193  11.843  0.1967  0.7652 -0.0709
  914MPD2    H513389   4.399   2.229  11.926 -0.9754  1.5546 -1.0464
  914MPD2    N113390   4.583   2.654  11.844  0.1998 -0.0975  0.3177
  914MPD2    H713391   4.653   2.715  11.805  0.0331  1.6671  2.8362
  915MPD2     C13392   2.039   1.947  15.264 -0.1717  0.3751 -0.9182
  915MPD2    C113393   1.919   2.002  15.227  0.1148  0.4028  0.1192
  915MPD2    C213394   1.851   2.082  15.314  1.0581  0.0789  0.1288
  915MPD2    C313395   1.897   2.114  15.432  0.0324 -0.2869  0.2459
  915MPD2    C413396   2.027   2.086  15.465  0.1530  0.7162  0.1558
  915MPD2    C513397   2.094   2.006  15.375  0.3749  0.5804  0.1289
  915MPD2     H13398   1.755   2.121  15.282  0.3338 -1.8116  0.0423
  915MPD2    H113399   2.077   2.128  15.552 -0.8568 -0.9556  1.5358
  915MPD2    H213400   2.085   1.866  15.207  3.1404  1.8540 -0.3766
  915MPD2    H313401   2.189   1.970  15.413  0.0216  0.5689  1.0092
  915MPD2     N13402   1.814   2.171  15.528 -0.2968  0.6391 -0.1771
  915MPD2    H513403   1.716   2.185  15.504 -0.2874  0.5784 -0.2524
  915MPD2    N113404   1.844   1.971  15.115 -0.5908 -0.1996  0.3132
  915MPD2    H713405   1.754   2.015  15.101  1.4339  3.2078 -2.0012
  916MPD2     C13406   0.274   0.672  15.838 -0.1466  0.2910  0.8309
  916MPD2    C113407   0.212   0.565  15.892 -0.2716  0.2576  0.1410
  916MPD2    C213408   0.222   0.447  15.820  0.3570 -0.2049  0.0786
  916MPD2    C313409   0.305   0.436  15.707  0.4938  0.2254 -0.4196
  916MPD2    C413410   0.365   0.548  15.653 -0.3688 -0.3423  0.1102
  916MPD2    C513411   0.350   0.666  15.726 -0.4418 -0.3363  0.2116
  916MPD2     H13412   0.187   0.349  15.852  0.3278 -0.2513 -0.0971
  916MPD2    H113413   0.442   0.538  15.578 -2.5097  2.8299 -2.4660
  916MPD2    H213414   0.268   0.766  15.892  1.0219 -1.3493  3.8182
  916MPD2    H313415   0.397   0.755  15.687 -1.0014 -0.9943 -1.9276
  916MPD2     N13416   0.325   0.311  15.652 -0.2463 -0.8861  0.0220
  916MPD2    H513417   0.294   0.230  15.703  0.3606 -2.1829 -1.6508
  916MPD2    N113418   0.142   0.587  16.015  0.4365 -0.1380  0.3240
  916MPD2    H713419   0.136   0.686  16.038 -2.2835 -0.2343  0.0269
  917MPD2     C13420   0.696   2.161  10.915 -0.3728  0.1519  0.2937
  917MPD2    C113421   0.677   2.276  10.983  0.3294 -0.1211 -0.4068
  917MPD2    C213422   0.766   2.385  10.963 -0.8781 -0.6083 -0.5279
  917MPD2    C313423   0.867   2.377  10.870  0.2885 -0.1457  0.1171
  917MPD2    C413424   0.881   2.261  10.798 -0.1119 -0.1649 -0.1050
  917MPD2    C513425   0.800   2.157  10.834  0.1592 -0.0704  0.1966
  917MPD2     H13426   0.760   2.478  11.019 -1.0589  0.1006 -1.7211
  917MPD2    H113427   0.951   2.247  10.717 -0.4179  0.2873 -0.4438
  917MPD2    H213428   0.633   2.075  10.931  0.3410 -0.9135 -2.5930
  917MPD2    H313429   0.813   2.057  10.794 -0.1370  0.2147 -0.6086
  917MPD2     N13430   0.949   2.484  10.843 -0.0586 -1.0391  0.5424
  917MPD2    H513431   1.024   2.467  10.776 -0.8488 -0.7337 -0.4279
  917MPD2    N113432   0.580   2.284  11.074 -0.4214  0.9174  0.2291
  917MPD2    H713433   0.533   2.199  11.104  0.5668  0.8848  1.6863
  918MPD2     C13434   0.646   2.894  11.850  0.0486 -0.3492 -0.6623
  918MPD2    C113435   0.741   2.819  11.785  0.3506 -0.1792  0.2933
  918MPD2    C213436   0.694   2.730  11.690 -0.6031 -0.8657  0.2777
  918MPD2    C313437   0.561   2.726  11.641  0.9486 -0.5225 -0.9625
  918MPD2    C413438   0.469   2.813  11.706  0.6330 -0.1788 -0.3474
  918MPD2    C513439   0.514   2.896  11.809 -0.2220 -0.3812  0.3216
  918MPD2     H13440   0.763   2.659  11.647 -0.3766 -2.6144  3.5394
  918MPD2    H113441   0.361   2.813  11.691  0.6187 -0.0312 -0.2459
  918MPD2    H213442   0.681   2.954  11.933  0.2199 -3.0259  1.2065
  918MPD2    H313443   0.448   2.968  11.856  1.8432  1.5520  0.2312
  918MPD2     N13444   0.528   2.629  11.551  0.0606  0.0691 -0.1587
  918MPD2    H513445   0.605   2.584  11.503  0.5438 -0.2357  0.9149
  918MPD2    N113446   0.881   2.819  11.824  0.1954 -0.1892  0.2400
  918MPD2    H713447   0.951   2.793  11.754  0.5705 -1.0275  0.9166
  919MPD2     C13448   1.545   1.642  11.920  0.2078 -0.1879 -0.1736
  919MPD2    C113449   1.422   1.576  11.897  0.0165 -0.4824  0.5878
  919MPD2    C213450   1.348   1.618  11.787  0.2780 -0.0805  0.2119
  919MPD2    C313451   1.400   1.712  11.693 -0.0616  0.0235  0.3254
  919MPD2    C413452   1.521   1.772  11.720  0.1269  0.0116 -0.0890
  919MPD2    C513453   1.581   1.748  11.839 -0.5733 -0.0036  0.3072
  919MPD2     H13454   1.256   1.564  11.773  0.4563 -0.3687  0.1567
  919MPD2    H113455   1.559   1.849  11.654  0.5370 -1.3357 -1.4176
  919MPD2    H213456   1.603   1.638  12.012  0.3123 -2.8891 -0.3796
  919MPD2    H313457   1.673   1.802  11.856  0.4331 -1.4546 -0.5246
  919MPD2     N13458   1.338   1.747  11.569  0.0187 -0.0043 -0.1058
  919MPD2    H513459   1.383   1.804  11.499 -0.0830  0.4343  0.1828
  919MPD2    N113460   1.370   1.480  11.981  0.1662  0.4929  0.0125
  919MPD2    H713461   1.277   1.443  11.962 -0.0353  1.0829 -0.1291
  920MPD2     C13462   1.595   2.116  10.732 -0.3524 -0.0776  0.5538
  920MPD2    C113463   1.476   2.068  10.688  0.3889  0.3603 -0.0728
  920MPD2    C213464   1.393   1.994  10.778 -0.6644  0.4612 -0.2852
  920MPD2    C313465   1.438   1.952  10.905 -0.3241 -0.2042  0.1364
  920MPD2    C413466   1.557   2.007  10.944  0.6396 -0.2160 -0.1392
  920MPD2    C513467   1.635   2.087  10.860  0.0976 -0.3900 -0.4688
  920MPD2     H13468   1.305   1.947  10.736 -0.2179 -1.8676  1.3353
  920MPD2    H113469   1.592   2.001  11.046  0.7302  2.2831 -0.0325
  920MPD2    H213470   1.669   2.166  10.671  2.5499  0.4966  4.4773
  920MPD2    H313471   1.729   2.124  10.900 -0.4306  1.0521 -0.5697
  920MPD2     N13472   1.351   1.881  10.992 -1.0814  0.3781 -0.2875
  920MPD2    H513473   1.259   1.854  10.959 -0.3689 -0.0398 -1.9012
  920MPD2    N113474   1.427   2.090  10.559 -0.8711 -0.0898 -0.5283
  920MPD2    H713475   1.329   2.073  10.539 -0.5870 -0.8655 -1.2360
  921MPD2     C13476   1.648   1.484  16.800 -0.4786 -0.0024  0.3395
  921MPD2    C113477   1.762   1.434  16.736  0.6013  0.3988  0.3965
  921MPD2    C213478   1.769   1.334  16.644 -1.2378 -0.2229  0.0063
  921MPD2    C313479   1.643   1.285  16.604  0.3120  0.4411 -0.1852
  921MPD2    C413480   1.529   1.323  16.673  0.2894  0.2770  0.2240
  921MPD2    C513481   1.535   1.419  16.769  0.0931 -1.1527  0.5086
  921MPD2     H13482   1.865   1.291  16.618 -2.3533 -0.1575 -4.3516
  921MPD2    H113483   1.432   1.286  16.642  0.4475  0.1006 -0.0654
  921MPD2    H213484   1.650   1.569  16.868  2.9256 -1.1700  1.6957
  921MPD2    H313485   1.439   1.445  16.812 -0.4876  0.8414 -2.0404
  921MPD2     N13486   1.614   1.180  16.514 -0.1237  0.0726  0.2870
  921MPD2    H513487   1.520   1.144  16.514 -0.2411  0.3230 -2.8005
  921MPD2    N113488   1.881   1.516  16.766 -0.0199 -1.0208  0.3643
  921MPD2    H713489   1.867   1.602  16.819 -0.0497 -0.7066 -0.1512
  922MPD2     C13490   2.559   3.255  17.357 -0.4166  0.0095  0.6772
  922MPD2    C113491   2.612   3.256  17.235  0.0690 -0.4248 -0.0703
  922MPD2    C213492   2.559   3.195  17.122 -0.0083  0.4799 -0.6515
  922MPD2    C313493   2.437   3.131  17.141  0.3107 -0.6569  1.0266
  922MPD2    C413494   2.378   3.130  17.267  0.0024  0.6910 -0.2135
  922MPD2    C513495   2.440   3.185  17.373  0.2587  0.0959  0.1270
  922MPD2     H13496   2.603   3.193  17.023  1.3680  0.8907 -0.0467
  922MPD2    H113497   2.280   3.088  17.287  0.2314  0.6532  0.8240
  922MPD2    H213498   2.600   3.291  17.451  0.4162  0.9611 -0.0530
  922MPD2    H313499   2.403   3.178  17.474 -1.2099  0.5597 -0.3846
  922MPD2     N13500   2.379   3.074  17.026  0.1979 -0.4318 -0.2454
  922MPD2    H513501   2.414   3.104  16.936  2.6650 -2.2049  0.1198
  922MPD2    N113502   2.735   3.322  17.208 -0.2635 -0.0473 -0.1402
  922MPD2    H713503   2.755   3.338  17.110 -0.6782  0.7205 -0.1007
  923MPD2     C13504   0.258   4.319   8.644  1.0223 -0.3530  0.5116
  923MPD2    C113505   0.190   4.397   8.739 -0.4651 -0.0879 -0.6392
  923MPD2    C213506   0.231   4.390   8.874 -0.0019 -0.5645  0.0233
  923MPD2    C313507   0.335   4.308   8.910 -0.7804  0.4700 -0.3618
  923MPD2    C413508   0.400   4.235   8.819  0.1533  0.1066 -0.6302
  923MPD2    C513509   0.364   4.239   8.689 -0.6574 -0.0951  0.6052
  923MPD2     H13510   0.188   4.446   8.957 -1.5332 -0.7623 -0.6286
  923MPD2    H113511   0.481   4.169   8.844  2.1409  1.6909 -2.9021
  923MPD2    H213512   0.219   4.305   8.544 -1.2324 -3.9691  1.8717
  923MPD2    H313513   0.408   4.168   8.620  0.2336  1.3647 -0.3211
  923MPD2     N13514   0.374   4.290   9.045 -0.6480 -0.0155 -0.7751
  923MPD2    H513515   0.456   4.230   9.053  0.2410  1.2939 -0.0179
  923MPD2    N113516   0.082   4.484   8.697 -0.4229  0.0898  0.3697
  923MPD2    H713517   0.062   4.486   8.598  1.6968 -0.3847 -0.0716
  924MPD2     C13518   4.053   3.611  16.137  0.0352 -0.7350 -0.1902
  924MPD2    C113519   3.969   3.718  16.153  0.3314  0.6906  0.3534
  924MPD2    C213520   4.001   3.844  16.106  0.0961 -0.4167  0.2336
  924MPD2    C313521   4.110   3.856  16.023  0.0497 -0.1116 -0.2066
  924MPD2    C413522   4.181   3.743  15.992  0.3068 -0.0782  0.1065
  924MPD2    C513523   4.163   3.626  16.068 -0.1487  0.4134 -0.0554
  924MPD2     H13524   3.937   3.929  16.128  0.1060 -0.4398  0.3546
  924MPD2    H113525   4.269   3.762  15.931  0.5042 -1.9921 -0.2267
  924MPD2    H213526   4.039   3.511  16.176 -0.1155  0.5999  3.1644
  924MPD2    H313527   4.228   3.539  16.057 -0.0420  0.7733 -2.3520
  924MPD2     N13528   4.132   3.988  15.975  0.2521 -0.3577 -0.1729
  924MPD2    H513529   4.088   4.066  16.023 -0.2536 -0.3170 -0.7011
  924MPD2    N113530   3.851   3.695  16.229  0.2755 -0.2610 -0.4704
  924MPD2    H713531   3.841   3.597  16.252  2.2092 -0.5589 -0.8736
  925MPD2     C13532   2.874   1.253  14.372 -0.4402 -0.0742  0.0708
  925MPD2    C113533   2.745   1.268  14.330 -0.0893  0.1173 -0.0914
  925MPD2    C213534   2.645   1.281  14.426 -0.3546 -0.1105 -0.6512
  925MPD2    C313535   2.680   1.287  14.561 -0.2450 -0.0305 -0.2207
  925MPD2    C413536   2.810   1.278  14.601  0.2137  0.0376 -0.5645
  925MPD2    C513537   2.904   1.261  14.503  0.3720 -0.2622  0.4775
  925MPD2     H13538   2.540   1.276  14.401 -0.1935 -1.2884 -1.1258
  925MPD2    H113539   2.834   1.284  14.707 -3.5563  1.0961  0.2431
  925MPD2    H213540   2.952   1.228  14.301 -0.0474 -1.4349  0.9895
  925MPD2    H313541   3.007   1.236  14.527  1.3711  1.6351 -1.7680
  925MPD2     N13542   2.582   1.266  14.657  0.0398  0.3955 -0.4538
  925MPD2    H513543   2.492   1.234  14.623 -1.1513  1.3388  1.8570
  925MPD2    N113544   2.704   1.266  14.191 -0.0578 -0.9893 -0.1542
  925MPD2    H713545   2.604   1.280  14.176 -0.3293 -3.1702 -0.3936
  926MPD2     C13546   1.793   4.467  13.601 -0.1474 -0.1566 -0.5957
  926MPD2    C113547   1.696   4.517  13.515  0.2385  0.1861  0.4153
  926MPD2    C213548   1.728   4.571  13.390  0.3823 -0.1234  0.1949
  926MPD2    C313549   1.861   4.567  13.344  0.1614 -0.2525 -0.0110
  926MPD2    C413550   1.955   4.520  13.438  0.1821 -0.4085  0.2431
  926MPD2    C513551   1.926   4.472  13.565 -0.1798 -0.5009 -0.1960
  926MPD2     H13552   1.644   4.599  13.326  2.2997  0.4454 -2.0548
  926MPD2    H113553   2.057   4.523  13.401 -0.0630 -0.4661 -0.4340
  926MPD2    H213554   1.768   4.438  13.702  1.0416 -0.1162 -0.2842
  926MPD2    H313555   2.005   4.428  13.626  0.7798 -0.4993 -1.4295
  926MPD2     N13556   1.898   4.605  13.213  0.2925  0.1808 -0.0642
  926MPD2    H513557   1.993   4.597  13.179 -0.1568  2.7380 -1.9391
  926MPD2    N113558   1.561   4.521  13.546 -0.8563  0.5636 -0.4864
  926MPD2    H713559   1.504   4.552  13.468  0.2778  0.9446 -1.1596
  927MPD2     C13560   1.535   2.465   0.032  0.5883  0.0852 -0.0668
  927MPD2    C113561   1.407   2.419   0.013 -0.4868 -0.2935 -0.1994
  927MPD2    C213562   1.381   2.351  17.586 -0.3151 -0.2110  0.4394
  927MPD2    C313563   1.488   2.327  17.502 -0.3337  0.0246 -0.3518
  927MPD2    C413564   1.612   2.369  17.525 -0.2467 -0.1791  0.7326
  927MPD2    C513565   1.634   2.452  17.635  0.1022  0.2804  0.1122
  927MPD2     H13566   1.281   2.315  17.564 -0.9472  1.2312  0.9797
  927MPD2    H113567   1.687   2.328  17.458 -0.6364 -0.4949  0.4911
  927MPD2    H213568   1.548   2.533   0.116  0.6439  0.8922 -0.7266
  927MPD2    H313569   1.727   2.506  17.651 -0.6424  0.9295  2.2196
  927MPD2     N13570   1.447   2.260  17.385  0.5168 -0.1591  0.4008
  927MPD2    H513571   1.362   2.204  17.394  0.7526 -0.6243 -0.2443
  927MPD2    N113572   1.303   2.444   0.111  0.2116  0.0044 -0.0277
  927MPD2    H713573   1.324   2.509   0.185 -0.3907 -0.0774  0.2136
  928MPD2     C13574   3.388   1.105   0.399  0.0479 -0.1191 -0.0010
  928MPD2    C113575   3.489   1.088   0.493 -0.8446  0.1865 -0.8595
  928MPD2    C213576   3.601   1.029   0.444  0.3805 -0.6198  0.3464
  928MPD2    C313577   3.622   0.999   0.310  0.8264 -0.3683 -0.1758
  928MPD2    C413578   3.526   1.039   0.221  0.2378  0.1921  0.1380
  928MPD2    C513579   3.410   1.095   0.265 -0.2856 -0.5039 -0.6445
  928MPD2     H13580   3.687   1.024   0.510 -0.7517  1.4950  2.0048
  928MPD2    H113581   3.537   1.012   0.117 -0.3288 -0.6496  0.3013
  928MPD2    H213582   3.294   1.148   0.431  1.0131  0.3358  2.1860
  928MPD2    H313583   3.336   1.104   0.186  0.7109  0.7037 -1.4513
  928MPD2     N13584   3.750   0.974   0.251 -0.6987 -0.4719 -0.0406
  928MPD2    H513585   3.755   0.996   0.152  0.0264  0.3457  0.1775
  928MPD2    N113586   3.463   1.123   0.627  0.4970 -0.4229 -0.4677
  928MPD2    H713587   3.384   1.184   0.643  1.0470  0.5877 -1.6069
  929MPD2     C13588   0.064   4.673   9.798  0.9744 -0.4892  0.3204
  929MPD2    C113589   0.030   0.086   9.794 -0.7030 -0.7382 -0.3601
  929MPD2    C213590   4.715   0.148   9.678 -0.1298 -0.6647  0.3064
  929MPD2    C313591   4.715   0.078   9.557 -0.3086  0.5816  0.7197
  929MPD2    C413592   0.029   4.672   9.556  0.5080  0.3038 -0.4144
  929MPD2    C513593   0.057   4.608   9.678  0.1079  0.4731  0.0809
  929MPD2     H13594   4.660   0.241   9.687  0.2431 -0.2113 -2.0817
  929MPD2    H113595   0.027   4.620   9.461  2.9309 -1.3794  0.4527
  929MPD2    H213596   0.088   4.607   9.881  3.7169 -2.7287 -2.2353
  929MPD2    H313597   0.068   4.501   9.663 -3.2000  0.3760 -1.5832
  929MPD2     N13598   4.635   0.118   9.451  0.4436  0.0393 -0.2839
  929MPD2    H513599   4.595   0.046   9.392 -0.0418 -0.4254  0.6101
  929MPD2    N113600   0.016   0.152   9.915 -0.6574  0.2406  0.0037
  929MPD2    H713601   0.024   0.096   9.999 -1.3315 -1.2360 -0.9210
  930MPD2     C13602   0.865   2.862  13.749 -0.3198  0.1076  0.1890
  930MPD2    C113603   0.973   2.783  13.717  0.1155 -0.1255  0.5294
  930MPD2    C213604   0.946   2.676  13.642 -0.2911  0.1621  0.4338
  930MPD2    C313605   0.817   2.638  13.598  0.1316  0.5819 -0.2085
  930MPD2    C413606   0.715   2.714  13.633  0.9452 -0.2096 -0.0095
  930MPD2    C513607   0.740   2.823  13.706 -0.7453 -0.1152  0.0182
  930MPD2     H13608   1.027   2.606  13.628  0.6061  1.0725  1.0576
  930MPD2    H113609   0.610   2.696  13.612  1.1741  0.9512 -2.1399
  930MPD2    H213610   0.864   2.939  13.825 -1.1437  2.7922 -2.5390
  930MPD2    H313611   0.661   2.890  13.738 -0.3960  1.1874 -1.8537
  930MPD2     N13612   0.784   2.525  13.523  0.2501 -0.1451  0.9837
  930MPD2    H513613   0.687   2.500  13.540 -0.1497  1.0313  0.4719
  930MPD2    N113614   1.097   2.841  13.743  0.2332  0.4357 -0.3732
  930MPD2    H713615   1.086   2.927  13.796 -2.8616  0.6913 -1.4355
  931MPD2     C13616   0.477   2.401   0.486 -0.1058 -0.0567 -0.7536
  931MPD2    C113617   0.600   2.338   0.503 -0.2620  0.4708 -0.2410
  931MPD2    C213618   0.615   2.244   0.605  0.0530 -0.6876 -0.1925
  931MPD2    C313619   0.509   2.210   0.690  0.5708  0.1627 -0.4606
  931MPD2    C413620   0.397   2.285   0.683 -0.0100 -0.3597  0.7005
  931MPD2    C513621   0.376   2.366   0.572  0.5390  0.4036  1.0629
  931MPD2     H13622   0.710   2.198   0.632 -0.4477 -1.3250  0.4932
  931MPD2    H113623   0.319   2.280   0.758 -0.9729  3.0909 -0.1161
  931MPD2    H213624   0.463   2.482   0.416  0.5732 -2.6472 -3.8624
  931MPD2    H313625   0.284   2.422   0.567  0.4159  0.3500  2.6131
  931MPD2     N13626   0.518   2.108   0.791  0.1180  0.3303 -0.0971
  931MPD2    H513627   0.438   2.093   0.851 -0.0246  0.0047 -0.3684
  931MPD2    N113628   0.711   2.394   0.431  0.0716 -0.3969  0.3068
  931MPD2    H713629   0.687   2.480   0.382 -1.0201 -0.4337  0.7633
  932MPD2     C13630   3.233   1.422  11.215  0.2249 -0.1494  0.5010
  932MPD2    C113631   3.349   1.358  11.171 -0.7616 -0.8664  0.3850
  932MPD2    C213632   3.391   1.242  11.228 -0.6752  0.6006  0.4494
  932MPD2    C313633   3.323   1.185  11.328  0.1943 -0.2044  0.5437
  932MPD2    C413634   3.201   1.238  11.365  0.2734  0.4388  0.2326
  932MPD2    C513635   3.155   1.355  11.307  0.0167 -0.5015 -0.5333
  932MPD2     H13636   3.488   1.205  11.197 -1.7671 -2.2760  0.4043
  932MPD2    H113637   3.139   1.196  11.443 -0.1590 -0.2823 -0.4937
  932MPD2    H213638   3.195   1.512  11.168 -1.2245 -0.9972  0.0532
  932MPD2    H313639   3.067   1.404  11.349  1.0045  2.0359 -1.3942
  932MPD2     N13640   3.359   1.071  11.398 -0.0818  0.0948 -0.2501
  932MPD2    H513641   3.292   1.028  11.461 -0.5112  1.5408  0.2581
  932MPD2    N113642   3.427   1.407  11.069 -0.5705 -0.1172 -0.8846
  932MPD2    H713643   3.502   1.347  11.033 -0.6145 -0.7635  0.0851
  933MPD2     C13644   2.916   1.296   0.861 -0.1403 -0.8467  0.8661
  933MPD2    C113645   3.022   1.363   0.918 -1.3222  0.1489 -0.3111
  933MPD2    C213646   3.004   1.499   0.937  0.7394 -0.5833 -0.2660
  933MPD2    C313647   2.882   1.560   0.912  0.4496 -0.3532 -0.1675
  933MPD2    C413648   2.778   1.483   0.860  0.1316 -0.2740 -0.0328
  933MPD2    C513649   2.799   1.355   0.826  0.4698 -0.4554  0.4207
  933MPD2     H13650   3.088   1.556   0.973 -0.5367  1.4070 -0.4468
  933MPD2    H113651   2.686   1.528   0.823  1.0506  0.7635 -1.0680
  933MPD2    H213652   2.912   1.188   0.867  0.9961 -0.8595  1.3813
  933MPD2    H313653   2.717   1.296   0.787  0.6586 -1.2953  1.3110
  933MPD2     N13654   2.877   1.700   0.913 -0.0553  0.8572  0.8810
  933MPD2    H513655   2.953   1.753   0.952  1.6790 -1.6931  0.9929
  933MPD2    N113656   3.140   1.293   0.949 -0.5597 -0.2407 -0.4218
  933MPD2    H713657   3.137   1.194   0.926 -0.6167 -0.4264  0.3642
  934MPD2     C13658   4.351   3.522   1.656  0.1215 -0.4028 -0.5925
  934MPD2    C113659   4.440   3.427   1.621  0.1335  1.2498 -0.1208
  934MPD2    C213660   4.408   3.340   1.522 -0.3108 -0.1678  0.3245
  934MPD2    C313661   4.290   3.341   1.449  0.3994 -0.2982  0.1994
  934MPD2    C413662   4.207   3.452   1.473  0.6181  0.2008  0.1683
  934MPD2    C513663   4.242   3.539   1.572  0.2953 -0.0747  0.4121
  934MPD2     H13664   4.480   3.262   1.501 -0.6861 -0.9577  1.9421
  934MPD2    H113665   4.114   3.470   1.421  0.3245 -0.5758  0.4209
  934MPD2    H213666   4.377   3.603   1.723 -1.2318 -0.9291  0.5541
  934MPD2    H313667   4.179   3.626   1.591 -0.1200 -0.6517  1.7157
  934MPD2     N13668   4.260   3.246   1.349  0.6559 -0.1718 -1.1756
  934MPD2    H513669   4.173   3.268   1.301  1.2209  2.4193 -1.0083
  934MPD2    N113670   4.560   3.395   1.682 -0.0876  0.0238 -0.7597
  934MPD2    H713671   4.621   3.323   1.644  0.5273 -0.1213  0.5113
  935MPD2     C13672   4.700   2.372   1.010  0.4684 -0.6982  0.5231
  935MPD2    C113673   4.624   2.413   0.907  0.7242  0.0772 -0.9267
  935MPD2    C213674   4.546   2.531   0.918 -0.2523 -0.5707 -0.2393
  935MPD2    C313675   4.534   2.599   1.039 -0.6552 -0.2718  0.2504
  935MPD2    C413676   4.608   2.549   1.138  0.4093  0.1613  0.4106
  935MPD2    C513677   4.693   2.441   1.129 -0.1767 -0.2361 -0.5554
  935MPD2     H13678   4.481   2.569   0.840 -1.3200 -2.8327 -0.4457
  935MPD2    H113679   4.596   2.586   1.240  0.4640  0.2161  0.3972
  935MPD2    H213680   0.043   2.286   1.006  0.9002 -0.2926 -1.4418
  935MPD2    H313681   0.035   2.407   1.209 -0.0846  0.7336 -0.2173
  935MPD2     N13682   4.461   2.711   1.086  0.0690  0.2134 -0.5988
  935MPD2    H513683   4.468   2.761   1.173  2.2219 -1.9897  0.5130
  935MPD2    N113684   4.628   2.348   0.780 -0.3549 -0.2070  0.5804
  935MPD2    H713685   4.579   2.392   0.703 -0.2569 -1.1906 -0.0569
  936MPD2     C13686   4.218   3.860  13.001 -0.6823 -0.0663 -0.7239
  936MPD2    C113687   4.189   3.993  13.035  0.0888  0.0664  0.2288
  936MPD2    C213688   4.213   4.091  12.943 -0.2741 -0.3748  1.1327
  936MPD2    C313689   4.259   4.067  12.816 -0.4558  1.0385 -0.0495
  936MPD2    C413690   4.286   3.938  12.783 -0.1899  1.1277  0.2375
  936MPD2    C513691   4.258   3.839  12.870  0.0063  0.5108 -0.2344
  936MPD2     H13692   4.190   4.193  12.973  0.4783  0.0082  0.3917
  936MPD2    H113693   4.314   3.913  12.681  0.0577 -2.6972  1.2447
  936MPD2    H213694   4.184   3.774  13.057  0.0752 -0.7680 -1.3396
  936MPD2    H313695   4.281   3.736  12.843  1.3185  0.7297  0.0473
  936MPD2     N13696   4.267   4.173  12.727  0.0635  0.3304  0.0723
  936MPD2    H513697   4.259   4.267  12.765 -0.2706  0.3355 -0.0148
  936MPD2    N113698   4.139   4.028  13.164  1.1659 -0.0319 -0.5818
  936MPD2    H713699   4.120   4.127  13.181 -1.7471 -0.8981  1.1277
  937MPD2     C13700   1.586   0.720  12.056  0.5305  0.2247 -0.1979
  937MPD2    C113701   1.570   0.840  11.995 -0.5777 -0.3091 -0.5791
  937MPD2    C213702   1.621   0.858  11.867  0.0559 -0.3541 -0.1965
  937MPD2    C313703   1.667   0.754  11.790  0.1032 -0.0209 -0.4051
  937MPD2    C413704   1.676   0.634  11.856 -0.1989  0.4455 -0.4017
  937MPD2    C513705   1.647   0.618  11.986 -0.2410  0.2471 -0.3253
  937MPD2     H13706   1.610   0.959  11.827 -0.5169 -0.7874 -1.1496
  937MPD2    H113707   1.713   0.544  11.808 -0.8185 -1.4977  2.8307
  937MPD2    H213708   1.564   0.706  12.161  3.7982 -1.7519  0.2247
  937MPD2    H313709   1.666   0.519  12.024 -0.3893 -1.2461 -4.1361
  937MPD2     N13710   1.704   0.772  11.655 -0.2419 -0.2342 -0.7490
  937MPD2    H513711   1.698   0.867  11.618 -0.4039 -0.0557 -0.2755
  937MPD2    N113712   1.531   0.959  12.070  0.3635 -0.3637 -0.3658
  937MPD2    H713713   1.531   1.044  12.014  0.0933  0.1490  0.4026
  938MPD2     C13714   3.645   2.715   0.598 -0.7240  1.0995  0.1339
  938MPD2    C113715   3.560   2.802   0.665 -0.7485  0.7181  0.2312
  938MPD2    C213716   3.494   2.753   0.780 -0.8203 -0.0934 -0.6144
  938MPD2    C313717   3.522   2.626   0.819 -0.0844 -0.1168  0.5680
  938MPD2    C413718   3.613   2.542   0.750 -0.0246 -0.1929 -0.0514
  938MPD2    C513719   3.669   2.589   0.636  0.2933  0.2237  0.6847
  938MPD2     H13720   3.415   2.807   0.830  0.9819  2.0076 -0.0275
  938MPD2    H113721   3.629   2.438   0.776  1.0005 -0.2067 -0.7433
  938MPD2    H213722   3.690   2.745   0.504  0.1665 -3.8797 -1.0154
  938MPD2    H313723   3.719   2.520   0.569  2.0828  0.8488  1.3583
  938MPD2     N13724   3.464   2.563   0.938  0.2584 -0.4240 -1.3116
  938MPD2    H513725   3.517   2.480   0.961  4.0377  2.6035  0.9443
  938MPD2    N113726   3.536   2.937   0.638  0.3082 -0.9810 -0.6240
  938MPD2    H713727   3.476   3.003   0.686  0.2284 -0.3105 -1.6496
  939MPD2     C13728   0.428   4.096   0.998 -0.2790  0.2702 -0.3586
  939MPD2    C113729   0.317   4.051   0.932 -0.4264  0.1747 -0.4613
  939MPD2    C213730   0.331   3.994   0.811  0.6037  0.0285 -0.0997
  939MPD2    C313731   0.454   3.987   0.747 -0.7782  0.2127 -0.6554
  939MPD2    C413732   0.569   4.042   0.814  0.4015  0.5264 -0.2267
  939MPD2    C513733   0.552   4.091   0.944  0.1176  0.2574  0.0200
  939MPD2     H13734   0.248   3.942   0.764  0.1036  1.0283 -0.3254
  939MPD2    H113735   0.666   4.030   0.765 -1.2207 -0.4490 -3.1905
  939MPD2    H213736   0.416   4.152   1.089 -0.9021  2.2193 -1.6358
  939MPD2    H313737   0.636   4.125   1.003 -1.5973  0.6287  2.2190
  939MPD2     N13738   0.463   3.931   0.617  0.0755 -0.5151  0.0561
  939MPD2    H513739   0.380   3.883   0.583  0.2382 -1.3670  0.8736
  939MPD2    N113740   0.197   4.062   1.004 -0.5435  0.2243 -0.3593
  939MPD2    H713741   0.219   4.105   1.093 -1.8519 -3.5278  1.7782
  940MPD2     C13742   4.303   0.016  13.119 -0.6024  0.2327 -0.0851
  940MPD2    C113743   4.362   4.631  13.179  0.1243  0.0449  0.3415
  940MPD2    C213744   4.456   4.552  13.114  0.3845 -0.1083  0.7729
  940MPD2    C313745   4.484   4.584  12.984  0.6692  0.2990  0.6193
  940MPD2    C413746   4.428   4.700  12.928 -0.0750  0.6150  0.4134
  940MPD2    C513747   4.345   0.052  12.998 -0.2104  0.2649 -0.6206
  940MPD2     H13748   4.496   4.466  13.166  0.2034 -2.2287 -2.5855
  940MPD2    H113749   4.446   0.004  12.825 -2.0574  0.5048  0.0415
  940MPD2    H213750   4.223   0.074  13.164 -1.1107 -1.1659  0.8294
  940MPD2    H313751   4.291   0.134  12.951  0.3816  0.6524 -0.6323
  940MPD2     N13752   4.552   4.493  12.895 -0.0593  0.1407 -0.3356
  940MPD2    H513753   4.595   4.532  12.812  1.5425 -0.4232  0.2271
  940MPD2    N113754   4.313   4.591  13.309  0.5556  0.3376  0.0930
  940MPD2    H713755   4.354   4.506  13.346  1.2799 -0.8909 -3.5860
  941MPD2     C13756   4.497   2.949   9.005 -0.0529 -0.3853  0.3929
  941MPD2    C113757   4.400   2.923   9.093  0.2457  0.1260 -0.2603
  941MPD2    C213758   4.355   2.791   9.115  0.4132  0.4806 -0.5387
  941MPD2    C313759   4.415   2.694   9.041 -0.4459  0.1245 -0.4378
  941MPD2    C413760   4.510   2.719   8.939 -0.5638 -0.6037 -0.4149
  941MPD2    C513761   4.554   2.849   8.930  0.5824 -0.2788 -0.0064
  941MPD2     H13762   4.283   2.771   9.194  1.5735  0.3932  0.4892
  941MPD2    H113763   4.564   2.648   8.876  2.2070 -1.7619  3.2628
  941MPD2    H213764   4.542   3.046   8.985 -1.0011  0.0720  0.4741
  941MPD2    H313765   4.622   2.892   8.857 -0.9785 -0.0666 -1.3316
  941MPD2     N13766   4.377   2.559   9.063 -0.0840 -0.3986  0.0248
  941MPD2    H513767   4.419   2.488   9.003 -0.3846 -0.8967  0.4010
  941MPD2    N113768   4.342   3.023   9.165 -0.1521  0.5545  0.4385
  941MPD2    H713769   4.252   3.001   9.208  0.5568 -2.8042  0.2259
  942MPD2     C13770   4.046   4.427   9.122 -0.1709 -0.4861  0.2101
  942MPD2    C113771   4.106   4.488   9.010 -0.2490  0.0131  0.0070
  942MPD2    C213772   4.223   4.439   8.960 -0.1236 -0.5426  0.0148
  942MPD2    C313773   4.294   4.333   9.020  0.4775 -0.1651  0.7180
  942MPD2    C413774   4.243   4.290   9.141  0.0436 -0.2117 -0.2982
  942MPD2    C513775   4.119   4.319   9.179 -0.3432  0.6407  1.0275
  942MPD2     H13776   4.255   4.485   8.867 -1.5493  2.7474  1.1565
  942MPD2    H113777   4.290   4.209   9.197 -1.1461  0.2071  1.2944
  942MPD2    H213778   3.952   4.454   9.169  0.7891  1.1560  1.1884
  942MPD2    H313779   4.076   4.253   9.254  1.9224 -0.4109  1.3989
  942MPD2     N13780   4.402   4.263   8.963 -0.3430 -0.3947  0.0741
  942MPD2    H513781   4.439   4.180   9.008  1.1292  1.0079  1.4666
  942MPD2    N113782   4.046   4.600   8.945  0.1181  0.0427 -0.5430
  942MPD2    H713783   4.097   4.643   8.869  0.5371  1.2426  0.4180
  943MPD2     C13784   1.295   2.454   9.341 -0.4083  0.3086  0.9908
  943MPD2    C113785   1.428   2.496   9.333  0.0616  0.1068 -0.8592
  943MPD2    C213786   1.457   2.603   9.254  0.3340  0.3919  0.1747
  943MPD2    C313787   1.359   2.668   9.173  0.2344  0.0284 -0.3591
  943MPD2    C413788   1.231   2.631   9.189 -0.0495 -0.8448 -0.1217
  943MPD2    C513789   1.197   2.527   9.272 -0.5827 -0.4073  0.7416
  943MPD2     H13790   1.562   2.633   9.251  0.4185  0.3429  2.3659
  943MPD2    H113791   1.145   2.678   9.143  0.3599  0.7375  0.7312
  943MPD2    H213792   1.254   2.385   9.414 -2.4436 -1.4579 -1.8169
  943MPD2    H313793   1.093   2.506   9.290 -1.4261  1.2026 -2.2610
  943MPD2     N13794   1.386   2.778   9.087 -0.2744 -0.5958 -0.0535
  943MPD2    H513795   1.307   2.823   9.042  1.0519  0.3372 -1.4871
  943MPD2    N113796   1.521   2.434   9.421  0.4810 -0.1826 -0.4278
  943MPD2    H713797   1.490   2.346   9.460  0.4307 -0.4230 -1.0188
  944MPD2     C13798   2.001   1.805  11.022 -0.7915  0.3534 -0.0732
  944MPD2    C113799   1.983   1.908  10.928  0.7603 -1.1811  0.4657
  944MPD2    C213800   1.971   2.036  10.977  0.0214 -0.2316 -0.3659
  944MPD2    C313801   1.992   2.066  11.116  0.6654  0.3452  0.0549
  944MPD2    C413802   2.020   1.962  11.203 -0.1059  0.3070  0.0921
  944MPD2    C513803   2.013   1.836  11.157  0.0749  0.6930 -0.4689
  944MPD2     H13804   1.955   2.128  10.921 -2.2736  0.5909  1.6046
  944MPD2    H113805   2.042   1.985  11.307  3.4489  1.8148 -1.0088
  944MPD2    H213806   1.993   1.699  10.999  0.2855  1.0640 -3.5671
  944MPD2    H313807   2.044   1.759  11.226  0.0120  1.9951  1.0148
  944MPD2     N13808   1.975   2.204  11.149 -0.2244  0.0012 -0.2716
  944MPD2    H513809   1.945   2.266  11.075  2.4924 -0.3065 -1.6254
  944MPD2    N113810   1.971   1.888  10.791 -0.0647 -0.3067 -0.2740
  944MPD2    H713811   1.952   1.794  10.758 -1.9164 -0.1108  0.2819
    1TCq1    O113812   0.133   3.092  14.028 -0.0373  0.2999  0.4321
    1TCq1    C113813   0.226   3.112  14.120  0.1275  0.3879 -0.0780
    1TCq1    O213814   0.344   3.089  14.123  0.6220 -0.1912 -0.1719
    1TCq1    C213815   0.160   3.190  14.221  0.1200  0.2449  0.8961
    1TCq1    C313816   0.026   3.182  14.236  0.1256  0.4208 -0.3196
    1TCq1    C413817   4.688   3.263  14.323  0.0792 -0.1166  0.2333
    1TCq1    C513818   0.028   3.356  14.390  0.0162  0.0695 -0.3748
    1TCq1    C613819   0.164   3.360  14.373  0.8148 -0.3611 -0.1891
    1TCq1    C713820   0.232   3.289  14.285 -0.1017 -0.0710  0.2813
    1TCq1    C813821   0.239   3.466  14.433 -0.5130  0.5046 -0.5081
    1TCq1    O413822   0.341   3.440  14.490 -0.1219 -0.2136 -0.1382
    1TCq1    C913823   4.546   3.262  14.331  0.2659  0.6932  0.4557
    1TCq1    O513824   4.490   3.161  14.294 -0.3853 -0.3321  0.2156
    1TCq1    O613825   4.495   3.332  14.426 -0.8869  0.3811 -0.6903
    1TCq1    H113826   0.058   3.154  14.030 -0.3321 -0.0193 -0.6651
    1TCq1    H213827   4.690   3.111  14.180 -1.1116  1.2520 -0.0637
    1TCq1    H313828   4.698   3.415  14.464 -0.1518  0.5217 -0.8588
    1TCq1    H413829   0.340   3.294  14.274  0.0850 -0.3378  2.0435
    2MPD2     C13830   0.182   3.921  14.678 -0.3978  1.0760  0.4259
    2MPD2    C113831   0.114   3.931  14.560  0.0745 -0.7076  0.4340
    2MPD2    C213832   0.110   3.817  14.478  0.3104 -0.6689  0.6566
    2MPD2    C313833   0.173   3.696  14.513 -0.1993  0.1289 -0.1828
    2MPD2    C413834   0.252   3.698  14.626  0.6939 -0.0988 -1.0631
    2MPD2    C513835   0.251   3.807  14.706 -0.1687  0.2612  0.1327
    2MPD2     H13836   0.059   3.822  14.383 -0.2981  0.4772  1.0382
    2MPD2    H113837   0.317   3.614  14.651 -0.9911 -0.9249  0.5525
    2MPD2    H213838   0.204   4.009  14.739 -2.7145  2.6752 -1.0773
    2MPD2    H313839   0.308   3.806  14.798  1.0632  0.2620 -0.6197
    2MPD2     N13840   0.162   3.581  14.427  0.6333 -0.8442 -0.2485
    2MPD2    H513841   0.091   3.590  14.355  1.3079 -2.5202 -1.1102
    2MPD2    N113842   0.049   4.055  14.537 -0.9432  0.0511  0.6707
    2MPD2    H713843   0.093   4.131  14.588  0.0386  1.2283 -1.9471
    3TMC2    C113844   4.677   4.225  14.407  0.0153 -0.7432 -0.3382
    3TMC2    C213845   0.085   4.277  14.395 -0.0692 -0.7040 -0.2897
    3TMC2    C313846   0.109   4.373  14.306 -0.1793  0.0334  0.1457
    3TMC2    C413847   4.575   4.274  14.324 -0.5855  0.7125 -0.0453
    3TMC2    C513848   4.605   4.382  14.243  0.1181  0.0011  0.3887
    3TMC2    C613849   0.008   4.434  14.235 -0.0322  0.1819 -0.0713
    3TMC2     C13850   4.676   4.078  14.443  0.2464 -1.0340 -0.4161
    3TMC2     O13851   4.610   3.992  14.383 -0.0886  0.0635 -0.2679
    3TMC2     H13852   0.175   4.247  14.447 -1.6777 -0.3894  2.6945
    3TMC2    H113853   4.492   4.205  14.311  0.4954 -0.0151 -3.0918
    3TMC2    H213854   0.023   4.530  14.186 -1.4803  0.1977 -0.4732
    3TMC2    C713855   4.494   4.442  14.167 -0.2692  0.2919  0.4012
    3TMC2    C813856   0.242   4.420  14.288 -0.5527 -0.2553 -0.4529
    3TMC2    O113857   4.385   4.420  14.214 -0.3711 -0.4350 -0.1377
    3TMC2    O213858   0.331   4.402  14.370  0.1633  0.2282  0.2885
    3TMC2    O513859   0.255   4.377  14.166 -0.0214 -0.7532 -0.1865
    3TMC2    H513860   0.170   4.360  14.121 -0.5045 -0.8794  0.7626
    4MPD2     C13861   3.803   0.528  13.240 -0.5507  0.1587 -0.0701
    4MPD2    C113862   3.811   0.395  13.269  0.8373 -0.8110  0.2407
    4MPD2    C213863   3.932   0.341  13.303  0.2382  0.4789  0.0771
    4MPD2    C313864   4.049   0.415  13.286 -0.3679 -0.4707  0.6900
    4MPD2    C413865   4.042   0.547  13.245 -0.5861  0.4598  0.6463
    4MPD2    C513866   3.915   0.601  13.239  0.3003  0.1131 -1.0438
    4MPD2     H13867   3.938   0.234  13.321 -0.3316 -0.1189 -3.3604
    4MPD2    H113868   4.133   0.606  13.249 -0.8812  0.7760  2.9471
    4MPD2    H213869   3.704   0.567  13.218  0.0792  1.5412 -0.5060
    4MPD2    H313870   3.909   0.708  13.220 -1.9082  0.5041  1.9090
    4MPD2     N13871   4.171   0.344  13.309  0.6737  0.1791 -0.3659
    4MPD2    H513872   4.174   0.257  13.360  0.3316  0.2038 -0.3032
    4MPD2    N113873   3.692   0.316  13.264 -0.3833  0.1917  0.2673
    4MPD2    H713874   3.614   0.353  13.212 -0.0335  0.2193 -0.2386
    5TCq2    C113875   4.295   0.402  13.302  0.9856  0.0841  0.4285
    5TCq2    O213876   4.336   0.499  13.241 -0.1628  0.1437  0.1136
    5TCq2    C213877   4.400   0.326  13.363  0.1344  0.1278 -0.0217
    5TCq2    C313878   4.524   0.364  13.316 -0.8006  0.3289 -0.7013
    5TCq2    C413879   4.632   0.295  13.352 -0.4435 -0.7063  0.2222
    5TCq2    C513880   4.626   0.184  13.435  0.3677  0.9295 -0.3153
    5TCq2    C613881   4.499   0.143  13.475  0.1821 -0.0333  0.5882
    5TCq2    C713882   4.389   0.214  13.438 -0.3359  0.2928 -0.3831
    5TCq2    C813883   4.485   0.045  13.579 -0.0569 -0.0135  0.3234
    5TCq2    O413884   4.580   4.688  13.591 -0.0178  0.4501 -0.3740
    5TCq2    C913885   0.032   0.340  13.301  0.9641 -0.9247  0.3652
    5TCq2    O513886   0.131   0.274  13.335  0.5987 -0.3256  0.2406
    5TCq2    O613887   0.052   0.461  13.283 -0.2172  0.0091  0.1073
    5TCq2    H213888   4.550   0.449  13.254 -0.7330  0.8165 -0.0029
    5TCq2    H313889   4.722   0.136  13.454  0.7407  2.3598  1.4134
    5TCq2    H413890   4.294   0.172  13.469  0.0286 -0.1333  0.1488
    6MPD1     C13891   4.172   0.126  11.703 -0.4563 -0.2838 -0.8370
    6MPD1    C113892   4.241   0.065  11.806 -0.4946  0.0693  0.0666
    6MPD1    C213893   4.178   0.037  11.927  0.5520 -0.0317  0.1391
    6MPD1    C313894   4.045   0.065  11.945  0.0780  0.0628 -0.7424
    6MPD1    C413895   3.981   0.122  11.832 -0.6830 -0.0421  0.1992
    6MPD1    C513896   4.042   0.155  11.716  0.1740 -0.6994  0.5267
    6MPD1     H13897   4.241   0.002  12.008  0.4200 -0.1294  0.1994
    6MPD1    H113898   3.875   0.145  11.842 -0.3037  1.2817  1.2249
    6MPD1    H213899   4.220   0.158  11.610 -1.6022  3.3543 -0.1849
    6MPD1    H313900   3.988   0.196  11.631  1.2097 -0.7648 -0.1632
    6MPD1     N13901   3.970   0.039  12.061  0.3767  0.3143 -0.3018
    6MPD1    H513902   3.878   0.083  12.061 -0.5010 -1.5188  0.5623
    6MPD1    N113903   4.377   0.023  11.787 -0.1881  0.1634 -0.6597
    6MPD1    H613904   4.401   0.004  11.690 -1.6883 -1.9019 -0.6181
    6MPD1    H713905   4.436   0.102  11.812 -0.7733  0.6192 -0.7472
    7MPD2     C13906   3.395   0.312  12.544 -0.0155 -0.6356 -0.2876
    7MPD2    C113907   3.474   0.212  12.602 -0.8517  0.3966  0.4069
    7MPD2    C213908   3.458   0.182  12.740 -0.3637 -0.7445 -0.1368
    7MPD2    C313909   3.355   0.235  12.812  0.4287 -0.1928 -0.5931
    7MPD2    C413910   3.285   0.341  12.756 -0.4055  0.0289  0.2567
    7MPD2    C513911   3.309   0.382  12.626  0.3216  0.3943  0.1907
    7MPD2     H13912   3.535   0.122  12.788 -1.4130 -0.6917  1.5902
    7MPD2    H113913   3.213   0.394  12.817 -1.2137 -2.8389  1.7552
    7MPD2    H213914   3.399   0.351  12.443  1.3837  0.6712  0.2572
    7MPD2    H313915   3.254   0.463  12.580  2.1912  1.9474  0.6843
    7MPD2     N13916   3.340   0.204  12.944 -0.9155 -0.3329  0.1752
    7MPD2    H513917   3.294   0.270  13.006 -1.0803  0.3807 -0.7082
    7MPD2    N113918   3.583   0.145  12.539  0.3034 -0.1981  0.5816
    7MPD2    H713919   3.633   0.075  12.592 -2.5434 -2.0108  0.8949
    8TMC3    C113920   3.373   0.083  13.140  0.4302 -0.2468 -0.2808
    8TMC3    C213921   3.457   0.174  13.201 -0.0011  0.3131 -0.1917
    8TMC3    C313922   3.551   0.132  13.290 -0.3471 -0.1611 -0.7294
    8TMC3    C413923   3.388   4.673  13.178  0.0585 -0.0967 -0.6833
    8TMC3    C513924   3.478   4.637  13.272  0.6259 -0.2329 -0.2370
    8TMC3    C613925   3.550   4.723  13.343  0.4402  0.7414  0.2673
    8TMC3     C13926   3.391   0.092  13.006  0.9095 -0.6294 -0.4448
    8TMC3     O13927   3.442   4.717  12.954 -0.1763 -0.2292 -0.5727
    8TMC3     H13928   3.434   0.278  13.180 -0.9204  0.1619  0.0594
    8TMC3    H113929   3.335   4.588  13.137 -0.6720  0.0325 -0.0177
    8TMC3    H213930   3.629   4.683  13.405  1.3752 -1.6252 -2.4419
    8TMC3    C713931   3.562   4.529  13.227  0.5127  0.6972  0.3725
    8TMC3    C813932   3.665   0.202  13.336  0.0646  0.5730 -0.0999
    8TMC3    O113933   3.632   4.469  13.308 -0.0230  0.3125 -0.0553
    8TMC3    O213934   3.735   0.160  13.428  0.0137 -0.7304 -0.8750
    9TMC3    C113935   3.919   4.697  12.285 -0.5977 -0.5937 -0.1958
    9TMC3    C213936   3.922   4.584  12.369 -0.4720  0.4249  0.4763
    9TMC3    C313937   3.818   4.569  12.459  0.1326  0.1565  0.3412
    9TMC3    C413938   3.814   0.064  12.283 -0.0304 -0.2912  0.2343
    9TMC3    C513939   3.712   0.041  12.373  0.5347 -0.8730 -0.5086
    9TMC3    C613940   3.709   4.656  12.456 -0.0490 -0.5322 -0.2155
    9TMC3     C13941   4.019   4.696  12.174 -0.0372  0.2242 -0.6242
    9TMC3     O13942   4.123   4.631  12.191 -0.4626  0.0322 -0.6023
    9TMC3     H13943   3.998   4.507  12.366 -1.8160 -0.9372  1.1691
    9TMC3    H113944   3.820   0.154  12.224 -1.9191 -0.0161  0.4361
    9TMC3    H213945   3.621   4.618  12.507 -0.3549 -0.1549 -0.4638
    9TMC3    C713946   3.624   0.153  12.410  0.4023  0.2541 -0.3142
    9TMC3    C813947   3.826   4.461  12.562 -0.4807 -0.2953  0.0872
    9TMC3    O113948   3.585   0.239  12.330 -0.0159 -0.7048  0.9210
    9TMC3    O213949   3.855   4.350  12.528  0.0364 -0.6683 -0.6072
   10MPD2     C13950   3.709   4.344  13.036  0.0334  0.5625  0.1271
   10MPD2    C113951   3.656   4.467  13.003  0.3304 -0.1259 -0.3845
   10MPD2    C213952   3.680   4.517  12.885 -0.3825  0.0191 -0.7902
   10MPD2    C313953   3.766   4.448  12.798 -0.9723 -0.0553  1.0947
   10MPD2    C413954   3.810   4.320  12.834 -0.2955  0.1864 -0.2720
   10MPD2    C513955   3.786   4.265  12.957 -0.1874  0.6270 -0.5043
   10MPD2     H13956   3.636   4.612  12.859 -0.0884  0.5007  0.4875
   10MPD2    H113957   3.871   4.261  12.767 -1.8299 -0.1723 -1.3601
   10MPD2    H213958   3.681   4.312  13.136 -1.4306  1.8571  0.1325
   10MPD2    H313959   3.825   4.173  13.001 -2.0063 -1.3998 -3.1839
   10MPD2     N13960   3.782   4.513  12.679 -0.4449 -0.1325  0.0561
   10MPD2    H513961   3.758   4.611  12.682  0.0403 -0.0504  1.1765
   10MPD2    N113962   3.583   4.546  13.094 -0.3850 -0.3980  0.3275
   10MPD2    H713963   3.545   4.633  13.058  0.4862  0.9227  2.5661
   11MPD2     C13964   4.320   4.650  14.058  0.0937 -0.2277  0.3776
   11MPD2    C113965   4.426   4.604  13.988 -0.2371 -0.6741  0.2020
   11MPD2    C213966   4.457   4.647  13.859  0.3627  0.2211  0.1793
   11MPD2    C313967   4.368   0.021  13.801 -0.6328 -0.3049  0.3717
   11MPD2    C413968   4.266   0.074  13.885 -0.1157  0.2302  0.3191
   11MPD2    C513969   4.245   0.020  14.008 -0.5482  0.4177  0.1078
   11MPD2     H13970   4.538   4.605  13.801  0.0616 -0.6912  0.4251
   11MPD2    H113971   4.206   0.163  13.872  1.1739  1.2092  1.1258
   11MPD2    H213972   4.295   4.630  14.162 -0.0957 -1.2076  0.1448
   11MPD2    H313973   4.162   0.050  14.071 -0.6848  1.5772 -0.6288
   11MPD2     N13974   4.387   0.073  13.668  0.2762  0.3888  1.2144
   11MPD2    H513975   4.327   0.150  13.643  0.5859  0.0303 -0.6674
   11MPD2    N113976   4.515   4.516  14.051 -0.2989  0.4702 -0.1109
   11MPD2    H713977   4.598   4.487  14.000 -0.6579 -0.9338  0.1082
    1MPD1     C13978   2.945   1.063   0.361  0.1227 -0.0254  0.0503
    1MPD1    C113979   2.850   1.098   0.456 -0.0945 -0.1765 -0.2596
    1MPD1    C213980   2.825   1.020   0.563 -0.0564  0.7461  0.6212
    1MPD1    C313981   2.879   0.892   0.564 -0.4077  0.2887 -0.1915
    1MPD1    C413982   2.975   0.855   0.479 -0.1226  0.4406  0.1384
    1MPD1    C513983   3.003   0.935   0.375 -0.8237  0.7080 -0.0877
    1MPD1     H13984   2.761   1.063   0.640 -0.8413  0.2463  0.2556
    1MPD1    H113985   3.026   0.760   0.491  1.6188  1.5416  1.4688
    1MPD1    H213986   2.968   1.131   0.280  0.9638 -0.5180 -0.1221
    1MPD1    H313987   3.091   0.906   0.319 -0.8581  0.9712 -0.2794
    1MPD1     N13988   2.854   0.805   0.677  0.7722 -0.1642  0.4687
    1MPD1    H513989   2.908   0.719   0.670  0.9200  0.1065 -1.8495
    1MPD1    N113990   2.793   1.228   0.455 -0.0249 -0.2276  0.2207
    1MPD1    H613991   2.701   1.227   0.498  0.3879 -0.0989  1.1150
    1MPD1    H713992   2.798   1.281   0.367 -1.3301 -0.4831 -0.0016
    2MPD1     C13993   2.189   0.430   1.454 -0.9912  0.0321  0.4970
    2MPD1    C113994   2.298   0.353   1.461  0.1739  0.6384  0.5641
    2MPD1    C213995   2.405   0.381   1.375  0.2437  0.1430 -0.0738
    2MPD1    C313996   2.386   0.474   1.276 -0.0168  0.1603 -0.0227
    2MPD1    C413997   2.271   0.542   1.265 -0.6498  0.0251 -0.3493
    2MPD1    C513998   2.179   0.525   1.362 -0.4171  0.0350  0.4955
    2MPD1     H13999   2.504   0.338   1.385  0.6228  1.6619  2.6829
    2MPD1    H114000   2.248   0.609   1.183 -1.1084 -0.7358 -0.8443
    2MPD1    H214001   2.111   0.427   1.529 -0.4195  2.1159  1.1617
    2MPD1    H314002   2.089   0.584   1.353 -1.2069 -1.3814 -0.8809
    2MPD1     N14003   2.505   0.504   1.201 -0.9409 -0.7781  0.5431
    2MPD1    H514004   2.579   0.435   1.203 -0.3172 -0.1024  0.7251
    2MPD1    N114005   2.318   0.273   1.575 -0.7117  0.1440  0.5471
    2MPD1    H614006   2.386   0.198   1.567  0.4977  1.3812 -0.8569
    2MPD1    H714007   2.229   0.227   1.594  0.4812 -1.8943  1.1582
    3TMC3    C114008   2.627   0.608   1.032  0.1190  0.0566  0.1007
    3TMC3    C214009   2.735   0.524   1.067 -0.3340  0.0838  0.5322
    3TMC3    C314010   2.856   0.562   1.004 -0.2434 -0.4544 -0.1002
    3TMC3    C414011   2.635   0.709   0.940  0.2220  0.2682  0.1828
    3TMC3    C514012   2.748   0.717   0.869 -0.7950  0.8149  0.5297
    3TMC3    C614013   2.858   0.648   0.899 -0.0278  0.2681 -0.2890
    3TMC3     C14014   2.509   0.611   1.115  0.1640  0.3717  0.2856
    3TMC3     O14015   2.416   0.679   1.074  0.0872 -0.0144  0.1058
    3TMC3     H14016   2.731   0.441   1.136  0.7996 -2.0623 -2.0046
    3TMC3    H114017   2.546   0.747   0.891 -1.4098 -1.1471  2.0050
    3TMC3    H214018   2.954   0.664   0.851  0.0528 -0.3040 -0.3220
    3TMC3    C714019   2.751   0.820   0.770 -0.2782 -0.1636 -0.1012
    3TMC3    C814020   2.973   0.493   1.045  0.5121 -0.6289 -0.5176
    3TMC3    O114021   2.659   0.906   0.778 -0.2295 -0.3208  0.9550
    3TMC3    O214022   3.068   0.525   0.976  0.3038 -0.1400  1.2973
    4MPD1     C14023   3.232   0.113   1.274 -0.4084 -0.2602  0.5827
    4MPD1    C114024   3.100   0.076   1.268 -0.7399  0.1845  0.0046
    4MPD1    C214025   3.016   0.174   1.220  0.3006  0.0282 -0.4149
    4MPD1    C314026   3.059   0.295   1.173  0.5328  0.2843  0.7534
    4MPD1    C414027   3.191   0.322   1.172  0.2293  0.2334  0.8978
    4MPD1    C514028   3.286   0.236   1.229  0.4962 -0.0424  0.1885
    4MPD1     H14029   2.912   0.147   1.229  1.5517 -5.1064 -1.4248
    4MPD1    H114030   3.235   0.419   1.155  0.1056  0.0039 -0.6653
    4MPD1    H214031   3.299   0.044   1.324 -1.3421 -1.4334  0.2163
    4MPD1    H314032   3.385   0.264   1.262  0.4243  1.2546 -0.6714
    4MPD1     N14033   2.960   0.388   1.134 -0.6181  0.1536  0.4275
    4MPD1    H514034   2.866   0.377   1.171 -0.3623 -0.1095  0.9988
    4MPD1    N114035   3.056   4.682   1.336  0.3136  0.2726  0.5772
    4MPD1    H614036   2.970   4.647   1.294  0.2082 -0.3489  1.3223
    4MPD1    H714037   3.130   4.612   1.331  2.5754  2.7297 -0.2717
    1TCq1    O114038   4.145   1.466  10.707 -0.1455 -0.3963  0.7627
    1TCq1    C114039   4.089   1.491  10.590 -0.5520  0.2012  0.7238
    1TCq1    O214040   4.139   1.560  10.502 -0.2428  0.2148  0.7500
    1TCq1    C214041   3.998   1.389  10.562 -0.9618 -0.1225 -0.6289
    1TCq1    C314042   3.944   1.315  10.666 -0.4141 -0.6392  0.1496
    1TCq1    C414043   3.869   1.204  10.621 -0.1492  0.0111 -0.9496
    1TCq1    C514044   3.890   1.151  10.500  1.2132  0.9516  1.4010
    1TCq1    C614045   3.964   1.218  10.409 -0.3258 -0.0383 -0.1463
    1TCq1    C714046   4.004   1.345  10.435 -1.5047  0.7913 -0.5539
    1TCq1    C814047   3.998   1.159  10.279 -0.0035  0.0704 -0.1342
    1TCq1    O414048   4.076   1.226  10.214 -0.6032 -1.1149  0.0728
    1TCq1    C914049   3.816   1.106  10.720 -0.3029  0.0452 -0.3364
    1TCq1    O514050   3.748   1.007  10.685 -0.0307  0.4564 -0.7102
    1TCq1    O614051   3.830   1.133  10.840  0.0343  0.0200  0.6672
    1TCq1    H114052   4.095   1.394  10.751 -1.1091  0.0462  0.3852
    1TCq1    H214053   3.931   1.364  10.763 -0.3192  2.1049 -1.2112
    1TCq1    H314054   3.867   1.045  10.495 -0.6437  1.3861  0.8047
    1TCq1    H414055   4.056   1.399  10.358  1.3710 -0.3805  0.5737
    2MPD1     C14056   4.047   0.840   9.893  0.4111  0.0261  0.3338
    2MPD1    C114057   3.983   0.771   9.991 -0.1962 -0.1036 -0.1114
    2MPD1    C214058   3.933   0.836  10.102  0.4956 -0.3123  0.2649
    2MPD1    C314059   3.964   0.974  10.116 -0.1489  0.1645  0.2012
    2MPD1    C414060   4.022   1.047  10.006 -0.1108 -0.0834  0.2080
    2MPD1    C514061   4.061   0.977   9.900 -0.3462  0.2540  0.7692
    2MPD1     H14062   3.884   0.783  10.183 -0.1853 -0.0626  0.0093
    2MPD1    H114063   4.036   1.155  10.007  0.3411 -0.1367 -0.6530
    2MPD1    H214064   4.095   0.780   9.816 -0.0056  1.6173 -1.1639
    2MPD1    H314065   4.120   1.031   9.826 -2.9078  2.2012  0.1605
    2MPD1     N14066   3.933   1.043  10.240  0.0690 -0.2709 -0.4639
    2MPD1    H514067   3.878   1.004  10.316  0.3339  0.8108  0.2905
    2MPD1    N114068   3.963   0.638   9.974  0.2101  0.1486  0.7927
    2MPD1    H614069   3.939   0.579  10.054 -1.4577 -1.4595 -0.9028
    2MPD1    H714070   4.040   0.597   9.921 -0.4235  1.5266 -1.1574
    1TCq1    O114071   1.172   0.273   9.353 -0.3105  0.1451 -0.5615
    1TCq1    C114072   1.118   0.174   9.430 -0.4174 -0.0050 -0.2504
    1TCq1    O214073   1.093   0.058   9.399 -0.2007  0.3214  0.3346
    1TCq1    C214074   1.130   0.218   9.564  0.5695 -0.3174  0.4202
    1TCq1    C314075   1.086   0.346   9.601  0.6713  0.4515 -0.2090
    1TCq1    C414076   1.094   0.386   9.733 -0.1322  0.0673 -0.7538
    1TCq1    C514077   1.128   0.295   9.827 -0.1119 -0.3941 -0.1104
    1TCq1    C614078   1.185   0.180   9.782  0.1606  0.1245 -0.2869
    1TCq1    C714079   1.184   0.135   9.655  0.1196  0.4263  0.3170
    1TCq1    C814080   1.243   0.079   9.882  0.2279 -0.3261 -0.5861
    1TCq1    O414081   1.268   4.691   9.841  0.3337 -0.2171 -0.3270
    1TCq1    C914082   1.025   0.508   9.779 -0.1303  0.4864 -0.2203
    1TCq1    O514083   0.975   0.579   9.686 -0.0566 -0.3771  0.2614
    1TCq1    O614084   1.044   0.546   9.895  0.7133 -0.0635  0.4241
    1TCq1    H114085   1.192   0.355   9.403  1.6407 -0.0015 -1.0799
    1TCq1    H214086   1.055   0.423   9.530 -0.6760 -0.0806 -0.2026
    1TCq1    H314087   1.122   0.321   9.932 -0.9786  0.5339 -0.3867
    1TCq1    H414088   1.240   0.048   9.624 -0.1473 -0.2531  1.7793
    2MPD1     C14089   1.395   4.634  10.334 -0.0416 -0.1805  0.3392
    2MPD1    C114090   1.375   0.048  10.350 -0.8985 -0.0300 -0.0593
    2MPD1    C214091   1.319   0.115  10.241  0.1591  0.1342 -0.0370
    2MPD1    C314092   1.306   0.052  10.120  0.2289  0.3590  0.2163
    2MPD1    C414093   1.332   4.634  10.109  0.0861 -0.6618  0.2708
    2MPD1    C514094   1.360   4.566  10.219  0.2150  0.5158 -0.3046
    2MPD1     H14095   1.300   0.221  10.250  0.0562  0.0333  0.8942
    2MPD1    H114096   1.296   4.580  10.022 -0.6004  0.8113 -0.3543
    2MPD1    H214097   1.417   4.570  10.419  1.5207  0.0232  0.0839
    2MPD1    H314098   1.367   4.458  10.230  1.7822  0.6838  0.3403
    2MPD1     N14099   1.256   0.131  10.010 -0.9260 -0.1790  0.3275
    2MPD1    H514100   1.242   0.231  10.022 -2.9779 -0.5532  1.0368
    2MPD1    N114101   1.381   0.114  10.478  0.6984 -0.3579 -1.0863
    2MPD1    H614102   1.445   0.071  10.544 -0.5894 -0.7551 -0.1055
    2MPD1    H714103   1.397   0.215  10.472 -0.9655 -0.1953 -3.1512
    1MPD1     C14104   0.599   4.170  12.401  0.5570  0.8677 -0.1637
    1MPD1    C114105   0.728   4.163  12.441  0.5284  0.2865 -0.9915
    1MPD1    C214106   0.797   4.273  12.484 -0.2327  0.1032 -0.2223
    1MPD1    C314107   0.733   4.397  12.466  0.2328 -0.2502  0.7747
    1MPD1    C414108   0.599   4.405  12.432  0.4045 -0.3496 -0.5813
    1MPD1    C514109   0.535   4.289  12.396  0.1427 -0.2669  0.0398
    1MPD1     H14110   0.894   4.267  12.531 -1.1639  0.3759  1.7127
    1MPD1    H114111   0.544   4.497  12.413 -1.1961 -1.2771 -0.4236
    1MPD1    H214112   0.546   4.077  12.382  1.7620  0.2485 -0.5185
    1MPD1    H314113   0.433   4.285  12.361 -0.0305  1.2270  0.3715
    1MPD1     N14114   0.802   4.511  12.497 -0.3267  0.3476  0.4520
    1MPD1    H514115   0.900   4.491  12.518 -0.0520  0.6985 -0.4980
    1MPD1    N114116   0.782   4.037  12.461  0.4756  0.3005 -0.1839
    1MPD1    H614117   0.883   4.037  12.461  0.4869 -0.3979 -3.6011
    1MPD1    H714118   0.744   3.970  12.395  0.2082 -1.8891  2.1961
    2MPD1     C14119   0.562   1.249  10.373  0.2462 -0.0599  0.3277
    2MPD1    C114120   0.537   1.159  10.472 -0.2572 -0.2596 -0.3012
    2MPD1    C214121   0.631   1.150  10.574 -0.2761  0.7404  0.5626
    2MPD1    C314122   0.757   1.210  10.556 -0.1482 -0.2317 -0.3511
    2MPD1    C414123   0.777   1.302  10.451  0.5020 -0.0592 -0.1051
    2MPD1    C514124   0.673   1.326  10.358 -1.0124 -0.5739 -0.6179
    2MPD1     H14125   0.618   1.081  10.656 -0.5293  0.4849  0.3089
    2MPD1    H114126   0.867   1.362  10.443 -0.7882  1.9132  0.3630
    2MPD1    H214127   0.495   1.271  10.290  0.5531 -1.7732 -0.3655
    2MPD1    H314128   0.687   1.380  10.266  1.4750 -0.0264  0.0705
    2MPD1     N14129   0.862   1.198  10.649  0.2139 -0.0497  0.2878
    2MPD1    H514130   0.945   1.255  10.632 -1.1562  1.9985  0.5142
    2MPD1    N114131   0.416   1.086  10.466 -0.8401 -0.1777 -0.4988
    2MPD1    H614132   0.423   1.007  10.531 -2.1727 -0.3961 -0.6310
    2MPD1    H714133   0.394   1.050  10.374  2.1710 -0.3986 -1.1236
    3MPD1     C14134   1.623   1.622  10.741  0.0728 -0.0752 -0.0915
    3MPD1    C114135   1.544   1.569  10.642 -0.7645 -0.0014  0.2163
    3MPD1    C214136   1.430   1.504  10.680 -0.4579 -0.6413 -0.0706
    3MPD1    C314137   1.396   1.483  10.812 -0.2904 -0.3397  0.1581
    3MPD1    C414138   1.468   1.545  10.916  0.3375 -0.7004  0.4269
    3MPD1    C514139   1.587   1.611  10.875 -0.0157  0.0633 -0.2296
    3MPD1     H14140   1.375   1.442  10.609 -0.7876  1.4502 -1.6429
    3MPD1    H114141   1.446   1.530  11.021 -2.9110  4.1245  0.3934
    3MPD1    H214142   1.719   1.668  10.720  0.2497 -0.5591 -0.3345
    3MPD1    H314143   1.656   1.646  10.951 -2.3179  2.0188  0.9595
    3MPD1     N14144   1.287   1.394  10.840  0.2214 -0.4856 -0.4162
    3MPD1    H514145   1.236   1.356  10.760  1.2969 -0.9242 -0.8917
    3MPD1    N114146   1.575   1.589  10.506 -0.1004 -0.0008 -0.0111
    3MPD1    H614147   1.676   1.581  10.496 -0.1853  0.5192 -1.2668
    3MPD1    H714148   1.529   1.517  10.451  0.4896 -2.4843  2.7113
    4MPD2     C14149   0.515   0.508  12.331 -0.0874 -0.0615  0.8567
    4MPD2    C114150   0.621   0.425  12.292 -0.0046  0.2339 -0.3061
    4MPD2    C214151   0.653   0.441  12.157 -0.7796  0.1927  0.0633
    4MPD2    C314152   0.580   0.510  12.067  0.3082  0.3232 -0.8422
    4MPD2    C414153   0.468   0.576  12.106 -0.5944  0.5660  0.1499
    4MPD2    C514154   0.431   0.570  12.240  0.7023  0.0319 -0.1348
    4MPD2     H14155   0.735   0.377  12.125 -1.1718 -0.0422 -0.4819
    4MPD2    H114156   0.409   0.637  12.039  2.4618  0.3101 -2.7480
    4MPD2    H214157   0.482   0.515  12.434  1.2273  0.5186  1.2350
    4MPD2    H314158   0.344   0.630  12.264  1.8195  2.9114 -3.3166
    4MPD2     N14159   0.637   0.495  11.937  0.5615  0.1536  0.3875
    4MPD2    H514160   0.715   0.431  11.927  0.2622 -0.0654 -0.5319
    4MPD2    N114161   0.717   0.369  12.384 -1.0507 -0.0119  0.1799
    4MPD2    H714162   0.797   0.325  12.338 -1.4623 -0.0706 -0.4755
    5TMC3    C114163   0.814   0.258  12.556 -0.4323  0.1426  0.3549
    5TMC3    C214164   0.778   0.136  12.596 -0.0557 -0.4425 -0.0456
    5TMC3    C314165   0.840   0.018  12.551  0.5921  0.4804  1.0437
    5TMC3    C414166   0.930   0.276  12.492 -0.5094 -0.2055  0.4423
    5TMC3    C514167   0.983   0.168  12.438 -0.1705 -1.0449 -0.1545
    5TMC3    C614168   0.941   0.037  12.460  0.1945  0.5613 -0.2459
    5TMC3     C14169   0.703   0.344  12.515  0.3935 -0.0857  0.0514
    5TMC3     O14170   0.604   0.342  12.585  0.0842  0.2670 -0.8369
    5TMC3     H14171   0.687   0.128  12.654 -0.1148 -1.6785 -0.3180
    5TMC3    H114172   0.949   0.379  12.464  3.7778 -0.8621  0.9198
    5TMC3    H214173   0.964   4.674  12.398 -3.2824 -0.7738  0.2801
    5TMC3    C714174   1.029   0.203  12.305 -0.3390 -0.7465 -0.2748
    5TMC3    C814175   0.749   4.637  12.520  0.1763  0.5898 -0.3528
    5TMC3    O114176   0.984   0.307  12.258 -0.2758  0.2556 -0.3840
    5TMC3    O214177   0.635   4.671  12.511 -0.7661 -0.1365 -0.1086
    6TMC3    C114178   0.977   1.108  10.840  0.1754 -0.2413  0.4734
    6TMC3    C214179   1.058   1.230  10.846 -0.1125 -0.9736  0.9839
    6TMC3    C314180   1.161   1.231  10.934 -0.0025  0.1534 -0.9880
    6TMC3    C414181   1.015   0.990  10.902  0.2341 -0.3477  0.3879
    6TMC3    C514182   1.138   0.994  10.970  0.0822 -0.8623  0.3510
    6TMC3    C614183   1.202   1.114  10.988  0.2684 -0.0452  0.8162
    6TMC3     C14184   0.874   1.091  10.731  0.3779  0.9861  0.4957
    6TMC3     O14185   0.827   0.985  10.711 -0.0825 -0.5486 -0.1112
    6TMC3     H14186   1.016   1.323  10.809  2.0370  0.0732  1.1465
    6TMC3    H114187   0.945   0.908  10.900  0.3447 -0.4235 -0.5580
    6TMC3    H214188   1.280   1.118  11.064  1.4059  0.1560 -0.3530
    6TMC3    C714189   1.136   0.901  11.078 -0.3459  0.5173 -0.3325
    6TMC3    C814190   1.253   1.345  10.966 -0.0731  0.0385 -0.5323
    6TMC3    O114191   1.039   0.827  11.082 -0.0285 -0.3463  0.4928
    6TMC3    O214192   1.321   1.335  11.068  0.2910 -0.0351  0.3710
    7MPD2     C14193   1.222   0.138  11.847  0.3074 -0.4702  0.0008
    7MPD2    C114194   1.103   0.187  11.881  0.0110 -0.5156  0.5350
    7MPD2    C214195   1.067   0.178  12.015  0.1008  0.0120 -0.3289
    7MPD2    C314196   1.132   0.104  12.109  0.1566 -0.0306  0.1599
    7MPD2    C414197   1.247   0.039  12.068  0.1824  0.1772  0.7913
    7MPD2    C514198   1.291   0.060  11.937  0.1379  0.0399 -0.0683
    7MPD2     H14199   0.969   0.218  12.041  0.1429 -1.3214  1.7963
    7MPD2    H114200   1.307   4.711  12.142 -1.7173 -0.6823  1.7504
    7MPD2    H214201   1.256   0.136  11.745 -2.8459  0.2645 -1.0714
    7MPD2    H314202   1.380   0.005  11.907 -0.9246 -2.6715  1.7512
    7MPD2     N14203   1.099   0.098  12.246 -0.1345 -0.0562  0.8423
    7MPD2    H514204   1.136   0.034  12.315 -1.1537  0.0578  1.4839
    7MPD2    N114205   1.023   0.243  11.780 -0.2269  0.2663  0.7645
    7MPD2    H714206   1.057   0.235  11.685  2.7990  1.6686  1.7417
    8TMC3    C114207   0.848   0.364  11.680  0.5930 -0.4264  0.4887
    8TMC3    C214208   0.922   0.474  11.637  0.0356  1.1528  0.0756
    8TMC3    C314209   0.863   0.590  11.617  0.2178 -0.8683  0.9292
    8TMC3    C414210   0.716   0.384  11.713 -0.4126  0.5679 -0.4130
    8TMC3    C514211   0.671   0.513  11.710 -0.1594  0.5378 -0.0461
    8TMC3    C614212   0.740   0.616  11.655  0.0302  0.1578 -0.3586
    8TMC3     C14213   0.900   0.301  11.799  0.2091 -0.5937 -0.3739
    8TMC3     O14214   0.840   0.317  11.905  0.3491 -0.1326  0.1473
    8TMC3     H14215   1.026   0.448  11.620 -0.2942 -0.6868  0.8460
    8TMC3    H114216   0.652   0.311  11.760 -0.8005  1.3279  0.2446
    8TMC3    H214217   0.708   0.719  11.669  1.5399  0.2147  2.7009
    8TMC3    C714218   0.602   0.564  11.825 -0.4000  0.8259 -0.5122
    8TMC3    C814219   0.934   0.683  11.531  0.5021 -0.4064 -0.5297
    8TMC3    O114220   0.513   0.643  11.804  0.2838 -0.9193  0.4890
    8TMC3    O214221   0.872   0.750  11.451 -0.0867 -0.0580 -0.0678
    9MPD2     C14222   1.293   0.741  11.537 -0.2651 -0.4078 -0.5577
    9MPD2    C114223   1.174   0.732  11.483 -0.5879 -0.1044  0.6041
    9MPD2    C214224   1.160   0.776  11.348  0.9939  0.4419 -0.4396
    9MPD2    C314225   1.265   0.843  11.277 -0.1383  0.6053 -0.7281
    9MPD2    C414226   1.392   0.851  11.340 -0.0722  0.0430 -0.1066
    9MPD2    C514227   1.398   0.800  11.468  0.2833  0.3512 -0.5592
    9MPD2     H14228   1.065   0.763  11.297 -0.9513  0.2378  3.1974
    9MPD2    H114229   1.469   0.909  11.290 -0.0234 -0.2877 -0.4183
    9MPD2    H214230   1.304   0.710  11.640 -0.5303 -0.5424 -0.5708
    9MPD2    H314231   1.479   0.825  11.536  0.3935 -0.8252 -0.2612
    9MPD2     N14232   1.253   0.904  11.157  0.3478  0.3847 -0.1964
    9MPD2    H514233   1.335   0.959  11.134 -0.4667  1.8553  0.4128
    9MPD2    N114234   1.069   0.673  11.556 -0.8134  0.1305 -0.2696
    9MPD2    H714235   1.095   0.635  11.646 -0.7210 -1.4590 -0.9721
    1MPD1     C14236   0.020   0.270  15.474  0.3508 -0.1773  0.6534
    1MPD1    C114237   0.088   0.343  15.373  0.0361  0.0658  0.6852
    1MPD1    C214238   0.138   0.275  15.259 -0.2727  0.4182 -0.1716
    1MPD1    C314239   0.114   0.136  15.239 -0.3611  0.4982 -0.4624
    1MPD1    C414240   0.057   0.062  15.342  0.2183 -1.1008 -0.2025
    1MPD1    C514241   0.009   0.129  15.454 -0.0782  0.0595  0.6681
    1MPD1     H14242   0.201   0.330  15.190  1.8968 -0.6943  0.8871
    1MPD1    H114243   0.043   4.678  15.338  1.4893 -1.2413 -1.0733
    1MPD1    H214244   4.716   0.308  15.571 -0.2358  2.1251 -0.4146
    1MPD1    H314245   4.685   0.067  15.530 -0.9045 -2.4088 -1.8725
    1MPD1     N14246   0.149   0.071  15.117  0.0687 -0.2632 -0.1587
    1MPD1    H514247   0.135   4.694  15.114 -1.9124  0.0577 -2.4418
    1MPD1    N114248   0.106   0.484  15.378 -0.1931 -0.6005 -0.4960
    1MPD1    H614249   0.202   0.518  15.376 -1.2591  2.3399 -2.7180
    1MPD1    H714250   0.057   0.545  15.443  1.4391 -1.6343  1.6983
    2MPD1     C14251   4.475   0.261  14.241  0.5120  0.0265  0.3739
    2MPD1    C114252   4.519   0.361  14.323  0.5851 -1.0726 -0.4990
    2MPD1    C214253   4.621   0.321  14.407 -0.3425  0.1114 -0.2657
    2MPD1    C314254   4.670   0.198  14.413 -0.2270  0.5587  0.3649
    2MPD1    C414255   4.626   0.105  14.331  0.3523 -0.0644  0.3123
    2MPD1    C514256   4.528   0.134  14.244  0.0469 -0.0306  0.6441
    2MPD1     H14257   4.660   0.394  14.476  0.5702  1.0624 -1.7997
    2MPD1    H114258   4.655   0.000  14.332 -0.7158 -0.3681  0.2430
    2MPD1    H214259   4.399   0.285  14.166 -0.4280 -1.6408  0.7912
    2MPD1    H314260   4.495   0.052  14.181  1.2283 -0.9327  1.2035
    2MPD1     N14261   0.034   0.161  14.521  0.0267 -0.4157  0.2184
    2MPD1    H514262   0.045   0.235  14.590 -2.1104  1.5622 -1.5224
    2MPD1    N114263   4.481   0.496  14.319 -0.2348  0.4842 -0.4691
    2MPD1    H614264   4.403   0.505  14.254 -0.8067  0.3808  0.1875
    2MPD1    H714265   4.560   0.545  14.280  1.7662 -0.9173  1.8030
    3TCq2    C114266   0.102   0.045  14.528  0.3777  0.6019  0.2160
    3TCq2    O214267   0.120   4.678  14.445 -0.3934  0.2267  0.5402
    3TCq2    C214268   0.177   0.028  14.652 -0.4177  0.3246  0.7254
    3TCq2    C314269   0.253   4.638  14.659  0.0832  1.1310 -0.1308
    3TCq2    C414270   0.310   4.601  14.780  0.1667 -0.5347  0.2380
    3TCq2    C514271   0.284   4.678  14.890  0.4005 -0.1337 -0.6704
    3TCq2    C614272   0.202   0.064  14.884 -0.4707  0.2511 -0.4133
    3TCq2    C714273   0.148   0.101  14.761  0.0470  0.4826 -0.4435
    3TCq2    C814274   0.158   0.143  15.000 -0.6404 -0.0694  0.0869
    3TCq2    O414275   0.114   0.255  14.977  0.3948 -0.3360  0.0650
    3TCq2    C914276   0.394   4.486  14.790  0.0947  0.3268  0.3951
    3TCq2    O514277   0.442   4.466  14.904 -0.4191 -0.2069  0.0212
    3TCq2    O614278   0.386   4.399  14.697 -0.2135  0.5534  0.3829
    3TCq2    H214279   0.274   4.574  14.574 -1.0095  0.0285  0.4271
    3TCq2    H314280   0.313   4.634  14.985  1.3154  0.8497 -0.5018
    3TCq2    H414281   0.079   0.184  14.767 -0.0833  0.3461 -0.0553
    1TCq1    O114282   2.201   3.528  13.463  0.2224  0.3023 -0.4187
    1TCq1    C114283   2.224   3.548  13.334  0.3357 -0.6245 -0.0110
    1TCq1    O214284   2.309   3.624  13.292  0.5075 -0.0773 -0.1786
    1TCq1    C214285   2.179   3.427  13.269  0.8725 -0.1716  0.6636
    1TCq1    C314286   2.067   3.366  13.316 -0.3813 -0.3106 -0.0237
    1TCq1    C414287   2.033   3.243  13.265  0.8945  0.3108 -0.1275
    1TCq1    C514288   2.111   3.183  13.166 -0.1996  0.1770 -0.3358
    1TCq1    C614289   2.229   3.249  13.124 -0.3188  0.1847  0.7934
    1TCq1    C714290   2.258   3.375  13.170  0.4238  0.0428 -0.1373
    1TCq1    C814291   2.269   3.213  12.989  0.3461 -0.0233  0.0637
    1TCq1    O414292   2.206   3.124  12.930  0.1276  0.0441  0.0519
    1TCq1    C914293   1.903   3.178  13.296  0.5299  0.3046 -0.1446
    1TCq1    O514294   1.896   3.061  13.262 -0.0415  0.1472 -0.5230
    1TCq1    O614295   1.805   3.245  13.338  0.5692  0.4831 -0.3321
    1TCq1    H114296   2.135   3.457  13.481  1.4075 -0.7815 -0.3385
    1TCq1    H214297   2.005   3.421  13.385  1.2299 -0.4080  1.5075
    1TCq1    H314298   2.092   3.082  13.133  1.1783  0.2759 -1.4331
    1TCq1    H414299   2.339   3.439  13.138 -0.2079  1.1963  0.5396
    2MPD2     C14300   2.377   3.192  12.712 -0.4024 -0.2187 -0.3985
    2MPD2    C114301   2.430   3.269  12.817  0.3008  0.9785  0.4991
    2MPD2    C214302   2.536   3.350  12.795  0.9606  0.5930 -0.3802
    2MPD2    C314303   2.600   3.350  12.673 -0.4905  0.1286 -0.0666
    2MPD2    C414304   2.545   3.281  12.566  0.4726 -0.6597  0.0483
    2MPD2    C514305   2.435   3.204  12.590  0.0030  0.6643 -0.9132
    2MPD2     H14306   2.577   3.406  12.878  0.0274  1.4274 -0.4837
    2MPD2    H114307   2.593   3.262  12.471  1.4793 -0.1236  0.4508
    2MPD2    H214308   2.297   3.120  12.727 -0.2797 -0.8257 -2.6983
    2MPD2    H314309   2.401   3.141  12.508 -0.4709  0.9053 -0.9008
    2MPD2     N14310   2.716   3.431  12.667 -0.1635  0.0107 -0.9428
    2MPD2    H514311   2.766   3.461  12.750 -1.7560 -2.4901  0.8906
    2MPD2    N114312   2.381   3.276  12.947 -0.0297  0.3569  0.4332
    2MPD2    H714313   2.432   3.331  13.014  0.2542  0.8823 -0.2198
    3TCq1    O114314   3.257   3.639  12.342  0.4790 -0.0605 -0.3603
    3TCq1    C114315   3.127   3.656  12.309  0.0040  0.2367 -0.7203
    3TCq1    O214316   3.079   3.618  12.203  0.0210 -0.5388  0.0207
    3TCq1    C214317   3.046   3.666  12.434 -0.7300 -0.0908 -0.8836
    3TCq1    C314318   3.114   3.709  12.545 -0.4252 -0.0421 -0.5146
    3TCq1    C414319   3.072   3.654  12.660 -0.1248 -0.6602 -0.2932
    3TCq1    C514320   2.963   3.574  12.670  0.5336  0.1957  0.3709
    3TCq1    C614321   2.897   3.538  12.552 -0.5337  0.1261  0.5388
    3TCq1    C714322   2.936   3.585  12.436 -0.5025 -0.5158 -0.5804
    3TCq1    C814323   2.766   3.474  12.546  0.1080 -0.3313  0.3910
    3TCq1    O414324   2.720   3.483  12.435  0.2785 -0.0082 -0.1723
    3TCq1    C914325   3.160   3.655  12.768  0.5943 -0.4336 -0.0761
    3TCq1    O514326   3.140   3.564  12.851 -0.7163  0.9550  0.2554
    3TCq1    O614327   3.224   3.764  12.793 -0.3943  0.1834  0.0423
    3TCq1    H114328   3.262   3.602  12.432 -1.9705 -2.4733 -1.2282
    3TCq1    H214329   3.211   3.757  12.540  0.0696 -1.0151 -0.2459
    3TCq1    H314330   2.935   3.522  12.760 -1.9150  2.6467  1.0353
    3TCq1    H414331   2.899   3.548  12.342 -2.6803 -0.7386  0.3699
    1MPD2     C14332   3.222   4.587  14.475 -0.3153  0.2250  0.1085
    1MPD2    C114333   3.104   4.548  14.535  0.5143  0.0314 -0.0812
    1MPD2    C214334   3.042   4.444  14.468 -0.4052 -0.5964 -0.2396
    1MPD2    C314335   3.095   4.367  14.367  0.4830  0.0748  0.4519
    1MPD2    C414336   3.216   4.410  14.321 -0.9818 -0.7256  0.6745
    1MPD2    C514337   3.274   4.523  14.369 -0.0932  0.3419 -0.4814
    1MPD2     H14338   2.955   4.403  14.519 -0.5582  1.0547  0.8458
    1MPD2    H114339   3.264   4.363  14.236  0.7572 -1.6724  2.1795
    1MPD2    H214340   3.284   4.660  14.526  0.1772 -0.7208  0.8561
    1MPD2    H314341   3.363   4.557  14.318  1.4063 -2.0563  0.5589
    1MPD2     N14342   3.039   4.249  14.308  0.3796  0.6518 -0.2360
    1MPD2    H514343   3.097   4.200  14.241 -1.2773  0.7833 -1.7905
    1MPD2    N114344   3.057   4.598  14.658 -0.0803 -0.0602  0.4479
    1MPD2    H714345   3.098   4.683  14.694 -0.9885  0.4200  0.3601
    2TMC3    C114346   2.929   4.613  14.866 -0.7033  0.1494 -0.4279
    2TMC3    C214347   2.852   4.549  14.960 -0.4425 -0.6145 -0.1370
    2TMC3    C314348   2.727   4.600  14.990  0.7237 -0.4895 -0.0353
    2TMC3    C414349   2.901   0.022  14.838  0.2226  0.1020  0.1796
    2TMC3    C514350   2.784   0.069  14.868 -0.6747 -0.3435  0.1274
    2TMC3    C614351   2.689   4.721  14.939 -0.0395 -0.1977 -0.1058
    2TMC3     C14352   2.968   4.534  14.751  0.2370  0.0652 -0.1196
    2TMC3     O14353   2.908   4.426  14.743  0.3342 -0.5183  0.5182
    2TMC3     H14354   2.880   4.447  14.981  0.3577 -0.1214  1.1870
    2TMC3    H114355   2.969   0.080  14.777 -0.1315  0.0407 -0.2774
    2TMC3    H214356   2.590   0.040  14.955  0.2679  0.9856 -1.2919
    2TMC3    C714357   2.743   0.200  14.819 -0.5039  0.2500  0.2642
    2TMC3    C814358   2.620   4.505  14.977 -0.0166 -0.6072  0.2744
    2TMC3    O114359   2.620   0.221  14.832  0.1399 -0.8245 -0.4483
    2TMC3    O214360   2.513   4.543  15.024 -0.7484  0.4811  0.4398
    3TCq1    O114361   3.419   1.128  14.315  0.0110  0.3090 -0.0068
    3TCq1    C114362   3.310   1.147  14.391 -0.0919 -0.1901 -0.3642
    3TCq1    O214363   3.210   1.210  14.358 -0.1625 -0.0046  0.1704
    3TCq1    C214364   3.309   1.024  14.464  0.4859 -0.1928 -0.2585
    3TCq1    C314365   3.423   0.990  14.539 -0.2956  0.7480  0.0063
    3TCq1    C414366   3.416   0.875  14.615  0.2084 -0.0119 -0.0562
    3TCq1    C514367   3.299   0.805  14.637  0.2309 -0.0013 -0.3038
    3TCq1    C614368   3.184   0.869  14.594  0.5277  0.0523  0.2819
    3TCq1    C714369   3.190   0.977  14.506  0.0000  0.2752 -0.4054
    3TCq1    C814370   3.056   0.808  14.589  0.0712  0.1916 -0.0825
    3TCq1    O414371   2.961   0.877  14.556  0.0032 -0.4650  0.1691
    3TCq1    C914372   3.531   0.831  14.689 -0.7479 -0.4338  0.0245
    3TCq1    O514373   3.647   0.859  14.647 -0.5888  0.3945  0.2915
    3TCq1    O614374   3.519   0.758  14.787 -0.5425 -0.6715 -0.6035
    3TCq1    H114375   3.458   1.049  14.357  2.2207  0.9603 -0.8160
    3TCq1    H214376   3.515   1.042  14.516  0.5310 -0.7302 -0.0360
    3TCq1    H314377   3.306   0.729  14.714  1.2903  0.1979 -0.2031
    3TCq1    H414378   3.100   1.004  14.453 -1.1543 -1.2655  0.7912
    4MPD2     C14379   2.813   0.644  14.581 -0.0980  0.9040 -0.7746
    4MPD2    C114380   2.939   0.601  14.628 -0.7566 -0.0780 -0.3342
    4MPD2    C214381   2.947   0.478  14.681 -0.0012  0.2453  0.2673
    4MPD2    C314382   2.838   0.401  14.695  0.1249 -0.4243  0.2002
    4MPD2    C414383   2.714   0.440  14.652 -0.0468 -0.3682 -0.4693
    4MPD2    C514384   2.701   0.558  14.583  0.3633  0.9719 -0.3269
    4MPD2     H14385   3.040   0.434  14.715  0.3904  2.0343  1.5223
    4MPD2    H114386   2.622   0.388  14.678  0.2610 -1.0523 -0.7719
    4MPD2    H214387   2.805   0.735  14.522  0.7414  1.2529 -0.3489
    4MPD2    H314388   2.599   0.575  14.549  0.2586 -0.6315 -0.8137
    4MPD2     N14389   2.848   0.279  14.771 -0.0206 -0.1807  0.4149
    4MPD2    H514390   2.942   0.252  14.799 -0.0306  1.1915  1.7790
    4MPD2    N114391   3.058   0.677  14.616 -0.5329  0.7566  0.2089
    4MPD2    H714392   3.149   0.640  14.642 -0.8915 -1.8249 -2.1472
    5TMC2    C114393   2.664   3.988  14.345  0.3592  0.4899  0.4761
    5TMC2    C214394   2.741   3.873  14.370 -0.0264  0.4797  0.0211
    5TMC2    C314395   2.872   3.882  14.337 -0.1144  0.2672 -1.0662
    5TMC2    C414396   2.719   4.099  14.294 -0.3609 -0.0234  0.5360
    5TMC2    C514397   2.852   4.101  14.265  0.0950 -0.7561 -0.9630
    5TMC2    C614398   2.927   3.991  14.277 -0.5936  0.6978  0.1237
    5TMC2     C14399   2.555   4.014  14.438  0.0468 -0.0202  0.4622
    5TMC2     O14400   2.483   3.918  14.469 -0.0460  0.1590  0.0522
    5TMC2     H14401   2.706   3.782  14.418  0.0064  0.2009 -0.4816
    5TMC2    H114402   2.660   4.187  14.270 -0.1442 -0.1088 -0.3173
    5TMC2    H214403   3.032   4.000  14.253 -0.8952  3.2619 -0.2379
    5TMC2    C714404   2.906   4.218  14.324 -0.6970  0.2437 -0.1313
    5TMC2    C814405   2.958   3.768  14.372  0.3805 -0.3155  0.4272
    5TMC2    O114406   2.835   4.272  14.408  0.5327 -0.5415  0.0432
    5TMC2    O214407   2.915   3.660  14.413 -0.4031 -0.1063  0.5594
    5TMC2    O514408   3.083   3.799  14.337  0.1336 -0.0708 -0.1883
    5TMC2    H514409   3.107   3.894  14.347 -0.2659  0.1487 -1.2831
    6MPD2     C14410   2.444   4.278  14.867  0.5054 -0.0001  0.2066
    6MPD2    C114411   2.564   4.322  14.816  0.5786  1.7954 -0.1020
    6MPD2    C214412   2.612   4.266  14.696 -0.5626  0.2247  0.1772
    6MPD2    C314413   2.541   4.172  14.625 -0.1121 -0.0521  1.1994
    6MPD2    C414414   2.416   4.138  14.674  0.0353 -0.0288 -0.8575
    6MPD2    C514415   2.373   4.180  14.802  0.0846  0.2446  0.3603
    6MPD2     H14416   2.703   4.297  14.645 -0.9782 -2.3404 -2.1375
    6MPD2    H114417   2.354   4.072  14.616 -2.3941  1.0864  0.4570
    6MPD2    H214418   2.400   4.322  14.956 -2.0883 -1.0240 -0.5761
    6MPD2    H314419   2.273   4.162  14.841 -0.8331  0.5123 -1.8536
    6MPD2     N14420   2.597   4.122  14.507 -0.6324  0.5004 -0.1296
    6MPD2    H514421   2.680   4.172  14.477 -1.4459  1.5950 -0.5497
    6MPD2    N114422   2.644   4.421  14.876  0.2002  0.4579 -0.6356
    6MPD2    H714423   2.729   4.445  14.826 -0.4124  1.8149 -1.0188
  945NH4     N114424   0.834   3.635   2.363  0.0643  0.3238  0.3216
  945NH4     H214425   0.859   3.698   2.442 -2.8519 -1.3491  2.6036
  945NH4     H314426   0.730   3.639   2.359  0.0874  0.2387 -0.3392
  945NH4     H414427   0.848   3.541   2.406  2.3418 -0.0982 -1.3540
  945NH4     H514428   0.882   3.654   2.273 -0.5514  0.6848  0.0655
  946SOD     NA14429   4.105   3.542  14.427 -0.0783 -0.4046  0.2844
  947SOD     NA14430   0.441   4.276  14.537 -0.1542 -0.0026  0.0634
  948SOD     NA14431   3.073   3.097  10.045  0.2240 -0.0287 -0.5998
  949SOD     NA14432   4.501   0.439   2.040  0.6337 -0.0947  0.6747
  950SOD     NA14433   2.967   2.246   2.136  0.4416  0.2578 -0.2298
  951SOD     NA14434   0.953   0.620  10.083  0.1965  0.4934 -0.1608
  952SOD     NA14435   0.316   4.394  15.069  0.5382 -0.2306  0.0085
  953SOD     NA14436   1.493   4.302   1.290  0.1154  0.2709  0.2005
  954SOD     NA14437   3.731   3.229  12.100  0.2841  0.1378 -0.1257
  955SOD     NA14438   4.396   1.687  13.737 -0.1239  0.0590 -0.4811
  956SOD     NA14439   1.885   3.334  12.669  0.0185 -0.1844  0.0611
  957SOD     NA14440   2.363   1.809   9.373 -0.1632  0.0987  0.3265
  958SOD     NA14441   4.657   0.726   1.508  0.2968  0.6441  0.3796
  959SOD     NA14442   3.512   4.340   9.114  0.1627 -0.4088  0.0742
  960SOD     NA14443   1.616   3.985  12.180  0.3110  0.3787  0.2360
  961SOD     NA14444   0.106   3.731   0.389 -0.0213  0.0925  0.3365
  962SOD     NA14445   3.757   4.137  12.509 -0.1662 -0.5743 -0.3131
  963SOD     NA14446   0.004   1.013   9.660  0.0039 -0.1435 -0.2084
  964SOD     NA14447   3.777   0.585  11.176 -0.3349 -0.0008  0.4251
  965SOD     NA14448   0.721   2.715  12.167 -0.0771  0.1799  0.1954
  966SOD     NA14449   1.616   2.976   1.244  0.1762  0.0485  0.0499
  967SOD     NA14450   1.098   2.230  14.263 -0.2060  0.6795  0.0556
  968SOD     NA14451   3.825   3.514  10.753  0.0946  0.6530  0.1048
  969SOD     NA14452   1.239   0.592   9.971  0.1384 -0.0480  0.5024
  970SOD     NA14453   3.659   0.796   3.705  0.4076  0.1081 -0.1234
  971SOD     NA14454   3.027   2.968  10.877 -0.0275  0.0071  0.1252
  972SOD     NA14455   4.440   3.519  14.515 -0.1434  0.0385  0.2246
  973SOD     NA14456   3.523   3.883  11.180  0.1974 -0.6557  0.3814
  974SOD     NA14457   2.952   4.689   6.229  0.2047  0.1172  0.5644
  975SOD     NA14458   1.054   1.845  17.643 -0.1316  0.2394 -0.1674
  976SOD     NA14459   3.879   3.008  12.669 -0.3076  0.3841  0.3139
  977SOD     NA14460   0.598   4.595  14.989 -0.1839 -0.3591  0.3923
  978SOD     NA14461   0.442   0.976   7.789 -0.5265  0.2100  0.2021
  979SOD     NA14462   0.713   1.442   0.407 -0.1544  0.6233 -0.1214
  980SOD     NA14463   2.535   3.680  15.449 -0.1584  0.0311 -0.4522
  981SOD     NA14464   2.726   0.393   8.974 -0.5071 -0.3175 -0.4401
  982SOD     NA14465   3.323   0.628   3.266  0.2367 -0.3119  0.7663
  983SOD     NA14466   3.168   3.542   0.608  0.1783 -0.3766 -0.2551
  984SOD     NA14467   4.124   0.735  16.318 -0.0454 -0.3416  0.0104
  985SOD     NA14468   0.797   2.692   8.770  0.0014 -0.2000 -0.2748
  986SOD     NA14469   0.341   2.313  14.406  0.0946  0.9187  0.0972
  987SOD     NA14470   3.909   0.292  15.116 -0.1468  0.0941 -0.1035
  988SOD     NA14471   0.186   3.514   0.082 -0.1163 -0.0321  0.0015
  989SOD     NA14472   1.921   1.364  11.751  0.0846  0.5405 -0.0461
  990SOD     NA14473   2.794   0.727   9.455 -0.2501 -0.2150 -0.2637
  991SOD     NA14474   1.455   3.930  16.217 -0.1482  0.1681 -0.0355
  992SOD     NA14475   3.755   0.750  14.827 -0.5532  0.4779  0.1855
  993SOD     NA14476   4.296   3.259  14.404  0.1843 -0.4147 -0.4884
  994SOD     NA14477   1.704   2.561  14.608 -0.2815 -0.2162 -0.0993
  995SOD     NA14478   2.627   1.277  10.823  0.3646  0.0079  0.1467
  996SOD     NA14479   1.703   3.304  12.940  0.0688  0.2325  0.2033
  997SOD     NA14480   1.671   3.275  10.548 -0.1998  0.0826  0.4577
  998SOD     NA14481   3.681   4.022  11.948 -0.2731  0.1038  0.1301
  999SOD     NA14482   1.613   4.286  11.064  0.1663  0.1790  0.1244
 1000SOD     NA14483   0.515   0.286  13.014 -0.3094  0.5352  0.1032
 1001SOD     NA14484   0.970   4.628  14.711  0.3005  0.2427 -0.1277
 1002SOD     NA14485   2.389   2.150  10.105 -0.3122 -0.6095 -0.0043
 1003SOD     NA14486   0.943   2.922   0.037 -0.7222  0.0156  0.6648
 1004SOD     NA14487   0.267   0.319  13.479  0.4458  0.3706  0.0201
 1005SOD     NA14488   3.373   2.018   0.845 -0.1300 -0.3151  0.7537
 1006SOD     NA14489   0.934   1.969  13.401 -0.6598 -0.0813  0.0717
 1007SOD     NA14490   1.585   0.538   8.419  0.5405  0.0617  0.2854
 1008SOD     NA14491   3.848   3.226   4.439  0.4388 -0.2388 -0.3245
 1009SOD     NA14492   0.793   0.094  11.353 -0.1758  0.4483 -0.3311
 1010SOD     NA14493   3.828   0.870  14.539  0.1844  0.4143 -0.1221
 1011SOL     OW14494   0.905   1.191   3.450  0.1776  0.6841  0.5378
 1011SOL    HW114495   0.881   1.252   3.519  1.5617  0.4221  1.2460
 1011SOL    HW214496   0.958   1.123   3.491  0.6679  0.3142 -0.6863
 1012SOL     OW14497   3.998   2.905   8.493 -0.6580 -0.4509  0.1484
 1012SOL    HW114498   4.060   2.899   8.565  1.3923 -0.1036 -1.6135
 1012SOL    HW214499   3.943   2.833   8.524 -2.3934  0.8754  0.1592
 1013SOL     OW14500   0.478   3.180   7.312  0.1292 -0.0896 -0.2983
 1013SOL    HW114501   0.563   3.151   7.347  0.9938  2.6897 -0.1198
 1013SOL    HW214502   0.502   3.218   7.228 -2.0613  1.4769 -0.1937
 1014SOL     OW14503   0.203   2.800   1.608  0.2781  0.3733 -0.4665
 1014SOL    HW114504   0.237   2.773   1.693  1.7662 -0.0527 -1.2188
 1014SOL    HW214505   0.117   2.758   1.616  0.7023 -0.7416 -1.9296
 1015SOL     OW14506   3.527   2.136  13.078 -0.5634 -0.5623 -0.4618
 1015SOL    HW114507   3.515   2.044  13.100 -0.9005  0.1967  2.5248
 1015SOL    HW214508   3.448   2.166  13.123  0.8003  0.2041  1.3988
 1016SOL     OW14509   1.038   1.499   1.790  0.0489  0.2131 -0.6065
 1016SOL    HW114510   1.122   1.470   1.823 -1.4804 -2.8409  0.5819
 1016SOL    HW214511   1.035   1.457   1.704 -0.9421 -1.1495  0.0990
 1017SOL     OW14512   1.849   2.233   1.227 -0.0457  0.5297 -0.2277
 1017SOL    HW114513   1.840   2.148   1.271  2.1902 -0.0848 -0.9474
 1017SOL    HW214514   1.758   2.260   1.239  0.5928  2.2020  0.7798
 1018SOL     OW14515   3.689   2.308   8.800 -0.0080 -0.1782  0.4888
 1018SOL    HW114516   3.753   2.352   8.856 -1.0580  0.3898  1.2421
 1018SOL    HW214517   3.665   2.383   8.745  1.1571  0.5270  0.9436
 1019SOL     OW14518   2.970   0.405   9.428  0.3369  0.3470  0.0355
 1019SOL    HW114519   2.973   0.309   9.426  2.9472  0.4039  1.2711
 1019SOL    HW214520   3.043   0.433   9.373 -0.6074  0.5645 -1.1211
 1020SOL     OW14521   0.224   0.855   8.102  0.0306  0.5733  0.0085
 1020SOL    HW114522   0.237   0.786   8.167  3.4186 -0.3884 -1.6609
 1020SOL    HW214523   0.172   0.919   8.151 -0.7304  0.8050 -1.0874
 1021SOL     OW14524   4.354   2.915   3.145  0.1211  0.0481  0.1070
 1021SOL    HW114525   4.272   2.867   3.156  1.6273 -1.8662  2.7391
 1021SOL    HW214526   4.347   2.934   3.051 -0.0575  2.3640  0.5843
 1022SOL     OW14527   1.646   0.666   3.554 -0.2845 -0.2175 -0.3810
 1022SOL    HW114528   1.553   0.669   3.531 -0.0142  2.0203 -1.1214
 1022SOL    HW214529   1.669   0.608   3.481  2.6332  0.3262  0.1044
 1023SOL     OW14530   0.245   0.850   3.510 -0.4484 -0.5690 -0.2181
 1023SOL    HW114531   0.265   0.824   3.600  1.2407  0.1731 -0.3902
 1023SOL    HW214532   0.245   0.769   3.458  0.7466 -1.4048  1.0834
 1024SOL     OW14533   1.299   2.026   4.916  0.0931  0.0836  0.3969
 1024SOL    HW114534   1.331   1.957   4.974 -1.8694 -2.2559 -1.3329
 1024SOL    HW214535   1.206   2.021   4.937 -0.2035 -1.2874 -1.2210
 1025SOL     OW14536   3.659   2.620  12.705 -1.0028  0.2835  0.7849
 1025SOL    HW114537   3.708   2.623  12.622 -1.9032  1.8811  0.3033
 1025SOL    HW214538   3.698   2.551  12.758  0.1582 -1.1672 -1.9834
 1026SOL     OW14539   3.209   1.359  10.622 -0.0536  0.1733 -0.1020
 1026SOL    HW114540   3.302   1.359  10.602 -0.5863  0.5210 -2.5269
 1026SOL    HW214541   3.167   1.357  10.536 -0.7831  1.1279  0.2273
 1027SOL     OW14542   0.615   2.982   4.433 -0.1940 -0.1492 -0.3150
 1027SOL    HW114543   0.548   2.916   4.416 -2.6753  1.9947  1.1706
 1027SOL    HW214544   0.605   2.997   4.527  0.8097 -0.5686 -0.1403
 1028SOL     OW14545   0.741   0.381   5.376  0.2990 -0.2897  0.3758
 1028SOL    HW114546   0.674   0.342   5.432 -0.9717 -1.5384 -1.9827
 1028SOL    HW214547   0.696   0.459   5.341  1.1463  0.2826  0.5544
 1029SOL     OW14548   0.860   3.307   7.859  0.6192 -0.6482 -0.1905
 1029SOL    HW114549   0.783   3.342   7.814  2.1944 -0.0444 -2.3752
 1029SOL    HW214550   0.933   3.346   7.811  2.3539 -1.9049  1.4018
 1030SOL     OW14551   3.798   1.699  12.001  0.3616  0.5503 -0.0049
 1030SOL    HW114552   3.852   1.668  11.928 -0.2777  1.8248 -1.0206
 1030SOL    HW214553   3.756   1.768  11.950 -1.2709 -0.5549 -0.1616
 1031SOL     OW14554   3.938   2.481   7.903  0.3394  0.2134 -0.3587
 1031SOL    HW114555   3.944   2.489   7.998 -0.0694 -0.7808 -0.2492
 1031SOL    HW214556   4.027   2.505   7.879  0.4440 -0.5974 -0.7826
 1032SOL     OW14557   2.963   4.113   5.745  0.2147 -0.2060 -0.3101
 1032SOL    HW114558   2.933   4.148   5.661  1.5874 -0.2909 -0.8213
 1032SOL    HW214559   3.054   4.141   5.748  0.0969  0.3190 -1.6037
 1033SOL     OW14560   1.475   4.677   7.828 -0.5978  1.1980  0.1276
 1033SOL    HW114561   1.473   4.604   7.766  0.5815  1.5382 -0.3116
 1033SOL    HW214562   1.559   4.714   7.800  0.7952 -2.4970 -0.5489
 1034SOL     OW14563   1.083   1.413  10.576  0.3741 -1.0826 -0.0461
 1034SOL    HW114564   1.169   1.444  10.546 -0.1293  1.4941  1.1490
 1034SOL    HW214565   1.060   1.488  10.631 -0.5956 -2.2584  1.1668
 1035SOL     OW14566   1.645   0.010   1.801  0.2905 -0.5504 -0.0537
 1035SOL    HW114567   1.674   4.644   1.780 -1.3247 -0.8699 -0.9509
 1035SOL    HW214568   1.595   0.018   1.720  0.1973 -0.9771 -0.0395
 1036SOL     OW14569   1.034   3.469  16.464 -0.3690 -0.0434 -0.6621
 1036SOL    HW114570   0.978   3.482  16.541 -1.2824  0.4841 -1.4196
 1036SOL    HW214571   1.033   3.373  16.466  0.9811 -0.0978 -2.6857
 1037SOL     OW14572   2.857   1.990  16.206 -0.1390 -0.7001  0.0381
 1037SOL    HW114573   2.882   2.062  16.264 -1.7196  0.2012 -0.4091
 1037SOL    HW214574   2.813   2.043  16.140 -0.4918 -2.5379 -1.1805
 1038SOL     OW14575   4.262   2.207   4.856  0.7348  0.0242 -0.3833
 1038SOL    HW114576   4.252   2.142   4.925 -0.0459  0.8657  0.2842
 1038SOL    HW214577   4.321   2.155   4.800 -1.3482 -1.2153 -1.4288
 1039SOL     OW14578   0.277   1.471   6.002  0.0143  0.5116  0.0479
 1039SOL    HW114579   0.297   1.564   5.999  0.4796  0.4140  0.0834
 1039SOL    HW214580   0.361   1.443   6.038  0.3501  0.4373 -0.8067
 1040SOL     OW14581   0.982   3.687   3.047 -0.2827  0.1642 -0.2143
 1040SOL    HW114582   0.939   3.772   3.034 -0.6535  0.2029  1.1877
 1040SOL    HW214583   1.063   3.711   3.093  0.7870  0.6578 -2.3804
 1041SOL     OW14584   1.254   1.647   2.320  0.2859 -0.4507  0.2152
 1041SOL    HW114585   1.263   1.742   2.334 -3.1311  0.2395 -2.1849
 1041SOL    HW214586   1.229   1.611   2.405  0.2782  0.2914  0.5313
 1042SOL     OW14587   2.852   1.605   6.061 -0.4557 -0.3409  0.2424
 1042SOL    HW114588   2.938   1.619   6.099  0.1123 -1.7152 -0.5448
 1042SOL    HW214589   2.806   1.548   6.122  0.3131  1.5855  2.6283
 1043SOL     OW14590   4.070   4.420   1.784  0.0029 -0.8472 -0.7213
 1043SOL    HW114591   4.098   4.392   1.871 -0.6440  1.8394  0.3635
 1043SOL    HW214592   4.115   4.505   1.779 -0.7546 -0.5791 -2.8956
 1044SOL     OW14593   3.019   0.540   0.659  0.2424  0.4425 -0.2965
 1044SOL    HW114594   3.097   0.545   0.715  0.0324 -0.1103  0.0433
 1044SOL    HW214595   3.045   0.477   0.592 -0.6659 -0.5434  0.2828
 1045SOL     OW14596   1.791   2.604   7.826  0.2231 -0.1199  0.2631
 1045SOL    HW114597   1.816   2.559   7.907  0.4733  1.3250  0.9831
 1045SOL    HW214598   1.697   2.586   7.829 -0.0637  0.9368 -2.3229
 1046SOL     OW14599   0.095   4.640   3.664  0.4550 -0.1821  0.4276
 1046SOL    HW114600   0.158   4.569   3.655 -0.5710 -0.8202 -1.6756
 1046SOL    HW214601   0.010   4.598   3.653  0.6357 -0.2213 -0.8384
 1047SOL     OW14602   2.524   4.462   6.177 -0.6929  0.4685 -0.2602
 1047SOL    HW114603   2.526   4.370   6.203 -1.2590 -0.3826 -3.2580
 1047SOL    HW214604   2.458   4.503   6.232 -0.7694  0.3629 -0.2739
 1048SOL     OW14605   4.571   4.110  12.152  0.0876 -0.4130  0.0515
 1048SOL    HW114606   4.482   4.091  12.180 -0.1715 -0.8138 -1.0736
 1048SOL    HW214607   4.585   4.198  12.189 -1.2846  0.3946 -1.3761
 1049SOL     OW14608   2.236   1.459   1.722 -0.1482 -0.0978  1.0519
 1049SOL    HW114609   2.260   1.392   1.786  0.2534 -0.6816  0.2875
 1049SOL    HW214610   2.245   1.406   1.643  0.8725  0.2367  0.9490
 1050SOL     OW14611   1.474   3.339  15.852 -0.3137  0.6481  0.0808
 1050SOL    HW114612   1.529   3.397  15.799 -1.2311  1.4461 -0.0052
 1050SOL    HW214613   1.542   3.299  15.906 -0.0620 -0.2734 -0.9167
 1051SOL     OW14614   2.223   0.627   2.195 -0.1038  0.3647  0.5424
 1051SOL    HW114615   2.198   0.592   2.109  0.3096  0.6374  0.3142
 1051SOL    HW214616   2.150   0.601   2.251  0.2059  0.5437  1.0307
 1052SOL     OW14617   3.372   3.242   2.512  0.2396  0.1373  0.2517
 1052SOL    HW114618   3.443   3.293   2.474  0.9843 -0.9126  0.2334
 1052SOL    HW214619   3.411   3.170   2.561  2.4241  0.6868 -0.6720
 1053SOL     OW14620   3.553   4.523   3.083  0.1961  0.0607  0.0957
 1053SOL    HW114621   3.571   4.513   3.177 -0.3608  2.3059  0.4408
 1053SOL    HW214622   3.458   4.517   3.084  0.2688 -1.0375 -1.7724
 1054SOL     OW14623   4.472   3.184   7.416 -0.4202 -0.1102  0.1787
 1054SOL    HW114624   4.428   3.241   7.479  1.1981  1.5936 -0.2324
 1054SOL    HW214625   4.561   3.180   7.449 -0.1143 -0.3867 -0.6844
 1055SOL     OW14626   1.078   3.733   6.021  0.2902  0.3891 -0.1284
 1055SOL    HW114627   1.165   3.764   6.047 -0.1159  1.1576  0.2846
 1055SOL    HW214628   1.041   3.729   6.109 -1.6257  0.0227 -0.9658
 1056SOL     OW14629   3.236   2.036   4.464 -0.1232  0.1488 -0.2362
 1056SOL    HW114630   3.204   1.947   4.478 -0.9767  0.6085  0.7037
 1056SOL    HW214631   3.149   2.069   4.440 -1.3917 -3.1084 -0.0662
 1057SOL     OW14632   2.178   2.123   3.269  0.1133 -0.0947  0.4209
 1057SOL    HW114633   2.119   2.152   3.199 -0.8758  0.5780  1.5395
 1057SOL    HW214634   2.185   2.210   3.307  2.1805  0.0770 -0.3564
 1058SOL     OW14635   1.064   2.507   3.555  0.4191 -0.0948 -0.2343
 1058SOL    HW114636   1.010   2.472   3.626  0.9947 -0.9232 -0.2021
 1058SOL    HW214637   1.034   2.460   3.478 -0.5552  0.4876 -0.2133
 1059SOL     OW14638   3.694   2.096   2.256 -0.3544  0.5563  0.3847
 1059SOL    HW114639   3.687   2.064   2.166 -0.5718 -1.6887  1.1997
 1059SOL    HW214640   3.611   2.068   2.294 -0.8518  0.6182 -0.6602
 1060SOL     OW14641   2.606   2.593   3.495 -0.1680 -0.0387  0.1256
 1060SOL    HW114642   2.695   2.601   3.461 -0.1849 -0.2727  0.0292
 1060SOL    HW214643   2.605   2.641   3.578 -3.2314  0.9632 -0.4911
 1061SOL     OW14644   2.751   3.925   3.791 -0.7989  0.2855 -0.1530
 1061SOL    HW114645   2.760   3.898   3.699 -0.2217  0.5056 -0.1609
 1061SOL    HW214646   2.817   3.867   3.828  1.1902  2.0697 -0.9281
 1062SOL     OW14647   0.437   3.035   9.062 -0.1493 -0.0931  0.5656
 1062SOL    HW114648   0.372   3.105   9.060  1.4808  1.4359  0.6892
 1062SOL    HW214649   0.501   3.084   9.114  0.9664 -0.6396 -0.2917
 1063SOL     OW14650   0.774   2.075  14.556 -0.1604  0.1360  0.2103
 1063SOL    HW114651   0.778   2.170  14.556  0.2413  0.1136  2.5775
 1063SOL    HW214652   0.790   2.053  14.464 -3.6438  1.4581 -0.7083
 1064SOL     OW14653   2.548   1.155   5.418 -0.1486 -0.1019 -0.8883
 1064SOL    HW114654   2.525   1.071   5.379 -1.5361 -0.6335  1.0811
 1064SOL    HW214655   2.579   1.204   5.342  1.1748  0.7172  0.1818
 1065SOL     OW14656   3.476   4.468   4.725  0.0083  0.4948  0.4125
 1065SOL    HW114657   3.402   4.512   4.682 -0.9520  0.8141  2.3774
 1065SOL    HW214658   3.513   4.537   4.780  0.0852  0.0951  0.8576
 1066SOL     OW14659   3.799   0.744  13.632 -0.5440  0.2031  0.1670
 1066SOL    HW114660   3.704   0.735  13.641 -0.6166 -0.2599 -0.9657
 1066SOL    HW214661   3.827   0.680  13.697 -1.6392 -1.7881 -1.3148
 1067SOL     OW14662   2.219   0.533  12.133 -0.1128 -0.5820  0.0675
 1067SOL    HW114663   2.282   0.503  12.068 -1.3142 -0.7597 -1.0063
 1067SOL    HW214664   2.148   0.550  12.071  1.5775  0.8392 -1.4517
 1068SOL     OW14665   1.194   2.184   6.033  0.0034  0.5075 -0.1633
 1068SOL    HW114666   1.145   2.252   5.988  0.4382  0.4405 -0.7368
 1068SOL    HW214667   1.246   2.231   6.099  3.4006  0.4042 -2.7507
 1069SOL     OW14668   0.726   0.568   6.182 -0.3855 -0.0993 -0.4636
 1069SOL    HW114669   0.715   0.488   6.235 -0.3158  0.2229  0.0402
 1069SOL    HW214670   0.643   0.613   6.193 -1.6527 -2.1499 -1.6994
 1070SOL     OW14671   3.275   1.852  11.203  0.1677 -0.2434  0.2449
 1070SOL    HW114672   3.291   1.762  11.173 -0.5182 -0.4276  0.4380
 1070SOL    HW214673   3.274   1.904  11.122 -2.6083 -1.8500 -0.7691
 1071SOL     OW14674   4.505   1.019   4.315  0.4835  0.8977  0.4122
 1071SOL    HW114675   4.493   0.943   4.259 -1.4283  0.0179  2.0211
 1071SOL    HW214676   4.468   1.080   4.251  0.4078 -1.4429 -1.7674
 1072SOL     OW14677   3.972   0.718  16.497  0.3692 -0.4406 -0.1277
 1072SOL    HW114678   3.990   0.676  16.581 -3.2342  0.5091  1.1333
 1072SOL    HW214679   3.879   0.741  16.500  0.8143  1.3692 -0.4616
 1073SOL     OW14680   3.172   1.476   7.150  0.1824  0.2589  0.1533
 1073SOL    HW114681   3.217   1.400   7.113 -1.3019 -0.0561 -0.9918
 1073SOL    HW214682   3.181   1.453   7.243  0.7511 -2.4899 -0.5702
 1074SOL     OW14683   4.541   2.434   2.740 -0.2132  0.3708  0.0278
 1074SOL    HW114684   4.626   2.473   2.723  0.8797 -1.2000  1.7553
 1074SOL    HW214685   4.484   2.509   2.759  1.4212  1.2095  1.6314
 1075SOL     OW14686   4.229   3.166  11.215 -0.1679 -0.1746  0.3075
 1075SOL    HW114687   4.218   3.257  11.187 -0.7335 -0.0184  1.0390
 1075SOL    HW214688   4.204   3.179  11.307 -1.4838 -2.0136  0.2158
 1076SOL     OW14689   4.189   3.655   8.295  0.5880 -0.1003  0.5604
 1076SOL    HW114690   4.204   3.744   8.328  2.0207 -0.0944 -0.1015
 1076SOL    HW214691   4.127   3.611   8.353  0.5940  0.0005  0.6421
 1077SOL     OW14692   1.238   1.652   8.037 -0.1242 -0.1886 -0.5057
 1077SOL    HW114693   1.314   1.658   7.979 -0.6417  1.3003 -1.0412
 1077SOL    HW214694   1.192   1.578   7.998 -1.1254  1.2076 -1.9970
 1078SOL     OW14695   3.898   2.274   3.298  0.7149 -0.0189  0.3686
 1078SOL    HW114696   3.828   2.296   3.237 -0.1614 -0.8766  1.0798
 1078SOL    HW214697   3.967   2.321   3.251  1.6262 -1.8620 -0.1111
 1079SOL     OW14698   2.726   3.857  15.111  0.5929 -0.4141 -0.0519
 1079SOL    HW114699   2.688   3.938  15.146 -0.0950 -0.5326 -0.5220
 1079SOL    HW214700   2.713   3.880  15.018  1.7980  1.2407  0.1901
 1080SOL     OW14701   2.108   0.937   6.816  0.1079  0.7425  0.1787
 1080SOL    HW114702   2.152   0.985   6.745 -1.3154 -2.3760 -2.8025
 1080SOL    HW214703   2.043   0.888   6.766 -0.2097  1.1676  0.1740
 1081SOL     OW14704   4.486   0.217   2.142  0.5100  0.3579 -0.0229
 1081SOL    HW114705   4.417   0.269   2.183 -0.2748 -0.2058 -0.6265
 1081SOL    HW214706   4.463   0.126   2.162  1.6055 -0.2055 -1.3597
 1082SOL     OW14707   2.249   0.583   0.315 -0.0032 -0.4090 -0.4384
 1082SOL    HW114708   2.253   0.638   0.393 -0.2714  0.2361 -0.8760
 1082SOL    HW214709   2.157   0.558   0.323 -0.5847  2.0538  0.7947
 1083SOL     OW14710   2.795   1.901  10.190  0.4537 -0.0395  0.1140
 1083SOL    HW114711   2.803   1.973  10.252 -2.3773 -1.7149  2.3590
 1083SOL    HW214712   2.879   1.861  10.213 -0.1553 -1.7113 -0.5673
 1084SOL     OW14713   4.419   0.654   9.059 -0.3762  0.3390  0.2154
 1084SOL    HW114714   4.366   0.727   9.028 -1.7604 -1.6976 -2.1884
 1084SOL    HW214715   4.348   0.591   9.072 -2.2735  2.1033 -1.5596
 1085SOL     OW14716   0.549   1.536   5.890 -0.3300  0.2271  0.0889
 1085SOL    HW114717   0.617   1.557   5.954 -0.4333  3.2000 -0.8055
 1085SOL    HW214718   0.537   1.447   5.923  2.5303  0.6773  2.3139
 1086SOL     OW14719   2.745   0.464   5.186 -0.5172 -0.3669 -0.2328
 1086SOL    HW114720   2.762   0.555   5.210  0.7818  0.1347 -3.0274
 1086SOL    HW214721   2.703   0.471   5.099  0.4308 -1.5718 -0.7783
 1087SOL     OW14722   4.665   4.422   8.403  0.6888  0.6140 -0.2355
 1087SOL    HW114723   4.613   4.399   8.326 -0.0261 -1.0236  0.7243
 1087SOL    HW214724   0.016   4.457   8.354 -0.6092  0.3012 -2.4346
 1088SOL     OW14725   4.189   1.423   4.149  0.6196 -0.1901 -0.0325
 1088SOL    HW114726   4.110   1.472   4.171  0.8367  0.2747 -0.3046
 1088SOL    HW214727   4.176   1.351   4.211 -1.1432  0.8039  0.7680
 1089SOL     OW14728   1.651   0.870  17.549 -0.2979  0.0338  0.4020
 1089SOL    HW114729   1.562   0.884  17.518  0.2538  0.2271 -1.0782
 1089SOL    HW214730   1.645   0.873  17.645  0.1454 -1.3916  0.4680
 1090SOL     OW14731   4.345   3.883   3.028  0.1204 -0.1898 -0.0313
 1090SOL    HW114732   4.345   3.803   3.079  2.3320  0.3918  0.8575
 1090SOL    HW214733   4.413   3.857   2.965 -0.0441 -3.6836  1.2427
 1091SOL     OW14734   2.594   1.201   5.865 -0.7431  0.2528 -0.0091
 1091SOL    HW114735   2.562   1.121   5.823  0.2394  0.0627 -0.3915
 1091SOL    HW214736   2.670   1.169   5.913  0.5809  0.6413 -1.8259
 1092SOL     OW14737   1.613   4.326  12.955  0.4860 -0.3969  0.6933
 1092SOL    HW114738   1.552   4.391  12.989 -1.0639 -0.7493 -1.3702
 1092SOL    HW214739   1.651   4.286  13.033  2.7262 -1.4429 -0.9248
 1093SOL     OW14740   4.202   4.061   5.915  0.0331  1.0041 -0.9086
 1093SOL    HW114741   4.235   4.119   5.984  0.0066 -1.3795  1.1302
 1093SOL    HW214742   4.107   4.062   5.929  0.1568  0.9663 -0.0653
 1094SOL     OW14743   0.558   1.613   5.616 -0.0255  0.2631 -0.3407
 1094SOL    HW114744   0.534   1.520   5.620 -1.2342  0.5541 -0.7039
 1094SOL    HW214745   0.551   1.638   5.708 -0.9446  1.0722 -0.6313
 1095SOL     OW14746   2.316   3.639  15.718 -0.2173  0.1665 -0.1918
 1095SOL    HW114747   2.248   3.572  15.725  0.2306 -0.0890  1.6288
 1095SOL    HW214748   2.267   3.712  15.757  1.2243  0.3274  1.2769
 1096SOL     OW14749   4.483   4.410   6.071 -0.2170  0.5712  0.4025
 1096SOL    HW114750   4.504   4.375   6.158 -3.9498  0.3576  1.2436
 1096SOL    HW214751   4.505   4.330   6.023 -0.1968  0.3072  0.8460
 1097SOL     OW14752   0.655   4.127   5.270  0.1894  0.5760 -0.0868
 1097SOL    HW114753   0.636   4.195   5.205  0.7401  1.2734  0.4911
 1097SOL    HW214754   0.575   4.126   5.322 -1.4726 -0.5781 -2.6498
 1098SOL     OW14755   2.953   1.627  12.636 -0.4560 -0.4413  0.2876
 1098SOL    HW114756   2.943   1.714  12.597 -0.1863 -0.6823 -0.3249
 1098SOL    HW214757   2.987   1.570  12.566  1.3494 -0.0073  0.8100
 1099SOL     OW14758   0.266   1.245  14.370 -0.4802  0.0996 -0.5420
 1099SOL    HW114759   0.292   1.313  14.309 -1.8390  0.7838 -0.3568
 1099SOL    HW214760   0.341   1.237  14.428  0.5005  0.7587 -1.7344
 1100SOL     OW14761   4.618   2.490   1.776  0.1787  0.0661 -0.1844
 1100SOL    HW114762   4.617   2.487   1.872 -1.2499  0.2321 -0.1952
 1100SOL    HW214763   4.619   2.395   1.763 -1.3600  0.2708 -1.7497
 1101SOL     OW14764   0.831   1.983   9.427  0.1440 -0.0920  0.0524
 1101SOL    HW114765   0.752   2.023   9.463 -1.8887 -2.0717 -2.1987
 1101SOL    HW214766   0.900   2.039   9.460  0.1849  0.0088 -0.2031
 1102SOL     OW14767   2.361   0.389  14.120 -0.1899 -0.1180  0.4625
 1102SOL    HW114768   2.395   0.354  14.202 -0.0793  0.9695  0.8851
 1102SOL    HW214769   2.394   0.479  14.125 -2.1267  0.5619  1.1694
 1103SOL     OW14770   2.225   2.288   8.611  0.2738 -0.2115  0.3785
 1103SOL    HW114771   2.284   2.363   8.603  1.0437 -0.8012  0.4295
 1103SOL    HW214772   2.142   2.319   8.576  0.9655  2.0241  0.7479
 1104SOL     OW14773   0.336   4.312   2.462  0.7775  0.0301  0.0266
 1104SOL    HW114774   0.256   4.361   2.480 -0.6577 -2.3002 -0.1138
 1104SOL    HW214775   0.380   4.373   2.402 -1.0138  0.0143 -1.3035
 1105SOL     OW14776   1.535   2.947   6.503  0.3309 -0.0909 -0.4810
 1105SOL    HW114777   1.551   2.924   6.595  1.2261  1.3886 -0.2727
 1105SOL    HW214778   1.557   3.040   6.506 -0.0257  0.0603 -2.9101
 1106SOL     OW14779   2.159   1.213   4.477  0.4506  0.1968 -0.0368
 1106SOL    HW114780   2.123   1.125   4.467 -0.5771  0.5444  0.5837
 1106SOL    HW214781   2.096   1.237   4.545  0.3053  0.4788 -0.2745
 1107SOL     OW14782   2.563   0.493   4.970  0.3825 -0.1518  0.1840
 1107SOL    HW114783   2.472   0.522   4.968 -0.0919 -1.7136 -0.5316
 1107SOL    HW214784   2.568   0.429   4.899 -2.1014 -0.2671  0.1120
 1108SOL     OW14785   4.716   0.667   6.482  0.2909  0.4070  0.3167
 1108SOL    HW114786   0.087   0.680   6.471 -0.3729  2.6804 -2.6929
 1108SOL    HW214787   4.712   0.643   6.574  0.8994 -1.7411 -0.2086
 1109SOL     OW14788   2.028   2.067   4.298  0.0996  0.5258  0.1094
 1109SOL    HW114789   2.069   2.136   4.247 -1.7608  1.4989 -0.0268
 1109SOL    HW214790   1.945   2.112   4.313 -1.1642 -1.3582 -1.2121
 1110SOL     OW14791   1.229   3.288  15.784 -0.2921 -0.3909 -0.7208
 1110SOL    HW114792   1.322   3.289  15.802 -0.5486  2.8846  0.3738
 1110SOL    HW214793   1.212   3.373  15.743  1.7663 -0.3942 -1.5478
 1111SOL     OW14794   4.046   1.788  12.376 -0.2044 -0.3525  0.2461
 1111SOL    HW114795   3.990   1.735  12.433 -1.6836  0.0108 -0.8691
 1111SOL    HW214796   3.980   1.813  12.311 -0.1608 -0.1720  0.2715
 1112SOL     OW14797   2.871   0.976   9.054  0.2900 -0.0781 -0.1831
 1112SOL    HW114798   2.902   0.950   8.967  1.3677 -2.1099  0.8228
 1112SOL    HW214799   2.960   0.988   9.086 -0.5366  0.6241  1.8490
 1113SOL     OW14800   3.380   3.273   5.315 -0.0934  0.5604  0.1425
 1113SOL    HW114801   3.429   3.212   5.370 -0.3787  0.1514 -0.0602
 1113SOL    HW214802   3.425   3.238   5.238 -2.3705 -0.7383 -0.6109
 1114SOL     OW14803   1.726   3.865   3.687  0.4327  0.1048 -0.2194
 1114SOL    HW114804   1.821   3.874   3.695  0.3302  0.8650  0.0691
 1114SOL    HW214805   1.710   3.850   3.593 -0.3076 -3.6807  0.5143
 1115SOL     OW14806   4.297   4.406   3.019  0.4044  0.3323  0.2664
 1115SOL    HW114807   4.337   4.325   2.988  1.7839  1.4931 -1.0102
 1115SOL    HW214808   4.207   4.376   3.021  0.0454  1.4343  0.6546
 1116SOL     OW14809   4.102   2.025  11.623 -0.0134 -0.3395  0.3024
 1116SOL    HW114810   4.160   1.989  11.690  0.0262 -2.1719 -0.7158
 1116SOL    HW214811   4.042   2.080  11.673 -0.6184  0.1090 -0.9314
 1117SOL     OW14812   4.424   3.964   3.772 -0.0777 -0.1281 -0.0759
 1117SOL    HW114813   4.355   3.906   3.803  1.5889 -2.1126 -0.1176
 1117SOL    HW214814   4.475   3.907   3.716 -0.0767 -0.3213  0.1222
 1118SOL     OW14815   0.397   1.881  11.656  0.3334  0.1214 -0.1373
 1118SOL    HW114816   0.326   1.849  11.601  0.3097 -0.9692  0.5246
 1118SOL    HW214817   0.354   1.962  11.683 -1.1789 -1.7319  3.1001
 1119SOL     OW14818   3.424   3.504  11.716 -0.2583 -0.5696  0.0780
 1119SOL    HW114819   3.470   3.567  11.772 -2.1346 -0.1087  1.1123
 1119SOL    HW214820   3.339   3.521  11.756  1.2531  1.8840  2.3076
 1120SOL     OW14821   0.442   2.263   8.309  0.4417  0.2854 -0.2406
 1120SOL    HW114822   0.467   2.223   8.392  3.0576  0.2169 -1.0611
 1120SOL    HW214823   0.476   2.352   8.314 -0.2504  0.4726  1.2269
 1121SOL     OW14824   3.356   0.788   3.972  0.8100  0.6154 -0.0856
 1121SOL    HW114825   3.280   0.749   3.928  0.6344 -0.4700  1.1658
 1121SOL    HW214826   3.318   0.801   4.059  0.0089  0.4076 -0.4018
 1122SOL     OW14827   3.551   3.805   6.518  0.8344  0.0580  0.5751
 1122SOL    HW114828   3.621   3.870   6.517  1.2949 -0.4654 -1.5419
 1122SOL    HW214829   3.529   3.813   6.610  0.6281  0.6170  0.4741
 1123SOL     OW14830   1.055   0.868   8.160 -0.1927 -0.6144  0.2649
 1123SOL    HW114831   0.972   0.846   8.117 -0.5193 -1.4913  1.3574
 1123SOL    HW214832   1.037   0.923   8.236 -2.5024 -0.6629 -0.2514
 1124SOL     OW14833   0.739   1.598   0.587 -0.4588 -0.1340 -0.3808
 1124SOL    HW114834   0.785   1.680   0.572  3.8370 -2.5798 -0.3950
 1124SOL    HW214835   0.791   1.559   0.657 -2.1495 -0.5277  0.6656
 1125SOL     OW14836   1.850   0.117  15.848  0.0172  0.5514  0.0320
 1125SOL    HW114837   1.760   0.125  15.818 -0.8496 -1.1044  2.1785
 1125SOL    HW214838   1.846   0.041  15.906  1.6354  1.1412  0.9337
 1126SOL     OW14839   1.212   3.274   2.627  0.0626  0.1764  0.1166
 1126SOL    HW114840   1.150   3.202   2.615  0.0363  0.3026 -0.4942
 1126SOL    HW214841   1.283   3.235   2.576  1.2250  1.1282  1.0203
 1127SOL     OW14842   2.560   4.472   4.663  0.3789  0.5266  0.1156
 1127SOL    HW114843   2.506   4.401   4.698 -0.0445  1.1680  0.7354
 1127SOL    HW214844   2.521   4.467   4.575 -2.8353 -2.0097  1.6936
 1128SOL     OW14845   0.586   0.090   5.718  0.6259 -0.4969 -0.2991
 1128SOL    HW114846   0.536   0.010   5.735  0.7894 -0.3117  1.0135
 1128SOL    HW214847   0.662   0.078   5.774  0.3653 -1.8145 -0.2183
 1129SOL     OW14848   3.364   0.759   5.029 -0.4799  0.2071  0.3127
 1129SOL    HW114849   3.412   0.686   5.066 -0.5870  1.1885  2.4013
 1129SOL    HW214850   3.305   0.778   5.101  1.2061  0.7671  1.5437
 1130SOL     OW14851   1.300   4.047   2.066  0.6618  0.1072  0.6503
 1130SOL    HW114852   1.228   4.033   2.127 -1.8547 -1.6085 -2.6730
 1130SOL    HW214853   1.324   3.955   2.054 -2.8194 -0.7840  0.4066
 1131SOL     OW14854   3.554   1.717   5.277 -0.1776 -0.7975 -0.0480
 1131SOL    HW114855   3.535   1.625   5.258 -0.5090 -0.4600 -1.3456
 1131SOL    HW214856   3.559   1.719   5.372 -0.1537 -1.5846 -0.0337
 1132SOL     OW14857   3.803   4.434   6.860  0.1007  1.0050 -0.0474
 1132SOL    HW114858   3.895   4.445   6.883 -0.6286  1.9647  2.4567
 1132SOL    HW214859   3.793   4.345   6.893  0.4783  0.7798 -0.5466
 1133SOL     OW14860   4.615   2.063  13.430 -0.6534  0.2214  0.2661
 1133SOL    HW114861   4.619   2.082  13.336 -1.0692 -2.1373 -0.2260
 1133SOL    HW214862   4.542   2.001  13.433  2.4931 -3.4625  0.8258
 1134SOL     OW14863   0.185   0.677  11.897 -0.5266 -0.1215  0.2449
 1134SOL    HW114864   0.178   0.756  11.844 -2.0834 -1.0523 -0.9446
 1134SOL    HW214865   0.277   0.662  11.920 -1.1256  0.9934  3.4714
 1135SOL     OW14866   2.400   0.792   3.523  0.0670 -0.0437  0.0222
 1135SOL    HW114867   2.472   0.850   3.551  1.4356 -2.6009  1.7132
 1135SOL    HW214868   2.397   0.727   3.593  0.5098 -1.0112 -0.8679
 1136SOL     OW14869   1.362   2.508   2.075  0.2218 -0.1430 -0.4106
 1136SOL    HW114870   1.319   2.472   2.153  1.2120 -3.6855 -1.4799
 1136SOL    HW214871   1.346   2.431   2.020  1.0754 -0.1407 -0.6569
 1137SOL     OW14872   1.546   0.001   1.528  0.0173 -0.0191 -0.0127
 1137SOL    HW114873   1.477   0.066   1.513 -0.7549 -0.9870 -0.6302
 1137SOL    HW214874   1.621   0.051   1.496 -0.6299  0.3459 -0.9464
 1138SOL     OW14875   3.728   2.769  12.979  0.8030 -0.2767  0.2305
 1138SOL    HW114876   3.659   2.815  12.930  0.4431  1.2934  2.1862
 1138SOL    HW214877   3.798   2.759  12.915  0.2980 -0.0695 -0.3598
 1139SOL     OW14878   0.545   1.939  14.698  0.5450  0.4215 -0.0921
 1139SOL    HW114879   0.552   1.853  14.656 -1.7050 -0.1804  0.7424
 1139SOL    HW214880   0.630   1.974  14.673  0.8114 -1.6360 -2.1553
 1140SOL     OW14881   2.831   0.254   3.164  0.2228 -0.0655  0.3604
 1140SOL    HW114882   2.890   0.181   3.183  1.2737  0.9348  0.9211
 1140SOL    HW214883   2.847   0.292   3.251  0.9684  0.7428 -0.1379
 1141SOL     OW14884   4.445   1.305   3.993 -0.1168  0.5815  0.3988
 1141SOL    HW114885   4.511   1.292   3.924 -1.5287 -0.0736 -0.8297
 1141SOL    HW214886   4.486   1.374   4.046  2.5877 -0.5808 -0.1424
 1142SOL     OW14887   1.209   3.468   8.478 -0.1697  0.1877 -0.6203
 1142SOL    HW114888   1.162   3.546   8.506  0.0067 -0.0081  0.2154
 1142SOL    HW214889   1.137   3.464   8.414 -1.2027 -1.1231  0.6346
 1143SOL     OW14890   0.699   1.171   5.564  0.3290  0.3660  0.4424
 1143SOL    HW114891   0.744   1.089   5.584  0.1088 -0.1078 -0.9945
 1143SOL    HW214892   0.712   1.176   5.469 -0.2918 -0.9347  0.2975
 1144SOL     OW14893   2.568   2.796   6.899  0.1208  0.3486 -0.3544
 1144SOL    HW114894   2.565   2.739   6.976  0.2759  0.9638  0.1078
 1144SOL    HW214895   2.521   2.867   6.944  0.3356 -0.0868  0.5641
 1145SOL     OW14896   4.306   4.409  12.246  0.0512  0.0317 -0.1975
 1145SOL    HW114897   4.274   4.493  12.213  1.1283  0.3571 -0.4405
 1145SOL    HW214898   4.393   4.432  12.279 -0.1323  0.5193 -0.0578
 1146SOL     OW14899   0.350   4.680   5.990 -0.3185  0.3575 -0.5554
 1146SOL    HW114900   0.410   0.023   6.024 -2.5269  1.4693  1.2445
 1146SOL    HW214901   0.277   4.709   6.045 -1.3843 -2.2501 -0.6063
 1147SOL     OW14902   1.657   3.765  12.104 -0.6983  0.1189  0.1745
 1147SOL    HW114903   1.705   3.764  12.021 -1.4958  0.1312 -0.2882
 1147SOL    HW214904   1.635   3.672  12.109 -1.1338  0.2438  0.5731
 1148SOL     OW14905   4.162   4.356   2.321 -0.3826 -0.2254  0.1911
 1148SOL    HW114906   4.159   4.262   2.337 -0.0224 -0.0608  1.2543
 1148SOL    HW214907   4.235   4.386   2.374 -0.6871  0.5564  0.1727
 1149SOL     OW14908   0.354   1.445   7.782  0.1809 -0.4958 -0.3421
 1149SOL    HW114909   0.342   1.534   7.816  0.8611  0.1255 -1.7549
 1149SOL    HW214910   0.443   1.448   7.746 -0.5352 -0.4289 -2.0833
 1150SOL     OW14911   1.818   1.637  16.190  0.6015  0.4324 -0.3371
 1150SOL    HW114912   1.846   1.629  16.098 -1.2121 -1.7483 -0.7184
 1150SOL    HW214913   1.888   1.688  16.229 -0.8720  1.3418  1.1043
 1151SOL     OW14914   1.008   1.196   0.993 -0.3914  0.0120  0.3711
 1151SOL    HW114915   1.060   1.276   1.008  0.8439 -0.5330 -0.9463
 1151SOL    HW214916   1.077   1.131   0.976  0.8679  1.0784  1.3924
 1152SOL     OW14917   1.821   0.043  14.271 -0.5715 -0.0423  0.1278
 1152SOL    HW114918   1.765   4.689  14.272 -0.6178 -0.0170 -0.7874
 1152SOL    HW214919   1.887   4.718  14.322 -1.5688 -0.5174  0.9870
 1153SOL     OW14920   1.234   3.937   6.160  0.2310 -0.2078  0.9061
 1153SOL    HW114921   1.324   3.932   6.129 -0.1557  0.1343 -0.2638
 1153SOL    HW214922   1.244   3.896   6.247  1.9325 -0.1504  0.7215
 1154SOL     OW14923   3.272   1.013   4.950 -0.3650 -0.0307 -0.1932
 1154SOL    HW114924   3.299   0.922   4.962  1.8435  0.5940 -0.3998
 1154SOL    HW214925   3.347   1.051   4.995  2.0310 -1.1900 -3.1750
 1155SOL     OW14926   4.621   1.924  10.694  0.3714  0.3739 -0.0343
 1155SOL    HW114927   4.592   1.927  10.603 -0.4454 -2.4606  0.1149
 1155SOL    HW214928   4.699   1.871  10.677 -0.6189 -1.7204  1.8786
 1156SOL     OW14929   0.711   4.070   4.213 -0.3755 -0.3560 -0.0070
 1156SOL    HW114930   0.710   4.136   4.282 -0.8301 -0.9815  0.5901
 1156SOL    HW214931   0.801   4.065   4.183 -0.4440 -0.9584 -0.1185
 1157SOL     OW14932   0.922   2.725  10.238 -0.6280 -0.2430 -0.3609
 1157SOL    HW114933   0.998   2.691  10.285 -0.8098 -1.0115 -0.6370
 1157SOL    HW214934   0.909   2.667  10.163 -2.7828  1.7176 -1.5175
 1158SOL     OW14935   1.301   0.368   3.329  0.3362  0.4570  0.0891
 1158SOL    HW114936   1.215   0.395   3.360 -0.1544  0.1497 -0.9998
 1158SOL    HW214937   1.297   0.274   3.347 -0.5952  1.1032  3.1719
 1159SOL     OW14938   0.654   3.161   6.036 -0.0436  0.3813  0.2091
 1159SOL    HW114939   0.603   3.196   5.962  0.1517  0.6967  0.2223
 1159SOL    HW214940   0.690   3.243   6.069 -0.7460  0.7568  0.0506
 1160SOL     OW14941   4.159   0.989   3.751  0.2420  0.2419 -0.4551
 1160SOL    HW114942   4.160   0.930   3.676  3.9350  1.3189 -1.2428
 1160SOL    HW214943   4.252   0.991   3.773  0.2952  0.1142 -0.6751
 1161SOL     OW14944   0.049   4.618  17.651 -0.3377  0.0874 -0.0421
 1161SOL    HW114945   4.707   4.688  17.646 -1.2676 -0.7694  0.1485
 1161SOL    HW214946   0.106   4.647  17.580 -0.0634  0.5080  0.3480
 1162SOL     OW14947   1.661   4.193  13.890 -0.2916 -0.7590 -0.0719
 1162SOL    HW114948   1.594   4.250  13.850 -1.0491 -1.0059  0.8502
 1162SOL    HW214949   1.594   4.128  13.912 -0.3521 -0.9755 -0.8958
 1163SOL     OW14950   2.741   4.286   6.593 -0.7821  0.0055 -0.1379
 1163SOL    HW114951   2.740   4.269   6.687  0.4742 -1.9051 -0.4802
 1163SOL    HW214952   2.798   4.362   6.583  2.7404 -2.6173  0.0063
 1164SOL     OW14953   3.243   0.625   1.729  0.0959 -0.0754  0.5004
 1164SOL    HW114954   3.169   0.662   1.777 -1.3051 -1.6043 -0.4533
 1164SOL    HW214955   3.313   0.631   1.794 -0.6675 -0.8529  1.3867
 1165SOL     OW14956   0.831   1.995   1.993 -0.5178  0.0112  0.2568
 1165SOL    HW114957   0.854   1.976   1.902  3.1223  4.2849  0.2927
 1165SOL    HW214958   0.847   1.909   2.031  1.3681 -0.2825 -1.2117
 1166SOL     OW14959   4.375   1.703   5.475  0.2872 -0.6269 -0.0549
 1166SOL    HW114960   4.443   1.638   5.454  2.9796  1.5487  1.8251
 1166SOL    HW214961   4.378   1.689   5.570 -0.8403  3.7079  0.6140
 1167SOL     OW14962   2.155   3.256   2.160  0.4969 -0.0168 -0.7847
 1167SOL    HW114963   2.214   3.187   2.128 -1.8045 -1.5165 -1.8795
 1167SOL    HW214964   2.162   3.240   2.254  0.9378  1.3267 -0.5943
 1168SOL     OW14965   0.694   3.093  17.087 -0.5415  0.2508 -0.0017
 1168SOL    HW114966   0.600   3.073  17.082 -0.5151  0.3133 -0.7003
 1168SOL    HW214967   0.699   3.157  17.016  0.6929  0.1970  0.0412
 1169SOL     OW14968   3.828   0.928   4.183  0.1719 -1.1247 -0.7118
 1169SOL    HW114969   3.732   0.920   4.189  0.1037  2.8373  3.6927
 1169SOL    HW214970   3.837   1.023   4.190 -1.0182 -0.8897 -2.2776
 1170SOL     OW14971   3.909   1.299   8.240 -0.1131  0.3277 -0.3552
 1170SOL    HW114972   3.900   1.341   8.326  1.3494  1.4450 -0.7326
 1170SOL    HW214973   3.847   1.347   8.185  0.1148  1.4945  0.4065
 1171SOL     OW14974   2.869   1.936   4.580  0.2783  0.0553 -0.1583
 1171SOL    HW114975   2.871   1.938   4.675 -2.9508 -1.9273 -0.0572
 1171SOL    HW214976   2.782   1.970   4.562  0.3187  0.1373 -0.1974
 1172SOL     OW14977   1.125   1.411   5.054 -0.2970  0.0773 -0.3500
 1172SOL    HW114978   1.121   1.504   5.031 -0.2299  0.1247 -0.1766
 1172SOL    HW214979   1.217   1.387   5.062 -0.3628 -0.4985 -1.3989
 1173SOL     OW14980   0.017   3.127   2.767 -0.6860  0.1775  0.4392
 1173SOL    HW114981   4.719   3.187   2.695  0.0998  0.3967  0.3877
 1173SOL    HW214982   0.052   3.187   2.832  1.1257  1.4347 -1.6663
 1174SOL     OW14983   2.645   3.845   2.094  0.3918  0.1013 -0.0386
 1174SOL    HW114984   2.629   3.893   2.013 -1.6661  0.1993  0.4147
 1174SOL    HW214985   2.595   3.904   2.151 -0.6416 -0.3232 -0.5190
 1175SOL     OW14986   2.420   0.020   2.791 -0.8557  0.3648 -0.1256
 1175SOL    HW114987   2.454   0.034   2.703  1.4925 -3.7254  0.0914
 1175SOL    HW214988   2.328   4.719   2.783 -0.3440 -2.1748  1.4983
 1176SOL     OW14989   1.321   0.058  14.865  0.0024 -0.1751 -0.1549
 1176SOL    HW114990   1.400   0.111  14.857 -0.3294  0.3915  0.3058
 1176SOL    HW214991   1.275   0.109  14.932  1.6923  3.6704 -1.8839
 1177SOL     OW14992   1.244   3.020   3.193  0.2560  0.4306 -0.7644
 1177SOL    HW114993   1.214   3.078   3.123 -1.6129 -0.0998 -0.3951
 1177SOL    HW214994   1.312   3.074   3.234  0.6613  0.0916 -0.9874
 1178SOL     OW14995   3.612   2.337   2.621  0.0497 -0.2920  0.2596
 1178SOL    HW114996   3.608   2.242   2.633  1.9485 -0.2219  1.4875
 1178SOL    HW214997   3.665   2.340   2.542  1.6303 -0.5623  1.3071
 1179SOL     OW14998   2.551   3.774  15.659  0.4936  0.1734 -0.5736
 1179SOL    HW114999   2.468   3.738  15.690  1.1769  1.2461  2.5162
 1179SOL    HW215000   2.616   3.728  15.713 -0.7321 -0.8718 -0.0000
 1180SOL     OW15001   2.761   1.566   8.507 -0.5861 -0.1236  1.1991
 1180SOL    HW115002   2.705   1.629   8.553  0.2898  1.0755  0.6149
 1180SOL    HW215003   2.692   1.517   8.462 -2.0865  0.4686  2.8310
 1181SOL     OW15004   4.428   0.223   1.654 -0.1161 -0.0293 -0.2540
 1181SOL    HW115005   4.350   0.220   1.710 -0.0971  2.0948 -0.1044
 1181SOL    HW215006   4.455   0.131   1.654  0.5472  0.1611  0.2041
 1182SOL     OW15007   1.181   2.384   5.841 -0.4820  0.4747 -0.2616
 1182SOL    HW115008   1.154   2.414   5.755 -0.2387 -0.2681 -0.5968
 1182SOL    HW215009   1.189   2.462   5.896  1.6090  0.8733 -1.1042
 1183SOL     OW15010   3.650   0.780   3.142  0.0724 -0.1897 -0.3527
 1183SOL    HW115011   3.559   0.805   3.125  0.0709 -0.8410 -1.2998
 1183SOL    HW215012   3.690   0.856   3.100  0.6651 -0.2242  0.1510
 1184SOL     OW15013   2.350   4.095   1.869  0.1920 -0.1189  0.3468
 1184SOL    HW115014   2.388   4.008   1.864 -0.3343 -0.3723  0.7562
 1184SOL    HW215015   2.265   4.065   1.839 -0.3868 -1.0356  2.9187
 1185SOL     OW15016   3.984   3.569   4.911 -0.1451 -0.2488  0.4046
 1185SOL    HW115017   3.961   3.662   4.919 -1.7933 -0.5283 -1.2223
 1185SOL    HW215018   3.958   3.558   4.819  0.7538  0.6724  0.0419
 1186SOL     OW15019   0.694   2.001  13.350  0.2890 -0.5553  0.2372
 1186SOL    HW115020   0.636   2.046  13.412 -0.3409  0.3940 -1.0474
 1186SOL    HW215021   0.634   2.003  13.276  1.8058  1.9463 -0.9407
 1187SOL     OW15022   4.591   2.401   3.812 -0.6045 -0.1711 -0.1337
 1187SOL    HW115023   4.533   2.325   3.809 -0.2873 -0.4008 -0.4507
 1187SOL    HW215024   4.536   2.453   3.871 -1.4854 -2.2742  0.9189
 1188SOL     OW15025   3.174   2.636  15.978  0.0682 -0.1008 -0.1558
 1188SOL    HW115026   3.126   2.704  16.025 -0.7902 -0.9141  0.1447
 1188SOL    HW215027   3.101   2.608  15.922 -0.1088  0.0852 -0.0194
 1189SOL     OW15028   1.448   0.646   5.678 -0.1715 -0.2328  0.0959
 1189SOL    HW115029   1.428   0.711   5.611  1.0705  0.3415  0.2724
 1189SOL    HW215030   1.505   0.702   5.730 -0.3335 -1.6352  1.7633
 1190SOL     OW15031   0.591   4.657   7.311 -0.1494  0.0744 -0.1519
 1190SOL    HW115032   0.506   4.691   7.337 -0.9990 -3.3747  1.4601
 1190SOL    HW215033   0.582   4.582   7.369  0.7018 -1.8069 -2.4711
 1191SOL     OW15034   3.684   4.125   3.788  0.1269 -0.0163  0.3807
 1191SOL    HW115035   3.707   4.198   3.730 -2.5228 -0.9046 -1.7899
 1191SOL    HW215036   3.744   4.061   3.749  0.6368 -0.0719  1.2611
 1192SOL     OW15037   2.167   3.228   9.344  0.1295  0.6683  0.4127
 1192SOL    HW115038   2.116   3.300   9.308  2.5410  2.0299 -0.2821
 1192SOL    HW215039   2.255   3.266   9.351 -0.4974  1.9188  1.6032
 1193SOL     OW15040   1.202   3.445   6.172  0.5380  0.3784  0.2929
 1193SOL    HW115041   1.249   3.501   6.110  1.3980 -1.4547 -0.7238
 1193SOL    HW215042   1.255   3.366   6.161 -2.4644 -1.1280 -3.5061
 1194SOL     OW15043   2.232   2.190   6.623  0.7288  0.6524  0.1440
 1194SOL    HW115044   2.303   2.217   6.682  1.4870 -1.1641  0.0650
 1194SOL    HW215045   2.174   2.141   6.682  1.6116  0.0790  0.5408
 1195SOL     OW15046   1.590   2.441   8.327  0.3503  0.6634  0.4570
 1195SOL    HW115047   1.567   2.530   8.303  1.4413  0.6828 -0.4878
 1195SOL    HW215048   1.594   2.394   8.244  3.3247 -0.1672  1.0645
 1196SOL     OW15049   2.409   2.623   8.598 -0.0871 -0.2432 -0.1261
 1196SOL    HW115050   2.430   2.621   8.692 -0.0203  1.4370 -0.1066
 1196SOL    HW215051   2.369   2.710   8.595 -0.1214 -0.3001 -1.3103
 1197SOL     OW15052   0.580   3.556   6.404  0.0292  0.0552 -0.1961
 1197SOL    HW115053   0.548   3.564   6.314 -0.9799  0.6285  0.2226
 1197SOL    HW215054   0.625   3.641   6.402  1.3155 -0.6296 -0.3482
 1198SOL     OW15055   0.472   0.453  12.849  0.2691 -0.0141 -0.5917
 1198SOL    HW115056   0.455   0.547  12.844 -1.9991 -0.4481 -0.8369
 1198SOL    HW215057   0.498   0.440  12.758  2.7509  1.1164 -0.0482
 1199SOL     OW15058   3.774   1.859  14.088 -0.0761  0.3971 -0.4854
 1199SOL    HW115059   3.705   1.893  14.145  3.2073  1.8428  2.6624
 1199SOL    HW215060   3.839   1.929  14.089  1.8719 -1.3901 -1.8694
 1200SOL     OW15061   1.555   1.737   9.055  0.1507  0.7502  0.7743
 1200SOL    HW115062   1.521   1.815   9.098 -2.8277 -0.0752 -0.0540
 1200SOL    HW215063   1.490   1.670   9.075  0.6182 -0.0662 -0.4331
 1201SOL     OW15064   3.483   2.605   5.338  0.5505 -1.0246  0.4837
 1201SOL    HW115065   3.563   2.653   5.315  1.0157 -2.6038 -1.2118
 1201SOL    HW215066   3.520   2.517   5.336 -4.1978 -3.0302  1.6340
 1202SOL     OW15067   2.272   2.292  10.982  0.4984  0.3888  0.0312
 1202SOL    HW115068   2.301   2.205  10.955  1.5325  0.6703  0.2326
 1202SOL    HW215069   2.299   2.293  11.074  0.2386  1.0101  0.1001
 1203SOL     OW15070   4.669   4.649   4.024  0.2782  0.5162  0.0289
 1203SOL    HW115071   0.009   4.577   4.031 -0.6243 -0.3268 -0.4620
 1203SOL    HW215072   4.620   4.647   4.106  0.0879  1.2559 -0.0656
 1204SOL     OW15073   3.852   2.411   6.594 -0.0773 -0.3542 -0.0907
 1204SOL    HW115074   3.928   2.438   6.543  0.0345 -3.3008 -1.5558
 1204SOL    HW215075   3.862   2.463   6.673 -0.1608  0.4731 -0.6325
 1205SOL     OW15076   2.519   1.323   9.368  0.1161  0.8157 -0.2659
 1205SOL    HW115077   2.455   1.279   9.424 -0.3218  0.8781 -0.7174
 1205SOL    HW215078   2.560   1.393   9.419  2.1449 -0.3040 -0.3615
 1206SOL     OW15079   4.568   3.704  12.859  0.1456 -0.1917  0.1094
 1206SOL    HW115080   4.619   3.697  12.778  1.1432 -1.1233  0.8111
 1206SOL    HW215081   4.579   3.797  12.876  0.1169 -0.0409 -0.6758
 1207SOL     OW15082   3.851   1.881  12.215  0.4903  0.4325  0.7825
 1207SOL    HW115083   3.828   1.797  12.176  1.2708  1.1668 -1.2422
 1207SOL    HW215084   3.892   1.909  12.133 -0.5395 -0.5750 -0.0789
 1208SOL     OW15085   2.764   0.568   2.201 -0.1571  0.3806  0.1939
 1208SOL    HW115086   2.723   0.654   2.213 -0.2842  0.5033 -1.1006
 1208SOL    HW215087   2.738   0.556   2.109  0.6128 -1.2812  0.2058
 1209SOL     OW15088   2.458   1.518   6.065  0.2964  0.4461 -0.3372
 1209SOL    HW115089   2.440   1.510   5.972 -5.0791  2.4112  0.5210
 1209SOL    HW215090   2.530   1.457   6.081 -1.3361 -1.4456 -0.1593
 1210SOL     OW15091   3.879   3.766  11.141  0.0084 -0.2556  0.3391
 1210SOL    HW115092   3.940   3.827  11.183  1.7609 -1.2474 -0.7887
 1210SOL    HW215093   3.833   3.725  11.215 -1.6729  2.3295  0.7245
 1211SOL     OW15094   1.391   1.503  11.276 -0.2764  0.4642  0.3615
 1211SOL    HW115095   1.404   1.442  11.350 -1.7396 -0.0294  0.2168
 1211SOL    HW215096   1.398   1.444  11.201  2.1423  1.5416 -0.2276
 1212SOL     OW15097   1.898   0.948   8.767  0.0097 -0.2743  0.2196
 1212SOL    HW115098   1.976   0.985   8.808 -0.4785 -0.1845  1.0683
 1212SOL    HW215099   1.894   0.854   8.787 -0.5411 -0.7984 -2.4129
 1213SOL     OW15100   0.569   2.396  17.441  0.1159 -0.6625 -0.2334
 1213SOL    HW115101   0.557   2.392  17.536 -0.3544  0.8411 -0.2356
 1213SOL    HW215102   0.531   2.480  17.418  0.3675 -0.5944 -0.4002
 1214SOL     OW15103   2.700   0.629  11.298  0.4180 -0.0112 -0.0379
 1214SOL    HW115104   2.608   0.607  11.286  0.0987  1.0341  0.5215
 1214SOL    HW215105   2.737   0.583  11.223 -2.4055 -0.7705 -0.9417
 1215SOL     OW15106   2.878   0.261   5.960  0.9351  0.0984 -0.6672
 1215SOL    HW115107   2.948   0.325   5.944  0.2369  0.6393 -1.5515
 1215SOL    HW215108   2.835   0.267   5.875  1.1314  1.6943 -0.6496
 1216SOL     OW15109   4.313   2.337   4.135  0.4612  0.1604 -0.2651
 1216SOL    HW115110   4.267   2.258   4.106  2.5718 -1.2610  0.2410
 1216SOL    HW215111   4.342   2.302   4.219 -0.2233 -0.4952 -0.2986
 1217SOL     OW15112   1.298   0.723   0.747 -0.2901 -0.0341 -0.0554
 1217SOL    HW115113   1.368   0.664   0.773 -1.5126 -1.2238  0.5413
 1217SOL    HW215114   1.347   0.800   0.717  0.5802 -1.2101 -1.6135
 1218SOL     OW15115   2.005   1.334  15.552  0.1430 -0.4781 -0.1110
 1218SOL    HW115116   2.032   1.273  15.621 -4.1345 -1.9093  0.3141
 1218SOL    HW215117   1.926   1.379  15.582  1.0323  1.3279 -0.4870
 1219SOL     OW15118   0.890   0.458   2.034 -0.3522 -0.3760 -0.4665
 1219SOL    HW115119   0.971   0.482   2.078  0.8388  0.2205 -2.9958
 1219SOL    HW215120   0.833   0.493   2.102 -1.1348  2.1265 -2.4045
 1220SOL     OW15121   1.469   3.007   3.626 -0.7630  0.5554  0.6282
 1220SOL    HW115122   1.453   2.969   3.539 -1.2591  1.0366  0.5098
 1220SOL    HW215123   1.501   3.094   3.603 -0.1236 -0.0250 -0.7230
 1221SOL     OW15124   0.214   0.587   7.774  0.1232 -0.2455 -0.3006
 1221SOL    HW115125   0.292   0.562   7.823  1.1381 -0.4216 -2.0050
 1221SOL    HW215126   0.200   0.680   7.791 -1.1215 -0.1486 -1.8188
 1222SOL     OW15127   2.342   2.356  11.732 -0.1638  0.7013  0.7844
 1222SOL    HW115128   2.335   2.263  11.754  0.5979  0.3573 -0.4460
 1222SOL    HW215129   2.331   2.398  11.818 -0.7745  0.6307  0.7403
 1223SOL     OW15130   4.494   0.825   9.380 -0.0799  0.1604 -0.4562
 1223SOL    HW115131   4.531   0.911   9.398 -1.6830  0.5210  1.0968
 1223SOL    HW215132   4.552   0.797   9.309 -0.6020 -0.4884 -0.6289
 1224SOL     OW15133   1.167   3.970   1.665 -0.2917 -0.3204  0.2174
 1224SOL    HW115134   1.180   3.954   1.572 -2.3596  0.2263 -0.1797
 1224SOL    HW215135   1.197   4.061   1.669 -1.1086 -0.0816  0.9734
 1225SOL     OW15136   0.917   1.154  10.200 -0.0278  0.2648  0.1785
 1225SOL    HW115137   0.848   1.136  10.264  0.7122 -1.5253  0.4835
 1225SOL    HW215138   0.856   1.149  10.126  0.7228 -0.6029 -0.3849
 1226SOL     OW15139   3.257   2.630  11.091  0.2051 -0.0850 -0.2860
 1226SOL    HW115140   3.193   2.665  11.152  0.5343  0.5185 -0.2847
 1226SOL    HW215141   3.294   2.712  11.056 -1.6864  0.7929 -0.2137
 1227SOL     OW15142   1.730   4.165   3.927  0.3025  0.2817  0.2542
 1227SOL    HW115143   1.672   4.174   3.850 -0.9851  0.7130  1.2686
 1227SOL    HW215144   1.738   4.258   3.946 -2.8460  0.7327 -0.5057
 1228SOL     OW15145   0.695   1.560   6.342  0.2229 -0.4621 -0.2237
 1228SOL    HW115146   0.600   1.546   6.351 -0.4725  2.1926 -3.4354
 1228SOL    HW215147   0.706   1.553   6.247 -1.3595 -1.3010 -0.3514
 1229SOL     OW15148   3.017   2.440   9.455  0.0472  0.1668 -0.2082
 1229SOL    HW115149   3.104   2.468   9.428 -0.2431 -1.3954 -2.6510
 1229SOL    HW215150   2.970   2.520   9.432  1.3345  1.3153  1.1694
 1230SOL     OW15151   2.686   1.101  11.807 -0.0103 -0.0089  0.0190
 1230SOL    HW115152   2.686   1.137  11.896 -0.6110  3.0686 -1.2427
 1230SOL    HW215153   2.671   1.009  11.832  1.3441  0.0152  0.9836
 1231SOL     OW15154   0.786   0.520   9.502 -0.0674  0.4372  0.1410
 1231SOL    HW115155   0.759   0.591   9.443 -1.5682 -0.2296  0.0069
 1231SOL    HW215156   0.862   0.562   9.541 -0.7374  0.4110  1.4632
 1232SOL     OW15157   0.875   2.684  12.334 -0.4936 -0.0945 -0.0920
 1232SOL    HW115158   0.853   2.600  12.375 -1.1377  0.7972  1.3954
 1232SOL    HW215159   0.897   2.732  12.414  1.2857 -0.6186 -0.2782
 1233SOL     OW15160   0.621   3.883  11.261  0.1032  0.1570  0.0495
 1233SOL    HW115161   0.602   3.973  11.287  0.4791  0.1790  0.2419
 1233SOL    HW215162   0.576   3.832  11.327 -0.2404 -0.8186 -0.9437
 1234SOL     OW15163   3.949   0.637   2.700 -0.0638 -1.1340 -0.0244
 1234SOL    HW115164   4.000   0.593   2.768  0.9039  2.8569  1.8544
 1234SOL    HW215165   4.022   0.695   2.676 -0.5375  0.1345  1.5734
 1235SOL     OW15166   0.978   1.648   4.112 -0.4111 -0.4983 -0.0649
 1235SOL    HW115167   0.985   1.735   4.150  1.4734 -0.2070 -1.1026
 1235SOL    HW215168   0.921   1.670   4.039 -0.3867 -1.3970 -0.3525
 1236SOL     OW15169   1.359   4.359   2.727  0.1391  0.6834 -0.4304
 1236SOL    HW115170   1.434   4.413   2.750  0.5022  1.2870 -2.9520
 1236SOL    HW215171   1.407   4.286   2.689 -0.2840  0.2388 -0.0997
 1237SOL     OW15172   4.653   2.219   4.492  0.1909 -0.5103 -0.5123
 1237SOL    HW115173   4.583   2.282   4.474  0.4461  0.1080  0.5997
 1237SOL    HW215174   4.603   2.137   4.489 -0.5631 -0.0356 -0.8906
 1238SOL     OW15175   3.688   3.512  17.023  0.2244 -0.0190  0.2956
 1238SOL    HW115176   3.639   3.505  17.104 -1.1842  0.4365 -0.5247
 1238SOL    HW215177   3.759   3.450  17.040 -1.0352 -1.6177 -0.3117
 1239SOL     OW15178   3.441   4.219   7.961  0.4786  0.6315 -0.0520
 1239SOL    HW115179   3.439   4.131   7.925 -0.5817 -0.0064  1.5509
 1239SOL    HW215180   3.385   4.268   7.901  3.0536  1.8896 -1.4143
 1240SOL     OW15181   0.704   4.328   4.302 -0.0185  0.5912  0.2105
 1240SOL    HW115182   0.759   4.355   4.376  1.2198 -1.8570  0.1913
 1240SOL    HW215183   0.673   4.410   4.263  1.4695  1.8837  1.6987
 1241SOL     OW15184   3.697   2.452  16.063 -0.0748 -0.3177  0.0048
 1241SOL    HW115185   3.740   2.447  16.148  0.7410  1.3529 -0.3071
 1241SOL    HW215186   3.631   2.518  16.082 -0.6556  0.0160 -3.0837
 1242SOL     OW15187   0.098   1.618  14.227  0.0654  0.0183  0.0325
 1242SOL    HW115188   0.037   1.617  14.153  0.2865  2.1573 -0.1779
 1242SOL    HW215189   0.038   1.639  14.298 -1.0131 -1.2873 -0.4944
 1243SOL     OW15190   1.202   0.884   5.865 -0.0053  0.1021  0.3159
 1243SOL    HW115191   1.287   0.915   5.896  1.1368 -3.6993  1.0027
 1243SOL    HW215192   1.174   0.946   5.798  1.8801  1.0740  0.4462
 1244SOL     OW15193   0.753   0.750   9.365  0.4917  0.1179 -0.1506
 1244SOL    HW115194   0.744   0.831   9.415 -0.7133 -0.0265 -0.1358
 1244SOL    HW215195   0.665   0.748   9.328  0.7388 -0.8378 -0.6919
 1245SOL     OW15196   3.009   1.391   4.619 -0.5512 -0.2932  1.1571
 1245SOL    HW115197   3.028   1.344   4.700  3.3518 -0.7009  0.0037
 1245SOL    HW215198   3.009   1.482   4.649  1.3141  0.2798 -0.5478
 1246SOL     OW15199   1.288   2.608   8.491 -0.7157  0.1333 -0.1763
 1246SOL    HW115200   1.340   2.612   8.570 -0.7246 -1.6860 -0.0738
 1246SOL    HW215201   1.303   2.693   8.450  0.4932  0.7302  1.5497
 1247SOL     OW15202   0.777   4.600   3.379  0.0948  0.1131 -0.3741
 1247SOL    HW115203   0.763   4.613   3.472 -0.8834  2.0721 -0.7849
 1247SOL    HW215204   0.801   4.508   3.376  0.4764  0.2679 -2.6889
 1248SOL     OW15205   4.604   0.915  17.652  0.6353 -0.1719  0.7382
 1248SOL    HW115206   4.568   0.872   0.035 -1.1720 -2.3096 -1.2614
 1248SOL    HW215207   4.530   0.967  17.621  2.8047  2.2512 -0.4213
 1249SOL     OW15208   2.710   4.500   7.872  0.1857  0.2863 -0.3009
 1249SOL    HW115209   2.781   4.436   7.865 -1.0439 -1.2934  1.4673
 1249SOL    HW215210   2.764   4.577   7.891 -0.6420  0.8247 -0.1344
 1250SOL     OW15211   1.068   3.123   8.619 -0.2525 -0.4272  0.1472
 1250SOL    HW115212   1.035   3.205   8.656  1.4930  0.7727 -0.9061
 1250SOL    HW215213   0.997   3.089   8.565 -0.2460 -0.8894  0.4312
 1251SOL     OW15214   2.745   1.961   2.583 -0.0252 -0.4871  0.3234
 1251SOL    HW115215   2.820   1.946   2.525  0.4219 -0.7825  0.9835
 1251SOL    HW215216   2.776   2.022   2.650 -0.8851  1.7293 -1.2928
 1252SOL     OW15217   2.951   0.583   2.987 -0.7462 -0.7203 -0.7375
 1252SOL    HW115218   2.893   0.623   2.922 -0.6168  0.7657  0.0774
 1252SOL    HW215219   2.981   0.500   2.949 -0.1782 -0.9225  0.1729
 1253SOL     OW15220   2.486   0.075   3.548 -0.1641 -0.0029  0.6909
 1253SOL    HW115221   2.412   0.120   3.589  0.8964 -1.0700  3.8103
 1253SOL    HW215222   2.471   0.092   3.455  0.5326  0.6395  0.6869
 1254SOL     OW15223   3.012   2.375  14.730 -0.3751  0.0801  0.1897
 1254SOL    HW115224   3.045   2.445  14.674 -0.2829  0.3946  0.6388
 1254SOL    HW215225   3.076   2.308  14.705 -1.3119 -1.3594  1.6953
 1255SOL     OW15226   4.465   1.794   8.246 -0.4055 -0.5617  0.7791
 1255SOL    HW115227   4.386   1.739   8.239  0.4435 -1.4155 -2.3824
 1255SOL    HW215228   4.421   1.878   8.260 -2.3356 -1.4362  0.0103
 1256SOL     OW15229   3.382   3.559   5.357 -0.6447  0.4168  0.0693
 1256SOL    HW115230   3.470   3.527   5.374 -0.7275 -0.0872 -0.4398
 1256SOL    HW215231   3.358   3.490   5.295  1.5542  1.1459 -1.6165
 1257SOL     OW15232   2.064   0.008   6.511  0.1059 -0.4438 -0.3069
 1257SOL    HW115233   2.089   4.693   6.595  0.0413 -1.0913 -0.5859
 1257SOL    HW215234   2.069   0.101   6.533  0.7530 -0.4039 -0.6307
 1258SOL     OW15235   2.512   0.319   4.770  0.3053 -0.2567 -0.7463
 1258SOL    HW115236   2.566   0.249   4.806  1.1744  0.0602 -1.4505
 1258SOL    HW215237   2.538   0.299   4.680  2.6436  2.2107 -0.6081
 1259SOL     OW15238   0.265   0.081   0.595 -0.0007 -0.1451 -0.6803
 1259SOL    HW115239   0.282   0.002   0.645  3.1428  0.9321 -0.0932
 1259SOL    HW215240   0.252   0.035   0.512 -1.3744  0.0990 -0.6080
 1260SOL     OW15241   0.438   0.686   1.905 -0.1277 -0.6178 -0.2969
 1260SOL    HW115242   0.489   0.612   1.874 -0.6786 -0.8417 -0.6882
 1260SOL    HW215243   0.507   0.744   1.935 -1.2293 -0.2835  1.6343
 1261SOL     OW15244   3.797   3.471   8.260  0.1028 -0.0328 -1.0009
 1261SOL    HW115245   3.836   3.527   8.194  0.8342  0.1876 -0.3856
 1261SOL    HW215246   3.720   3.436   8.216 -0.3400 -1.2424  0.7073
 1262SOL     OW15247   3.474   1.526  13.138 -0.1385 -0.0206 -0.0859
 1262SOL    HW115248   3.403   1.548  13.199  0.7278 -1.0294  1.2894
 1262SOL    HW215249   3.449   1.586  13.068 -1.1872  1.1402  1.2796
 1263SOL     OW15250   3.873   3.734   2.318  0.7494  0.9003 -0.1658
 1263SOL    HW115251   3.944   3.788   2.284 -0.7183  2.7005 -0.3631
 1263SOL    HW215252   3.878   3.655   2.263 -0.8353  1.5174 -1.2144
 1264SOL     OW15253   2.993   0.203   2.706  0.2133 -0.0241 -0.2683
 1264SOL    HW115254   2.959   0.115   2.723 -1.3344  0.7630  0.7660
 1264SOL    HW215255   3.004   0.242   2.792  0.9789 -1.3634  0.2387
 1265SOL     OW15256   3.085   0.217   4.980 -0.0967 -0.2598 -0.0650
 1265SOL    HW115257   3.024   0.144   4.972 -0.2023 -0.4560  2.6568
 1265SOL    HW215258   3.052   0.277   5.046  2.1227 -1.7012  2.3530
 1266SOL     OW15259   1.540   4.041  13.348  0.5202  0.1932  0.0187
 1266SOL    HW115260   1.526   3.984  13.273 -1.0973  0.7302 -0.0867
 1266SOL    HW215261   1.622   4.085  13.322 -0.2072  1.3449 -0.3437
 1267SOL     OW15262   1.597   2.916   2.033  0.6782  0.1639  0.3004
 1267SOL    HW115263   1.513   2.873   2.016  1.0626  0.2805 -1.7640
 1267SOL    HW215264   1.653   2.879   1.965  2.8522 -1.0375  2.7447
 1268SOL     OW15265   4.161   2.635  12.268  0.4919  0.3281 -0.1105
 1268SOL    HW115266   4.108   2.566  12.309 -0.5887  0.7052 -0.8766
 1268SOL    HW215267   4.102   2.707  12.244  1.8289  1.8950  1.3226
 1269SOL     OW15268   2.077   2.446  14.095 -0.4475  0.2058 -0.5299
 1269SOL    HW115269   2.089   2.353  14.075  2.2301 -0.0966  2.4818
 1269SOL    HW215270   1.998   2.466  14.046 -1.4780 -1.0645  0.6267
 1270SOL     OW15271   0.073   3.790   3.895  0.4415 -0.5122  0.5030
 1270SOL    HW115272   0.081   3.734   3.972  2.0324 -0.1102  0.6401
 1270SOL    HW215273   0.141   3.753   3.838  0.2802 -3.2542  2.0860
 1271SOL     OW15274   3.015   1.361   9.214  0.5405 -0.5021  0.5886
 1271SOL    HW115275   3.081   1.345   9.282  0.3898 -0.2139  0.8063
 1271SOL    HW215276   2.938   1.305   9.228 -1.2349  0.9111 -3.6088
 1272SOL     OW15277   4.180   2.382   5.314  0.6736 -0.4167  0.4674
 1272SOL    HW115278   4.126   2.456   5.287 -0.9926 -1.6458  0.4400
 1272SOL    HW215279   4.137   2.311   5.265  1.4210 -1.3950  1.2291
 1273SOL     OW15280   4.028   0.137  16.777  0.1734 -0.8175 -0.1548
 1273SOL    HW115281   4.090   0.210  16.771  0.0099 -0.6541  0.1099
 1273SOL    HW215282   4.009   0.135  16.871  0.3741 -0.0825 -0.0951
 1274SOL     OW15283   2.454   3.510   4.459 -0.0214  0.3323 -0.5691
 1274SOL    HW115284   2.381   3.560   4.422  0.3864  0.7310 -0.8417
 1274SOL    HW215285   2.407   3.430   4.482  1.9884 -0.7326 -0.1787
 1275SOL     OW15286   3.678   4.174   5.847 -0.3568 -0.3567 -0.3350
 1275SOL    HW115287   3.736   4.100   5.863  1.2994  0.8533 -0.7464
 1275SOL    HW215288   3.740   4.231   5.802 -0.7407  0.0397 -0.3573
 1276SOL     OW15289   3.679   2.914   6.674 -1.0331  0.0765  0.0080
 1276SOL    HW115290   3.644   2.831   6.708  0.0275  0.5359  2.2302
 1276SOL    HW215291   3.619   2.941   6.605  0.7493  0.7036 -1.2718
 1277SOL     OW15292   0.700   3.653   8.186 -0.0821  0.1308 -0.4744
 1277SOL    HW115293   0.638   3.638   8.257 -1.2994 -3.4065 -2.2505
 1277SOL    HW215294   0.676   3.737   8.147 -1.5733 -0.5465 -1.0432
 1278SOL     OW15295   4.560   0.658   3.875  0.0526  0.0348 -0.0915
 1278SOL    HW115296   4.467   0.666   3.896 -0.2673 -0.2219 -1.3799
 1278SOL    HW215297   4.590   0.599   3.943  0.4404  0.3122 -0.0204
 1279SOL     OW15298   1.437   0.389  10.434  0.7449  0.2073 -0.2128
 1279SOL    HW115299   1.417   0.472  10.390  1.2457 -0.5343 -1.8609
 1279SOL    HW215300   1.501   0.415  10.500 -0.7189 -1.4567  1.8570
 1280SOL     OW15301   0.529   3.719   3.783  0.2774  0.3254 -0.1770
 1280SOL    HW115302   0.604   3.669   3.750 -0.3668 -0.1890 -0.8580
 1280SOL    HW215303   0.574   3.802   3.792  1.2799 -0.2670  0.2491
 1281SOL     OW15304   0.459   3.051  17.183 -0.1957  0.5501 -0.2371
 1281SOL    HW115305   0.373   3.034  17.144 -0.4548 -0.6430  0.8259
 1281SOL    HW215306   0.461   2.977  17.243  1.1238  0.5336 -0.3042
 1282SOL     OW15307   3.789   3.139   1.972  0.4798 -0.2238  0.2243
 1282SOL    HW115308   3.798   3.048   1.944  0.0112 -0.8629  2.1287
 1282SOL    HW215309   3.769   3.131   2.066 -0.6748  0.8222  0.0694
 1283SOL     OW15310   0.021   4.257   7.461  0.3064  0.2453 -0.1526
 1283SOL    HW115311   4.651   4.236   7.468  0.3271  0.0354 -0.5117
 1283SOL    HW215312   0.048   4.182   7.408 -0.4428 -0.4885  0.5065
 1284SOL     OW15313   1.281   1.436  14.387 -0.0618  0.1147 -0.0790
 1284SOL    HW115314   1.290   1.503  14.319  1.4759  1.7548  1.7150
 1284SOL    HW215315   1.245   1.485  14.461  1.5078 -1.9924  2.0794
 1285SOL     OW15316   3.535   0.708   0.684 -0.4825 -0.1314 -0.0303
 1285SOL    HW115317   3.589   0.748   0.752  1.6214  1.3096 -2.5458
 1285SOL    HW215318   3.601   0.650   0.647  0.7529  1.3329 -0.1244
 1286SOL     OW15319   2.496   2.866   4.135  0.1109  0.6023  0.1414
 1286SOL    HW115320   2.509   2.847   4.043 -1.1505 -0.8765  0.2764
 1286SOL    HW215321   2.582   2.851   4.175  0.2385  1.1422  0.0689
 1287SOL     OW15322   1.839   3.116  11.136 -0.5406  0.6734 -0.0553
 1287SOL    HW115323   1.869   3.049  11.074 -3.4260 -0.0983 -0.6100
 1287SOL    HW215324   1.847   3.194  11.081 -1.9751  0.7718 -0.1230
 1288SOL     OW15325   2.916   0.804  10.642  0.0151  0.2552  0.4630
 1288SOL    HW115326   2.985   0.867  10.664  1.2167 -0.6021 -0.7651
 1288SOL    HW215327   2.853   0.870  10.613  0.5145  1.0598  1.2335
 1289SOL     OW15328   3.862   0.769   4.835 -0.7177 -0.0404  0.0345
 1289SOL    HW115329   3.832   0.757   4.745 -0.0458  0.2337 -0.2255
 1289SOL    HW215330   3.843   0.862   4.838  2.0963  0.5593 -0.7456
 1290SOL     OW15331   2.096   1.708   4.066 -0.3187 -0.2107  0.2866
 1290SOL    HW115332   2.046   1.729   4.146  2.6557  1.1402  1.7799
 1290SOL    HW215333   2.162   1.777   4.071  0.8325 -1.3106  0.3331
 1291SOL     OW15334   0.233   2.588   0.944 -0.5087 -0.0291  0.7620
 1291SOL    HW115335   0.284   2.509   0.962 -0.8397 -0.1546  1.1558
 1291SOL    HW215336   0.217   2.585   0.850  2.4057  0.1822  0.2639
 1292SOL     OW15337   3.587   3.571   5.111  0.0584  0.6417 -0.4108
 1292SOL    HW115338   3.603   3.601   5.200 -0.6494 -2.3755  0.7409
 1292SOL    HW215339   3.656   3.619   5.065  1.1279 -1.1215 -0.6568
 1293SOL     OW15340   1.268   0.304   8.596 -0.0221 -0.0224  0.5275
 1293SOL    HW115341   1.203   0.242   8.629 -0.5680 -0.3761 -1.2208
 1293SOL    HW215342   1.308   0.240   8.538  1.6832  0.5234  1.1120
 1294SOL     OW15343   2.985   2.455   2.212  0.1043  0.1763 -0.3188
 1294SOL    HW115344   3.008   2.548   2.219  4.7884 -1.2032  2.4073
 1294SOL    HW215345   2.923   2.460   2.285 -0.2655 -2.1531 -0.4845
 1295SOL     OW15346   3.719   1.588  15.867 -0.6111 -0.1927 -0.1151
 1295SOL    HW115347   3.674   1.643  15.930 -0.4288  0.1478 -0.2850
 1295SOL    HW215348   3.760   1.525  15.927 -1.4971  1.4924  2.2579
 1296SOL     OW15349   3.539   0.915  15.648  0.0806  0.1562 -0.2089
 1296SOL    HW115350   3.453   0.922  15.608 -0.1346  0.7895  0.3559
 1296SOL    HW215351   3.553   1.001  15.687  0.8257  0.7344 -1.7511
 1297SOL     OW15352   0.557   4.438   7.832  0.1197  0.5392  0.0458
 1297SOL    HW115353   0.573   4.458   7.924  1.0065  0.8908 -0.1748
 1297SOL    HW215354   0.466   4.409   7.834  0.1908  0.2805 -0.3883
 1298SOL     OW15355   4.569   1.351   4.366  0.1089  0.7250  0.2297
 1298SOL    HW115356   4.480   1.315   4.369  0.5061 -0.3545 -1.2288
 1298SOL    HW215357   4.550   1.438   4.332 -3.0944 -1.4413 -3.5112
 1299SOL     OW15358   2.528   2.367   2.756  0.0230 -0.2098 -0.2052
 1299SOL    HW115359   2.602   2.338   2.809 -1.5041 -0.6995  1.6659
 1299SOL    HW215360   2.483   2.431   2.811 -0.5141 -0.1891 -0.6686
 1300SOL     OW15361   0.819   4.034  15.140  0.8680  0.5398 -0.0088
 1300SOL    HW115362   0.768   4.014  15.061  1.7151 -3.2597  0.4330
 1300SOL    HW215363   0.794   3.955  15.187  0.4907 -0.5840 -2.0661
 1301SOL     OW15364   0.168   1.011  11.410  0.4623 -0.2178 -0.5527
 1301SOL    HW115365   0.163   0.926  11.365  1.1042 -1.7556  2.2322
 1301SOL    HW215366   0.242   1.049  11.364 -0.1074  0.9265 -0.5114
 1302SOL     OW15367   0.679   2.898   4.879  0.0954 -0.4786 -0.2358
 1302SOL    HW115368   0.612   2.948   4.831  0.5942  0.7016  0.2924
 1302SOL    HW215369   0.689   2.826   4.816 -0.2864 -0.4211 -0.3629
 1303SOL     OW15370   0.216   1.014   4.777 -0.8416 -0.0634 -0.7371
 1303SOL    HW115371   0.191   0.974   4.693 -1.4061 -1.1933 -0.0361
 1303SOL    HW215372   0.133   1.059   4.795 -1.1427  0.0206 -2.3264
 1304SOL     OW15373   0.853   0.187  13.979 -0.3146 -0.0602 -0.3463
 1304SOL    HW115374   0.944   0.207  13.998 -0.5792  0.5969  0.2510
 1304SOL    HW215375   0.845   0.141  13.895 -1.2381 -1.8824  0.7389
 1305SOL     OW15376   3.329   2.394  14.812 -0.3888  0.0075 -0.0573
 1305SOL    HW115377   3.348   2.304  14.785  2.0616  0.5271 -0.0193
 1305SOL    HW215378   3.245   2.382  14.857  0.2566  1.8983  1.6564
 1306SOL     OW15379   1.414   4.072   5.916  0.3610  0.8025  0.2220
 1306SOL    HW115380   1.473   4.008   5.956 -0.9484  0.4740  1.6371
 1306SOL    HW215381   1.412   4.036   5.827 -0.3098  1.0711  0.1266
 1307SOL     OW15382   2.082   1.381   6.246 -0.3940 -0.2617  0.2577
 1307SOL    HW115383   2.139   1.458   6.249 -0.5395 -0.1059 -1.1727
 1307SOL    HW215384   2.055   1.387   6.338  0.8628 -1.4741  0.7062
 1308SOL     OW15385   0.429   0.550   1.561  0.4717  0.2482 -0.6008
 1308SOL    HW115386   0.467   0.547   1.473  0.9248 -0.3812 -0.3804
 1308SOL    HW215387   0.496   0.595   1.613  0.2465 -2.2304  1.8304
 1309SOL     OW15388   3.459   0.094   7.062 -0.0069  0.3178 -0.5677
 1309SOL    HW115389   3.539   0.045   7.082  0.8074  2.0377  0.3596
 1309SOL    HW215390   3.470   0.170   7.118 -1.8340 -0.7792  1.2598
 1310SOL     OW15391   1.466   1.597   4.249 -0.0178 -0.0021  0.2491
 1310SOL    HW115392   1.404   1.528   4.271  1.8726 -1.2201  1.8299
 1310SOL    HW215393   1.414   1.671   4.279 -1.2416 -1.5390  1.9370
 1311SOL     OW15394   3.113   1.353  13.037  0.4261  0.3886  0.1158
 1311SOL    HW115395   3.072   1.288  13.093  4.9185 -3.1375 -0.7868
 1311SOL    HW215396   3.058   1.430  13.054  1.1070  0.4759  1.9596
 1312SOL     OW15397   4.022   2.436   3.128 -0.3141 -0.0515 -0.0459
 1312SOL    HW115398   3.975   2.492   3.066 -0.6120 -0.4919 -0.2181
 1312SOL    HW215399   4.060   2.362   3.081  0.3064  0.4883 -0.4059
 1313SOL     OW15400   3.074   2.178   0.599  0.8997 -0.4400  0.5667
 1313SOL    HW115401   3.037   2.259   0.634  2.3491  1.0382 -1.2941
 1313SOL    HW215402   3.039   2.192   0.511 -0.8902 -0.1323  1.3283
 1314SOL     OW15403   0.057   1.544  17.257 -0.2431  0.2548  0.4652
 1314SOL    HW115404   4.716   1.479  17.286  0.1958 -0.5851 -0.4034
 1314SOL    HW215405   0.119   1.487  17.210 -0.2991  0.1316  0.5401
 1315SOL     OW15406   0.772   4.049  15.494 -0.3234 -0.3976  0.0061
 1315SOL    HW115407   0.831   4.102  15.442  1.0642 -1.3117  0.6230
 1315SOL    HW215408   0.685   4.078  15.470 -0.6165 -0.7484  0.6313
 1316SOL     OW15409   0.296   3.063   9.692 -0.1117  0.7960  0.9518
 1316SOL    HW115410   0.212   3.054   9.736  0.1585  1.3622  1.5715
 1316SOL    HW215411   0.276   3.098   9.605 -1.5818 -0.8271  0.6520
 1317SOL     OW15412   3.114   1.729  14.224 -0.1662  0.3324  0.0154
 1317SOL    HW115413   3.028   1.711  14.185 -0.1538  0.6823 -0.1736
 1317SOL    HW215414   3.103   1.666  14.295  0.2068  1.4732  1.0907
 1318SOL     OW15415   3.390   4.221  12.798  0.0989 -0.1625  0.0356
 1318SOL    HW115416   3.376   4.126  12.803  0.4234 -0.2213 -0.1997
 1318SOL    HW215417   3.415   4.234  12.889  0.2593 -1.2672  0.1512
 1319SOL     OW15418   1.061   3.954   8.407 -0.1897 -0.3806 -0.1728
 1319SOL    HW115419   1.065   3.899   8.486 -0.3525 -2.1149 -1.3651
 1319SOL    HW215420   1.135   3.921   8.356 -0.5243 -1.6059  0.1372
 1320SOL     OW15421   3.137   1.518   5.365 -0.4303  0.5591 -0.2942
 1320SOL    HW115422   3.054   1.484   5.398  0.5791 -0.4696  1.1987
 1320SOL    HW215423   3.117   1.545   5.276 -0.5441 -0.6093 -0.6322
 1321SOL     OW15424   1.948   1.098   7.553 -0.4403 -0.0683 -0.0263
 1321SOL    HW115425   1.872   1.062   7.507 -0.7767 -0.3462  0.7497
 1321SOL    HW215426   2.010   1.025   7.549  1.2855  1.3755  0.6207
 1322SOL     OW15427   4.021   4.073   4.922 -0.7537  0.4762  0.6529
 1322SOL    HW115428   3.933   4.108   4.936 -1.3894 -0.7735 -0.1863
 1322SOL    HW215429   4.024   4.063   4.827 -0.7283 -0.4914  0.7489
 1323SOL     OW15430   0.032   3.201   7.431  0.0305 -0.1152 -0.3000
 1323SOL    HW115431   0.076   3.145   7.367  0.7363 -1.6932  1.5357
 1323SOL    HW215432   0.088   3.278   7.440 -1.5011  1.1086 -1.2781
 1324SOL     OW15433   3.162   0.242  14.777  0.5651 -0.2939  0.6148
 1324SOL    HW115434   3.163   0.221  14.684 -1.9613 -2.2722  1.0466
 1324SOL    HW215435   3.186   0.155  14.809  0.4443 -0.0499  1.3834
 1325SOL     OW15436   2.061   1.138   0.269  0.2167 -0.5251  0.0740
 1325SOL    HW115437   2.006   1.156   0.194 -0.3687  2.4166  1.2208
 1325SOL    HW215438   2.118   1.213   0.256 -0.4338 -0.2715 -1.2739
 1326SOL     OW15439   1.930   0.283   9.101  0.1805  0.3145  0.8410
 1326SOL    HW115440   1.940   0.371   9.135 -0.4580  0.4062  0.8042
 1326SOL    HW215441   2.021   0.273   9.073 -0.2926  1.5499 -1.1359
 1327SOL     OW15442   3.238   4.109   5.918  0.5029 -0.0647 -0.0048
 1327SOL    HW115443   3.310   4.068   5.868  0.4366 -0.0122 -0.1435
 1327SOL    HW215444   3.190   4.040   5.964 -0.7884  1.1711  0.4701
 1328SOL     OW15445   1.490   4.120   4.520  0.4105 -0.0555  0.4122
 1328SOL    HW115446   1.568   4.067   4.507  0.4999  0.5270 -1.3527
 1328SOL    HW215447   1.421   4.057   4.539 -0.9576  1.4334  0.4192
 1329SOL     OW15448   1.924   3.984   4.562  0.0588 -0.0558 -0.1319
 1329SOL    HW115449   1.850   3.935   4.597 -0.6604 -0.3529 -2.1078
 1329SOL    HW215450   1.978   3.991   4.641  1.7992 -1.4562 -1.2200
 1330SOL     OW15451   0.690   2.830  17.179 -0.3243 -0.3689  0.4463
 1330SOL    HW115452   0.709   2.923  17.163  0.3631 -0.4238  0.9559
 1330SOL    HW215453   0.709   2.789  17.095 -1.1836 -1.6370  0.8798
 1331SOL     OW15454   3.855   3.189   3.830 -0.3762  0.3865  0.4340
 1331SOL    HW115455   3.778   3.236   3.797 -2.2091 -2.2829  0.9244
 1331SOL    HW215456   3.818   3.110   3.868 -1.5519  0.0240 -1.4363
 1332SOL     OW15457   2.823   0.565  13.585  0.1873 -0.2500 -0.2291
 1332SOL    HW115458   2.847   0.565  13.678 -1.2288 -0.7372  0.1256
 1332SOL    HW215459   2.870   0.644  13.556  1.0350 -1.0919 -1.1786
 1333SOL     OW15460   0.455   3.826   8.707 -0.3853 -0.4537 -0.4334
 1333SOL    HW115461   0.386   3.878   8.663  0.4842 -1.1543 -2.6207
 1333SOL    HW215462   0.402   3.765   8.758  1.0415 -0.7232  0.7058
 1334SOL     OW15463   2.202   3.123  11.327 -0.2933  0.4377 -0.1159
 1334SOL    HW115464   2.216   3.174  11.247 -3.6349 -0.7474 -1.4772
 1334SOL    HW215465   2.111   3.095  11.317 -0.6027  1.5433 -0.3279
 1335SOL     OW15466   1.250   4.402   6.102 -0.4496 -0.0957  0.1479
 1335SOL    HW115467   1.283   4.360   6.181  0.6124 -0.2513 -0.3802
 1335SOL    HW215468   1.329   4.455   6.094 -1.8483  1.6776 -1.9884
 1336SOL     OW15469   2.231   1.860   8.779 -0.4753  0.1474  0.0109
 1336SOL    HW115470   2.144   1.830   8.753 -0.0020  1.3433 -3.0141
 1336SOL    HW215471   2.219   1.953   8.799 -0.6246  0.0440  0.3859
 1337SOL     OW15472   4.565   4.394   4.379 -0.0207 -0.2119 -0.1912
 1337SOL    HW115473   4.548   4.413   4.286  2.6008 -0.6881 -0.7538
 1337SOL    HW215474   4.644   4.342   4.365 -0.9842 -2.2352  2.0740
 1338SOL     OW15475   4.372   2.409  15.081  0.4305 -0.1141  0.1410
 1338SOL    HW115476   4.303   2.343  15.091 -0.5377  1.0685  1.2443
 1338SOL    HW215477   4.344   2.473  15.146 -1.3186  0.1047 -0.8318
 1339SOL     OW15478   2.454   0.958   5.233  0.0636  0.3809  0.1120
 1339SOL    HW115479   2.427   0.894   5.166  3.2623  0.5237 -1.3110
 1339SOL    HW215480   2.384   0.943   5.296 -0.9128 -1.2840 -1.3551
 1340SOL     OW15481   0.872   1.128   5.001 -0.1743  0.2947  0.2507
 1340SOL    HW115482   0.938   1.125   5.070  0.1365  1.6386  0.0145
 1340SOL    HW215483   0.801   1.075   5.038 -0.2337 -0.4945 -1.0003
 1341SOL     OW15484   3.606   1.858   4.723  0.0124 -0.4368 -0.8061
 1341SOL    HW115485   3.523   1.889   4.760  1.5719  1.8771  0.7328
 1341SOL    HW215486   3.615   1.773   4.765 -0.4557  0.3429  0.8434
 1342SOL     OW15487   0.048   1.656   5.706 -0.6991 -0.0780  0.4657
 1342SOL    HW115488   0.106   1.583   5.727 -3.8931 -2.4614  1.0106
 1342SOL    HW215489   4.723   1.643   5.788  0.6302  1.7791  1.5464
 1343SOL     OW15490   3.988   0.416   6.619  0.1509 -0.5557  0.0787
 1343SOL    HW115491   4.074   0.409   6.579  0.3593  0.2488  0.3952
 1343SOL    HW215492   3.932   0.378   6.551 -1.0280  0.3143  0.5516
 1344SOL     OW15493   3.749   2.856   2.049  0.2893 -0.0335 -0.4387
 1344SOL    HW115494   3.669   2.809   2.075 -0.3326  2.0941  1.5735
 1344SOL    HW215495   3.807   2.831   2.121  0.5750 -0.1725 -0.7203
 1345SOL     OW15496   2.955   0.117  16.612  0.1947  0.2411  0.2953
 1345SOL    HW115497   2.872   0.099  16.655 -0.5630  1.1981 -0.7850
 1345SOL    HW215498   2.992   0.179  16.675 -0.6692  0.3549  0.6940
 1346SOL     OW15499   2.187   4.488  15.885 -0.0775  0.0706 -0.7647
 1346SOL    HW115500   2.100   4.489  15.844 -0.4358  1.7410  0.0637
 1346SOL    HW215501   2.244   4.472  15.809  1.8141 -0.3741  0.7451
 1347SOL     OW15502   3.296   1.982   3.225  0.8364 -0.2601 -0.0939
 1347SOL    HW115503   3.301   1.886   3.231 -0.0945 -0.4178 -1.8563
 1347SOL    HW215504   3.381   2.013   3.256  1.7100 -2.9893  0.2613
 1348SOL     OW15505   0.636   0.515  10.571  0.7779 -0.3952  0.8512
 1348SOL    HW115506   0.644   0.610  10.568  1.7867 -0.4740  1.0936
 1348SOL    HW215507   0.586   0.506  10.489 -0.4600  1.3902  1.4247
 1349SOL     OW15508   1.629   1.794   0.937 -0.3079  0.2936 -0.2969
 1349SOL    HW115509   1.652   1.850   0.862  1.8912 -1.5689 -1.0416
 1349SOL    HW215510   1.540   1.810   0.966 -0.3145 -2.0993  0.9496
 1350SOL     OW15511   4.047   1.669  13.149  0.3118  0.2611  0.0796
 1350SOL    HW115512   4.010   1.738  13.204  1.4326  1.8170 -1.1081
 1350SOL    HW215513   3.965   1.633  13.115  1.5789 -0.3171 -2.3452
 1351SOL     OW15514   2.242   1.954   4.078 -0.4196 -0.4698  0.2210
 1351SOL    HW115515   2.324   1.946   4.029  0.1458 -0.8384  1.2168
 1351SOL    HW215516   2.221   2.045   4.060 -1.5883 -0.8812 -0.4719
 1352SOL     OW15517   4.290   2.236  16.827  0.7928  0.3431  0.0807
 1352SOL    HW115518   4.257   2.151  16.858  1.9115 -0.2836 -0.4115
 1352SOL    HW215519   4.365   2.205  16.776  0.8509  0.1809  0.2654
 1353SOL     OW15520   3.456   0.604   5.443 -0.3911 -0.0777  0.2213
 1353SOL    HW115521   3.437   0.551   5.520  1.3164  2.3942  2.3610
 1353SOL    HW215522   3.535   0.556   5.418 -0.3493  0.5283 -0.8141
 1354SOL     OW15523   3.532   0.184   3.450  0.4098 -0.7885 -0.9965
 1354SOL    HW115524   3.537   0.130   3.370  1.8137  0.4187 -1.7292
 1354SOL    HW215525   3.464   0.142   3.502 -1.0314  2.1805 -0.5277
 1355SOL     OW15526   4.162   4.164   5.668  0.1631  0.0552 -0.1127
 1355SOL    HW115527   4.216   4.094   5.631 -0.3516 -1.2469  1.6056
 1355SOL    HW215528   4.149   4.138   5.760 -1.1878  0.4429 -0.1959
 1356SOL     OW15529   3.276   2.588   4.704  0.4551 -0.3379  0.1335
 1356SOL    HW115530   3.213   2.646   4.661 -2.0365 -2.6015  0.6759
 1356SOL    HW215531   3.311   2.649   4.768  0.6164  1.3120 -1.5215
 1357SOL     OW15532   4.441   0.949   7.705  0.0716  0.5578  0.4060
 1357SOL    HW115533   4.473   0.929   7.617  1.3520  2.9864  0.2945
 1357SOL    HW215534   4.348   0.956   7.685 -0.1964 -2.9975  0.3953
 1358SOL     OW15535   2.261   0.378   7.066 -0.2483  0.2857 -0.5579
 1358SOL    HW115536   2.264   0.359   6.972  0.2848  1.6150 -0.8134
 1358SOL    HW215537   2.351   0.410   7.072 -0.6273  1.5444 -1.5485
 1359SOL     OW15538   0.203   1.826   2.575 -0.0263  0.0946  0.1231
 1359SOL    HW115539   0.260   1.872   2.636  2.8206 -0.4019 -2.1567
 1359SOL    HW215540   0.184   1.884   2.501 -1.2184 -0.7885 -0.2542
 1360SOL     OW15541   4.534   3.831   2.827  0.0623 -0.6901  0.5068
 1360SOL    HW115542   4.578   3.771   2.767 -0.0777  0.6565 -0.9705
 1360SOL    HW215543   4.607   3.868   2.877  0.0352 -0.9076  0.7051
 1361SOL     OW15544   0.577   2.191   8.562  0.3268  0.3336 -0.2200
 1361SOL    HW115545   0.650   2.183   8.624 -0.3609  0.0765  0.5600
 1361SOL    HW215546   0.506   2.195   8.626 -0.4393  3.4388 -1.2988
 1362SOL     OW15547   4.028   4.599   0.528  0.5377  0.6397 -0.2380
 1362SOL    HW115548   4.086   4.671   0.502 -0.6289  0.6483 -2.8548
 1362SOL    HW215549   4.060   4.582   0.616 -0.0547  0.5862 -0.0306
 1363SOL     OW15550   3.310   3.367   0.383  0.0465 -0.1607  0.0545
 1363SOL    HW115551   3.283   3.349   0.473  1.3957  1.2746  0.7515
 1363SOL    HW215552   3.397   3.402   0.404 -0.4494  0.6925  0.7206
 1364SOL     OW15553   1.864   4.483   3.293  0.2114 -0.0746 -0.2803
 1364SOL    HW115554   1.892   4.392   3.278 -1.1142 -0.2089 -1.9226
 1364SOL    HW215555   1.871   4.529   3.209  2.2182  1.3450  0.6749
 1365SOL     OW15556   0.972   3.400   5.468  0.2659  0.0371  0.3448
 1365SOL    HW115557   1.000   3.377   5.556  1.0971 -1.2910 -0.2744
 1365SOL    HW215558   1.021   3.477   5.438  2.2861 -1.6800 -0.7792
 1366SOL     OW15559   0.664   1.392   6.577  0.0725  0.7368  0.9203
 1366SOL    HW115560   0.617   1.325   6.627 -1.6104  1.3426  0.1504
 1366SOL    HW215561   0.617   1.389   6.494  1.0120  1.1215  0.3783
 1367SOL     OW15562   4.215   0.889   5.090  0.4197  0.0628  0.3299
 1367SOL    HW115563   4.167   0.809   5.067 -0.2115  0.2044  1.1293
 1367SOL    HW215564   4.306   0.866   5.108  0.5769 -0.1846 -0.7807
 1368SOL     OW15565   2.425   1.131  14.196 -0.3172  0.5832 -0.2541
 1368SOL    HW115566   2.431   1.092  14.284 -0.0129  0.3614 -0.3737
 1368SOL    HW215567   2.375   1.208  14.225 -0.4509 -0.0675  1.2572
 1369SOL     OW15568   0.502   3.704  11.944 -0.2462 -0.1445  0.2348
 1369SOL    HW115569   0.429   3.754  11.906  1.2518  1.0072 -1.1437
 1369SOL    HW215570   0.541   3.671  11.863  0.1846 -1.0604  0.8249
 1370SOL     OW15571   3.438   2.899   3.057 -0.2134 -0.1227 -0.1301
 1370SOL    HW115572   3.479   2.959   2.995 -0.7293 -0.3375 -0.6800
 1370SOL    HW215573   3.403   2.839   2.991  0.2974 -2.2271  1.4941
 1371SOL     OW15574   3.533   2.354   3.865  0.1642  0.5528 -0.3035
 1371SOL    HW115575   3.466   2.305   3.912  1.6460 -1.2420 -0.0692
 1371SOL    HW215576   3.523   2.304   3.784 -2.3341  1.1840 -0.3918
 1372SOL     OW15577   1.275   4.158  11.816 -0.0055 -0.0438 -0.3405
 1372SOL    HW115578   1.304   4.249  11.807 -1.8683  0.4717 -1.2423
 1372SOL    HW215579   1.265   4.129  11.725  1.3481 -2.7274  0.3791
 1373SOL     OW15580   4.578   4.705   3.065 -0.3336 -0.1304  0.2041
 1373SOL    HW115581   4.573   0.020   2.978  1.3343 -0.7046 -0.1509
 1373SOL    HW215582   4.501   0.028   3.098 -0.7630  0.0313 -1.0192
 1374SOL     OW15583   0.004   0.719   8.457 -0.4130 -0.3946 -0.5567
 1374SOL    HW115584   4.635   0.719   8.429 -0.7545  0.0266  0.5859
 1374SOL    HW215585   0.003   0.745   8.549 -0.4282 -1.5995 -0.2148
 1375SOL     OW15586   0.591   4.308   2.079  0.6360 -0.7064  0.8915
 1375SOL    HW115587   0.601   4.401   2.057  2.4334 -0.4877  2.5822
 1375SOL    HW215588   0.657   4.308   2.149  0.5878 -0.7934  0.9363
 1376SOL     OW15589   3.650   3.959   7.929  0.0392  0.3522 -0.3178
 1376SOL    HW115590   3.708   4.031   7.903 -1.3504  0.0061 -4.3524
 1376SOL    HW215591   3.711   3.887   7.915 -0.7090 -0.7412  2.1326
 1377SOL     OW15592   4.477   0.782   7.923 -0.2335  0.6135 -0.2899
 1377SOL    HW115593   4.475   0.854   7.859  1.1785  1.6829  0.8692
 1377SOL    HW215594   4.411   0.723   7.886  2.4742 -1.1690 -2.2831
 1378SOL     OW15595   4.421   3.275  13.751 -0.2988 -0.2528  0.1885
 1378SOL    HW115596   4.407   3.186  13.719 -0.9759 -0.5338  1.2743
 1378SOL    HW215597   4.336   3.310  13.725  0.0930  0.2012 -0.5127
 1379SOL     OW15598   3.490   1.518  12.461  0.1078  0.1848  0.3518
 1379SOL    HW115599   3.460   1.432  12.431 -1.9253  0.3571  1.8947
 1379SOL    HW215600   3.580   1.526  12.428 -0.4250  1.4836 -0.7575
 1380SOL     OW15601   1.261   1.185  11.858  0.2013 -0.3335  0.4793
 1380SOL    HW115602   1.189   1.124  11.871 -1.1374  1.0769 -0.3753
 1380SOL    HW215603   1.209   1.265  11.860  0.9172  0.0871  2.3950
 1381SOL     OW15604   2.759   0.703   2.795  0.1499  0.1500  0.3608
 1381SOL    HW115605   2.748   0.679   2.703  3.1935 -0.6703  0.2174
 1381SOL    HW215606   2.679   0.753   2.813 -0.6255 -0.3831 -1.6079
 1382SOL     OW15607   4.275   4.188   6.158 -0.8912  0.4117 -0.1436
 1382SOL    HW115608   4.359   4.149   6.136  0.1554  2.9724 -0.7351
 1382SOL    HW215609   4.261   4.137   6.238 -1.1219  0.4858 -0.1359
 1383SOL     OW15610   2.210   1.597   8.908 -0.1789  0.6702  0.4537
 1383SOL    HW115611   2.121   1.610   8.938 -0.5009 -0.2090 -0.1076
 1383SOL    HW215612   2.222   1.684   8.870 -1.9645  0.1204 -1.3413
 1384SOL     OW15613   3.552   3.443   6.557  0.2763  0.1561  0.0806
 1384SOL    HW115614   3.498   3.365   6.550 -0.5930  0.6929  0.9519
 1384SOL    HW215615   3.500   3.515   6.520  0.7713 -0.6953 -2.2882
 1385SOL     OW15616   0.436   2.413   0.962  0.7728 -0.1690  0.1380
 1385SOL    HW115617   0.434   2.395   1.056 -2.8599 -1.0057 -0.1260
 1385SOL    HW215618   0.530   2.398   0.952  1.2782  2.7337  0.4943
 1386SOL     OW15619   2.863   1.982  13.187 -0.4822  0.1539 -0.2504
 1386SOL    HW115620   2.878   1.947  13.099  2.6672  0.8141  0.0077
 1386SOL    HW215621   2.825   1.905  13.229 -0.3051  0.2517  0.0879
 1387SOL     OW15622   3.067   1.978   2.649  0.0603 -0.2157 -0.1978
 1387SOL    HW115623   3.052   1.960   2.557  0.4612  1.7471 -0.6466
 1387SOL    HW215624   3.110   2.061   2.629 -0.6009 -0.2579 -1.7361
 1388SOL     OW15625   2.059   3.739  12.583  0.9833 -0.1496  0.8583
 1388SOL    HW115626   1.992   3.685  12.624 -0.0551  0.0022 -0.6194
 1388SOL    HW215627   2.132   3.678  12.583 -0.8301 -2.3229 -0.0341
 1389SOL     OW15628   0.139   1.818   2.256 -0.4641 -0.2955  0.1612
 1389SOL    HW115629   0.190   1.828   2.176 -0.2222  0.5677  0.4237
 1389SOL    HW215630   0.182   1.879   2.316 -2.0370  0.4910  0.4896
 1390SOL     OW15631   0.736   3.607   4.019  0.1711  0.6466 -0.1992
 1390SOL    HW115632   0.757   3.543   3.951 -0.3772 -0.8189  0.9989
 1390SOL    HW215633   0.718   3.551   4.095  1.2927  2.1592  1.1903
 1391SOL     OW15634   0.359   0.243  12.529 -0.3686 -0.1708 -0.5729
 1391SOL    HW115635   0.435   0.287  12.568  0.7616 -1.9431 -0.7549
 1391SOL    HW215636   0.388   0.154  12.510 -0.4636 -0.0262 -1.3917
 1392SOL     OW15637   3.853   4.628   4.030  0.1368 -0.1067 -0.1074
 1392SOL    HW115638   3.851   4.542   4.073  1.4109 -1.6893 -3.1345
 1392SOL    HW215639   3.932   4.668   4.066 -0.8748  1.3918  0.4288
 1393SOL     OW15640   2.825   1.726   5.373 -0.1137 -0.0170 -0.2341
 1393SOL    HW115641   2.892   1.775   5.325  0.6055 -1.3785 -0.6046
 1393SOL    HW215642   2.779   1.794   5.422 -0.8978 -2.3851  2.2870
 1394SOL     OW15643   2.996   3.641  13.055 -0.4592 -0.5203 -0.1684
 1394SOL    HW115644   2.978   3.732  13.030  2.6564 -0.0356 -0.6507
 1394SOL    HW215645   3.051   3.602  12.987  0.7059 -1.2363  1.1583
 1395SOL     OW15646   4.324   4.478   8.542 -0.5058 -0.1592 -0.4341
 1395SOL    HW115647   4.366   4.420   8.606  1.5408  2.1453  0.2771
 1395SOL    HW215648   4.352   4.428   8.465 -2.5741 -0.3086 -1.0952
 1396SOL     OW15649   3.849   1.356   9.257 -0.1578  0.1596  0.0085
 1396SOL    HW115650   3.869   1.318   9.172 -1.0187 -2.3149  0.9369
 1396SOL    HW215651   3.924   1.415   9.271  0.2999 -0.8163  1.6538
 1397SOL     OW15652   2.119   1.009   0.937 -0.0402  0.0847  0.1489
 1397SOL    HW115653   2.126   0.959   0.856 -1.5226 -0.1132  0.1516
 1397SOL    HW215654   2.114   0.941   1.004 -2.5696  0.0298 -0.0987
 1398SOL     OW15655   3.080   1.169   3.077  0.1026 -0.1478 -0.3310
 1398SOL    HW115656   2.993   1.130   3.081  0.3876 -0.7951 -0.5183
 1398SOL    HW215657   3.071   1.250   3.129  2.6359  1.8937 -3.0633
 1399SOL     OW15658   0.147   2.380   3.529  0.3384  0.3887  0.5808
 1399SOL    HW115659   0.090   2.364   3.454  0.3982 -1.2414  0.8819
 1399SOL    HW215660   0.140   2.475   3.539 -3.0452 -0.1043  2.9835
 1400SOL     OW15661   1.086   0.070  10.483 -0.0007  0.0520  0.4900
 1400SOL    HW115662   1.180   0.062  10.464  0.0450 -1.5542  1.3523
 1400SOL    HW215663   1.057   4.703  10.494  0.4326 -0.0739  0.6098
 1401SOL     OW15664   1.792   0.142   8.073  0.7332 -0.5998  0.0776
 1401SOL    HW115665   1.747   0.219   8.039 -0.9121 -0.9715  1.4213
 1401SOL    HW215666   1.883   0.168   8.058  0.8347 -0.5628  0.7570
 1402SOL     OW15667   3.760   1.837  11.517 -0.0941 -0.0089  0.1175
 1402SOL    HW115668   3.749   1.794  11.432 -1.6254 -1.2700  0.9572
 1402SOL    HW215669   3.841   1.882  11.490  0.9782 -2.4209 -0.6914
 1403SOL     OW15670   1.518   2.297   6.489 -0.4818 -0.5067 -0.2189
 1403SOL    HW115671   1.542   2.370   6.431 -1.3206 -0.5172 -0.5660
 1403SOL    HW215672   1.461   2.251   6.429 -0.5075  0.9656 -1.3351
 1404SOL     OW15673   4.305   3.539   4.650  0.4365  0.5968  0.5507
 1404SOL    HW115674   4.276   3.497   4.731  2.8618  1.6698  1.9679
 1404SOL    HW215675   4.260   3.492   4.579  0.3316 -1.4817  1.9759
 1405SOL     OW15676   2.933   2.973   2.302 -0.4170 -0.0704  0.2082
 1405SOL    HW115677   3.001   3.037   2.323  0.3625 -0.9225  0.2877
 1405SOL    HW215678   2.878   3.027   2.245 -0.6037  2.1282  2.4925
 1406SOL     OW15679   2.645   4.227   6.356 -0.4849  0.5263 -0.0079
 1406SOL    HW115680   2.567   4.172   6.367 -0.5654  0.7203  0.3567
 1406SOL    HW215681   2.672   4.229   6.447 -0.4965 -3.4786  0.0818
 1407SOL     OW15682   1.290   2.810   5.753  0.0506  0.0642  0.6005
 1407SOL    HW115683   1.324   2.861   5.679  1.2211 -0.3994  0.8375
 1407SOL    HW215684   1.200   2.842   5.767 -1.3297 -2.7573 -1.7212
 1408SOL     OW15685   0.271   4.662   8.439  0.3117 -0.0545  0.6867
 1408SOL    HW115686   0.254   0.027   8.472 -0.3196 -0.3330  1.1114
 1408SOL    HW215687   0.339   4.652   8.504  2.6917 -1.1116 -1.9702
 1409SOL     OW15688   4.439   0.257   9.172 -0.9615 -0.0047 -0.4602
 1409SOL    HW115689   4.531   0.283   9.167 -0.9400 -0.0666 -0.3945
 1409SOL    HW215690   4.426   0.196   9.100 -0.8436 -2.0356  1.2396
 1410SOL     OW15691   1.891   2.426   3.666 -0.0349  0.5256  0.0188
 1410SOL    HW115692   1.964   2.486   3.652  0.9788 -1.4628 -3.1087
 1410SOL    HW215693   1.828   2.490   3.699 -0.0062  0.5193  0.0865
 1411SOL     OW15694   0.152   3.095  17.437  0.0919  0.3994  0.0211
 1411SOL    HW115695   0.174   3.057  17.352 -0.9299  0.0375 -0.0780
 1411SOL    HW215696   0.079   3.040  17.462  0.6315 -0.6516 -0.7179
 1412SOL     OW15697   0.420   4.084   5.399 -0.0098  0.1849  0.4931
 1412SOL    HW115698   0.372   4.007   5.428  2.7432 -2.1642 -1.2374
 1412SOL    HW215699   0.377   4.148   5.455  1.7997  0.9036  1.0680
 1413SOL     OW15700   0.850   4.531  11.303 -0.0501 -0.4459  0.0644
 1413SOL    HW115701   0.807   4.448  11.284 -1.5144 -0.1002  1.8685
 1413SOL    HW215702   0.772   4.586  11.297 -0.1846 -0.3996  2.1081
 1414SOL     OW15703   2.910   2.045   4.047  0.1031 -0.0722  0.3059
 1414SOL    HW115704   2.937   2.113   3.986  0.5786  0.2148  0.8394
 1414SOL    HW215705   2.838   2.003   3.999  2.1488 -0.7283 -2.1299
 1415SOL     OW15706   2.547   1.798   7.461  0.0491 -0.0652  0.4029
 1415SOL    HW115707   2.569   1.871   7.519 -1.0503  2.1350 -1.9459
 1415SOL    HW215708   2.582   1.730   7.518 -2.6658  0.2584  2.4670
 1416SOL     OW15709   3.088   1.406   7.389 -0.2339  0.2578  0.0415
 1416SOL    HW115710   3.147   1.334   7.413 -0.4331  1.1851  3.3513
 1416SOL    HW215711   3.019   1.395   7.455  0.3867 -1.0769  0.4756
 1417SOL     OW15712   3.653   1.608  12.657  0.4985 -0.5440  0.1935
 1417SOL    HW115713   3.577   1.607  12.599  1.2634  0.3229 -0.8291
 1417SOL    HW215714   3.639   1.678  12.721  1.2936 -0.8641  0.7302
 1418SOL     OW15715   4.482   1.410   7.535  0.0220  0.2299  0.2429
 1418SOL    HW115716   4.444   1.498   7.533  0.1977  0.3379  1.4149
 1418SOL    HW215717   4.569   1.427   7.497  0.9350 -1.8078  1.4545
 1419SOL     OW15718   1.965   1.061   3.496 -0.2455  0.0688  0.4130
 1419SOL    HW115719   1.911   1.137   3.519 -1.1762 -0.1875 -0.9470
 1419SOL    HW215720   2.024   1.096   3.429  0.3356 -0.4261  0.6672
 1420SOL     OW15721   3.644   3.700   4.299 -0.3538 -0.1662 -0.0887
 1420SOL    HW115722   3.596   3.725   4.378  0.2744  1.3819 -0.2020
 1420SOL    HW215723   3.571   3.730   4.245  2.3731 -1.6443 -4.5791
 1421SOL     OW15724   1.353   1.862   1.254 -0.2184  0.5910  0.1036
 1421SOL    HW115725   1.282   1.915   1.219 -0.3622 -0.7471 -1.6668
 1421SOL    HW215726   1.381   1.935   1.308 -0.0923 -0.3242  1.2803
 1422SOL     OW15727   1.679   2.795   9.430 -0.1521  0.0556 -0.0599
 1422SOL    HW115728   1.744   2.822   9.365  0.0288 -4.0189 -1.5733
 1422SOL    HW215729   1.670   2.700   9.427  2.6078 -0.1938 -0.2023
 1423SOL     OW15730   1.589   0.993   7.695 -0.3782 -0.1605  0.0325
 1423SOL    HW115731   1.639   0.944   7.630 -0.4550  0.2667 -0.3475
 1423SOL    HW215732   1.529   0.929   7.734  0.4550 -1.9263 -1.5703
 1424SOL     OW15733   2.732   4.653  11.200 -0.0341 -0.0558  0.1036
 1424SOL    HW115734   2.816   4.612  11.182 -0.5854 -0.2022 -2.2661
 1424SOL    HW215735   2.679   4.574  11.216  1.4468 -1.4280 -1.8115
 1425SOL     OW15736   0.285   2.528   3.775  0.4148 -0.0057  0.6626
 1425SOL    HW115737   0.211   2.588   3.761  0.5884 -0.2121 -1.0936
 1425SOL    HW215738   0.236   2.446   3.780  0.0659  0.2325  1.2118
 1426SOL     OW15739   3.718   1.824   7.154  0.4366 -0.4420  0.4417
 1426SOL    HW115740   3.793   1.788   7.203  0.7129  0.8004  0.9351
 1426SOL    HW215741   3.657   1.826   7.228 -3.3354  3.0182 -2.7758
 1427SOL     OW15742   3.990   0.600  11.471  0.0554 -0.4492  0.6711
 1427SOL    HW115743   3.898   0.603  11.443  0.3123 -3.4370 -0.5667
 1427SOL    HW215744   4.022   0.678  11.427 -1.3633  0.5033  1.3136
 1428SOL     OW15745   0.700   0.925   6.438 -0.2970 -0.2833  0.1054
 1428SOL    HW115746   0.751   0.848   6.412  0.4909  0.5025 -0.6854
 1428SOL    HW215747   0.765   0.975   6.487  1.5360 -1.7416 -0.8440
 1429SOL     OW15748   1.120   0.719   7.448 -0.1282 -0.5381 -0.5464
 1429SOL    HW115749   1.131   0.696   7.540 -2.1830 -0.4915 -0.2795
 1429SOL    HW215750   1.171   0.648   7.409  0.5646  0.4817 -1.5105
 1430SOL     OW15751   3.118   3.043   7.350  0.5726 -0.1571 -0.5188
 1430SOL    HW115752   3.149   3.040   7.259  0.2263  1.4220 -0.6869
 1430SOL    HW215753   3.190   3.009   7.403  1.9217 -0.8128 -2.7767
 1431SOL     OW15754   3.179   0.194   7.032 -0.1432 -0.3985 -0.6003
 1431SOL    HW115755   3.189   0.231   6.944 -1.6649  1.2915 -0.0637
 1431SOL    HW215756   3.238   0.119   7.033  1.7059  1.0992  1.9824
 1432SOL     OW15757   0.207   0.109   6.803 -0.1413 -0.4383 -0.0594
 1432SOL    HW115758   0.120   0.127   6.768  1.0442 -0.0510 -2.8115
 1432SOL    HW215759   0.248   0.195   6.816  1.4822 -1.3549  0.8298
 1433SOL     OW15760   0.334   3.076  13.637  0.0813 -0.4885 -0.4677
 1433SOL    HW115761   0.359   3.014  13.568  0.5025  0.9642 -1.6161
 1433SOL    HW215762   0.420   3.097  13.673 -0.3736  0.7073 -0.0884
 1434SOL     OW15763   2.249   2.127   3.674 -0.4410 -0.4282 -0.1427
 1434SOL    HW115764   2.156   2.136   3.655 -0.8327 -0.8501  1.5763
 1434SOL    HW215765   2.282   2.082   3.596  1.7131 -0.1750  0.6123
 1435SOL     OW15766   1.439   1.048   8.884  0.5455  0.1902  0.3820
 1435SOL    HW115767   1.372   1.115   8.868  0.2543 -0.3207 -0.5446
 1435SOL    HW215768   1.514   1.106   8.900 -0.2829  1.3193  0.1880
 1436SOL     OW15769   4.001   4.402   7.213  0.5866 -0.1383  0.0918
 1436SOL    HW115770   4.056   4.427   7.287  0.2745 -1.9035  0.9267
 1436SOL    HW215771   3.984   4.312   7.244  1.4064 -0.7480 -1.2369
 1437SOL     OW15772   1.477   2.118   2.225  0.2395  0.4081  0.2958
 1437SOL    HW115773   1.557   2.144   2.269 -0.2023 -1.8909  2.4910
 1437SOL    HW215774   1.445   2.205   2.203  0.2171  0.4515  0.4981
 1438SOL     OW15775   3.219   3.310   3.852  0.6055 -0.1413  0.1953
 1438SOL    HW115776   3.289   3.272   3.800 -0.6922 -1.1345 -0.8175
 1438SOL    HW215777   3.260   3.375   3.910 -0.7482  0.4976  0.4231
 1439SOL     OW15778   1.568   3.037   9.326 -0.3820 -0.2754  0.6720
 1439SOL    HW115779   1.664   3.039   9.330 -0.2702 -0.9528 -2.0017
 1439SOL    HW215780   1.556   2.957   9.377 -0.1114 -1.0801 -0.5460
 1440SOL     OW15781   0.461   4.046   3.545  0.0011 -0.2079  0.2714
 1440SOL    HW115782   0.420   4.064   3.630 -0.0146 -1.8280  0.5918
 1440SOL    HW215783   0.387   3.999   3.507  0.5048  0.9220 -2.1175
 1441SOL     OW15784   0.322   4.311   1.564  0.0894  0.4067  0.5494
 1441SOL    HW115785   0.232   4.320   1.594 -1.1352  1.0001 -3.2873
 1441SOL    HW215786   0.369   4.341   1.642  2.8032 -2.0280 -0.1455
 1442SOL     OW15787   2.369   2.506  10.847  0.0254  0.7759 -1.0263
 1442SOL    HW115788   2.353   2.421  10.889 -1.0548  1.6058  0.2375
 1442SOL    HW215789   2.304   2.560  10.891 -1.6666 -0.7085 -1.7325
 1443SOL     OW15790   3.771   0.176  14.390  0.4530 -0.0510  0.0616
 1443SOL    HW115791   3.807   0.146  14.307 -3.0423  0.1560 -1.4936
 1443SOL    HW215792   3.807   0.111  14.450 -1.2080 -1.1604 -0.1648
 1444SOL     OW15793   0.479   1.882  14.271 -0.1569 -0.3473  0.1860
 1444SOL    HW115794   0.545   1.860  14.206  1.4381  0.0301  1.6597
 1444SOL    HW215795   0.396   1.913  14.235 -1.1398 -0.0826  2.6456
 1445SOL     OW15796   3.327   2.732   8.426 -0.2600 -0.3278 -0.0998
 1445SOL    HW115797   3.304   2.731   8.519  0.6161 -0.2739  0.1249
 1445SOL    HW215798   3.318   2.640   8.404  1.7037 -0.8733  1.3257
 1446SOL     OW15799   4.614   4.145   3.134 -0.2280 -0.0052  0.4593
 1446SOL    HW115800   4.672   4.195   3.191 -0.2566  0.0037  0.4808
 1446SOL    HW215801   4.562   4.125   3.212 -1.7831 -0.1160 -0.6170
 1447SOL     OW15802   1.380   2.875   8.225  0.3105 -0.3644  0.0678
 1447SOL    HW115803   1.289   2.883   8.194  0.7529  2.6829 -0.4152
 1447SOL    HW215804   1.420   2.953   8.188  0.2322  0.5020  1.8201
 1448SOL     OW15805   3.546   3.948   6.756  0.1306  0.3349  0.4917
 1448SOL    HW115806   3.578   3.897   6.830 -1.6833 -0.9329  0.4068
 1448SOL    HW215807   3.616   4.009   6.733 -0.3333  0.6334 -0.1474
 1449SOL     OW15808   1.366   0.218   6.077  0.0073 -0.0139 -0.2497
 1449SOL    HW115809   1.329   0.159   6.143 -0.4067 -1.2481 -1.5855
 1449SOL    HW215810   1.288   0.248   6.030 -0.0514  0.5185  0.1847
 1450SOL     OW15811   4.608   3.025   7.933 -0.1972 -0.2739  0.0054
 1450SOL    HW115812   4.615   3.068   8.018 -1.0059 -0.5771  0.2241
 1450SOL    HW215813   4.694   3.055   7.903 -1.7272  1.5545 -2.5822
 1451SOL     OW15814   3.284   2.974   8.962 -0.0268  0.4553 -0.0171
 1451SOL    HW115815   3.231   2.996   9.039  0.1315  1.5370 -0.2091
 1451SOL    HW215816   3.342   3.050   8.960  0.2689  0.1740 -1.7738
 1452SOL     OW15817   2.512   0.696   8.664  0.1117  0.2234 -0.0669
 1452SOL    HW115818   2.465   0.779   8.648 -2.4253 -1.5927 -2.0366
 1452SOL    HW215819   2.595   0.739   8.685  0.1768 -0.3403  0.7976
 1453SOL     OW15820   0.769   0.986  15.020  0.1051 -0.1478 -0.0561
 1453SOL    HW115821   0.712   1.010  14.947  1.1986  1.8366 -0.2520
 1453SOL    HW215822   0.830   0.920  14.987  1.1666  0.5927  0.4561
 1454SOL     OW15823   2.649   1.681   4.603  0.0166  0.9987  0.1410
 1454SOL    HW115824   2.581   1.712   4.544  0.0645  1.6548  0.4363
 1454SOL    HW215825   2.615   1.719   4.684  1.5667  1.3597  0.6286
 1455SOL     OW15826   1.135   1.104  11.594  0.1896  0.0457  0.1373
 1455SOL    HW115827   1.104   1.072  11.678 -1.4296  0.6836 -0.2030
 1455SOL    HW215828   1.138   1.198  11.614  1.8075  0.0553 -0.1661
 1456SOL     OW15829   2.192   3.202   8.321 -0.2067  0.4436 -0.1489
 1456SOL    HW115830   2.137   3.270   8.361 -1.0959 -0.0808 -0.4939
 1456SOL    HW215831   2.237   3.161   8.395 -1.4519  3.2652  2.1885
 1457SOL     OW15832   0.684   2.734   2.824  0.1401 -0.5965 -0.2010
 1457SOL    HW115833   0.671   2.824   2.793 -0.0296 -1.3721 -2.3901
 1457SOL    HW215834   0.596   2.702   2.805  0.8721 -2.9488  0.3956
 1458SOL     OW15835   3.688   2.165   4.122 -0.4032 -0.2118 -0.1268
 1458SOL    HW115836   3.616   2.185   4.181 -1.0240 -1.5283 -0.4321
 1458SOL    HW215837   3.642   2.133   4.044  1.2846  1.1202 -1.6684
 1459SOL     OW15838   1.246   3.074   7.977 -0.1111 -0.1275 -0.6332
 1459SOL    HW115839   1.198   3.012   7.922 -0.0692 -1.9369  1.3679
 1459SOL    HW215840   1.337   3.044   7.977  0.2833  1.0994  1.6964
 1460SOL     OW15841   2.395   1.494   4.668 -0.0193 -0.0444  0.6968
 1460SOL    HW115842   2.405   1.563   4.602 -2.7402 -0.0008  0.3093
 1460SOL    HW215843   2.300   1.495   4.684 -0.3960 -2.2429 -1.4406
 1461SOL     OW15844   3.893   0.823   6.015 -0.7425  0.0660  0.1502
 1461SOL    HW115845   3.967   0.804   6.073  1.2487 -0.1982 -2.4686
 1461SOL    HW215846   3.865   0.907   6.050  0.3394  0.4403  0.1166
 1462SOL     OW15847   3.614   4.591   1.754 -0.2513 -0.3146  0.0459
 1462SOL    HW115848   3.655   4.641   1.684  0.0833 -0.5638  0.0635
 1462SOL    HW215849   3.673   4.516   1.758 -0.5552 -0.6377 -1.8226
 1463SOL     OW15850   3.018   0.136   9.469  1.0059 -0.1892  0.1371
 1463SOL    HW115851   3.053   0.049   9.489 -1.1516 -0.8655  0.9546
 1463SOL    HW215852   2.944   0.144   9.529  0.3197 -0.5506 -0.6582
 1464SOL     OW15853   1.461   1.561  14.724  0.1710  0.1056  0.1488
 1464SOL    HW115854   1.516   1.560  14.803 -0.4137 -1.2703  0.5371
 1464SOL    HW215855   1.376   1.552  14.767  1.1478 -2.6046  1.5161
 1465SOL     OW15856   1.145   3.572  14.572  0.0854 -0.1813 -0.7080
 1465SOL    HW115857   1.057   3.544  14.598  0.5453 -1.4775 -0.5355
 1465SOL    HW215858   1.151   3.587  14.477 -0.5332 -0.5433 -0.8057
 1466SOL     OW15859   2.580   2.176   0.192 -0.2171  0.0318 -0.5416
 1466SOL    HW115860   2.491   2.143   0.203 -1.2640  3.0275  0.1110
 1466SOL    HW215861   2.601   2.185   0.285  0.5344 -0.1234 -0.6990
 1467SOL     OW15862   1.115   3.653   7.918  0.4429 -0.2857  0.2402
 1467SOL    HW115863   1.115   3.580   7.856  2.4850 -0.9153  0.9760
 1467SOL    HW215864   1.188   3.701   7.880 -1.0890  2.5036  0.8586
 1468SOL     OW15865   4.626   0.807   6.082 -0.4029  0.4083  0.3473
 1468SOL    HW115866   4.679   0.887   6.082 -0.5410  0.4998 -1.2343
 1468SOL    HW215867   4.579   0.824   6.000  1.1767 -1.0287 -0.8559
 1469SOL     OW15868   0.663   2.096   6.214 -0.3003  0.1506  0.3023
 1469SOL    HW115869   0.699   2.105   6.126  0.1596  3.0419  0.7727
 1469SOL    HW215870   0.738   2.052   6.255  2.6509  2.0338 -3.1121
 1470SOL     OW15871   2.059   4.712  15.361 -0.5209  0.2068  0.1044
 1470SOL    HW115872   2.045   0.083  15.348 -2.1253  0.0533  0.6973
 1470SOL    HW215873   2.031   4.665  15.283  1.0528 -0.6054  0.0328
 1471SOL     OW15874   0.569   2.131  17.047 -0.5325 -0.3698 -0.5838
 1471SOL    HW115875   0.582   2.224  17.034  0.1151 -0.1581  1.5992
 1471SOL    HW215876   0.539   2.102  16.960  0.3861  2.1873 -1.7477
 1472SOL     OW15877   2.232   4.723   4.287 -0.0513 -0.1958 -0.1381
 1472SOL    HW115878   2.187   4.704   4.369  1.0537  0.5158  0.6409
 1472SOL    HW215879   2.158   0.019   4.231 -0.6329 -1.3683  0.2330
 1473SOL     OW15880   1.311   4.303   0.014 -0.0002  0.3256 -0.5838
 1473SOL    HW115881   1.394   4.271  17.674  0.7812  0.6950  0.9179
 1473SOL    HW215882   1.325   4.289   0.108 -2.2788 -1.2951 -0.4930
 1474SOL     OW15883   1.048   0.627   8.283 -0.3380  0.0022 -0.4037
 1474SOL    HW115884   1.026   0.562   8.216 -0.1999  0.9448 -1.3634
 1474SOL    HW215885   1.052   0.711   8.238  1.8461  0.0516 -0.0919
 1475SOL     OW15886   2.264   0.290   4.437 -0.6681  0.1505  0.9065
 1475SOL    HW115887   2.194   0.295   4.372 -0.4611  1.4127  0.7847
 1475SOL    HW215888   2.339   0.260   4.386 -1.6026 -1.6490  0.5716
 1476SOL     OW15889   3.910   3.701   1.620  0.1399 -0.6033 -0.0133
 1476SOL    HW115890   3.930   3.633   1.684  1.3106 -1.2953 -1.1207
 1476SOL    HW215891   3.838   3.749   1.662 -0.2450 -0.1412 -1.2057
 1477SOL     OW15892   1.426   2.220   3.071  0.3232 -0.6001  0.4512
 1477SOL    HW115893   1.438   2.306   3.031 -0.9538  0.3566  2.1567
 1477SOL    HW215894   1.344   2.224   3.121 -1.8686  0.2640 -3.1993
 1478SOL     OW15895   4.462   3.673   0.818  0.1453  0.0050 -0.2834
 1478SOL    HW115896   4.451   3.689   0.724  0.4194  2.4535  0.1021
 1478SOL    HW215897   4.514   3.593   0.824 -0.1913 -0.0587  1.8342
 1479SOL     OW15898   1.419   4.013  11.624 -0.2535  0.0039 -0.5241
 1479SOL    HW115899   1.485   4.082  11.620 -1.0401  0.6700 -2.3422
 1479SOL    HW215900   1.445   3.958  11.698 -0.0142 -0.5269 -1.0013
 1480SOL     OW15901   1.563   4.599  15.098  0.2023 -0.3088 -0.1961
 1480SOL    HW115902   1.484   4.572  15.144  0.4594  0.5141  0.7335
 1480SOL    HW215903   1.627   4.562  15.159  1.5639  0.9530 -0.8720
 1481SOL     OW15904   2.976   1.977   9.311 -0.2074 -0.3053  0.0042
 1481SOL    HW115905   2.990   2.033   9.387  1.2012  0.4556 -0.8141
 1481SOL    HW215906   2.902   2.023   9.270 -1.6928 -1.3444  1.5180
 1482SOL     OW15907   2.362   4.409   5.861  0.2229  0.1754  0.3630
 1482SOL    HW115908   2.377   4.415   5.766  2.8634 -0.2317  0.7595
 1482SOL    HW215909   2.305   4.482   5.885 -1.4174 -0.6233 -1.0421
 1483SOL     OW15910   3.215   0.737   0.126  0.3760  0.1895  0.0399
 1483SOL    HW115911   3.248   0.705   0.210 -2.1146 -0.8043  0.6276
 1483SOL    HW215912   3.296   0.745   0.076  0.9418 -0.7511  0.7981
 1484SOL     OW15913   3.977   2.430   5.657 -0.2653 -0.2430 -0.8739
 1484SOL    HW115914   4.027   2.506   5.626 -0.3366  0.1704  0.0176
 1484SOL    HW215915   4.055   2.375   5.651 -0.8357 -1.1635  0.1647
 1485SOL     OW15916   2.630   3.154   9.103  0.1176 -0.3605 -0.0315
 1485SOL    HW115917   2.602   3.198   9.184  1.2986 -0.8540  0.6455
 1485SOL    HW215918   2.723   3.132   9.108  0.4718  1.3600  1.2646
 1486SOL     OW15919   2.657   1.143  15.286 -0.0531  0.2923 -0.7608
 1486SOL    HW115920   2.670   1.157  15.193 -2.4818  1.4524 -0.9324
 1486SOL    HW215921   2.689   1.227  15.318 -1.1622  1.1148 -1.7930
 1487SOL     OW15922   4.282   0.030   2.812 -0.4806  0.3034  0.1353
 1487SOL    HW115923   4.224   0.079   2.871  3.3681  0.6291  3.6527
 1487SOL    HW215924   4.341   0.104   2.797 -1.3262  1.3197  1.7727
 1488SOL     OW15925   0.402   0.975  10.081 -0.0538  0.4563 -0.1495
 1488SOL    HW115926   0.458   0.912  10.127  3.2713  2.7688 -0.9491
 1488SOL    HW215927   0.397   0.932   9.995 -1.2228  0.2926  0.0100
 1489SOL     OW15928   3.368   4.105   6.649  0.2219  0.0166 -0.0619
 1489SOL    HW115929   3.403   4.023   6.684 -0.9968 -0.1962  0.6513
 1489SOL    HW215930   3.327   4.081   6.566  1.3493 -0.2133 -0.5497
 1490SOL     OW15931   0.169   3.797   7.287 -0.4813 -0.4774 -0.1254
 1490SOL    HW115932   0.099   3.860   7.273  0.4529  1.5901  4.3614
 1490SOL    HW215933   0.218   3.844   7.355  2.7447 -3.6708 -0.2004
 1491SOL     OW15934   1.679   3.899   4.642  0.0233  0.0674 -0.0148
 1491SOL    HW115935   1.650   3.808   4.629  0.9838 -0.2752  0.2686
 1491SOL    HW215936   1.639   3.917   4.727  1.5549 -1.1178  0.9621
 1492SOL     OW15937   0.823   2.470  12.484 -0.2304 -0.0771 -0.2689
 1492SOL    HW115938   0.748   2.414  12.464  0.3774 -0.7957 -0.4948
 1492SOL    HW215939   0.829   2.471  12.579  1.1961 -0.7217 -0.3571
 1493SOL     OW15940   0.751   1.532   4.921  0.2203 -0.0608 -0.4158
 1493SOL    HW115941   0.792   1.451   4.890  0.5887 -0.1734  0.3760
 1493SOL    HW215942   0.706   1.487   4.992  0.1065  1.8645  0.7350
 1494SOL     OW15943   1.513   0.644   6.290 -0.0990  0.6546  1.0680
 1494SOL    HW115944   1.477   0.565   6.249  0.2150  0.7048  0.6931
 1494SOL    HW215945   1.435   0.699   6.282 -0.5282  0.0251  0.8862
 1495SOL     OW15946   2.979   0.119   3.600 -0.5594  0.4128  0.6021
 1495SOL    HW115947   2.960   0.160   3.684  2.2578  1.2040  0.8489
 1495SOL    HW215948   2.968   0.026   3.618 -1.1227  0.2415 -0.5854
 1496SOL     OW15949   3.995   1.498   7.563  0.4364  0.7974 -0.0786
 1496SOL    HW115950   4.087   1.495   7.539  0.1153  0.6146 -1.2930
 1496SOL    HW215951   4.006   1.512   7.657  0.5073  1.7729 -0.2368
 1497SOL     OW15952   1.416   4.303  11.179 -0.1147  0.5924 -0.3068
 1497SOL    HW115953   1.396   4.372  11.242  1.2852  0.5877  0.1507
 1497SOL    HW215954   1.330   4.260  11.176  0.1779 -0.0719  1.0323
 1498SOL     OW15955   4.156   1.889   8.951  0.6794 -0.1652  0.2521
 1498SOL    HW115956   4.132   1.830   8.879  0.6648  2.8866 -2.2062
 1498SOL    HW215957   4.133   1.976   8.921 -0.8226  0.3944  3.1235
 1499SOL     OW15958   0.851   4.314   3.332  0.1005 -0.3685 -0.0118
 1499SOL    HW115959   0.918   4.282   3.391 -1.8226 -0.9667  1.8517
 1499SOL    HW215960   0.874   4.260   3.256 -0.1508  1.2341 -1.2278
 1500SOL     OW15961   1.909   1.116  10.238 -1.5280 -0.0701 -0.4205
 1500SOL    HW115962   1.906   1.100  10.144  2.3617  1.1216 -0.7378
 1500SOL    HW215963   1.960   1.195  10.221 -2.3059  0.1736 -1.5530
 1501SOL     OW15964   0.437   4.683   6.802 -0.4160  0.3710  0.3463
 1501SOL    HW115965   0.466   4.674   6.893 -0.3299 -0.8439  0.1933
 1501SOL    HW215966   0.359   0.014   6.815 -0.5413  0.5443 -1.1167
 1502SOL     OW15967   2.886   1.517   5.795  0.6005  0.2959 -0.0948
 1502SOL    HW115968   2.952   1.450   5.815 -1.3323 -1.9325 -1.1619
 1502SOL    HW215969   2.871   1.564   5.877  2.4365  1.1478 -0.2514
 1503SOL     OW15970   3.551   1.901  15.138  0.3661 -0.1842 -0.1024
 1503SOL    HW115971   3.561   1.824  15.082 -0.6506 -1.0121  0.8637
 1503SOL    HW215972   3.530   1.861  15.222  0.2185 -1.5104 -0.7679
 1504SOL     OW15973   4.082   3.873   7.876 -0.4162 -0.3164  0.8209
 1504SOL    HW115974   4.154   3.883   7.938  0.4870 -0.8171 -0.1663
 1504SOL    HW215975   4.137   3.842   7.805 -2.6106  0.1419 -1.0813
 1505SOL     OW15976   0.137   4.234  11.758 -0.8006  0.0590 -0.6636
 1505SOL    HW115977   0.090   4.151  11.768  1.3643 -1.0909 -0.1708
 1505SOL    HW215978   0.139   4.242  11.663  0.0347  1.4277 -0.5279
 1506SOL     OW15979   3.892   3.540   2.118  0.5208  0.2971  0.0446
 1506SOL    HW115980   3.939   3.457   2.112  0.2229  0.1383 -0.0780
 1506SOL    HW215981   3.951   3.597   2.069  1.5161  0.7163  1.7458
 1507SOL     OW15982   3.770   2.313   8.164  0.8337 -0.0781  0.0417
 1507SOL    HW115983   3.714   2.388   8.143  1.0987 -0.0107 -0.4167
 1507SOL    HW215984   3.849   2.364   8.184 -0.5961  2.2592 -0.2795
 1508SOL     OW15985   4.691   0.426   4.895 -0.6352 -0.2863  0.0734
 1508SOL    HW115986   4.671   0.391   4.982  0.0127  0.9584  0.7188
 1508SOL    HW215987   4.698   0.342   4.848  0.6928 -0.4360  0.5475
 1509SOL     OW15988   4.348   4.270  13.221  0.2019 -0.3377  0.5326
 1509SOL    HW115989   4.263   4.300  13.191 -0.5772 -1.1060  1.9586
 1509SOL    HW215990   4.398   4.299  13.145 -0.6846 -0.3853 -0.0599
 1510SOL     OW15991   3.829   1.102  14.539 -0.3086  0.4648 -0.0704
 1510SOL    HW115992   3.915   1.141  14.555  0.4504 -1.7555  1.2773
 1510SOL    HW215993   3.800   1.164  14.471 -0.3103 -0.0191 -0.5087
 1511SOL     OW15994   1.445   2.952  13.126  0.4408  0.4277  0.4541
 1511SOL    HW115995   1.405   2.885  13.181  0.0232  1.0116  0.8557
 1511SOL    HW215996   1.373   2.993  13.078 -0.3548 -1.9225 -0.3544
 1512SOL     OW15997   4.488   4.013  13.072  0.0368 -0.0238  0.0698
 1512SOL    HW115998   4.407   3.963  13.062  2.0986 -3.6419  1.3622
 1512SOL    HW215999   4.461   4.101  13.046 -3.9555 -0.3868  2.8259
 1513SOL     OW16000   4.296   1.796   3.106 -0.1423  0.2070  0.2843
 1513SOL    HW116001   4.287   1.831   3.017 -2.3153 -1.2398 -0.0623
 1513SOL    HW216002   4.295   1.702   3.092 -0.2159  0.6911 -3.1128
 1514SOL     OW16003   0.338   0.232   9.011 -0.2991  0.1781 -0.1727
 1514SOL    HW116004   0.409   0.292   8.990 -0.5694  0.7666  0.5948
 1514SOL    HW216005   0.374   0.147   8.988  0.7669  0.0608  1.9511
 1515SOL     OW16006   1.681   0.394   4.012  0.5144 -0.0600  0.5713
 1515SOL    HW116007   1.646   0.465   4.065 -0.5727  0.2377 -0.5368
 1515SOL    HW216008   1.705   0.450   3.938 -0.5270 -0.2942  0.0620
 1516SOL     OW16009   2.352   3.309   4.589  0.1575  0.0756 -0.0048
 1516SOL    HW116010   2.354   3.221   4.551 -1.5803 -0.0589  0.2448
 1516SOL    HW216011   2.340   3.288   4.682 -0.8487  0.5870 -0.0210
 1517SOL     OW16012   3.877   4.484   6.590 -0.1815  0.1156  0.5153
 1517SOL    HW116013   3.856   4.464   6.681 -0.7605 -0.3770  0.2703
 1517SOL    HW216014   3.955   4.539   6.601 -0.1083  0.3865 -1.2550
 1518SOL     OW16015   2.685   1.056   6.506 -0.2226  0.1578 -0.3132
 1518SOL    HW116016   2.754   1.031   6.568 -1.6313 -1.3105  0.6668
 1518SOL    HW216017   2.644   1.130   6.550 -1.9200 -0.6948 -0.4527
 1519SOL     OW16018   2.406   2.378   4.266 -0.5288 -0.2625  0.5467
 1519SOL    HW116019   2.424   2.353   4.357  0.8642  0.6044  0.5138
 1519SOL    HW216020   2.489   2.420   4.244  1.0465 -2.5746  2.0667
 1520SOL     OW16021   3.365   4.044  10.601  0.3253 -0.5336  0.2070
 1520SOL    HW116022   3.343   4.092  10.521  1.5339 -2.2636 -1.1672
 1520SOL    HW216023   3.296   4.074  10.660  0.2824  0.3351 -0.2933
 1521SOL     OW16024   3.199   4.708   2.246  0.1738  0.3638  0.5655
 1521SOL    HW116025   3.253   0.046   2.195  1.4795 -0.8646  0.4842
 1521SOL    HW216026   3.262   4.669   2.306  0.7073 -1.2981 -1.0877
 1522SOL     OW16027   3.376   1.045   3.091  0.3614 -0.6638  0.2006
 1522SOL    HW116028   3.406   1.094   3.014 -1.1938  1.4959  0.9770
 1522SOL    HW216029   3.376   1.120   3.150 -0.4901 -0.7859  0.3575
 1523SOL     OW16030   0.124   1.392   1.928 -0.2659 -0.4806  0.5762
 1523SOL    HW116031   0.161   1.474   1.960 -1.6184  0.6562 -0.7596
 1523SOL    HW216032   0.029   1.403   1.927 -0.3188 -1.2064 -2.4173
 1524SOL     OW16033   0.490   0.230  17.546  0.4382 -0.3277 -0.1682
 1524SOL    HW116034   0.449   0.233  17.460  0.1649 -2.1774 -0.1028
 1524SOL    HW216035   0.512   0.137  17.551  1.3857 -0.0442  0.7088
 1525SOL     OW16036   4.404   3.857   7.790 -0.0703 -0.3286  0.3029
 1525SOL    HW116037   4.386   3.763   7.785  0.8355 -0.4331 -1.0061
 1525SOL    HW216038   4.468   3.859   7.719  0.8704  2.9196  1.2613
 1526SOL     OW16039   1.067   3.829   2.094 -0.1923 -0.0560  0.2318
 1526SOL    HW116040   1.060   3.872   2.179  1.9114  3.9862 -1.6230
 1526SOL    HW216041   1.013   3.887   2.041 -0.2755 -2.6438 -2.4806
 1527SOL     OW16042   1.723   3.634   4.650  0.4654 -0.4915 -0.1052
 1527SOL    HW116043   1.680   3.557   4.689  1.6571 -1.5633 -0.8863
 1527SOL    HW216044   1.766   3.665   4.729  2.4542 -1.3708 -0.8486
 1528SOL     OW16045   4.065   4.353   8.304  1.2935 -0.6286 -0.1276
 1528SOL    HW116046   4.005   4.417   8.265  0.5074 -1.9119 -1.0404
 1528SOL    HW216047   4.062   4.376   8.397  2.1259  1.1933 -0.5595
 1529SOL     OW16048   2.068   0.113   8.051  0.1248 -0.6558  0.1845
 1529SOL    HW116049   2.152   0.144   8.083 -0.1583 -0.4608  0.7465
 1529SOL    HW216050   2.077   0.108   7.956 -1.5360 -2.5068  0.0930
 1530SOL     OW16051   3.511   0.099  15.136 -0.1285 -0.4684  0.1870
 1530SOL    HW116052   3.531   0.193  15.133  1.2250 -0.7765 -0.3216
 1530SOL    HW216053   3.421   0.108  15.168 -0.1902  1.7735 -0.6290
 1531SOL     OW16054   2.533   0.158   6.692  0.0517 -0.1347  0.2915
 1531SOL    HW116055   2.560   0.247   6.713 -1.0978 -0.3378  2.5934
 1531SOL    HW216056   2.494   0.127   6.774 -2.6687  0.9303 -0.6101
 1532SOL     OW16057   3.151   1.768   4.481 -0.1958 -0.2103 -0.3163
 1532SOL    HW116058   3.115   1.740   4.397  2.8261 -3.4771 -0.5056
 1532SOL    HW216059   3.095   1.732   4.550  1.1661 -0.7240  0.5167
 1533SOL     OW16060   0.317   2.562   7.179 -0.2594  0.6257 -0.8071
 1533SOL    HW116061   0.252   2.497   7.151  0.1912 -0.3130  0.3318
 1533SOL    HW216062   0.262   2.603   7.246  3.1071  0.4880  1.9899
 1534SOL     OW16063   4.506   3.807   8.892 -0.2764 -0.1534  0.3771
 1534SOL    HW116064   4.434   3.824   8.831  1.3528 -1.1522 -1.8597
 1534SOL    HW216065   4.491   3.713   8.906 -0.1358 -0.4110 -1.1128
 1535SOL     OW16066   1.126   0.256  13.999  0.1030 -0.1349 -0.2030
 1535SOL    HW116067   1.197   0.317  13.978 -0.5078  1.4401  2.3556
 1535SOL    HW216068   1.146   0.188  13.934 -1.5399 -0.0053 -0.8508
 1536SOL     OW16069   3.175   4.083   4.709  0.6473  0.0943 -0.2589
 1536SOL    HW116070   3.108   4.069   4.776 -1.3947  0.2639 -2.3053
 1536SOL    HW216071   3.196   3.991   4.697  2.2382  0.5242 -0.7776
 1537SOL     OW16072   4.518   3.931  15.504  0.4851  0.1835 -0.0155
 1537SOL    HW116073   4.573   3.936  15.427  2.3158 -1.0592  1.2026
 1537SOL    HW216074   4.454   3.998  15.481  0.9398  0.5334 -0.2458
 1538SOL     OW16075   3.322   3.328   1.857  0.6340  0.0561  0.6578
 1538SOL    HW116076   3.286   3.398   1.802 -0.3733 -0.8002  0.2194
 1538SOL    HW216077   3.393   3.299   1.799  0.4156 -0.3169  0.5682
 1539SOL     OW16078   0.943   3.861   8.743 -0.6910 -0.0270  0.4430
 1539SOL    HW116079   0.947   3.949   8.780  2.0689 -0.5674  1.4360
 1539SOL    HW216080   0.851   3.861   8.714 -0.7003 -0.6734  0.4667
 1540SOL     OW16081   4.052   4.520   5.672  0.1418 -0.4230 -0.3023
 1540SOL    HW116082   4.125   4.538   5.732  0.0367  0.2571 -0.3808
 1540SOL    HW216083   4.085   4.524   5.582 -0.8725 -0.0693 -0.6479
 1541SOL     OW16084   0.459   0.655   1.188  0.1989  0.2252 -0.0833
 1541SOL    HW116085   0.495   0.603   1.261  0.5083 -0.7522 -0.9338
 1541SOL    HW216086   0.519   0.727   1.165 -1.9851  1.1159 -2.9477
 1542SOL     OW16087   1.514   0.771   9.908  0.7375 -0.8940  0.0371
 1542SOL    HW116088   1.438   0.794   9.854  0.0509 -1.0777  0.9227
 1542SOL    HW216089   1.479   0.745   9.994  0.3305 -1.2926 -0.2480
 1543SOL     OW16090   4.068   0.488  16.674  0.0003 -0.3081 -0.1678
 1543SOL    HW116091   4.023   0.467  16.755  0.3982  0.3468  0.2209
 1543SOL    HW216092   3.993   0.464  16.619  0.2062 -0.6066 -0.3211
 1544SOL     OW16093   2.995   4.100   7.321  0.4096 -0.0296 -0.0424
 1544SOL    HW116094   3.016   4.136   7.235  0.6617  2.6754  1.1541
 1544SOL    HW216095   3.009   4.168   7.386 -1.6465 -1.3253  1.7708
 1545SOL     OW16096   2.792   1.295  17.318  0.5861 -0.0681  0.1459
 1545SOL    HW116097   2.741   1.308  17.399  0.1973 -0.0212 -0.1035
 1545SOL    HW216098   2.878   1.266  17.348  1.1244  2.0209  0.6964
 1546SOL     OW16099   1.520   0.747   7.977  0.3029 -0.0862 -0.2602
 1546SOL    HW116100   1.535   0.762   7.883  0.0744 -0.0837 -0.2958
 1546SOL    HW216101   1.595   0.795   8.011  0.3239  0.7761 -1.5015
 1547SOL     OW16102   4.061   1.047   3.071 -0.2266  0.3968 -0.0237
 1547SOL    HW116103   4.044   0.985   3.001  2.4750  0.0657 -0.3967
 1547SOL    HW216104   3.981   1.032   3.121 -0.3284 -0.4953 -0.4559
 1548SOL     OW16105   4.479   2.502   0.582 -0.4311  0.3232 -0.0274
 1548SOL    HW116106   4.427   2.582   0.581 -0.3726  0.3868  1.8527
 1548SOL    HW216107   4.562   2.546   0.566 -0.1577 -0.4809 -0.8516
 1549SOL     OW16108   2.661   1.862   7.882  0.7294  0.4701  0.5185
 1549SOL    HW116109   2.699   1.889   7.966  0.8898 -0.0788  0.6264
 1549SOL    HW216110   2.727   1.798   7.854 -1.4865 -0.7857 -1.8078
 1550SOL     OW16111   0.390   2.131   5.379  0.1418 -0.2735  0.9802
 1550SOL    HW116112   0.298   2.154   5.396 -0.0771  0.6441 -1.4980
 1550SOL    HW216113   0.420   2.088   5.459  1.4326  2.6995  2.1077
 1551SOL     OW16114   3.586   3.418   8.698 -0.3958  0.0461  0.0630
 1551SOL    HW116115   3.514   3.443   8.640 -0.8750  0.5602  0.8865
 1551SOL    HW216116   3.664   3.408   8.643  0.3438 -0.9213  1.3022
 1552SOL     OW16117   2.719   0.770   4.590 -0.6209  0.1794  0.4636
 1552SOL    HW116118   2.641   0.757   4.644 -0.7659  2.6790  0.8781
 1552SOL    HW216119   2.756   0.850   4.626 -0.3975  1.4002 -2.4452
 1553SOL     OW16120   3.527   3.681  11.960 -0.6614  0.1340 -0.1501
 1553SOL    HW116121   3.602   3.622  11.958  1.3565  2.6487  0.7508
 1553SOL    HW216122   3.566   3.749  12.014 -2.1728  3.3956 -3.1047
 1554SOL     OW16123   3.584   4.121   5.513 -0.0064 -0.3236  0.0347
 1554SOL    HW116124   3.532   4.143   5.590 -0.8238  2.8070 -1.4198
 1554SOL    HW216125   3.597   4.205   5.470  0.5037 -0.8560 -0.8489
 1555SOL     OW16126   2.605   1.063   8.089 -0.3900  0.0690 -0.0725
 1555SOL    HW116127   2.666   1.053   8.016 -0.0594  3.0635 -0.1840
 1555SOL    HW216128   2.651   1.006   8.151  0.9579  1.7210  0.4331
 1556SOL     OW16129   2.346   0.272  10.335 -0.1309  0.6288 -1.0145
 1556SOL    HW116130   2.372   0.282  10.243  0.5288  1.5699 -0.7268
 1556SOL    HW216131   2.428   0.294  10.379  0.3341  0.3053 -1.7022
 1557SOL     OW16132   4.267   1.679  16.072  0.6845 -0.0180 -0.0655
 1557SOL    HW116133   4.276   1.680  15.977  0.3111  4.6606 -0.0832
 1557SOL    HW216134   4.352   1.650  16.105  1.4277  1.5953 -0.5377
 1558SOL     OW16135   1.775   2.584   0.281 -0.1346  0.0239 -0.1890
 1558SOL    HW116136   1.852   2.554   0.233  0.7476 -0.0848  1.2778
 1558SOL    HW216137   1.765   2.503   0.331 -1.6246 -0.1464 -0.7627
 1559SOL     OW16138   1.636   0.030   7.197  0.4032  0.3517 -0.2858
 1559SOL    HW116139   1.726   0.060   7.186  0.3719  0.3325 -0.6032
 1559SOL    HW216140   1.640   0.008   7.290 -0.3224 -0.7014 -0.4998
 1560SOL     OW16141   1.072   0.348   4.383 -0.1353 -0.0522 -0.0431
 1560SOL    HW116142   1.069   0.379   4.473 -3.1690  2.3474 -0.9425
 1560SOL    HW216143   1.164   0.342   4.360 -0.1766  1.1622 -0.5196
 1561SOL     OW16144   3.226   2.844   2.109  0.2257  0.3312  0.3633
 1561SOL    HW116145   3.213   2.886   2.024  1.1683  1.7001  0.8965
 1561SOL    HW216146   3.322   2.847   2.114  0.2436 -0.1256  0.2652
 1562SOL     OW16147   4.016   4.360   3.932 -0.5346  0.0241 -0.0310
 1562SOL    HW116148   4.089   4.423   3.937  0.3745 -0.9930 -0.4693
 1562SOL    HW216149   4.054   4.290   3.879  0.4920  2.0603 -2.0058
 1563SOL     OW16150   2.753   1.364   4.516 -0.0349 -0.0750 -0.2741
 1563SOL    HW116151   2.838   1.376   4.558  0.4658 -0.3731 -1.2027
 1563SOL    HW216152   2.711   1.450   4.521 -0.1991 -0.0561 -2.1558
 1564SOL     OW16153   3.374   3.211   6.805  0.7273 -0.1835 -0.2404
 1564SOL    HW116154   3.316   3.250   6.739 -1.0226 -1.5283  0.4929
 1564SOL    HW216155   3.355   3.120   6.783  1.4931 -0.3782 -0.0748
 1565SOL     OW16156   1.374   4.261  13.983  0.0990 -0.0341  0.2539
 1565SOL    HW116157   1.423   4.181  14.002 -0.4797 -0.8508 -1.7290
 1565SOL    HW216158   1.301   4.243  14.041  0.7496  1.8370  1.6840
 1566SOL     OW16159   4.480   3.158   2.921 -0.1593 -0.4676 -0.4386
 1566SOL    HW116160   4.463   3.138   3.013  0.5992 -2.5590 -0.7359
 1566SOL    HW216161   4.574   3.144   2.909 -0.5170 -1.4651 -2.1017
 1567SOL     OW16162   2.763   3.360   5.748 -0.0474 -0.6260  0.1466
 1567SOL    HW116163   2.689   3.327   5.697  0.6433  0.6998 -1.7510
 1567SOL    HW216164   2.837   3.319   5.705  0.0581 -0.1677 -0.1145
 1568SOL     OW16165   1.846   3.247   2.874 -0.4780  0.7530 -0.2244
 1568SOL    HW116166   1.768   3.233   2.821  1.3735 -0.7147 -2.5751
 1568SOL    HW216167   1.834   3.168   2.926  0.8058  1.0339  0.5068
 1569SOL     OW16168   3.306   3.400   6.059  0.3119 -0.0022  0.1946
 1569SOL    HW116169   3.246   3.387   5.986  0.7973 -1.0112 -0.0220
 1569SOL    HW216170   3.365   3.327   6.041  0.1651 -0.7455  2.6531
 1570SOL     OW16171   1.995   3.513   8.743 -0.3961  0.2045  0.1401
 1570SOL    HW116172   2.020   3.584   8.685 -0.7479 -0.7620 -1.1820
 1570SOL    HW216173   1.957   3.450   8.682 -0.8565  3.6659 -3.1231
 1571SOL     OW16174   3.726   0.992  16.113 -0.2830 -0.3158  0.4561
 1571SOL    HW116175   3.688   0.944  16.039  0.2088  0.6979 -0.4591
 1571SOL    HW216176   3.658   0.973  16.177  0.8644 -2.1165  1.1561
 1572SOL     OW16177   1.846   0.668   8.841 -0.3786 -0.0589 -0.0376
 1572SOL    HW116178   1.752   0.676   8.860 -0.2866 -1.4207  1.0415
 1572SOL    HW216179   1.879   0.635   8.924  3.5945 -1.9171 -2.3642
 1573SOL     OW16180   2.433   3.210  16.789 -0.5651 -0.2481  0.7368
 1573SOL    HW116181   2.480   3.185  16.709 -1.8699  0.2971 -0.1959
 1573SOL    HW216182   2.405   3.296  16.757  1.4271  0.7344  1.5962
 1574SOL     OW16183   3.243   0.081   7.629 -0.1905 -0.1540  0.1254
 1574SOL    HW116184   3.191   0.130   7.692  0.9194 -0.5807  1.3774
 1574SOL    HW216185   3.249   0.141   7.555 -1.6202  0.9637  0.9173
 1575SOL     OW16186   1.001   2.011   8.409  0.0458 -0.4292 -1.2204
 1575SOL    HW116187   0.988   2.021   8.504 -2.1781 -0.3587 -1.5387
 1575SOL    HW216188   1.034   2.099   8.390 -0.7857  0.7030  2.5227
 1576SOL     OW16189   2.930   1.869  12.502  0.2964 -0.0625  0.6353
 1576SOL    HW116190   2.951   1.960  12.481 -0.6194 -0.6839 -2.9618
 1576SOL    HW216191   2.834   1.864  12.493  0.3563  1.2851 -0.7096
 1577SOL     OW16192   1.438   4.039   2.943 -0.2095  0.4494 -0.0341
 1577SOL    HW116193   1.414   4.114   2.998 -2.6985 -1.7038  1.8056
 1577SOL    HW216194   1.477   4.085   2.868  2.1565  0.2431  1.0759
 1578SOL     OW16195   2.555   1.888   1.916  0.2343  0.3583 -0.6721
 1578SOL    HW116196   2.467   1.853   1.902  0.0468  0.6394 -0.2005
 1578SOL    HW216197   2.593   1.884   1.828  1.7524 -0.0561 -0.0034
 1579SOL     OW16198   3.846   3.266   7.891 -0.1265  0.4079  0.4926
 1579SOL    HW116199   3.885   3.178   7.892  0.5076  0.6919  0.1971
 1579SOL    HW216200   3.882   3.306   7.813 -0.7662  1.3734  0.6963
 1580SOL     OW16201   4.503   0.797   6.353  0.7781 -0.0801  0.1490
 1580SOL    HW116202   4.582   0.763   6.397 -0.9256 -0.3186  3.0593
 1580SOL    HW216203   4.496   0.739   6.278  1.0993 -0.1238  0.1510
 1581SOL     OW16204   2.048   2.708   4.807  0.4793  0.3397  0.3215
 1581SOL    HW116205   2.113   2.775   4.829 -0.8812  1.1179  2.0154
 1581SOL    HW216206   2.087   2.659   4.735  1.9494  0.3278  1.1088
 1582SOL     OW16207   0.679   0.305   3.221 -0.0039  0.1884 -0.6822
 1582SOL    HW116208   0.616   0.253   3.171 -2.1610  1.7049  0.4889
 1582SOL    HW216209   0.751   0.246   3.244  0.7058  2.1108  1.9545
 1583SOL     OW16210   0.200   0.355   1.411  0.1685  0.3344  0.1850
 1583SOL    HW116211   0.202   0.284   1.475 -0.5622 -0.5640 -0.7986
 1583SOL    HW216212   0.186   0.305   1.331  1.8690  0.6536 -0.3049
 1584SOL     OW16213   3.403   3.232   6.397 -0.3427 -0.4330  0.2964
 1584SOL    HW116214   3.389   3.211   6.305 -0.0488  1.2791 -0.1304
 1584SOL    HW216215   3.489   3.197   6.421 -0.0501  0.0063 -0.1230
 1585SOL     OW16216   1.522   2.016   0.753  0.3568 -0.0239 -0.3002
 1585SOL    HW116217   1.474   1.945   0.710 -2.5426  0.8927  1.3892
 1585SOL    HW216218   1.460   2.089   0.745 -1.0933 -1.1707  0.4833
 1586SOL     OW16219   4.509   0.150   5.268 -0.2706  0.0400  0.4293
 1586SOL    HW116220   4.550   0.141   5.354  0.8643 -1.5680 -0.2933
 1586SOL    HW216221   4.477   0.062   5.250 -3.8900  0.9078  2.3470
 1587SOL     OW16222   4.152   0.521  15.925 -0.5169 -0.0032  0.3132
 1587SOL    HW116223   4.210   0.597  15.928 -1.4691  0.8457 -2.0429
 1587SOL    HW216224   4.210   0.446  15.917  0.1641  0.4809  0.7556
 1588SOL     OW16225   2.533   3.520   3.948 -0.1394  0.1317 -0.3391
 1588SOL    HW116226   2.447   3.479   3.946  0.1087 -0.4107  0.3912
 1588SOL    HW216227   2.512   3.591   3.887  0.3073  0.9582  0.4698
 1589SOL     OW16228   1.659   1.694   4.024 -0.1964 -0.6221  0.1319
 1589SOL    HW116229   1.572   1.682   4.061  0.1766 -2.3368  0.4741
 1589SOL    HW216230   1.657   1.789   4.026  1.0690 -0.6415  2.4578
 1590SOL     OW16231   1.815   2.120   2.732 -0.2766 -0.2795 -0.4542
 1590SOL    HW116232   1.861   2.036   2.738  0.1238 -0.1169 -1.2977
 1590SOL    HW216233   1.845   2.152   2.647 -0.2229 -0.3913 -0.4773
 1591SOL     OW16234   1.545   0.691   9.546  0.5227  0.2293  0.3874
 1591SOL    HW116235   1.575   0.644   9.468  1.7658  2.1001 -0.2661
 1591SOL    HW216236   1.580   0.631   9.611  0.1566  0.1697  0.5275
 1592SOL     OW16237   4.119   2.267   6.956  0.5118  0.3714 -0.0443
 1592SOL    HW116238   4.062   2.305   7.023  0.8253  1.8704 -0.6222
 1592SOL    HW216239   4.159   2.196   7.006  2.0476  0.3958 -1.2390
 1593SOL     OW16240   2.970   0.977  16.638 -0.0709  0.3823 -0.4068
 1593SOL    HW116241   3.054   1.023  16.634  1.3136 -2.1913 -1.2979
 1593SOL    HW216242   2.931   1.017  16.716 -3.1310 -0.0937 -1.6726
 1594SOL     OW16243   2.116   4.137  15.299 -0.0451 -0.0808  0.5789
 1594SOL    HW116244   2.118   4.126  15.394  1.8595  2.9281  0.8906
 1594SOL    HW216245   2.160   4.222  15.297  1.0363 -0.6138  1.4904
 1595SOL     OW16246   0.511   3.790   6.687  0.2419  0.7710 -0.3284
 1595SOL    HW116247   0.451   3.856   6.723  0.6186  0.4808  0.8375
 1595SOL    HW216248   0.540   3.837   6.609 -0.8372  0.8718 -0.6745
 1596SOL     OW16249   1.482   3.330  12.990 -0.3296  0.5034  0.5449
 1596SOL    HW116250   1.423   3.406  12.990  1.4690  1.9013  0.0331
 1596SOL    HW216251   1.430   3.258  12.955  1.4846 -1.0314  0.9627
 1597SOL     OW16252   4.140   1.688   7.139  0.1057 -0.5969  0.3230
 1597SOL    HW116253   4.136   1.768   7.190  2.5407  0.0469 -0.4512
 1597SOL    HW216254   4.059   1.651   7.173  0.2574 -0.3304  0.9681
 1598SOL     OW16255   3.762   0.525   3.984  0.0583 -0.6611 -0.2553
 1598SOL    HW116256   3.751   0.523   3.889 -2.5316  0.9409  0.0112
 1598SOL    HW216257   3.679   0.568   4.008  1.4949  1.2257  1.3222
 1599SOL     OW16258   0.490   2.570   4.941  0.1273  0.1475  0.2309
 1599SOL    HW116259   0.447   2.518   5.009  2.8902 -0.7031  1.3332
 1599SOL    HW216260   0.493   2.512   4.866  0.7879  0.7434 -0.2140
 1600SOL     OW16261   4.189   3.649   2.866  0.2286  0.0497 -1.0265
 1600SOL    HW116262   4.211   3.737   2.836  3.6070 -0.5423 -0.3680
 1600SOL    HW216263   4.097   3.657   2.889  0.9655  1.6362  1.2767
 1601SOL     OW16264   1.200   4.481   3.205  0.2498 -0.3594 -0.5137
 1601SOL    HW116265   1.261   4.517   3.140  1.8969 -0.4283  0.9939
 1601SOL    HW216266   1.118   4.497   3.160  0.9579  1.6300 -1.1006
 1602SOL     OW16267   0.626   4.691  10.720 -0.1548 -0.8135  0.1648
 1602SOL    HW116268   0.533   4.671  10.710 -0.2051 -0.9109  0.8256
 1602SOL    HW216269   0.641   4.669  10.812 -0.7526  0.4217  0.5719
 1603SOL     OW16270   0.834   2.053   7.485  0.1793  0.3874 -0.7790
 1603SOL    HW116271   0.780   2.035   7.562 -0.5826  1.8490 -0.9628
 1603SOL    HW216272   0.806   1.985   7.425 -0.9351  1.3754 -1.3860
 1604SOL     OW16273   2.109   3.757   5.506  0.0847  0.3069  0.0114
 1604SOL    HW116274   2.146   3.845   5.518  0.2235  0.0200  1.6334
 1604SOL    HW216275   2.057   3.769   5.427  1.4918  2.6420 -0.5766
 1605SOL     OW16276   4.572   0.444   3.648  0.1139  0.2993 -0.4716
 1605SOL    HW116277   4.602   0.499   3.576  0.8527 -1.4150 -1.4777
 1605SOL    HW216278   4.528   0.374   3.600  0.7303 -0.7742  0.5189
 1606SOL     OW16279   4.402   3.254   2.233  0.7493  0.0045 -0.4982
 1606SOL    HW116280   4.496   3.266   2.244  0.7976 -0.8647 -0.0233
 1606SOL    HW216281   4.387   3.268   2.139  0.3272  0.2643 -0.3950
 1607SOL     OW16282   0.720   1.031  11.896 -0.2178 -0.3454  0.0575
 1607SOL    HW116283   0.650   1.021  11.833 -1.1197  1.0536  0.8564
 1607SOL    HW216284   0.720   0.938  11.921  2.3789 -0.0722  1.1123
 1608SOL     OW16285   2.197   1.960   9.483 -0.3430  0.5824  0.3978
 1608SOL    HW116286   2.134   1.913   9.428  0.3450 -0.5025  0.5195
 1608SOL    HW216287   2.179   2.051   9.461  0.8988  0.7457  0.0604
 1609SOL     OW16288   0.382   2.092  17.561  0.8069  0.3561 -0.3358
 1609SOL    HW116289   0.422   2.116  17.477  0.3489  1.3626 -0.2558
 1609SOL    HW216290   0.300   2.141  17.556  0.7397  0.4092  1.6221
 1610SOL     OW16291   3.824   0.448  16.873 -0.4595  0.1521  0.0225
 1610SOL    HW116292   3.887   0.428  16.942  0.1884  1.9704 -0.0545
 1610SOL    HW216293   3.798   0.357  16.857  1.2051 -0.1186 -1.1120
 1611SOL     OW16294   3.480   4.463   6.911  0.0277  0.2182 -0.3752
 1611SOL    HW116295   3.437   4.518   6.977 -0.0235  0.0112 -0.2385
 1611SOL    HW216296   3.525   4.405   6.971 -2.5001 -0.5262  0.7725
 1612SOL     OW16297   2.533   1.745   5.841  0.4968  0.1117  0.1170
 1612SOL    HW116298   2.519   1.667   5.788 -1.5362  0.6238 -0.1078
 1612SOL    HW216299   2.506   1.706   5.925  0.9261  0.1028  0.2513
 1613SOL     OW16300   4.185   3.688  11.175  0.0194 -0.0055 -0.4030
 1613SOL    HW116301   4.252   3.631  11.135  0.7930  2.5222 -2.7131
 1613SOL    HW216302   4.116   3.625  11.196  0.9598 -0.3966  1.5073
 1614SOL     OW16303   0.551   0.046   6.365 -0.3113  0.4272  0.0740
 1614SOL    HW116304   0.523   4.680   6.348 -2.2237  0.9365  0.5579
 1614SOL    HW216305   0.643   0.041   6.338 -0.1649 -1.2768  0.9282
 1615SOL     OW16306   3.647   2.505   4.527  0.5791 -0.1062 -0.1032
 1615SOL    HW116307   3.696   2.423   4.535 -0.4015 -0.8251 -1.4031
 1615SOL    HW216308   3.648   2.544   4.614 -0.1538 -0.9519  0.2891
 1616SOL     OW16309   1.342   2.321   1.866 -0.1470 -0.6142 -0.5044
 1616SOL    HW116310   1.249   2.342   1.860  0.0893  0.7311  0.5768
 1616SOL    HW216311   1.345   2.233   1.903  1.7887 -0.6111 -0.6218
 1617SOL     OW16312   4.645   3.402   3.259 -0.5028  0.2819 -0.3765
 1617SOL    HW116313   0.007   3.390   3.301 -2.6971 -3.1151  3.1702
 1617SOL    HW216314   4.585   3.371   3.328  0.0953 -1.4873 -0.6457
 1618SOL     OW16315   0.113   2.038   9.099  0.4245  0.1348 -0.2504
 1618SOL    HW116316   0.157   2.119   9.075 -3.8419  2.3913 -0.5447
 1618SOL    HW216317   0.031   2.074   9.134 -0.8331 -0.6515 -2.3418
 1619SOL     OW16318   2.446   0.078   6.455  0.7198  0.2927  0.0004
 1619SOL    HW116319   2.424   0.143   6.521  2.7971 -0.1489  1.1056
 1619SOL    HW216320   2.493   0.016   6.511  0.1344 -0.1216  0.0308
 1620SOL     OW16321   1.922   4.586   9.895  0.4538 -0.5734  0.2502
 1620SOL    HW116322   1.901   4.566   9.986 -0.3075 -0.2293  0.1475
 1620SOL    HW216323   1.833   4.595   9.861  0.1468  0.1067  1.2304
 1621SOL     OW16324   4.479   3.532   8.463 -0.2270  0.5664 -0.4773
 1621SOL    HW116325   4.502   3.625   8.470 -0.4565  0.5304  0.6431
 1621SOL    HW216326   4.443   3.524   8.374 -0.5715  1.7050 -0.4405
 1622SOL     OW16327   2.306   0.719   0.095 -0.2583  0.4994  0.2895
 1622SOL    HW116328   2.293   0.655   0.165  0.4832  0.3493  0.2843
 1622SOL    HW216329   2.256   0.791   0.133 -1.8648 -2.1390  3.2099
 1623SOL     OW16330   2.691   2.789   8.648  0.4942  0.0200 -0.3128
 1623SOL    HW116331   2.666   2.697   8.642  0.8732 -0.2606  2.8876
 1623SOL    HW216332   2.677   2.819   8.558  0.2361 -4.1916 -1.6682
 1624SOL     OW16333   1.765   0.646   6.323  0.4100 -0.2743  0.7632
 1624SOL    HW116334   1.672   0.660   6.306  1.1435  0.5163 -2.6146
 1624SOL    HW216335   1.788   0.655   6.231 -0.9233  0.6132  0.5118
 1625SOL     OW16336   4.327   1.771   4.626  0.1670 -0.0812  0.1131
 1625SOL    HW116337   4.338   1.706   4.696  0.6306 -0.4422 -0.3001
 1625SOL    HW216338   4.240   1.761   4.588 -0.4099  0.3586  1.3029
 1626SOL     OW16339   1.537   1.975   9.216 -0.0853  0.3002  0.0297
 1626SOL    HW116340   1.613   1.976   9.275 -2.4450 -1.3619  3.0946
 1626SOL    HW216341   1.488   2.044   9.261  1.0591  1.6681 -0.7976
 1627SOL     OW16342   2.041   3.042  14.104  0.2614 -0.2840 -0.7687
 1627SOL    HW116343   1.997   3.126  14.099  2.9335  1.0204 -2.7784
 1627SOL    HW216344   2.135   3.061  14.104  0.1719  0.1546 -0.4361
 1628SOL     OW16345   4.232   0.825   3.552  0.7277  0.9750  0.0688
 1628SOL    HW116346   4.249   0.731   3.550 -1.0576  0.6662 -1.6025
 1628SOL    HW216347   4.248   0.850   3.461 -1.1568  0.7457 -0.3324
 1629SOL     OW16348   1.593   3.834   3.937  0.4750  0.0885  1.0628
 1629SOL    HW116349   1.606   3.839   3.842  0.4786  0.4169  1.0829
 1629SOL    HW216350   1.534   3.908   3.947 -1.3663 -0.8724 -2.5201
 1630SOL     OW16351   2.647   3.391   9.809 -0.4001  0.3046  0.0371
 1630SOL    HW116352   2.599   3.453   9.863  0.3696  1.1294 -0.2177
 1630SOL    HW216353   2.600   3.313   9.838 -1.9682  0.7004 -1.4057
 1631SOL     OW16354   3.761   1.694   7.749 -0.2222  0.0481 -0.2131
 1631SOL    HW116355   3.747   1.788   7.745 -0.5336  0.0631  1.1867
 1631SOL    HW216356   3.817   1.689   7.827  1.9322  1.5394 -1.6827
 1632SOL     OW16357   3.987   0.213  17.585  0.1361  0.4337 -0.7337
 1632SOL    HW116358   3.898   0.178  17.587 -1.2378  3.8410 -2.1833
 1632SOL    HW216359   3.963   0.303  17.564  0.6823  0.8882  0.5930
 1633SOL     OW16360   0.407   3.171   3.568 -0.2509 -0.1590 -0.3641
 1633SOL    HW116361   0.402   3.261   3.536  0.6070 -0.4486 -1.3132
 1633SOL    HW216362   0.451   3.189   3.651 -0.2362 -2.0818  0.0532
 1634SOL     OW16363   0.673   1.119   2.023  0.4541 -0.2120  0.0682
 1634SOL    HW116364   0.736   1.145   1.955 -1.6751  2.4964 -0.8433
 1634SOL    HW216365   0.652   1.206   2.057 -0.3587  0.6918 -2.6873
 1635SOL     OW16366   0.080   3.412   0.267 -0.1823 -0.1013 -0.1545
 1635SOL    HW116367   0.089   3.321   0.295  1.7209  0.1462  0.0210
 1635SOL    HW216368   0.055   3.455   0.348 -0.7005 -2.8810  1.1599
 1636SOL     OW16369   1.438   4.621   2.405 -0.4482 -0.2469 -0.4079
 1636SOL    HW116370   1.496   4.609   2.481 -0.9046 -0.5163 -0.1062
 1636SOL    HW216371   1.498   4.596   2.335  1.5677  1.4894  0.6777
 1637SOL     OW16372   2.406   1.055   9.482 -0.2591  0.3537  0.1003
 1637SOL    HW116373   2.445   1.070   9.568  2.3397 -1.4440 -0.7759
 1637SOL    HW216374   2.313   1.059   9.504 -0.1092  1.8203  0.4567
 1638SOL     OW16375   2.350   3.812   5.728 -0.6741  0.1929 -0.2371
 1638SOL    HW116376   2.306   3.889   5.766  0.9565  0.8242  0.3761
 1638SOL    HW216377   2.439   3.847   5.718 -0.6286  0.1871  0.1259
 1639SOL     OW16378   1.502   4.446   4.353  0.3800 -0.4099 -0.0609
 1639SOL    HW116379   1.489   4.355   4.326 -1.0125  0.1324 -1.2592
 1639SOL    HW216380   1.413   4.464   4.383  1.0561  2.2466  0.3355
 1640SOL     OW16381   4.670   0.533   5.520  0.1193 -0.7104 -0.3311
 1640SOL    HW116382   4.579   0.510   5.540  0.2110 -0.9641 -0.1930
 1640SOL    HW216383   4.717   0.468   5.572 -1.8080 -0.6106  1.5710
 1641SOL     OW16384   1.431   0.092   7.511 -0.3413 -0.5452 -0.0777
 1641SOL    HW116385   1.453   0.076   7.419  0.7107  0.1192  0.0590
 1641SOL    HW216386   1.511   0.131   7.545  0.9134 -1.4059 -2.0739
 1642SOL     OW16387   0.937   1.341   4.854  0.1983  0.0528  0.1717
 1642SOL    HW116388   1.013   1.354   4.911 -0.6120 -0.0586  1.2782
 1642SOL    HW216389   0.871   1.302   4.911 -1.4513  0.3251 -1.5853
 1643SOL     OW16390   0.381   1.352   4.555 -0.1817 -1.0059  0.0873
 1643SOL    HW116391   0.296   1.310   4.563 -0.4021 -0.6274 -0.2708
 1643SOL    HW216392   0.366   1.370   4.462  0.4706 -0.2231  0.1333
 1644SOL     OW16393   4.661   3.751   2.089 -0.1058  0.4009  0.5087
 1644SOL    HW116394   4.659   3.669   2.139  0.4904  1.4588  2.2316
 1644SOL    HW216395   4.628   3.721   2.004 -1.8387  1.1981  0.8919
 1645SOL     OW16396   3.900   2.690   3.807  0.6326  0.4530 -0.3804
 1645SOL    HW116397   3.890   2.603   3.846 -1.5102  1.3757  1.0968
 1645SOL    HW216398   3.813   2.722   3.827  1.5153  0.9413  2.5581
 1646SOL     OW16399   0.779   1.325   8.916  0.0098  0.4498 -0.3233
 1646SOL    HW116400   0.804   1.417   8.924 -0.4173  0.1743  3.8810
 1646SOL    HW216401   0.867   1.290   8.925 -0.0867 -0.1362 -1.5617
 1647SOL     OW16402   3.120   4.568   7.575  0.0922  0.4834  0.5896
 1647SOL    HW116403   3.166   4.647   7.547  0.2370 -0.3106 -1.3927
 1647SOL    HW216404   3.152   4.572   7.665  0.5086 -1.5402  0.5348
 1648SOL     OW16405   2.062   0.572   2.409 -0.1358 -0.5727 -0.3165
 1648SOL    HW116406   1.990   0.633   2.422  0.6005  0.5853 -1.7577
 1648SOL    HW216407   2.118   0.589   2.485 -1.3542  0.6328  0.3098
 1649SOL     OW16408   4.213   4.550   4.689 -0.0321  0.4978  0.2307
 1649SOL    HW116409   4.204   4.457   4.671 -3.3883  0.6113  1.3748
 1649SOL    HW216410   4.120   4.568   4.706  0.2596  2.7180 -0.4401
 1650SOL     OW16411   2.248   4.130  17.208 -0.3072  0.0970  0.0134
 1650SOL    HW116412   2.239   4.084  17.124 -1.7472  1.6993 -0.7045
 1650SOL    HW216413   2.325   4.082  17.240  0.8073  1.3609 -0.7710
 1651SOL     OW16414   4.482   2.903  16.738  0.0049  0.0202  0.2050
 1651SOL    HW116415   4.428   2.839  16.691 -0.1455  1.2335 -1.2630
 1651SOL    HW216416   4.443   2.903  16.825 -1.8630 -0.9907 -0.6263
 1652SOL     OW16417   2.012   2.996   3.878  0.1452 -0.1239 -0.2122
 1652SOL    HW116418   2.060   3.052   3.818 -0.0150 -1.2723 -1.4140
 1652SOL    HW216419   1.923   2.995   3.842 -0.2196  0.0174  0.6950
 1653SOL     OW16420   0.221   0.378   4.426  0.5863 -0.4791 -0.0255
 1653SOL    HW116421   0.296   0.432   4.401 -0.1758  1.2561  1.4195
 1653SOL    HW216422   0.259   0.292   4.445 -1.1841 -0.8271  1.9039
 1654SOL     OW16423   3.975   3.170  15.455  0.8049  0.1655  0.3102
 1654SOL    HW116424   3.919   3.216  15.517 -1.5643  0.3777 -1.9746
 1654SOL    HW216425   3.932   3.084  15.449  0.7531  0.1535  0.9107
 1655SOL     OW16426   4.572   1.644   1.943 -0.1824  0.2684  0.0370
 1655SOL    HW116427   4.574   1.622   1.850  1.9093  2.2908 -0.4025
 1655SOL    HW216428   4.660   1.681   1.952 -0.8018  1.4279  1.2114
 1656SOL     OW16429   0.899   3.013   8.445  0.2314  0.0415 -0.4054
 1656SOL    HW116430   0.812   3.052   8.453  1.1383  1.8754  0.5119
 1656SOL    HW216431   0.890   2.938   8.385 -1.3048  0.6581 -0.9609
 1657SOL     OW16432   4.611   2.132   4.008 -0.3392  0.2051  0.1823
 1657SOL    HW116433   4.559   2.145   3.929 -1.1984 -0.6399  0.6133
 1657SOL    HW216434   4.545   2.087   4.061 -0.7579  0.4717 -0.1194
 1658SOL     OW16435   0.320   2.918   0.805  0.6564 -0.2963 -0.0244
 1658SOL    HW116436   0.292   2.830   0.782  0.2207 -0.3154  0.5675
 1658SOL    HW216437   0.273   2.969   0.740 -0.1563 -0.1165  0.7024
 1659SOL     OW16438   0.375   4.631  16.459  0.0008  0.1340 -0.1180
 1659SOL    HW116439   0.391   4.710  16.509  1.3886  0.9500 -1.8620
 1659SOL    HW216440   0.282   4.650  16.442 -0.5166 -1.2870  1.1241
 1660SOL     OW16441   2.723   3.441   4.804  0.5352 -0.3812 -0.2977
 1660SOL    HW116442   2.643   3.486   4.778 -1.3594 -2.5806  1.6988
 1660SOL    HW216443   2.698   3.396   4.885  0.9045  0.0592  0.0578
 1661SOL     OW16444   1.431   3.937   3.665 -0.0469  0.1204  0.2368
 1661SOL    HW116445   1.412   3.994   3.739 -0.4677  1.6341 -1.0272
 1661SOL    HW216446   1.481   3.984   3.599  0.2663 -0.8606 -0.2172
 1662SOL     OW16447   2.580   3.710   6.536 -0.0856  0.3424  0.4166
 1662SOL    HW116448   2.639   3.694   6.462 -1.4552  1.5395 -0.9235
 1662SOL    HW216449   2.503   3.749   6.494  0.1966  2.4016  1.8151
 1663SOL     OW16450   2.492   1.727   2.900 -0.1081 -0.2017 -0.8745
 1663SOL    HW116451   2.495   1.655   2.963  2.2740  1.7831  1.2958
 1663SOL    HW216452   2.455   1.684   2.823  1.1720 -0.8811 -1.1184
 1664SOL     OW16453   2.842   1.284   2.541 -0.1933 -0.1743 -0.7676
 1664SOL    HW116454   2.935   1.268   2.525 -0.1113 -2.5978  2.2733
 1664SOL    HW216455   2.837   1.367   2.589  1.2137 -0.9617  0.7269
 1665SOL     OW16456   1.571   1.134   9.255 -0.0259  0.2646 -0.6283
 1665SOL    HW116457   1.507   1.199   9.228 -0.4068 -0.3173 -1.1476
 1665SOL    HW216458   1.534   1.056   9.213 -0.4390  0.1353 -0.0315
 1666SOL     OW16459   0.890   4.090   0.640  0.4052  0.2163  0.0534
 1666SOL    HW116460   0.803   4.124   0.619  0.4063  1.4083  1.9564
 1666SOL    HW216461   0.867   4.028   0.710  0.0380 -0.0578 -0.3045
 1667SOL     OW16462   3.382   4.587   3.382  0.1225 -0.2879  0.3094
 1667SOL    HW116463   3.325   4.655   3.418  0.2364  1.0015 -1.9274
 1667SOL    HW216464   3.353   4.600   3.292 -2.2371  0.6503  1.1890
 1668SOL     OW16465   0.568   3.744  17.582  0.3100  0.1845 -0.2129
 1668SOL    HW116466   0.538   3.666  17.535 -0.6417  0.8944 -0.7832
 1668SOL    HW216467   0.496   3.804  17.562 -0.0724 -0.1166  0.2629
 1669SOL     OW16468   0.651   4.163   3.144  0.0062  0.1432 -0.1103
 1669SOL    HW116469   0.702   4.201   3.072  1.4712 -0.6183  0.5398
 1669SOL    HW216470   0.641   4.074   3.109  0.9019  0.4390 -1.1232
 1670SOL     OW16471   1.044   4.342   5.230 -0.5665  0.5794  0.5772
 1670SOL    HW116472   0.960   4.375   5.200  0.4553 -0.0400 -2.9597
 1670SOL    HW216473   1.056   4.392   5.311  2.5002 -1.2678  1.2977
 1671SOL     OW16474   3.895   0.478  11.772 -0.4123  0.1250  0.0763
 1671SOL    HW116475   3.810   0.435  11.774 -0.0934 -0.5090  0.1420
 1671SOL    HW216476   3.916   0.461  11.680  0.2152  1.6905 -0.0694
 1672SOL     OW16477   0.208   1.947  12.548  0.4071  0.0294 -0.3089
 1672SOL    HW116478   0.290   1.957  12.597 -0.1857 -0.1049  0.7100
 1672SOL    HW216479   0.211   2.022  12.487  1.7023  0.3513  0.1394
 1673SOL     OW16480   0.199   2.413   1.419  0.0697  0.6976 -0.2138
 1673SOL    HW116481   0.106   2.422   1.441 -0.4408  0.1539 -2.1084
 1673SOL    HW216482   0.229   2.360   1.492  0.9357  1.2792 -0.1429
 1674SOL     OW16483   2.273   4.070   1.035  0.1663 -0.0585  0.1499
 1674SOL    HW116484   2.326   4.118   0.972  0.4392 -0.9693 -0.3061
 1674SOL    HW216485   2.211   4.141   1.053  0.2530 -0.6729  2.8592
 1675SOL     OW16486   3.161   1.632   2.462 -0.0451 -0.2698  0.0329
 1675SOL    HW116487   3.089   1.639   2.399 -0.4135 -1.1882  0.3492
 1675SOL    HW216488   3.211   1.712   2.444  0.6829 -0.7706 -0.1917
 1676SOL     OW16489   3.117   1.005   7.397 -0.1259  0.0397  0.7357
 1676SOL    HW116490   3.034   0.987   7.440  0.9941  0.0549  2.9246
 1676SOL    HW216491   3.087   1.018   7.307  0.6663  0.0375  0.4659
 1677SOL     OW16492   1.438   0.036   2.771 -0.3721 -0.9304  0.3943
 1677SOL    HW116493   1.475   4.713   2.696  1.6847 -1.8717  2.0103
 1677SOL    HW216494   1.463   0.129   2.765 -1.8094 -0.5092  0.7449
 1678SOL     OW16495   1.316   3.342   7.279  0.0018 -0.0867 -0.0690
 1678SOL    HW116496   1.303   3.292   7.199  0.4866  0.3143 -0.3995
 1678SOL    HW216497   1.400   3.387   7.264  0.4993 -0.8882  0.3214
 1679SOL     OW16498   1.731   3.144   8.316 -0.9872  0.0887 -0.1173
 1679SOL    HW116499   1.722   3.127   8.410 -1.0068 -2.0203 -0.4935
 1679SOL    HW216500   1.680   3.224   8.313  2.3007  2.1746 -1.0725
 1680SOL     OW16501   4.240   4.717   3.402  0.5799  0.6859  0.0276
 1680SOL    HW116502   4.293   4.685   3.475  0.6374  0.2416 -0.2103
 1680SOL    HW216503   4.201   4.634   3.375 -1.8828  1.3190  1.6185
 1681SOL     OW16504   2.150   1.655   1.043  0.0045 -0.0039  0.5330
 1681SOL    HW116505   2.189   1.656   1.131  0.5103  1.3042  0.2972
 1681SOL    HW216506   2.235   1.644   0.999  1.4821 -1.3923  3.7017
 1682SOL     OW16507   4.591   4.308   0.609  0.3411 -0.1370  0.3082
 1682SOL    HW116508   4.645   4.367   0.661 -0.4215  0.1106  0.8322
 1682SOL    HW216509   4.504   4.349   0.607  0.1519 -0.5479  0.0078
 1683SOL     OW16510   0.830   2.133   8.971  0.3895 -0.1526  0.2301
 1683SOL    HW116511   0.850   2.181   9.051 -1.2247  0.9867 -0.0534
 1683SOL    HW216512   0.880   2.052   8.984  1.2660 -0.2610 -3.6938
 1684SOL     OW16513   2.609   4.338   2.597 -0.4502 -0.2472 -0.5344
 1684SOL    HW116514   2.591   4.415   2.543  0.6520  0.4748  0.1449
 1684SOL    HW216515   2.540   4.351   2.662  2.3773  1.4544  2.1323
 1685SOL     OW16516   0.604   2.101   9.492 -0.1591 -0.2444  0.9059
 1685SOL    HW116517   0.577   2.062   9.576 -1.5419  0.6010  0.8588
 1685SOL    HW216518   0.533   2.159   9.467  1.6852  1.1222 -1.1244
 1686SOL     OW16519   2.225   1.692  15.000 -0.5059  0.3593 -0.2108
 1686SOL    HW116520   2.142   1.738  15.013 -0.9579 -0.8698  1.2618
 1686SOL    HW216521   2.251   1.647  15.080 -2.5203 -1.0151 -0.3381
 1687SOL     OW16522   1.570   3.418  13.928 -0.2931 -0.2285  0.9051
 1687SOL    HW116523   1.601   3.503  13.898 -3.6394  0.2045 -1.3874
 1687SOL    HW216524   1.476   3.439  13.925 -0.6130 -1.6484  1.0201
 1688SOL     OW16525   2.042   4.100   2.691  0.2673 -0.0418 -0.1484
 1688SOL    HW116526   2.120   4.048   2.711  0.4393  0.5474  0.7129
 1688SOL    HW216527   2.009   4.066   2.608 -1.6610 -0.4606  0.7937
 1689SOL     OW16528   3.858   0.219   3.073 -0.0982 -0.6023 -0.0756
 1689SOL    HW116529   3.821   0.296   3.116  0.1020  0.2656 -1.4331
 1689SOL    HW216530   3.844   0.148   3.135 -2.6506 -1.2602 -1.3892
 1690SOL     OW16531   2.126   3.646  10.229 -0.1908  0.0844  0.5942
 1690SOL    HW116532   2.039   3.645  10.269 -0.9759  0.6218 -1.1103
 1690SOL    HW216533   2.167   3.564  10.255 -1.8568 -1.0798 -0.5146
 1691SOL     OW16534   3.793   2.564  12.434  0.0298 -0.8650  0.3203
 1691SOL    HW116535   3.715   2.555  12.379  0.0922 -1.9751  0.4174
 1691SOL    HW216536   3.859   2.506  12.396 -0.5464  0.6891 -3.0047
 1692SOL     OW16537   1.020   0.280  10.327  0.5819  0.1433  0.4751
 1692SOL    HW116538   1.042   0.195  10.364 -0.7026 -0.3658  0.0526
 1692SOL    HW216539   1.065   0.328  10.398 -0.8431  0.2346  1.3122
 1693SOL     OW16540   1.630   2.862   7.359 -0.0731  0.5542 -0.0609
 1693SOL    HW116541   1.615   2.814   7.440 -0.0613 -0.0460 -0.4138
 1693SOL    HW216542   1.705   2.816   7.321 -1.4522 -0.2500 -1.8337
 1694SOL     OW16543   4.534   0.436   8.569 -0.0040  0.2100  0.0798
 1694SOL    HW116544   4.487   0.500   8.516  1.3051  0.2998 -0.9710
 1694SOL    HW216545   4.586   0.489   8.629  0.1800 -0.9298  0.9285
 1695SOL     OW16546   0.209   3.205   5.271 -0.0106 -0.4819 -0.0503
 1695SOL    HW116547   0.158   3.213   5.190  0.5571  2.6055 -0.0999
 1695SOL    HW216548   0.165   3.266   5.330 -1.7390  0.1695 -2.0150
 1696SOL     OW16549   2.004   0.343   0.056 -0.0557 -0.3388 -0.0217
 1696SOL    HW116550   1.927   0.343   0.113  0.7755  1.0629  1.0961
 1696SOL    HW216551   1.962   0.389  17.679 -0.5634 -1.2383 -0.3041
 1697SOL     OW16552   0.334   1.698   7.857 -0.5336 -0.0880  0.6818
 1697SOL    HW116553   0.339   1.746   7.940 -2.0242  0.1545  0.6189
 1697SOL    HW216554   0.333   1.768   7.791  3.8604 -0.3692  0.2708
 1698SOL     OW16555   0.195   2.275   4.461  0.5242 -0.2060 -0.6130
 1698SOL    HW116556   0.100   2.266   4.447  0.6964 -0.1828 -1.7923
 1698SOL    HW216557   0.228   2.187   4.443 -0.3456 -0.9947  1.6922
 1699SOL     OW16558   2.590   0.609  10.613 -0.2698  0.2827  0.2232
 1699SOL    HW116559   2.669   0.594  10.665 -0.8705  1.2317  1.4103
 1699SOL    HW216560   2.595   0.538  10.549  0.7905  0.3153  0.2762
 1700SOL     OW16561   1.772   3.650  14.136  0.1367  0.1475  0.2837
 1700SOL    HW116562   1.865   3.632  14.150 -0.2431 -1.3506  0.9203
 1700SOL    HW216563   1.739   3.563  14.157  0.9985 -0.0671  0.7490
 1701SOL     OW16564   2.375   0.130   5.391 -0.5003  0.5397 -0.5042
 1701SOL    HW116565   2.301   0.120   5.330  0.9602  4.4197 -2.8965
 1701SOL    HW216566   2.433   0.187   5.341  0.4389  1.3279  1.4813
 1702SOL     OW16567   3.045   3.543   8.255  0.5315  0.0426 -0.0151
 1702SOL    HW116568   2.987   3.589   8.316  0.7670  2.1592 -1.3788
 1702SOL    HW216569   3.027   3.452   8.279 -0.2830  0.1688 -0.1331
 1703SOL     OW16570   0.499   3.696  11.447  0.0571  0.7246  0.2504
 1703SOL    HW116571   0.588   3.665  11.462 -0.1599 -0.3260 -0.5842
 1703SOL    HW216572   0.453   3.634  11.390  1.3433  0.1848 -0.1946
 1704SOL     OW16573   4.413   2.751   4.732 -0.2973 -0.1077  0.0578
 1704SOL    HW116574   4.328   2.757   4.775  0.4601 -0.1205  1.5525
 1704SOL    HW216575   4.430   2.657   4.732  1.4068  0.2024 -1.2534
 1705SOL     OW16576   0.421   1.028   5.971 -0.1122  0.5643 -0.1610
 1705SOL    HW116577   0.382   0.982   6.046 -1.5901 -0.6262 -1.6535
 1705SOL    HW216578   0.344   1.073   5.938 -0.2151  0.7554  0.3357
 1706SOL     OW16579   2.974   4.638  10.912  0.4682  0.3007  0.3005
 1706SOL    HW116580   3.059   4.637  10.955  0.4002 -0.5205  0.4004
 1706SOL    HW216581   2.942   0.004  10.925  1.2086  0.4681  0.9909
 1707SOL     OW16582   0.843   0.788   8.624  0.8960 -0.2914 -0.5770
 1707SOL    HW116583   0.772   0.832   8.577 -1.3145  0.3382  3.2848
 1707SOL    HW216584   0.796   0.706   8.641  0.9465 -0.3818 -0.8892
 1708SOL     OW16585   1.911   1.941   1.880  0.3750  0.4017  0.2603
 1708SOL    HW116586   1.996   1.979   1.855  0.2977  0.2527 -0.2395
 1708SOL    HW216587   1.844   1.980   1.824  2.1760  1.3029 -1.2631
 1709SOL     OW16588   2.839   2.290   8.276  1.0549 -0.2081  0.2266
 1709SOL    HW116589   2.902   2.218   8.284 -0.9125 -1.7538  2.0478
 1709SOL    HW216590   2.761   2.249   8.315  0.7648  0.6943  0.5920
 1710SOL     OW16591   2.858   3.087   7.330  0.6518  0.1415  0.4200
 1710SOL    HW116592   2.833   3.118   7.417  3.5852  1.0536  0.9668
 1710SOL    HW216593   2.950   3.063   7.343  1.1266  1.5625 -0.3393
 1711SOL     OW16594   2.656   0.590   7.132 -0.5307  0.0377  0.1924
 1711SOL    HW116595   2.661   0.686   7.130 -1.9929  0.0575 -2.1711
 1711SOL    HW216596   2.716   0.569   7.204 -0.4291 -0.9433 -0.1810
 1712SOL     OW16597   4.358   0.852   1.466  0.9517  0.1274  0.7073
 1712SOL    HW116598   4.263   0.864   1.478  0.7653  0.3904 -0.9361
 1712SOL    HW216599   4.359   0.817   1.377 -0.2805 -0.6589  0.9920
 1713SOL     OW16600   2.690   0.292   3.769 -0.2641 -0.2853  0.2660
 1713SOL    HW116601   2.618   0.307   3.707  0.8525  0.2200 -0.9123
 1713SOL    HW216602   2.650   0.293   3.856 -1.2697  0.1463 -0.2009
 1714SOL     OW16603   4.149   0.162  16.135  0.1819 -0.1958  0.2478
 1714SOL    HW116604   4.208   0.154  16.210  0.3842  0.4542  0.1559
 1714SOL    HW216605   4.127   0.070  16.120 -0.7555  0.1648 -0.6331
 1715SOL     OW16606   1.655   2.161   7.499  0.0334  0.1508  0.6097
 1715SOL    HW116607   1.742   2.131   7.473 -0.5061  0.8482 -2.0432
 1715SOL    HW216608   1.595   2.106   7.449 -1.4676  1.2116  1.2673
 1716SOL     OW16609   3.464   3.340   7.015  0.2835 -0.5578  0.1095
 1716SOL    HW116610   3.467   3.417   6.958 -0.5228 -0.2526  0.4794
 1716SOL    HW216611   3.438   3.276   6.948 -0.5519  0.7624 -0.8101
 1717SOL     OW16612   2.042   3.881   3.688  0.4646 -0.4596 -0.2677
 1717SOL    HW116613   2.082   3.811   3.637 -0.0800 -0.8485 -0.1502
 1717SOL    HW216614   2.113   3.904   3.749  0.7748 -0.5287 -0.6019
 1718SOL     OW16615   0.115   1.154   5.609  0.1251 -0.1847  0.6829
 1718SOL    HW116616   0.157   1.136   5.525 -0.2934 -2.7641  1.0043
 1718SOL    HW216617   0.063   1.231   5.586 -1.3484 -1.5997 -0.7963
 1719SOL     OW16618   3.863   3.336   8.558 -0.5341 -0.1797  0.5106
 1719SOL    HW116619   3.831   3.256   8.599  0.6806  0.4291  2.6422
 1719SOL    HW216620   3.884   3.298   8.472  0.8835  1.2584  0.2121
 1720SOL     OW16621   0.468   1.569  10.386 -0.0203 -0.0866 -0.3597
 1720SOL    HW116622   0.465   1.493  10.443  3.1545 -0.4389 -0.6328
 1720SOL    HW216623   0.417   1.625  10.444 -1.2838  0.7817 -2.3128
 1721SOL     OW16624   2.793   4.529   6.288  0.1863  0.4569 -0.1387
 1721SOL    HW116625   2.705   4.531   6.249 -0.2530  1.2035  0.8869
 1721SOL    HW216626   2.819   4.438   6.272  0.9919  0.7172 -0.3226
 1722SOL     OW16627   4.324   1.804   4.933  0.2844 -0.3209 -0.2943
 1722SOL    HW116628   4.238   1.771   4.907 -0.0469  0.0050  0.3890
 1722SOL    HW216629   4.367   1.720   4.954  1.2235 -0.0907 -1.3171
 1723SOL     OW16630   3.402   3.215   7.253  0.2209  0.3741 -0.3489
 1723SOL    HW116631   3.362   3.137   7.216  0.5367 -0.8787  1.9172
 1723SOL    HW216632   3.433   3.256   7.172 -1.0417 -1.7620 -1.9142
 1724SOL     OW16633   1.507   2.348  14.316  0.1184 -0.4098  0.2802
 1724SOL    HW116634   1.466   2.433  14.327  0.1172 -0.2241 -1.1182
 1724SOL    HW216635   1.463   2.303  14.388  1.0737 -0.8768  0.5732
 1725SOL     OW16636   3.628   4.273  11.297 -0.4583  0.2457  0.2088
 1725SOL    HW116637   3.671   4.314  11.222  0.8390  1.0162  1.3595
 1725SOL    HW216638   3.629   4.181  11.272 -0.0309 -0.0783  1.3937
 1726SOL     OW16639   0.366   2.763   6.599  0.4393 -0.6239  0.2831
 1726SOL    HW116640   0.439   2.821   6.622  0.6469  0.1974 -2.4995
 1726SOL    HW216641   0.339   2.802   6.516  0.1859  0.1560  0.7319
 1727SOL     OW16642   4.031   0.542   4.733  0.1487 -0.2388  0.1138
 1727SOL    HW116643   3.960   0.477   4.730  1.4850 -1.8014  2.4808
 1727SOL    HW216644   3.984   0.614   4.774 -0.4190 -1.0153  0.8359
 1728SOL     OW16645   2.987   2.207   2.381 -0.2466  0.0938  0.8939
 1728SOL    HW116646   2.936   2.229   2.460 -0.8963 -1.7631  0.9885
 1728SOL    HW216647   3.070   2.254   2.392  0.6973 -0.8624 -2.4217
 1729SOL     OW16648   2.409   0.051   7.405 -0.4251  0.6245 -0.7672
 1729SOL    HW116649   2.484   4.716   7.417  0.5800  1.8888 -0.9234
 1729SOL    HW216650   2.438   0.114   7.339  0.1908  0.9950 -0.1437
 1730SOL     OW16651   2.297   2.078  10.773  0.0024  0.0277 -0.0200
 1730SOL    HW116652   2.206   2.102  10.754  0.4885  2.9486  1.2908
 1730SOL    HW216653   2.341   2.122  10.700 -1.1667  1.4353  0.1100
 1731SOL     OW16654   3.918   1.920   2.328  0.1948  0.4226 -0.0624
 1731SOL    HW116655   3.876   2.001   2.299  1.4990  0.4674 -1.7810
 1731SOL    HW216656   3.909   1.867   2.249  1.5382 -0.9432  0.6960
 1732SOL     OW16657   0.070   1.333   7.407  0.5074  0.0354 -0.4883
 1732SOL    HW116658   0.066   1.360   7.498  1.3083 -0.3555 -0.3331
 1732SOL    HW216659   0.136   1.264   7.410 -0.2080 -0.5631  1.5745
 1733SOL     OW16660   3.311   3.663   8.174 -0.0832  0.5932 -0.3199
 1733SOL    HW116661   3.365   3.585   8.185  0.1163  0.8149  0.2735
 1733SOL    HW216662   3.223   3.626   8.176 -0.6877  2.0950  0.8713
 1734SOL     OW16663   1.337   1.323   8.329 -0.6285  0.4035 -0.2571
 1734SOL    HW116664   1.376   1.264   8.264  0.7785  0.4859  0.5272
 1734SOL    HW216665   1.376   1.407   8.305  1.0686 -0.8048 -1.6904
 1735SOL     OW16666   4.274   2.717  17.484 -0.0080 -0.0069  0.2286
 1735SOL    HW116667   4.182   2.722  17.510 -0.2019 -0.1816 -0.4223
 1735SOL    HW216668   4.269   2.754  17.396 -3.7360 -0.8491  0.0803
 1736SOL     OW16669   1.691   4.097   5.557 -0.4086  0.4529  0.1760
 1736SOL    HW116670   1.761   4.080   5.620  0.8995  0.5319 -1.2672
 1736SOL    HW216671   1.689   4.010   5.516  0.8654  0.4588  0.1113
 1737SOL     OW16672   0.416   0.536   5.852 -0.2005 -0.5783 -0.5269
 1737SOL    HW116673   0.389   0.445   5.840  1.6805 -0.9159 -2.2619
 1737SOL    HW216674   0.350   0.573   5.911  1.1591 -1.0357  1.3065
 1738SOL     OW16675   0.202   4.493   4.795  0.4062  0.4053 -0.4644
 1738SOL    HW116676   0.156   4.440   4.729  2.0474  0.0982 -1.3527
 1738SOL    HW216677   0.229   4.570   4.746  0.6477  0.2705 -0.5411
 1739SOL     OW16678   1.314   1.246   9.940 -0.3190 -0.1816  0.2433
 1739SOL    HW116679   1.400   1.216   9.968  0.2685  0.9918 -0.2882
 1739SOL    HW216680   1.336   1.276   9.852 -3.0076 -0.9507 -0.6854
 1740SOL     OW16681   1.508   3.171  10.664 -0.1819 -0.5179  0.2358
 1740SOL    HW116682   1.502   3.170  10.759  1.6445  0.2793  0.3630
 1740SOL    HW216683   1.421   3.204  10.641  0.1128  0.6077  0.7274
 1741SOL     OW16684   0.792   0.915   8.892 -0.0252  0.0255 -0.2857
 1741SOL    HW116685   0.845   0.857   8.947  0.4114  0.9726  0.3095
 1741SOL    HW216686   0.802   0.881   8.804 -0.2312 -0.5274 -0.0941
 1742SOL     OW16687   4.587   0.951   8.906  0.8198 -0.0065 -0.1981
 1742SOL    HW116688   4.521   1.013   8.935  2.0224  0.8717  0.6713
 1742SOL    HW216689   4.552   0.893   8.838  1.7321 -0.5195 -0.2356
 1743SOL     OW16690   3.677   2.757   7.772 -0.2240 -0.6640  0.0217
 1743SOL    HW116691   3.694   2.813   7.696 -0.0489 -2.2744 -1.1018
 1743SOL    HW216692   3.634   2.826   7.823 -0.0140 -0.3518 -0.2259
 1744SOL     OW16693   0.602   0.675   9.029 -0.5143 -0.0962  0.0350
 1744SOL    HW116694   0.582   0.694   9.120  1.5419  2.8844 -0.1009
 1744SOL    HW216695   0.519   0.708   8.994 -0.8249 -1.6686 -0.6822
 1745SOL     OW16696   2.908   1.291   7.565 -0.1032 -0.0510 -0.0876
 1745SOL    HW116697   2.848   1.307   7.638  0.9119 -0.1554  0.7679
 1745SOL    HW216698   2.861   1.233   7.506  0.9944  0.3362 -1.3384
 1746SOL     OW16699   0.021   2.630   3.710 -0.4723  0.0164  0.1319
 1746SOL    HW116700   4.706   2.563   3.767  3.8287 -0.7696  2.1681
 1746SOL    HW216701   4.675   2.666   3.655 -1.3914  0.1647  1.4017
 1747SOL     OW16702   4.098   4.418  16.300 -0.3846 -0.3943  0.1208
 1747SOL    HW116703   4.157   4.343  16.290 -0.6305 -0.5429 -0.1935
 1747SOL    HW216704   4.135   4.485  16.243  1.8037  0.2718  2.2860
 1748SOL     OW16705   1.454   1.357   4.048  0.6598  0.0889  0.4310
 1748SOL    HW116706   1.476   1.274   4.090  3.3793  0.1241 -0.9390
 1748SOL    HW216707   1.379   1.390   4.097 -0.6155 -2.9974  0.5547
 1749SOL     OW16708   0.528   0.197   7.678 -0.9512 -0.0295  0.3761
 1749SOL    HW116709   0.608   0.145   7.676 -0.8430  0.1122  0.8281
 1749SOL    HW216710   0.537   0.242   7.762  0.9474  1.5039 -0.6392
 1750SOL     OW16711   3.927   0.278  17.251  0.4395  0.0006  0.2404
 1750SOL    HW116712   3.939   0.362  17.294 -1.2446 -0.8915  2.4942
 1750SOL    HW216713   3.974   0.301  17.171  0.0305  0.2611  0.0740
 1751SOL     OW16714   3.865   1.244  12.174 -0.1835  0.0108 -0.3652
 1751SOL    HW116715   3.836   1.289  12.095  0.6995 -0.2604 -0.8406
 1751SOL    HW216716   3.926   1.311  12.206 -1.1703  0.7663 -0.0550
 1752SOL     OW16717   1.457   1.094   2.229  0.0688  0.0214  0.2651
 1752SOL    HW116718   1.401   1.170   2.213  0.5724  0.4531  0.5888
 1752SOL    HW216719   1.542   1.128   2.203  1.5384 -2.1251  2.3236
 1753SOL     OW16720   4.353   4.384   5.238  0.0827 -0.1473 -0.0064
 1753SOL    HW116721   4.292   4.361   5.168  1.2201 -0.6648 -0.8219
 1753SOL    HW216722   4.424   4.322   5.220 -0.6181 -0.9176 -0.1299
 1754SOL     OW16723   4.446   2.427   5.371 -0.4245 -0.0893  0.3875
 1754SOL    HW116724   4.449   2.469   5.457  5.4331  1.4184 -0.5304
 1754SOL    HW216725   4.354   2.401   5.363 -0.1982 -0.6137 -0.4691
 1755SOL     OW16726   1.982   0.762   3.509  0.5294  0.0799 -0.0809
 1755SOL    HW116727   1.971   0.857   3.498 -0.2159 -0.1796 -1.5151
 1755SOL    HW216728   2.042   0.753   3.435  0.0664 -1.4987 -0.2631
 1756SOL     OW16729   4.711   1.167  11.543 -0.0001 -0.5952  0.1507
 1756SOL    HW116730   0.058   1.110  11.513  1.0256  1.6467 -1.7428
 1756SOL    HW216731   0.019   1.247  11.501  1.6052 -0.8138  0.9079
 1757SOL     OW16732   2.347   1.023   2.776  0.0194  0.5429 -0.0198
 1757SOL    HW116733   2.357   0.954   2.711  0.2027 -0.7490  1.3784
 1757SOL    HW216734   2.339   0.965   2.851  1.8528  2.3919  1.6383
 1758SOL     OW16735   4.376   4.352   5.656 -0.3589 -0.0696 -0.1511
 1758SOL    HW116736   4.341   4.402   5.582 -0.6476 -0.7658 -0.4890
 1758SOL    HW216737   4.306   4.287   5.660 -0.6749  0.3201  0.6983
 1759SOL     OW16738   1.361   3.772   4.097  0.4102 -0.2931  0.2772
 1759SOL    HW116739   1.437   3.802   4.048 -0.1845  2.4242  1.0092
 1759SOL    HW216740   1.305   3.755   4.022  1.1092  1.6445 -0.6815
 1760SOL     OW16741   1.665   3.607  14.860 -0.3168 -0.5995  0.2696
 1760SOL    HW116742   1.647   3.686  14.911  0.9042 -0.4038  0.3867
 1760SOL    HW216743   1.749   3.626  14.818 -0.5520  1.3034  0.6685
 1761SOL     OW16744   0.303   4.708   1.166 -0.6122 -0.4204 -0.4377
 1761SOL    HW116745   0.229   0.045   1.174 -1.2059 -1.0199 -1.4043
 1761SOL    HW216746   0.304   4.665   1.252  2.0221 -0.1326 -0.3246
 1762SOL     OW16747   4.644   3.418   0.862  0.2196 -0.0314  0.5004
 1762SOL    HW116748   0.009   3.382   0.855  1.1069  2.0495  1.1075
 1762SOL    HW216749   4.646   3.465   0.946 -2.2286 -0.5509  0.8592
 1763SOL     OW16750   4.633   2.598  13.711 -0.0956  0.0696  0.0793
 1763SOL    HW116751   4.649   2.662  13.781 -1.9007  1.0856 -0.4246
 1763SOL    HW216752   4.608   2.651  13.636  3.9994  1.8739 -0.0280
 1764SOL     OW16753   1.762   1.807  16.607  0.1893 -0.6151  0.0881
 1764SOL    HW116754   1.711   1.759  16.542 -0.2808  0.0477 -0.0391
 1764SOL    HW216755   1.824   1.856  16.553  0.5201 -0.3574  0.7009
 1765SOL     OW16756   3.807   1.106   2.167  0.5640 -0.1019 -0.4071
 1765SOL    HW116757   3.815   1.184   2.113 -1.4151 -0.0902 -0.6865
 1765SOL    HW216758   3.712   1.094   2.164  0.7422 -1.5282 -0.6160
 1766SOL     OW16759   0.872   1.604   2.621  0.3060  0.2739 -0.1560
 1766SOL    HW116760   0.794   1.657   2.634 -0.8348 -1.0456 -1.7460
 1766SOL    HW216761   0.889   1.555   2.702 -1.7313 -0.1878 -0.0168
 1767SOL     OW16762   3.740   3.626   1.910 -0.0900  0.2298  0.2763
 1767SOL    HW116763   3.784   3.591   1.988 -0.0110 -0.7959 -0.2165
 1767SOL    HW216764   3.784   3.585   1.836  1.5614 -1.5854  2.2306
 1768SOL     OW16765   1.488   1.831   8.646 -0.3716  0.4441 -0.1673
 1768SOL    HW116766   1.397   1.836   8.616 -0.9847  0.3900  1.6749
 1768SOL    HW216767   1.494   1.920   8.681  0.5486  0.6631 -0.8667
 1769SOL     OW16768   2.197   4.030   3.973  0.2849  0.1927  0.1819
 1769SOL    HW116769   2.235   4.036   4.060 -1.6548 -2.0840  1.1679
 1769SOL    HW216770   2.105   4.015   3.996  0.9371 -1.4235  1.7592
 1770SOL     OW16771   2.095   3.611   4.951 -0.6673 -0.0970 -0.2172
 1770SOL    HW116772   2.045   3.556   5.012  0.3373 -0.3153  0.4123
 1770SOL    HW216773   2.055   3.698   4.961 -3.1228 -1.2865  0.3091
 1771SOL     OW16774   3.323   4.559   6.608 -0.5186  0.1837 -0.6589
 1771SOL    HW116775   3.412   4.531   6.587  0.2684  2.4672 -0.3266
 1771SOL    HW216776   3.296   4.496   6.676 -0.3958  0.8151 -0.0253
 1772SOL     OW16777   3.153   0.813   1.552 -0.1770  0.3579 -0.0346
 1772SOL    HW116778   3.147   0.735   1.496  0.1622  0.0506  0.3559
 1772SOL    HW216779   3.207   0.772   1.619 -0.8470 -0.3085  0.1041
 1773SOL     OW16780   3.589   0.008   8.147 -0.0158  0.3703  0.2552
 1773SOL    HW116781   3.660   4.711   8.085  0.5185  0.7516  0.7392
 1773SOL    HW216782   3.619   0.095   8.173 -0.8285  1.1138 -1.2881
 1774SOL     OW16783   3.803   3.912  12.848 -0.6212  0.1070 -0.5357
 1774SOL    HW116784   3.778   3.926  12.939 -1.7134 -0.5870 -0.7364
 1774SOL    HW216785   3.842   3.825  12.839  3.9306  1.9784  1.1153
 1775SOL     OW16786   1.779   2.630   2.232  0.0664  0.7790  0.3648
 1775SOL    HW116787   1.760   2.716   2.269  0.7528  0.7606  0.7506
 1775SOL    HW216788   1.863   2.646   2.189  0.7366 -0.2957  1.2586
 1776SOL     OW16789   1.190   4.134   4.258  0.7546  0.2056  0.5479
 1776SOL    HW116790   1.129   4.178   4.317 -1.6090 -0.7377 -1.2045
 1776SOL    HW216791   1.197   4.198   4.188 -1.6537  0.0764  0.1879
 1777SOL     OW16792   4.542   0.232  12.642 -0.6626  0.0596  0.6962
 1777SOL    HW116793   4.596   0.287  12.699  0.3967  0.5032 -0.7505
 1777SOL    HW216794   4.607   0.195  12.583  1.6853  1.7535  2.2395
 1778SOL     OW16795   1.703   0.271   2.954  0.0036  0.1884 -0.5581
 1778SOL    HW116796   1.738   0.267   3.043  0.3398  0.4865 -0.6767
 1778SOL    HW216797   1.614   0.303   2.971  0.2648  0.5331  0.1543
 1779SOL     OW16798   2.080   2.812   0.882  0.2642 -0.2802 -0.1393
 1779SOL    HW116799   2.166   2.796   0.920  0.7228 -1.2313 -1.5681
 1779SOL    HW216800   2.031   2.731   0.900  0.6519 -0.2007  1.2507
 1780SOL     OW16801   4.037   3.077   8.936 -0.8530  0.0515  0.1944
 1780SOL    HW116802   4.101   3.007   8.934 -1.0271 -0.0809 -0.6580
 1780SOL    HW216803   4.072   3.150   8.885 -1.7346 -0.1137 -0.6605
 1781SOL     OW16804   3.854   0.492  10.201 -0.0274 -0.2107  0.0083
 1781SOL    HW116805   3.762   0.486  10.177 -0.5333  2.0462  1.3575
 1781SOL    HW216806   3.864   0.424  10.267  2.3008  0.5175  0.4260
 1782SOL     OW16807   3.365   2.200   5.526  0.2554 -0.5097 -0.3982
 1782SOL    HW116808   3.319   2.129   5.480 -0.2175  1.6944 -3.3295
 1782SOL    HW216809   3.324   2.205   5.612  1.4945  1.8317  0.0471
 1783SOL     OW16810   3.645   2.865   8.818  0.3490 -0.4390  0.2112
 1783SOL    HW116811   3.689   2.945   8.789 -0.8782 -0.1573 -0.8963
 1783SOL    HW216812   3.621   2.825   8.734  0.4601 -0.0122 -0.0236
 1784SOL     OW16813   0.782   0.076   5.053  0.3048 -0.0471  0.0082
 1784SOL    HW116814   0.717   0.013   5.021  2.2988 -2.8040  1.4517
 1784SOL    HW216815   0.737   0.098   5.134  0.4071  0.7629 -0.1568
 1785SOL     OW16816   1.449   2.687   6.663 -0.3748  0.1567 -0.0991
 1785SOL    HW116817   1.543   2.686   6.681 -0.1623 -1.2305 -1.2840
 1785SOL    HW216818   1.422   2.761   6.718  0.6164  1.3466 -1.2176
 1786SOL     OW16819   3.180   0.980  11.161  0.0542  0.6847 -0.3288
 1786SOL    HW116820   3.090   1.003  11.185  1.4835  2.6460  3.2594
 1786SOL    HW216821   3.225   1.000  11.243  2.0579 -1.4272 -0.9263
 1787SOL     OW16822   0.428   2.586  14.967  0.2962 -0.2000  0.1301
 1787SOL    HW116823   0.468   2.627  14.891  1.3888 -0.8835  0.3284
 1787SOL    HW216824   0.450   2.657  15.028 -0.3459  1.0820 -1.1447
 1788SOL     OW16825   3.138   1.034   9.062 -0.4333 -0.1346 -0.0075
 1788SOL    HW116826   3.217   0.979   9.062  0.4353  1.1245  1.9839
 1788SOL    HW216827   3.175   1.100   9.004  0.4200  0.1055  0.8109
 1789SOL     OW16828   1.461   1.236   6.180 -0.0028 -0.7817 -0.1329
 1789SOL    HW116829   1.483   1.299   6.248 -4.3042 -0.2758  0.7947
 1789SOL    HW216830   1.388   1.189   6.220 -0.8359  0.2187 -0.5069
 1790SOL     OW16831   3.155   0.759   7.489 -0.2358 -0.6118 -0.0672
 1790SOL    HW116832   3.173   0.837   7.437  0.4151  0.5787  1.9614
 1790SOL    HW216833   3.139   0.798   7.575  0.0118  0.3139 -0.4396
 1791SOL     OW16834   1.805   3.109   9.405  0.3115  0.1762  0.4513
 1791SOL    HW116835   1.832   3.197   9.431  0.7487 -0.1106  0.9676
 1791SOL    HW216836   1.883   3.065   9.373  1.7017  2.0193  1.2977
 1792SOL     OW16837   0.575   4.153   3.985  0.2391  0.2282 -0.0131
 1792SOL    HW116838   0.598   4.108   4.066  1.5748 -0.2337 -0.6568
 1792SOL    HW216839   0.658   4.200   3.979 -0.4469  1.1875 -2.1770
 1793SOL     OW16840   1.006   3.550   2.824  0.6470 -0.0574  0.2354
 1793SOL    HW116841   1.102   3.554   2.816  0.5139 -0.4941 -1.8351
 1793SOL    HW216842   0.988   3.588   2.909  1.6752  2.1976 -0.5646
 1794SOL     OW16843   3.004   2.785  13.039 -0.1488  0.4792  0.5427
 1794SOL    HW116844   2.911   2.802  13.023  0.4419  3.0716 -0.0779
 1794SOL    HW216845   3.044   2.798  12.953  0.0905 -2.2518  0.2528
 1795SOL     OW16846   1.041   3.413   8.262  0.4388  0.1342  0.3005
 1795SOL    HW116847   1.018   3.485   8.202 -1.7538 -0.6055  0.2296
 1795SOL    HW216848   1.040   3.338   8.203  0.6152  1.1656 -1.0148
 1796SOL     OW16849   0.670   3.846   6.472 -0.0913 -0.2184  0.6770
 1796SOL    HW116850   0.686   3.906   6.399  0.1260  0.3244  1.1683
 1796SOL    HW216851   0.758   3.833   6.509 -0.5141 -0.5469  1.5701
 1797SOL     OW16852   3.083   1.514   3.210 -0.0391  0.3763  0.2862
 1797SOL    HW116853   3.111   1.597   3.249  0.6270  0.4245 -0.2790
 1797SOL    HW216854   3.144   1.519   3.136 -0.5738  0.4026 -0.1489
 1798SOL     OW16855   3.146   2.391   0.872  0.5362 -0.4002  0.4493
 1798SOL    HW116856   3.075   2.378   0.809  1.3395 -0.4403 -0.4364
 1798SOL    HW216857   3.162   2.485   0.878 -0.0832 -0.1766 -1.4987
 1799SOL     OW16858   3.268   1.322   2.934  0.8239  0.1731  0.2814
 1799SOL    HW116859   3.222   1.248   2.972  1.2184 -1.6350 -2.8420
 1799SOL    HW216860   3.209   1.370   2.877  0.2938 -0.2386  0.4908
 1800SOL     OW16861   1.418   4.041   3.984 -0.0668 -0.7118  0.3754
 1800SOL    HW116862   1.327   4.057   3.959  0.7883  0.7243 -1.7372
 1800SOL    HW216863   1.416   4.080   4.072 -0.6810  1.0571 -0.4253
 1801SOL     OW16864   3.692   0.184  16.881 -0.2101 -0.0977  0.5798
 1801SOL    HW116865   3.778   0.141  16.883  0.5230  1.3882  1.0009
 1801SOL    HW216866   3.643   0.118  16.931  1.2884 -2.4928 -1.1166
 1802SOL     OW16867   2.329   0.883   2.335  0.4380 -0.5395 -0.0416
 1802SOL    HW116868   2.323   0.972   2.299 -0.1632  0.0504  1.5107
 1802SOL    HW216869   2.287   0.834   2.264  2.5275 -0.7796 -1.1004
 1803SOL     OW16870   0.753   4.516  13.985 -0.0315  0.1099 -0.3082
 1803SOL    HW116871   0.715   4.592  13.940  1.6242 -0.9480 -3.5132
 1803SOL    HW216872   0.828   4.498  13.928  0.8085  0.2261  0.7555
 1804SOL     OW16873   1.584   2.063   2.859  0.3315 -0.7199 -0.1652
 1804SOL    HW116874   1.565   2.123   2.931  2.1831 -1.0945  0.6503
 1804SOL    HW216875   1.666   2.101   2.826  2.3356 -2.2633  2.9770
 1805SOL     OW16876   4.265   3.949  11.144 -0.7609  0.1501 -0.0969
 1805SOL    HW116877   4.240   3.857  11.131 -1.1664  0.2085  0.2727
 1805SOL    HW216878   4.312   3.961  11.061  0.2997  0.5188  0.5590
 1806SOL     OW16879   3.960   1.972  10.134 -0.1575 -0.2611 -0.4553
 1806SOL    HW116880   4.032   2.030  10.158  1.6330 -2.2708 -0.9726
 1806SOL    HW216881   3.996   1.884  10.147  1.8144  0.7915  1.2134
 1807SOL     OW16882   1.021   0.305  15.930 -0.4078 -0.6247  0.4470
 1807SOL    HW116883   1.115   0.312  15.916 -0.7101  1.5195 -0.4533
 1807SOL    HW216884   1.019   0.262  16.015  0.1021 -1.4096  0.0678
 1808SOL     OW16885   2.300   2.418  11.219  0.4696 -0.3834 -0.3789
 1808SOL    HW116886   2.323   2.506  11.248 -0.3804 -0.3351  0.1501
 1808SOL    HW216887   2.351   2.364  11.279  0.0225 -0.7025 -0.2781
 1809SOL     OW16888   1.827   1.589   6.304  0.0718 -0.5159 -0.3735
 1809SOL    HW116889   1.908   1.633   6.276  0.5583 -0.0694  1.7490
 1809SOL    HW216890   1.824   1.617   6.395  0.4008  1.1890 -0.8950
 1810SOL     OW16891   3.179   2.345  17.242  0.0931 -0.7849 -0.7385
 1810SOL    HW116892   3.193   2.251  17.226 -2.3548 -1.0958 -1.0724
 1810SOL    HW216893   3.118   2.351  17.315  2.0812  1.2672  0.7701
 1811SOL     OW16894   0.505   3.636  13.286  0.0839  0.1158 -0.0610
 1811SOL    HW116895   0.469   3.591  13.362  0.8274 -0.0719  0.1826
 1811SOL    HW216896   0.573   3.679  13.340 -0.2979  0.6200  0.0202
 1812SOL     OW16897   1.427   1.198   7.832  0.6366 -0.2314 -0.5430
 1812SOL    HW116898   1.512   1.204   7.787  0.2979  0.5510 -1.0855
 1812SOL    HW216899   1.387   1.128   7.780  1.9218 -0.5241 -1.1353
 1813SOL     OW16900   1.468   4.557   4.959  0.2942 -0.6092 -0.6112
 1813SOL    HW116901   1.553   4.513   4.953  2.0276  2.8363 -1.5762
 1813SOL    HW216902   1.418   4.489   5.004 -0.8870  0.1813 -0.7281
 1814SOL     OW16903   2.266   4.159   6.140 -0.1750  0.7131 -0.0096
 1814SOL    HW116904   2.333   4.133   6.203  0.6124  0.2305 -1.0480
 1814SOL    HW216905   2.262   4.253   6.127 -1.7725  0.6200 -0.1175
 1815SOL     OW16906   1.538   3.045   8.080  0.4787 -0.4096  0.5182
 1815SOL    HW116907   1.552   2.964   8.030 -0.4597  0.1640 -0.6967
 1815SOL    HW216908   1.628   3.062   8.108  0.7507  0.2581 -0.7567
 1816SOL     OW16909   0.603   2.498   4.634 -0.5242  0.1851 -0.4522
 1816SOL    HW116910   0.629   2.417   4.678 -2.2232 -0.1737 -0.0990
 1816SOL    HW216911   0.508   2.487   4.636 -0.5113 -0.3588 -2.5737
 1817SOL     OW16912   1.318   2.215   4.661  0.0529  0.0748  0.4719
 1817SOL    HW116913   1.367   2.280   4.711 -0.9263  0.7727  0.5353
 1817SOL    HW216914   1.320   2.150   4.731  0.3010 -1.5850 -1.0896
 1818SOL     OW16915   4.352   2.804   1.994 -0.7964  0.1635 -0.3388
 1818SOL    HW116916   4.277   2.860   2.014  0.4281  1.5890  0.3038
 1818SOL    HW216917   4.329   2.790   1.902  4.1066 -1.1889 -1.3721
 1819SOL     OW16918   3.978   3.036   6.109  0.2906 -0.0659  0.5235
 1819SOL    HW116919   3.925   3.116   6.105  1.1199  0.4604  0.0359
 1819SOL    HW216920   3.912   2.979   6.149 -0.5908  1.0572  0.6682
 1820SOL     OW16921   0.998   2.562  17.344 -0.6457  0.2481  0.1958
 1820SOL    HW116922   0.911   2.555  17.383 -0.4624 -0.1619  0.5328
 1820SOL    HW216923   1.019   2.654  17.361 -0.6516  0.5693 -1.4967
 1821SOL     OW16924   2.487   4.092   0.489 -0.6438  0.0943  0.1623
 1821SOL    HW116925   2.477   4.020   0.551  1.0020 -0.0765  0.2234
 1821SOL    HW216926   2.419   4.156   0.511  0.1205  0.8927  0.1939
 1822SOL     OW16927   2.779   1.426   4.901 -0.1559 -0.3764  0.1808
 1822SOL    HW116928   2.823   1.459   4.979 -2.7655  0.2733  1.3877
 1822SOL    HW216929   2.796   1.498   4.841  1.2728 -1.3758 -0.6156
 1823SOL     OW16930   3.359   1.000  12.858 -0.6575  0.0040 -0.5651
 1823SOL    HW116931   3.306   1.080  12.861  0.1819  0.4426  2.3443
 1823SOL    HW216932   3.291   0.936  12.837 -0.2355 -0.3940 -0.7120
 1824SOL     OW16933   3.488   4.552   4.308  0.1925  0.1676  0.6250
 1824SOL    HW116934   3.402   4.509   4.318  0.5214 -0.9355 -1.2538
 1824SOL    HW216935   3.538   4.478   4.274  0.2830  0.4986  0.0419
 1825SOL     OW16936   1.625   2.255  12.715  0.1425  0.3564  0.7642
 1825SOL    HW116937   1.595   2.219  12.631  0.0415 -0.2127  1.0503
 1825SOL    HW216938   1.706   2.205  12.720 -0.8689 -1.4156 -0.6830
 1826SOL     OW16939   4.213   2.528   7.827  0.1289 -0.0583 -0.2638
 1826SOL    HW116940   4.207   2.623   7.822 -0.7590 -0.2107 -2.1330
 1826SOL    HW216941   4.261   2.519   7.744 -1.4930  0.3852 -1.2604
 1827SOL     OW16942   3.880   1.916  16.785  0.2716  0.7661  0.0760
 1827SOL    HW116943   3.893   1.828  16.822  0.0381 -0.2571 -2.2420
 1827SOL    HW216944   3.862   1.967  16.864 -2.3620  2.0540 -1.3526
 1828SOL     OW16945   3.350   2.638  13.975  0.5354  0.4082  0.0701
 1828SOL    HW116946   3.389   2.559  14.012 -1.2000  0.1005  1.2793
 1828SOL    HW216947   3.338   2.614  13.884  0.2166  1.1843 -0.0959
 1829SOL     OW16948   3.211   4.542  17.333  0.7057 -0.2154  0.4915
 1829SOL    HW116949   3.300   4.507  17.324  0.1824 -1.5866  0.5204
 1829SOL    HW216950   3.156   4.483  17.280 -1.6494  0.7022  1.9170
 1830SOL     OW16951   2.424   4.156   3.100  0.1669  0.1143  0.2393
 1830SOL    HW116952   2.438   4.249   3.082  1.2648  0.1181  1.1126
 1830SOL    HW216953   2.514   4.133   3.122 -0.0373 -0.4953  0.4174
 1831SOL     OW16954   1.511   2.102   7.847 -0.2323  0.3812 -0.2885
 1831SOL    HW116955   1.510   2.063   7.760 -2.0348  1.8230 -0.9267
 1831SOL    HW216956   1.515   2.030   7.910  1.5724  0.1060 -0.7343
 1832SOL     OW16957   1.037   3.151   4.637 -0.8421  0.1092 -0.1546
 1832SOL    HW116958   1.011   3.063   4.608 -1.8903  0.1919  0.5212
 1832SOL    HW216959   0.971   3.171   4.704  0.4507 -0.1403  1.2100
 1833SOL     OW16960   2.646   0.241   7.720  0.3317 -0.2237 -0.3756
 1833SOL    HW116961   2.578   0.258   7.786  0.8181 -0.1390  0.1085
 1833SOL    HW216962   2.613   0.158   7.686 -1.7929 -0.0235  1.2097
 1834SOL     OW16963   1.700   1.176   8.879 -0.4013 -0.3775 -0.0844
 1834SOL    HW116964   1.711   1.269   8.858 -2.5256  0.1137  0.9877
 1834SOL    HW216965   1.743   1.126   8.810  0.8819  0.0771  0.3783
 1835SOL     OW16966   0.581   4.525   9.176 -0.3544 -0.0228  0.1024
 1835SOL    HW116967   0.534   4.607   9.193 -3.1634 -2.0496  2.1156
 1835SOL    HW216968   0.668   4.546   9.210 -1.3996  0.5384  2.4662
 1836SOL     OW16969   4.200   1.964   7.512  0.0054 -0.8429 -0.0022
 1836SOL    HW116970   4.223   1.977   7.604 -1.4794  0.3827  0.1812
 1836SOL    HW216971   4.282   1.972   7.463  0.4818 -0.7077  0.8207
 1837SOL     OW16972   1.084   2.369   7.582 -0.1863 -0.3696 -0.0281
 1837SOL    HW116973   1.157   2.430   7.584 -1.2148  0.7277  3.2463
 1837SOL    HW216974   1.047   2.389   7.496 -0.0629 -0.3241 -0.0697
 1838SOL     OW16975   2.307   2.364   8.084  0.1440 -0.2226  0.2233
 1838SOL    HW116976   2.233   2.378   8.026  1.2490 -1.5517 -1.5100
 1838SOL    HW216977   2.259   2.314   8.150  0.5488 -1.7710 -0.6629
 1839SOL     OW16978   0.232   1.459   5.726  0.2044 -0.3927 -0.3685
 1839SOL    HW116979   0.282   1.453   5.807  0.6705 -2.6815 -0.8306
 1839SOL    HW216980   0.308   1.432   5.675  0.2747 -1.0462  0.0843
 1840SOL     OW16981   0.449   4.062  14.932  0.7951 -0.5202  0.1965
 1840SOL    HW116982   0.434   3.968  14.948  0.2578 -0.2880  1.0498
 1840SOL    HW216983   0.472   4.067  14.839 -0.2456  1.2355  0.0512
 1841SOL     OW16984   2.483   1.184   8.592  0.0400 -0.0469 -0.4221
 1841SOL    HW116985   2.409   1.242   8.609  0.0789  0.0628 -0.6291
 1841SOL    HW216986   2.515   1.204   8.505  1.9083 -1.2520 -0.0171
 1842SOL     OW16987   3.866   4.062   4.573  0.7279 -0.1374  0.5902
 1842SOL    HW116988   3.824   4.005   4.637 -0.8488  0.6525  0.2456
 1842SOL    HW216989   3.795   4.086   4.514  0.6523 -1.5001  0.1367
 1843SOL     OW16990   0.134   0.914   8.902 -0.1988  0.3622 -0.1441
 1843SOL    HW116991   0.168   0.978   8.840  0.1049 -0.2945 -0.6520
 1843SOL    HW216992   0.039   0.923   8.895 -0.1191  2.3675  1.2388
 1844SOL     OW16993   2.838   2.204  11.696 -0.4065  0.8895 -0.4269
 1844SOL    HW116994   2.839   2.189  11.601 -2.1984 -0.1440 -0.2808
 1844SOL    HW216995   2.759   2.253  11.715 -0.6911  0.0408  0.5565
 1845SOL     OW16996   2.734   2.068  12.746  0.8304 -0.3544 -0.0203
 1845SOL    HW116997   2.771   2.003  12.806  3.6620 -0.2135 -1.6008
 1845SOL    HW216998   2.749   2.024  12.662  2.0083  0.1456 -0.0693
 1846SOL     OW16999   1.247   2.231   5.296  0.4145 -0.2831  0.1351
 1846SOL    HW117000   1.296   2.302   5.336 -1.3465  0.7247  0.4821
 1846SOL    HW217001   1.236   2.154   5.353  1.3964 -1.0359 -0.6973
 1847SOL     OW17002   3.523   1.522   3.394 -0.8330 -0.3415 -0.0314
 1847SOL    HW117003   3.597   1.467   3.368 -0.4810  0.3627 -0.5130
 1847SOL    HW217004   3.475   1.511   3.312  1.0714 -1.3351 -1.0134
 1848SOL     OW17005   2.068   0.153   1.716 -0.5613  0.2135  0.0341
 1848SOL    HW117006   2.038   0.082   1.659 -1.0242  1.0828 -0.8118
 1848SOL    HW217007   1.980   0.191   1.721 -1.3716 -1.7571  0.7496
 1849SOL     OW17008   0.639   1.425   7.680 -0.2828  0.4874 -0.1681
 1849SOL    HW117009   0.677   1.446   7.766  0.5648 -2.4017  0.1606
 1849SOL    HW217010   0.672   1.499   7.629 -0.5173  2.0856  2.0144
 1850SOL     OW17011   1.277   3.620  17.013 -0.3794 -0.5331 -0.3162
 1850SOL    HW117012   1.344   3.615  17.081  0.1467  0.0726 -0.7912
 1850SOL    HW217013   1.222   3.680  17.063  2.4217  1.6455  0.1683
 1851SOL     OW17014   2.211   3.907   0.232  0.5432 -0.3554  0.0256
 1851SOL    HW117015   2.303   3.929   0.217 -0.4891  1.5893 -3.2499
 1851SOL    HW217016   2.170   3.947   0.156 -0.2524 -0.3137  0.4714
 1852SOL     OW17017   0.812   0.315   2.579 -0.3775  0.4277 -0.1979
 1852SOL    HW117018   0.852   0.283   2.498 -1.9938 -1.7827 -0.1219
 1852SOL    HW217019   0.774   0.230   2.601  1.8935 -0.8432 -1.1896
 1853SOL     OW17020   2.918   4.195   8.265  0.4110 -0.4900 -0.2400
 1853SOL    HW117021   2.870   4.181   8.184  0.8809 -0.4988 -0.5147
 1853SOL    HW217022   3.011   4.186   8.244 -0.0301 -3.5333 -0.8753
 1854SOL     OW17023   0.368   2.996   1.059  0.2258  0.1139 -0.1766
 1854SOL    HW117024   0.283   3.011   1.101 -0.3845 -0.9204 -1.0628
 1854SOL    HW217025   0.342   2.983   0.968  1.0806  2.3637 -0.7569
 1855SOL     OW17026   1.015   2.987  12.914  0.0895  0.5191  0.4746
 1855SOL    HW117027   0.992   2.965  12.823 -0.8822 -0.0547  0.8485
 1855SOL    HW217028   0.943   3.047  12.932 -0.2715  0.7932 -1.8871
 1856SOL     OW17029   1.719   1.281  12.399 -0.4522 -0.1650  0.2697
 1856SOL    HW117030   1.663   1.342  12.446 -0.5555  0.8675 -1.1895
 1856SOL    HW217031   1.794   1.337  12.377 -0.5251 -0.7113 -1.3785
 1857SOL     OW17032   0.709   3.748   6.862 -0.0292 -0.0957 -0.5438
 1857SOL    HW117033   0.775   3.795   6.811 -0.1327 -2.0603 -2.4877
 1857SOL    HW217034   0.633   3.769   6.809 -0.7689  1.6697  1.2430
 1858SOL     OW17035   4.661   2.383   5.013 -0.1481 -0.0383  0.1107
 1858SOL    HW117036   4.701   2.313   4.962 -1.6528 -0.3485 -0.6453
 1858SOL    HW217037   4.598   2.418   4.949 -0.3649  0.4390  0.5794
 1859SOL     OW17038   0.928   2.457  15.186  0.4307 -0.2866 -0.3363
 1859SOL    HW117039   0.943   2.545  15.152  0.1890 -0.0799  0.0892
 1859SOL    HW217040   0.936   2.484  15.278 -0.3965 -1.3763  0.0585
 1860SOL     OW17041   1.052   3.648   4.852  0.2313  0.4608 -0.4868
 1860SOL    HW117042   1.011   3.566   4.881  1.5333  0.2177  0.6731
 1860SOL    HW217043   1.095   3.623   4.771 -1.7314  0.9318 -1.6819
 1861SOL     OW17044   4.107   3.535   8.547 -0.7494  0.2822  0.0560
 1861SOL    HW117045   4.041   3.564   8.610 -0.3666 -0.4845  0.8112
 1861SOL    HW217046   4.064   3.451   8.529 -0.1584  0.1034 -0.5343
 1862SOL     OW17047   4.213   4.319   0.853  0.1583  0.0154  0.3556
 1862SOL    HW117048   4.213   4.223   0.848  0.8034  0.0733 -0.6737
 1862SOL    HW217049   4.284   4.324   0.917  0.3111 -0.1295  0.1975
 1863SOL     OW17050   0.458   0.697   4.948 -0.1043  0.3030 -0.4527
 1863SOL    HW117051   0.425   0.740   5.028 -3.0547 -2.5863 -0.1262
 1863SOL    HW217052   0.519   0.761   4.912 -0.9483  1.1595 -0.3504
 1864SOL     OW17053   0.613   3.354  10.860  0.0877 -0.0839  0.5935
 1864SOL    HW117054   0.578   3.341  10.772 -0.1909 -1.5022  0.9151
 1864SOL    HW217055   0.676   3.283  10.871 -0.4544 -0.5116  0.9093
 1865SOL     OW17056   2.491   4.440   2.991 -0.3588  0.6812  0.1411
 1865SOL    HW117057   2.440   4.500   3.046 -2.8958 -1.3136 -0.0514
 1865SOL    HW217058   2.451   4.460   2.907 -0.6631  0.2514  0.1849
 1866SOL     OW17059   1.630   2.651   2.935  0.4189  0.2464 -0.0051
 1866SOL    HW117060   1.569   2.714   2.973  0.2845 -0.0110  0.2037
 1866SOL    HW217061   1.566   2.581   2.927 -0.8192  1.3822 -0.1633
 1867SOL     OW17062   0.704   1.034   1.543 -0.1895  0.7441  0.1181
 1867SOL    HW117063   0.677   1.071   1.458 -0.3824  1.3231  0.4295
 1867SOL    HW217064   0.622   1.029   1.591 -0.3586  0.3507 -0.2104
 1868SOL     OW17065   0.482   1.488   1.324  0.1758  0.4147  0.2712
 1868SOL    HW117066   0.451   1.404   1.290  0.4025 -0.1833  1.5405
 1868SOL    HW217067   0.510   1.463   1.412  2.2489 -0.9615 -0.7912
 1869SOL     OW17068   3.906   1.563   7.182  0.3979 -0.2625  0.2802
 1869SOL    HW117069   3.865   1.478   7.196 -1.1271  0.3354 -0.4845
 1869SOL    HW217070   3.880   1.610   7.261  0.8548  0.4844 -0.0119
 1870SOL     OW17071   3.907   2.796  12.787  0.1830 -0.2136  0.2012
 1870SOL    HW117072   3.833   2.780  12.728 -0.0270 -0.2967  0.4914
 1870SOL    HW217073   3.962   2.719  12.777 -0.5826 -1.0549  2.5356
 1871SOL     OW17074   2.658   3.950   7.853 -0.8559 -0.5513 -0.2150
 1871SOL    HW117075   2.600   3.956   7.777 -1.5910 -0.1951  0.3678
 1871SOL    HW217076   2.709   3.873   7.830  0.3907  0.4180 -0.6772
 1872SOL     OW17077   2.151   2.703  14.332  0.2140  0.0924  0.7479
 1872SOL    HW117078   2.206   2.649  14.276 -1.9527 -3.0476  1.6634
 1872SOL    HW217079   2.102   2.764  14.276 -0.6955 -0.8750  0.4897
 1873SOL     OW17080   3.756   1.413   8.484  0.4380 -0.8086  0.4834
 1873SOL    HW117081   3.753   1.497   8.439  2.9984 -0.0543  1.6926
 1873SOL    HW217082   3.663   1.392   8.497  0.0191  1.5646  1.2767
 1874SOL     OW17083   2.477   2.625   5.221  0.0171 -0.3398 -0.1700
 1874SOL    HW117084   2.460   2.553   5.282  3.1210  0.2428  1.4011
 1874SOL    HW217085   2.441   2.698   5.271 -0.1580 -0.9561  0.6150
 1875SOL     OW17086   2.803   3.218  16.561 -0.2237  0.0834  0.3778
 1875SOL    HW117087   2.804   3.158  16.635  2.4774  1.8955  1.8165
 1875SOL    HW217088   2.800   3.153  16.491 -0.6535  1.6625 -1.0741
 1876SOL     OW17089   1.131   0.676  10.758 -0.0744 -0.2805 -0.0870
 1876SOL    HW117090   1.120   0.657  10.665  3.3737  0.3858 -0.6146
 1876SOL    HW217091   1.038   0.663  10.778 -0.6084  0.5642 -2.0510
 1877SOL     OW17092   4.249   1.044  11.115  0.3925  0.2372 -0.1779
 1877SOL    HW117093   4.258   0.949  11.106  2.8116  0.5601 -1.0703
 1877SOL    HW217094   4.155   1.058  11.100  0.2584  2.0849  2.4081
 1878SOL     OW17095   3.027   3.455  10.180 -0.1503  0.2320  0.2263
 1878SOL    HW117096   3.093   3.496  10.236 -0.9956  0.7964  0.8281
 1878SOL    HW217097   3.008   3.379  10.235 -0.4514  0.0443 -0.1331
 1879SOL     OW17098   4.365   3.284  12.297 -0.4007  0.1602  0.1956
 1879SOL    HW117099   4.358   3.356  12.234  1.1517  0.5828  0.5158
 1879SOL    HW217100   4.286   3.303  12.347 -0.2466  0.1657  0.4339
 1880SOL     OW17101   3.751   1.769   3.352 -0.4461 -0.7186 -0.5780
 1880SOL    HW117102   3.761   1.674   3.353  1.4327 -0.5079  1.3846
 1880SOL    HW217103   3.831   1.788   3.303  0.0358 -0.1750  0.4318
 1881SOL     OW17104   1.922   3.437  11.802 -0.2357 -0.4527  0.0856
 1881SOL    HW117105   1.944   3.454  11.711 -1.2538  1.5194  0.1999
 1881SOL    HW217106   1.832   3.467  11.812  0.7370  2.6127 -0.2544
 1882SOL     OW17107   1.788   1.570   4.464 -0.0703  0.2308  0.4751
 1882SOL    HW117108   1.765   1.662   4.460  1.4775  0.5494 -1.5578
 1882SOL    HW217109   1.734   1.528   4.397  1.1126  1.3626 -1.1991
 1883SOL     OW17110   3.995   0.921  16.215 -0.1316  0.6570 -0.3142
 1883SOL    HW117111   4.042   1.004  16.201 -0.3207  0.9731  0.9205
 1883SOL    HW217112   3.903   0.946  16.221 -0.0659  0.6569  0.6887
 1884SOL     OW17113   3.586   1.828   6.148  0.0704  0.3975 -0.0176
 1884SOL    HW117114   3.647   1.889   6.107 -1.4190  2.8770  1.4300
 1884SOL    HW217115   3.609   1.748   6.100 -0.4441  0.5196 -0.4641
 1885SOL     OW17116   2.721   3.895   2.959  0.0079  0.6147 -0.4311
 1885SOL    HW117117   2.756   3.951   2.890 -0.6161  1.0767 -0.3648
 1885SOL    HW217118   2.735   3.811   2.914 -0.2191  0.5721 -0.4212
 1886SOL     OW17119   4.570   2.673   5.552 -0.2349  0.5583  0.1553
 1886SOL    HW117120   4.619   2.593   5.572 -1.1105 -0.0103  0.0562
 1886SOL    HW217121   4.550   2.689   5.644 -0.0643  1.5504  0.0210
 1887SOL     OW17122   1.347   2.896   7.237  0.1372  0.2439 -0.1315
 1887SOL    HW117123   1.289   2.938   7.301  0.7345 -0.5066  0.9091
 1887SOL    HW217124   1.422   2.872   7.291  0.8636  1.9705 -0.3773
 1888SOL     OW17125   1.060   3.322   1.953 -0.2037 -0.4349 -0.1822
 1888SOL    HW117126   1.041   3.400   1.902 -0.2917  0.2357  0.8854
 1888SOL    HW217127   1.013   3.347   2.033 -1.3242  0.8052 -1.2306
 1889SOL     OW17128   4.635   0.154  16.056  0.2846 -0.3978  0.0165
 1889SOL    HW117129   0.003   0.131  16.037 -0.3668 -1.1830 -2.1988
 1889SOL    HW217130   4.605   0.207  15.981  0.6523 -1.4979 -0.8993
 1890SOL     OW17131   3.037   2.749   3.123 -0.2455 -0.2033 -0.0011
 1890SOL    HW117132   3.102   2.680   3.128  2.5671  2.3601 -1.3171
 1890SOL    HW217133   3.034   2.767   3.029 -2.5178 -0.1569  0.0762
 1891SOL     OW17134   2.778   3.928   7.354 -0.2681 -0.5719 -0.1547
 1891SOL    HW117135   2.861   3.974   7.366  0.5476 -2.1106  0.0809
 1891SOL    HW217136   2.784   3.897   7.263 -0.4073  0.3045 -0.4656
 1892SOL     OW17137   3.359   2.455   5.051  0.7729 -0.1314 -0.0815
 1892SOL    HW117138   3.319   2.393   4.990  0.7426 -0.0168 -0.1788
 1892SOL    HW217139   3.320   2.427   5.134 -0.4838 -0.2378 -0.7088
 1893SOL     OW17140   1.383   1.741   0.716 -0.2597 -0.2665  0.0562
 1893SOL    HW117141   1.377   1.759   0.810  0.0202  1.6414 -0.3070
 1893SOL    HW217142   1.438   1.662   0.707 -0.9959 -0.5451 -1.8543
 1894SOL     OW17143   4.660   0.231   8.958  0.5711 -0.3848 -0.0929
 1894SOL    HW117144   4.712   0.199   9.032  0.7186  1.0614  0.4237
 1894SOL    HW217145   4.690   0.178   8.884  0.7014 -0.5267  0.0620
 1895SOL     OW17146   4.187   3.935   1.645  0.3459  0.0057 -0.8174
 1895SOL    HW117147   4.169   3.928   1.551 -2.8908 -0.4657 -0.1729
 1895SOL    HW217148   4.281   3.922   1.653  0.2869 -0.5865 -1.0435
 1896SOL     OW17149   4.613   1.850   5.201  0.2174 -0.3430  0.6562
 1896SOL    HW117150   4.675   1.874   5.133  2.2985 -2.7967  1.6733
 1896SOL    HW217151   4.619   1.754   5.205  1.1485 -0.3405 -0.6111
 1897SOL     OW17152   2.866   0.212   7.176 -0.0928  0.4183 -0.8152
 1897SOL    HW117153   2.924   0.171   7.240 -1.0825 -2.0605 -1.5210
 1897SOL    HW217154   2.892   0.169   7.095  0.9735 -0.8830  0.2098
 1898SOL     OW17155   0.645   0.621  11.004 -0.3671  0.2066 -0.2350
 1898SOL    HW117156   0.676   0.650  10.918  0.5897  1.9741  0.7134
 1898SOL    HW217157   0.708   0.677  11.051 -0.7010  1.1569 -0.9295
 1899SOL     OW17158   3.409   1.649   9.500  0.3323 -0.6680  0.5465
 1899SOL    HW117159   3.369   1.586   9.560  0.5565  1.8091  3.2825
 1899SOL    HW217160   3.341   1.669   9.435  0.1356  0.4528  1.0850
 1900SOL     OW17161   4.282   2.882  13.367  0.0208  0.0083 -0.1376
 1900SOL    HW117162   4.310   2.880  13.275 -0.8865 -1.6490 -0.3886
 1900SOL    HW217163   4.201   2.832  13.366 -0.7619  1.2990 -1.0615
 1901SOL     OW17164   2.203   0.275   6.816  0.1163  0.1780  0.4498
 1901SOL    HW117165   2.240   0.199   6.770 -0.8272 -0.3972  0.6335
 1901SOL    HW217166   2.216   0.348   6.755 -0.8177  0.1194  0.1775
 1902SOL     OW17167   1.388   1.551  12.726  0.9606  0.1067 -0.4500
 1902SOL    HW117168   1.410   1.490  12.797  1.1177  2.0488  1.1878
 1902SOL    HW217169   1.402   1.504  12.644 -0.7087  1.2785 -1.4055
 1903SOL     OW17170   3.224   2.980   8.389  0.0680 -0.2487 -0.4421
 1903SOL    HW117171   3.278   2.903   8.403 -0.9692 -0.6403  1.4473
 1903SOL    HW217172   3.206   3.004   8.481  1.1159  0.0516 -0.3178
 1904SOL     OW17173   1.603   1.426   3.843 -0.1848  0.1452  0.1316
 1904SOL    HW117174   1.556   1.397   3.921 -0.6032 -0.1781 -0.2391
 1904SOL    HW217175   1.689   1.431   3.885 -1.8617 -1.5755  3.7461
 1905SOL     OW17176   3.188   3.102   6.144  0.1909 -0.3168  0.4414
 1905SOL    HW117177   3.203   3.132   6.054  0.5387 -1.3116  0.1729
 1905SOL    HW217178   3.226   3.015   6.135 -1.5727 -1.0138 -0.0868
 1906SOL     OW17179   3.846   2.523   6.858  0.3019 -0.3317  0.4070
 1906SOL    HW117180   3.890   2.451   6.902 -0.6867 -0.3255  1.3974
 1906SOL    HW217181   3.851   2.592   6.924  0.5101  0.4034 -0.3736
 1907SOL     OW17182   3.357   2.673  13.499 -0.6131 -0.7975  0.0807
 1907SOL    HW117183   3.281   2.614  13.497  0.6348 -2.3020 -2.5237
 1907SOL    HW217184   3.424   2.608  13.520 -0.8701 -1.1107 -0.0585
 1908SOL     OW17185   2.622   2.687   9.126 -0.3348  0.6990 -0.2034
 1908SOL    HW117186   2.557   2.694   9.196  0.5600  1.2102  0.5778
 1908SOL    HW217187   2.685   2.619   9.151 -3.5525 -2.7262 -1.5243
 1909SOL     OW17188   2.578   1.820   8.774  0.4588  0.1482 -0.2376
 1909SOL    HW117189   2.613   1.733   8.791 -2.1761 -1.0331 -0.9267
 1909SOL    HW217190   2.537   1.847   8.856  0.9412 -0.9484  0.3572
 1910SOL     OW17191   1.579   1.730   3.647 -0.1286 -0.1685 -0.2599
 1910SOL    HW117192   1.667   1.745   3.682  0.2359 -0.9201 -0.8449
 1910SOL    HW217193   1.584   1.803   3.585  1.1206  0.6042  0.7486
 1911SOL     OW17194   2.997   2.262   3.891 -0.6147 -0.1890 -0.0311
 1911SOL    HW117195   3.071   2.319   3.869 -2.4015  2.1069 -0.0707
 1911SOL    HW217196   2.927   2.326   3.882 -1.2412 -0.8726  0.0217
 1912SOL     OW17197   3.927   4.145   1.973 -0.2991  0.4711 -0.4704
 1912SOL    HW117198   4.016   4.182   1.969  0.0704 -0.4079 -0.3606
 1912SOL    HW217199   3.885   4.221   2.013 -0.2123  0.6026 -0.6318
 1913SOL     OW17200   4.251   3.034  11.663 -0.0118  0.4041  0.2835
 1913SOL    HW117201   4.250   3.105  11.598 -1.5984 -0.6452 -0.8313
 1913SOL    HW217202   4.178   2.987  11.623 -0.7494  1.6992  0.1031
 1914SOL     OW17203   1.269   0.178   1.281 -0.0381 -0.0781  0.4952
 1914SOL    HW117204   1.348   0.231   1.286  0.1125 -0.1539 -1.3763
 1914SOL    HW217205   1.222   0.225   1.351 -0.0828 -2.4867  2.1041
 1915SOL     OW17206   1.753   3.897   5.399  0.1186  0.3443 -0.4832
 1915SOL    HW117207   1.691   3.849   5.344  1.0433 -0.3283 -0.9215
 1915SOL    HW217208   1.810   3.827   5.430 -0.4249  0.8347  1.6474
 1916SOL     OW17209   1.517   2.581   1.765 -0.2389  0.4281  0.5042
 1916SOL    HW117210   1.544   2.509   1.822 -0.8097  0.4561  0.8047
 1916SOL    HW217211   1.478   2.539   1.689 -1.8145  1.0403  0.9835
 1917SOL     OW17212   0.959   1.551  15.851  0.1792 -0.4839  0.1517
 1917SOL    HW117213   0.936   1.573  15.760 -0.0085 -1.0150  0.0738
 1917SOL    HW217214   0.928   1.627  15.900  0.9539 -0.9113  1.2953
 1918SOL     OW17215   0.815   0.667   2.485  0.1071  0.2467  0.1527
 1918SOL    HW117216   0.870   0.711   2.420 -0.9338  0.4083 -0.6124
 1918SOL    HW217217   0.787   0.755   2.509 -0.3591 -0.6800  3.1460
 1919SOL     OW17218   4.464   3.304   6.242 -0.6462 -0.2155 -0.0213
 1919SOL    HW117219   4.379   3.267   6.217 -1.4060  0.5472  1.4285
 1919SOL    HW217220   4.466   3.279   6.334  0.8192  0.6001  0.1576
 1920SOL     OW17221   0.270   0.340   5.577 -0.0675  0.0097  0.3760
 1920SOL    HW117222   0.246   0.247   5.576  2.2198 -0.6158  1.5797
 1920SOL    HW217223   0.303   0.352   5.667 -0.7491  0.8823  0.5015
 1921SOL     OW17224   0.015   2.892   4.887 -0.2386  0.1897 -0.2900
 1921SOL    HW117225   0.034   2.801   4.865  1.7313  0.7236 -0.7487
 1921SOL    HW217226   4.668   2.866   4.946 -0.5552  0.8588 -0.3767
 1922SOL     OW17227   1.309   3.267   7.555  0.0434  0.5433 -0.0209
 1922SOL    HW117228   1.284   3.177   7.535  0.0747 -0.1235  2.9279
 1922SOL    HW217229   1.307   3.298   7.465  0.3076  1.0386  0.1463
 1923SOL     OW17230   4.615   2.991   1.828  0.4153  0.6403  0.3488
 1923SOL    HW117231   4.678   3.063   1.828  0.1128  0.8950 -1.4404
 1923SOL    HW217232   4.535   3.035   1.855  0.8779  0.8046  1.4404
 1924SOL     OW17233   1.222   4.658   5.414  0.5458 -0.2891  0.4351
 1924SOL    HW117234   1.224   4.712   5.493  1.0571  0.7300 -0.2741
 1924SOL    HW217235   1.300   4.603   5.418 -0.8868 -2.3386  0.4006
 1925SOL     OW17236   4.506   3.495  15.230 -0.2029 -0.0555  0.1984
 1925SOL    HW117237   4.437   3.492  15.163 -1.0181 -3.4349  1.2086
 1925SOL    HW217238   4.555   3.570  15.195 -0.7596  0.0113 -0.4463
 1926SOL     OW17239   2.381   4.357   1.993 -0.6769 -0.2267 -0.1096
 1926SOL    HW117240   2.361   4.267   1.965 -1.5570  0.4172 -1.5610
 1926SOL    HW217241   2.473   4.344   2.017 -0.9671 -1.6978  0.2591
 1927SOL     OW17242   0.680   0.777   5.496  0.3841  0.0797  0.4645
 1927SOL    HW117243   0.676   0.726   5.577  0.7379 -0.7149 -0.0160
 1927SOL    HW217244   0.765   0.817   5.515  0.9347  0.4997 -2.9757
 1928SOL     OW17245   3.433   1.845   7.715  0.3489 -0.0636 -0.0570
 1928SOL    HW117246   3.407   1.797   7.793  2.7865 -1.8895 -0.3818
 1928SOL    HW217247   3.349   1.879   7.683  0.7964 -0.3829 -1.5977
 1929SOL     OW17248   0.198   3.690   8.074  0.0474  0.0761  0.3009
 1929SOL    HW117249   0.151   3.763   8.113 -0.1093 -0.4872  1.1722
 1929SOL    HW217250   0.287   3.725   8.086 -0.1725  0.9008 -0.5454
 1930SOL     OW17251   4.023   1.015  12.454  0.4429 -0.1962 -0.2880
 1930SOL    HW117252   4.073   0.937  12.479 -0.3071 -0.4756  0.3509
 1930SOL    HW217253   3.953   1.013  12.520  1.3120 -1.0711  0.6049
 1931SOL     OW17254   0.622   0.271   2.927  0.9226 -0.0439  0.5958
 1931SOL    HW117255   0.711   0.242   2.944  1.1855  1.2447  1.3879
 1931SOL    HW217256   0.626   0.353   2.876  1.2556 -1.2158 -1.2636
 1932SOL     OW17257   0.002   0.117   3.822  0.5786  0.0070  0.1564
 1932SOL    HW117258   4.715   0.047   3.885  1.3414 -0.9607 -0.7926
 1932SOL    HW217259   0.028   0.058   3.751 -2.2784  0.5888 -1.3864
 1933SOL     OW17260   4.189   3.435   6.912 -0.0218 -0.0983  0.1585
 1933SOL    HW117261   4.101   3.460   6.940 -0.3660  0.2177 -1.2182
 1933SOL    HW217262   4.216   3.389   6.991  0.6885  0.0539  0.0088
 1934SOL     OW17263   1.800   1.222  11.867 -0.0592  0.1175  0.4646
 1934SOL    HW117264   1.814   1.233  11.961  0.4446  0.4280  0.3561
 1934SOL    HW217265   1.706   1.234  11.856  0.0947 -1.4756 -2.3412
 1935SOL     OW17266   4.499   4.632   6.487  0.1171  0.2842  0.0451
 1935SOL    HW117267   4.543   4.580   6.554 -1.7129  0.5100  1.4004
 1935SOL    HW217268   4.429   4.572   6.460 -1.3844  2.4269 -0.8789
 1936SOL     OW17269   3.270   3.662   3.614  0.2331  0.5331  0.0976
 1936SOL    HW117270   3.358   3.686   3.586  0.7341 -0.1952  1.0534
 1936SOL    HW217271   3.232   3.748   3.632  1.1659  0.3803  2.7279
 1937SOL     OW17272   0.270   3.662   8.807 -0.1212  0.1177 -0.3230
 1937SOL    HW117273   0.244   3.751   8.832  2.4711  0.6920  0.4323
 1937SOL    HW217274   0.191   3.627   8.766  0.7889  0.7751 -2.6550
 1938SOL     OW17275   0.773   3.416   6.067 -0.2037 -0.2886 -0.4341
 1938SOL    HW117276   0.837   3.402   6.137 -0.3744 -0.3306 -0.2876
 1938SOL    HW217277   0.824   3.479   6.016 -0.1459 -0.1589 -0.2156
 1939SOL     OW17278   3.136   4.199  12.715  0.7165 -0.1681 -0.6638
 1939SOL    HW117279   3.229   4.207  12.737  0.5684 -0.1156 -0.0628
 1939SOL    HW217280   3.105   4.286  12.742 -0.2152 -0.5694 -0.4720
 1940SOL     OW17281   1.299   2.313   4.969 -0.3516 -0.0095  0.0136
 1940SOL    HW117282   1.293   2.220   4.947 -1.1734 -0.1690  0.9185
 1940SOL    HW217283   1.388   2.324   4.937 -1.2287  0.9850 -2.1669
 1941SOL     OW17284   3.362   3.206   5.635  0.3047  0.1361  0.1487
 1941SOL    HW117285   3.287   3.263   5.656 -0.1704 -0.5974  0.4616
 1941SOL    HW217286   3.430   3.268   5.610 -0.3726  0.9691  0.3784
 1942SOL     OW17287   2.035   0.591   6.108 -0.3101 -0.3945  0.4349
 1942SOL    HW117288   2.057   0.582   6.200  0.0407  2.1655  0.5949
 1942SOL    HW217289   2.116   0.630   6.075 -0.3909 -0.6646 -0.0970
 1943SOL     OW17290   0.539   4.669   7.042  0.0796 -0.2771  0.0248
 1943SOL    HW117291   0.550   4.660   7.136 -2.4320 -1.6853  0.2001
 1943SOL    HW217292   0.620   4.628   7.012  0.4742  0.1833  0.4605
 1944SOL     OW17293   0.340   0.326  14.256 -1.1436  0.4327 -0.2406
 1944SOL    HW117294   0.306   0.349  14.342 -0.7356  0.9371 -0.2113
 1944SOL    HW217295   0.432   0.302  14.272 -1.8298 -1.9224  0.1643
 1945SOL     OW17296   1.785   2.339   2.361 -0.4392 -0.5430 -0.3551
 1945SOL    HW117297   1.841   2.347   2.438 -1.5039  2.0307  0.1498
 1945SOL    HW217298   1.818   2.411   2.307  2.2994  0.8896  3.2407
 1946SOL     OW17299   2.004   4.234   3.286  0.7082  0.7836 -0.5317
 1946SOL    HW117300   2.046   4.251   3.202 -1.3689 -0.4997 -1.8178
 1946SOL    HW217301   2.079   4.197   3.333  1.2395 -0.1779 -2.1247
 1947SOL     OW17302   1.756   2.557  10.462 -0.1235 -0.2292  0.0979
 1947SOL    HW117303   1.734   2.467  10.488  1.2013 -0.2922  0.9645
 1947SOL    HW217304   1.847   2.550  10.434 -0.5090  0.4834 -1.3716
 1948SOL     OW17305   2.622   2.953   2.532  0.2054  0.3771  0.0253
 1948SOL    HW117306   2.594   3.017   2.466 -0.6695  0.3303  0.3579
 1948SOL    HW217307   2.649   3.007   2.606 -1.9055  0.5612  0.6334
 1949SOL     OW17308   0.054   0.950   2.087  0.6882 -0.1248  0.1844
 1949SOL    HW117309   4.689   0.958   2.051  0.1626 -0.8208  1.3007
 1949SOL    HW217310   0.099   0.911   2.011 -1.4226 -2.5848  0.1905
 1950SOL     OW17311   0.493   3.712   5.272 -0.4314  0.2267 -0.2981
 1950SOL    HW117312   0.470   3.798   5.308  0.3741 -0.2742  1.4050
 1950SOL    HW217313   0.491   3.654   5.348  2.1947 -0.0175 -0.4164
 1951SOL     OW17314   3.000   0.501   0.323 -0.1464  0.3580  0.4273
 1951SOL    HW117315   2.969   0.567   0.260  0.5041 -1.7951 -2.1611
 1951SOL    HW217316   3.094   0.518   0.318 -0.2983  1.0704 -0.0147
 1952SOL     OW17317   0.923   3.788   7.747  1.0252  0.5441 -0.2487
 1952SOL    HW117318   0.961   3.740   7.821 -0.5751 -2.2296 -1.2368
 1952SOL    HW217319   1.002   3.799   7.695 -0.5728  3.4409 -2.0118
 1953SOL     OW17320   1.064   4.144   5.645 -0.3899 -0.3171  0.0027
 1953SOL    HW117321   1.105   4.202   5.709  0.2514 -0.6240 -0.1387
 1953SOL    HW217322   1.064   4.064   5.697 -0.6545 -0.6988 -0.5821
 1954SOL     OW17323   1.097   2.409  12.381  0.0261  0.9947 -0.3450
 1954SOL    HW117324   1.087   2.503  12.363 -1.5862  0.9093  0.1225
 1954SOL    HW217325   1.019   2.397  12.435  0.5602  0.4818  0.3148
 1955SOL     OW17326   2.304   2.139  14.248  0.3480  0.4289 -0.8062
 1955SOL    HW117327   2.277   2.106  14.162 -0.3290  0.4809 -0.6189
 1955SOL    HW217328   2.345   2.222  14.224 -0.5519  1.0496 -0.2012
 1956SOL     OW17329   2.720   1.684  12.837 -0.0782 -0.4464 -0.3462
 1956SOL    HW117330   2.794   1.643  12.792  0.8714 -0.4390  1.1915
 1956SOL    HW217331   2.684   1.729  12.761  0.4861 -0.9580 -0.9213
 1957SOL     OW17332   2.830   1.458   2.281 -0.3682  0.1483 -0.2326
 1957SOL    HW117333   2.749   1.509   2.274  0.2617  1.3228  0.8387
 1957SOL    HW217334   2.817   1.408   2.361  0.6721 -1.2393 -0.9311
 1958SOL     OW17335   2.992   3.572   4.311  0.1786  0.7554  0.6512
 1958SOL    HW117336   2.910   3.556   4.358 -0.2023  3.6870  1.0225
 1958SOL    HW217337   2.975   3.539   4.222  0.0932  0.9864  0.5813
 1959SOL     OW17338   1.893   1.025   3.094 -0.0932  0.5896 -0.6098
 1959SOL    HW117339   1.987   1.032   3.078 -0.1743 -0.3989 -1.5547
 1959SOL    HW217340   1.883   0.936   3.130 -1.1764  0.2762 -1.6529
 1960SOL     OW17341   3.195   1.580  13.994  0.1545 -0.4426 -0.2231
 1960SOL    HW117342   3.212   1.497  14.038  0.7895  1.7119  3.5245
 1960SOL    HW217343   3.136   1.625  14.054  0.3753  1.1780 -1.2004
 1961SOL     OW17344   0.246   4.343  17.469  0.3739  0.3039  0.3457
 1961SOL    HW117345   0.241   4.272  17.533  0.8060  0.9203  1.0687
 1961SOL    HW217346   0.281   4.301  17.390 -0.8381 -0.4326  0.2024
 1962SOL     OW17347   4.187   2.959   5.837  0.5220  0.8623  0.2631
 1962SOL    HW117348   4.165   2.954   5.930 -0.6281  1.1641  0.0061
 1962SOL    HW217349   4.161   2.877   5.795  0.8155  1.9680 -2.1215
 1963SOL     OW17350   0.130   1.601   8.358 -0.0551 -0.6291 -0.0839
 1963SOL    HW117351   0.048   1.644   8.335  0.2030 -0.0813  0.0195
 1963SOL    HW217352   0.149   1.553   8.278  0.2543  2.0127 -1.5894
 1964SOL     OW17353   0.109   4.357  12.023 -0.3900 -0.1505 -0.2588
 1964SOL    HW117354   0.139   4.343  11.933  0.0034 -0.0451 -0.1471
 1964SOL    HW217355   0.143   4.276  12.061 -1.4031 -0.3926  0.1361
 1965SOL     OW17356   3.404   4.396  10.788  0.3081 -0.3880 -0.3201
 1965SOL    HW117357   3.395   4.396  10.693 -0.7280 -1.7151 -0.2193
 1965SOL    HW217358   3.499   4.407  10.797  0.6209 -1.3882 -2.6688
 1966SOL     OW17359   1.413   2.865   7.776 -0.7578  0.1630 -0.4428
 1966SOL    HW117360   1.424   2.956   7.748  0.0211 -0.0271 -0.7648
 1966SOL    HW217361   1.329   2.840   7.738 -0.8411  0.4539 -0.4453
 1967SOL     OW17362   1.977   0.006   0.859  0.1665  0.2804  0.2298
 1967SOL    HW117363   2.050   4.666   0.861  0.8826  1.0669 -1.1393
 1967SOL    HW217364   1.929   4.700   0.936 -0.8411  1.3379 -0.0117
 1968SOL     OW17365   3.784   3.073  10.960  0.1423 -0.2992  0.1642
 1968SOL    HW117366   3.740   3.132  10.898  0.1665 -0.3468  0.1024
 1968SOL    HW217367   3.711   3.037  11.010  1.5110 -2.6120  0.4649
 1969SOL     OW17368   1.944   2.489   4.053  0.2864 -0.3919  0.3718
 1969SOL    HW117369   1.977   2.569   4.012 -0.2858  0.1840  1.0380
 1969SOL    HW217370   2.010   2.435   4.008 -0.8658  1.1370 -3.1331
 1970SOL     OW17371   0.840   2.041   2.958 -0.0360 -0.0793  0.2872
 1970SOL    HW117372   0.850   1.954   2.918 -1.2238 -0.7197  1.3827
 1970SOL    HW217373   0.900   2.097   2.908 -1.0475  2.6819  2.1902
 1971SOL     OW17374   4.105   1.275  12.586  0.4379  0.2043  0.1581
 1971SOL    HW117375   4.022   1.319  12.568 -0.7299 -2.3931 -0.7738
 1971SOL    HW217376   4.112   1.199  12.529 -0.7223  0.3143 -0.1365
 1972SOL     OW17377   2.752   2.281  15.692  0.1368  0.1980  0.1139
 1972SOL    HW117378   2.726   2.367  15.659  4.2432  1.6910  0.8039
 1972SOL    HW217379   2.752   2.301  15.786 -1.8274 -0.1008  0.1877
 1973SOL     OW17380   2.772   1.647   7.151  0.6729  0.2242 -0.0604
 1973SOL    HW117381   2.741   1.600   7.227  2.9345  1.3323  1.5390
 1973SOL    HW217382   2.741   1.588   7.082  0.9218  0.8348 -0.6995
 1974SOL     OW17383   2.038   0.484   7.938  0.3019 -0.2450 -0.3074
 1974SOL    HW117384   1.951   0.461   7.969 -0.4124  1.7685 -0.7953
 1974SOL    HW217385   2.079   0.517   8.018  1.8779 -1.7107 -0.5268
 1975SOL     OW17386   0.335   3.749   6.080  0.2498  0.0855 -0.1148
 1975SOL    HW117387   0.341   3.676   6.019  2.9301  2.0727 -2.2044
 1975SOL    HW217388   0.256   3.725   6.128 -0.3487 -1.3211 -1.8381
 1976SOL     OW17389   3.494   3.190   6.006 -0.2043  0.6440 -0.2521
 1976SOL    HW117390   3.516   3.116   5.949  1.1446 -0.4598  1.6840
 1976SOL    HW217391   3.581   3.210   6.042 -0.7146  1.4116  0.5223
 1977SOL     OW17392   1.895   1.792  12.011 -0.6763 -0.2045 -0.1976
 1977SOL    HW117393   1.908   1.876  11.969  0.6639 -0.9398 -1.2359
 1977SOL    HW217394   1.873   1.819  12.100 -3.8806 -0.2109 -0.9602
 1978SOL     OW17395   1.346   3.326   5.713  0.1167  0.3316  0.0450
 1978SOL    HW117396   1.363   3.264   5.641  0.0109  0.0797  0.2375
 1978SOL    HW217397   1.384   3.271   5.781 -0.9795 -0.6369 -0.1187
 1979SOL     OW17398   4.076   3.258   7.271  0.0744 -0.1201  0.0353
 1979SOL    HW117399   4.149   3.233   7.328 -1.4037 -2.4405  0.9103
 1979SOL    HW217400   4.117   3.244   7.186 -1.2566 -2.0077 -0.2850
 1980SOL     OW17401   2.933   2.660   5.347  0.0057 -0.4338  0.0267
 1980SOL    HW117402   2.979   2.673   5.430 -2.1450  0.2800  1.1218
 1980SOL    HW217403   2.852   2.615   5.372 -0.1238 -2.2255 -3.7669
 1981SOL     OW17404   2.076   1.485   7.348 -0.2398 -0.2325 -0.5275
 1981SOL    HW117405   2.119   1.541   7.413 -1.0968 -3.1642  2.5648
 1981SOL    HW217406   2.034   1.552   7.294 -0.3417  0.1839  0.0646
 1982SOL     OW17407   1.301   1.875   3.552 -0.1133 -0.4522 -0.7585
 1982SOL    HW117408   1.308   1.862   3.457 -1.5684  1.6545 -1.1377
 1982SOL    HW217409   1.390   1.900   3.577 -0.0976 -0.6106 -0.6602
 1983SOL     OW17410   0.707   3.733   1.533  0.0637 -0.3379 -0.1351
 1983SOL    HW117411   0.689   3.691   1.618 -1.3974  0.6616  0.0424
 1983SOL    HW217412   0.700   3.827   1.546 -0.1732 -0.3076 -0.5166
 1984SOL     OW17413   4.052   2.055  13.565  0.1092  0.1297  0.2309
 1984SOL    HW117414   4.008   2.095  13.641  0.2075 -1.7772  1.2722
 1984SOL    HW217415   3.999   2.082  13.490 -0.4907 -0.8831  0.2942
 1985SOL     OW17416   4.474   2.694   3.286  0.6729  0.3825 -0.0412
 1985SOL    HW117417   4.519   2.647   3.215  0.3045 -0.7980  0.5031
 1985SOL    HW217418   4.416   2.758   3.245 -1.9703 -0.7700  1.9628
 1986SOL     OW17419   3.747   3.661   8.463 -0.7632 -0.0437  0.0276
 1986SOL    HW117420   3.817   3.720   8.435 -0.6804  0.7824  1.9909
 1986SOL    HW217421   3.769   3.577   8.422  0.1951 -0.9774  2.4728
 1987SOL     OW17422   1.838   0.270   0.872  0.0038 -1.2408  0.1106
 1987SOL    HW117423   1.911   0.281   0.811 -1.5626  1.4309 -1.2742
 1987SOL    HW217424   1.863   0.191   0.919 -0.3476 -1.5775 -0.2743
 1988SOL     OW17425   3.519   1.550   6.797 -0.1608  0.5662 -0.1709
 1988SOL    HW117426   3.564   1.629   6.828  0.9690 -0.3291  0.4957
 1988SOL    HW217427   3.486   1.575   6.711 -0.2574  2.0230  0.3016
 1989SOL     OW17428   2.880   2.614  10.147 -0.0494 -0.0018 -0.4124
 1989SOL    HW117429   2.954   2.612  10.208 -0.4219  2.0454  0.1063
 1989SOL    HW217430   2.929   2.586  10.070  0.0090 -1.5947  0.1960
 1990SOL     OW17431   2.713   1.079   4.569  0.1577  0.2466  0.0934
 1990SOL    HW117432   2.748   1.165   4.543 -0.6580 -0.1433 -2.2823
 1990SOL    HW217433   2.633   1.076   4.517  0.2534 -2.0247  0.0903
 1991SOL     OW17434   3.500   0.634  15.524 -0.1422  0.1124  0.0496
 1991SOL    HW117435   3.535   0.723  15.517 -0.1192 -0.0108 -1.5134
 1991SOL    HW217436   3.439   0.631  15.598  1.0385  0.7451  1.0608
 1992SOL     OW17437   2.107   0.465   3.894 -0.3766 -0.4739 -0.4873
 1992SOL    HW117438   2.100   0.552   3.854 -0.7204  0.6914  2.0746
 1992SOL    HW217439   2.087   0.484   3.986 -0.2825 -0.1511 -0.5350
 1993SOL     OW17440   2.927   2.812   4.608 -0.2151  0.2646 -0.5074
 1993SOL    HW117441   2.926   2.828   4.702 -2.0731 -0.6459 -0.3685
 1993SOL    HW217442   2.875   2.886   4.577 -0.6258  0.2593  0.1647
 1994SOL     OW17443   2.575   3.980   5.795  0.0860  0.8040  0.6706
 1994SOL    HW117444   2.578   4.013   5.705 -2.8127 -2.0694 -0.4794
 1994SOL    HW217445   2.663   3.983   5.832  0.0214  1.2951  0.7850
 1995SOL     OW17446   1.292   1.388   4.317 -0.1896 -0.1117  0.0523
 1995SOL    HW117447   1.290   1.293   4.326  2.1431 -0.1009  0.6677
 1995SOL    HW217448   1.206   1.410   4.281  0.3503  0.0336 -1.1719
 1996SOL     OW17449   3.183   1.657   2.980 -0.5811  0.3835 -0.9091
 1996SOL    HW117450   3.230   1.700   2.909 -0.3846  1.8575  0.0918
 1996SOL    HW217451   3.108   1.716   2.974 -0.3552  0.7845  0.2134
 1997SOL     OW17452   1.985   1.140   2.097 -0.6330  0.1510 -0.9902
 1997SOL    HW117453   2.013   1.084   2.168  1.9369  0.8503 -1.4522
 1997SOL    HW217454   2.042   1.114   2.024  0.4394 -0.0398 -0.0851
 1998SOL     OW17455   0.681   1.148  11.546 -0.0885  0.0537  0.2231
 1998SOL    HW117456   0.765   1.120  11.510  0.2439 -2.3360  2.8967
 1998SOL    HW217457   0.647   1.196  11.470 -1.5867 -2.9674 -1.0034
 1999SOL     OW17458   3.341   2.387   4.520  0.0069  0.0259  0.2901
 1999SOL    HW117459   3.346   2.465   4.575  1.5633  1.5053 -1.9636
 1999SOL    HW217460   3.248   2.385   4.496 -0.5495  2.5736  2.1302
 2000SOL     OW17461   1.409   2.132   6.809 -0.3914  0.0210  0.2976
 2000SOL    HW117462   1.485   2.146   6.752 -0.0431  0.8030  0.9729
 2000SOL    HW217463   1.380   2.222   6.815 -2.7368 -0.4834 -3.1062
 2001SOL     OW17464   1.558   1.751   5.754  0.0315 -0.0262 -0.6259
 2001SOL    HW117465   1.594   1.839   5.742 -0.3248  0.2653  0.4202
 2001SOL    HW217466   1.618   1.698   5.702  1.2299 -0.5623  1.3171
 2002SOL     OW17467   2.780   1.485  17.140  0.3018  0.3530  0.1156
 2002SOL    HW117468   2.861   1.479  17.091 -1.0601 -3.1053 -1.7248
 2002SOL    HW217469   2.791   1.406  17.192 -1.4363  0.2682  0.3745
 2003SOL     OW17470   3.080   4.294  17.322  0.8871 -0.2366 -0.6402
 2003SOL    HW117471   3.116   4.207  17.303  1.6557  0.1225 -0.8268
 2003SOL    HW217472   3.034   4.270  17.403  1.8739 -1.0780 -0.3295
 2004SOL     OW17473   0.179   2.668   5.539 -0.3771  0.3040 -0.8796
 2004SOL    HW117474   0.130   2.608   5.595  0.8433  1.5579  1.5466
 2004SOL    HW217475   0.267   2.634   5.556  0.8499  3.0461 -1.7346
 2005SOL     OW17476   1.732   1.625   4.844  0.5679  0.1492 -0.0592
 2005SOL    HW117477   1.672   1.554   4.821 -0.7817  0.5538  2.1666
 2005SOL    HW217478   1.706   1.637   4.936  0.6114  1.9361 -0.2785
 2006SOL     OW17479   1.221   0.389   1.493  0.4816 -0.1970  0.1289
 2006SOL    HW117480   1.267   0.324   1.546 -1.2736 -0.0550  1.8431
 2006SOL    HW217481   1.138   0.343   1.480  0.2474  0.2768 -0.0380
 2007SOL     OW17482   1.588   3.613   4.345  0.2796 -0.0333  0.4626
 2007SOL    HW117483   1.667   3.560   4.357  0.8154  0.1664 -2.3110
 2007SOL    HW217484   1.555   3.602   4.434 -1.7178  1.8514 -0.0576
 2008SOL     OW17485   3.271   3.202   8.237 -0.5895  0.5692 -0.3380
 2008SOL    HW117486   3.217   3.176   8.162  0.9147  2.5850 -2.1125
 2008SOL    HW217487   3.290   3.115   8.273 -0.0145  1.9395  2.7168
 2009SOL     OW17488   3.426   3.349   5.032  0.3049  0.4702 -0.1681
 2009SOL    HW117489   3.468   3.282   4.979 -0.1423  0.4877 -0.5412
 2009SOL    HW217490   3.499   3.405   5.058  2.2228 -0.8599 -2.6698
 2010SOL     OW17491   1.030   1.622   7.071 -0.1441 -0.3597  0.2845
 2010SOL    HW117492   0.967   1.596   7.004  2.4947 -3.0481 -1.1311
 2010SOL    HW217493   1.076   1.540   7.086  0.7793  0.5427  2.3914
 2011SOL     OW17494   0.479   3.769   7.608  0.0695  0.5399  0.3543
 2011SOL    HW117495   0.540   3.791   7.678  0.2250  1.5644 -0.1115
 2011SOL    HW217496   0.543   3.765   7.538  0.3473 -3.4459  0.8215
 2012SOL     OW17497   3.185   2.982  16.007 -0.2041 -0.0611  0.1079
 2012SOL    HW117498   3.186   2.897  16.050 -0.2760 -0.7123 -1.1928
 2012SOL    HW217499   3.099   3.017  16.032 -0.3753 -0.5949  0.2571
 2013SOL     OW17500   1.348   1.314   0.150  0.5075 -0.0426  0.1680
 2013SOL    HW117501   1.314   1.263   0.076  0.8094 -0.3146  0.2161
 2013SOL    HW217502   1.324   1.401   0.118 -1.4478  0.2808  2.4843
 2014SOL     OW17503   2.660   2.708  13.265  0.1517  0.2287  0.3319
 2014SOL    HW117504   2.649   2.710  13.360  1.1090 -0.2965  0.4570
 2014SOL    HW217505   2.660   2.616  13.240 -1.5361  0.5594 -0.8382
 2015SOL     OW17506   3.459   0.759   8.150  0.0390 -0.2369 -0.2535
 2015SOL    HW117507   3.513   0.713   8.215  1.4184 -1.2632 -2.1415
 2015SOL    HW217508   3.502   0.843   8.134  1.2565 -0.4574  1.8171
 2016SOL     OW17509   0.910   0.792   1.044 -0.4635  0.0285 -0.1375
 2016SOL    HW117510   0.868   0.830   1.121 -0.5300  1.7726 -1.0226
 2016SOL    HW217511   0.861   0.831   0.972 -0.1411  2.0465  0.7244
 2017SOL     OW17512   3.741   0.512   6.955  0.0981 -0.2762 -0.2961
 2017SOL    HW117513   3.715   0.459   7.031  2.9111 -0.9564  0.1808
 2017SOL    HW217514   3.834   0.517   6.977  0.1206 -0.3331 -0.3815
 2018SOL     OW17515   1.737   3.602   6.886 -0.5301  0.0683  0.3184
 2018SOL    HW117516   1.800   3.599   6.959  0.4868  0.3003 -0.5470
 2018SOL    HW217517   1.695   3.516   6.886 -1.9477  0.7584  1.6348
 2019SOL     OW17518   3.677   1.592   3.738 -0.0921 -0.2455 -0.2282
 2019SOL    HW117519   3.759   1.580   3.691  0.6883  2.2310  0.4893
 2019SOL    HW217520   3.642   1.673   3.702 -0.6071 -0.4056 -0.0963
 2020SOL     OW17521   3.644   0.712  11.028 -0.3602 -0.4679 -0.0446
 2020SOL    HW117522   3.693   0.727  10.947  0.8625  1.2345  1.0133
 2020SOL    HW217523   3.559   0.750  11.008 -0.7758 -1.6175 -0.5143
 2021SOL     OW17524   0.198   1.435   0.453  0.1475  0.6364  0.1326
 2021SOL    HW117525   0.177   1.388   0.373 -0.6645  0.5825  0.3782
 2021SOL    HW217526   0.184   1.526   0.427 -0.4113  0.8622  1.2241
 2022SOL     OW17527   4.023   3.581  13.723  0.3363 -0.2306 -0.6734
 2022SOL    HW117528   4.018   3.645  13.652 -0.8678  2.1859  1.6121
 2022SOL    HW217529   4.108   3.537  13.709 -1.1589 -2.7418 -1.9068
 2023SOL     OW17530   1.639   4.356  10.237  0.2147  0.1260  0.0356
 2023SOL    HW117531   1.669   4.361  10.327  0.9667  1.6040 -0.2914
 2023SOL    HW217532   1.560   4.304  10.251  0.9375 -0.8596  0.3631
 2024SOL     OW17533   0.273   0.848   6.153 -0.0455  0.0595  0.0445
 2024SOL    HW117534   0.216   0.798   6.095 -0.2231 -0.5673  0.7619
 2024SOL    HW217535   0.196   0.870   6.207  1.1667  1.1221  1.3374
 2025SOL     OW17536   3.117   0.973  11.984 -0.3149  0.4088  0.5240
 2025SOL    HW117537   3.170   0.922  11.923 -1.0786  0.2254  0.0130
 2025SOL    HW217538   3.039   0.922  12.003  0.2722 -1.1788 -1.3158
 2026SOL     OW17539   0.025   3.669   0.038 -0.2414 -0.0884  0.5901
 2026SOL    HW117540   4.664   3.685  17.691  1.0396 -0.7826 -2.2084
 2026SOL    HW217541   0.006   3.714   0.121 -0.8704  0.8444 -0.0648
 2027SOL     OW17542   0.301   3.296   7.802  0.4696  0.0619 -0.1871
 2027SOL    HW117543   0.252   3.330   7.727 -1.0736  1.2376  1.3470
 2027SOL    HW217544   0.360   3.371   7.808 -1.6516  1.6881  0.2567
 2028SOL     OW17545   1.500   1.720  17.325 -0.1317  0.9095  0.3886
 2028SOL    HW117546   1.405   1.707  17.329 -0.1085  0.9734  1.2228
 2028SOL    HW217547   1.520   1.661  17.253  0.5914 -0.4612  1.7112
 2029SOL     OW17548   1.200   1.520   8.564 -0.4136 -0.9582  0.1313
 2029SOL    HW117549   1.280   1.518   8.512  0.5830  1.8263  1.5472
 2029SOL    HW217550   1.154   1.579   8.504 -0.0385 -0.0328  0.7368
 2030SOL     OW17551   3.545   4.711   1.291 -0.4567  0.2714 -0.1022
 2030SOL    HW117552   3.455   4.687   1.270 -1.0542  1.1963  1.3647
 2030SOL    HW217553   3.581   4.638   1.341 -0.9790 -0.0623 -0.2097
 2031SOL     OW17554   4.314   4.433  15.377  0.6843  0.0474  0.2690
 2031SOL    HW117555   4.224   4.422  15.405  0.8421 -1.9269 -0.0540
 2031SOL    HW217556   4.325   4.346  15.339  0.0280  0.0885 -0.0137
 2032SOL     OW17557   1.663   1.454   2.427  0.4823  0.2934  0.1400
 2032SOL    HW117558   1.699   1.388   2.486 -2.0568  0.0177  1.4106
 2032SOL    HW217559   1.577   1.470   2.466  0.4828 -0.9498  0.6619
 2033SOL     OW17560   1.727   3.468   3.338  0.0184  0.2007 -0.3538
 2033SOL    HW117561   1.637   3.491   3.359 -0.9884 -3.3599 -0.7455
 2033SOL    HW217562   1.760   3.540   3.284 -1.5172  1.5026  0.4694
 2034SOL     OW17563   2.199   2.365   3.408  0.2033  0.2287 -0.1240
 2034SOL    HW117564   2.232   2.437   3.355 -0.9817 -0.3946 -1.7238
 2034SOL    HW217565   2.253   2.369   3.487  1.7682  0.0129 -1.2051
 2035SOL     OW17566   0.784   0.228  10.649  0.1697  0.4035 -0.0181
 2035SOL    HW117567   0.799   0.238  10.555 -3.1696  0.8458 -0.4985
 2035SOL    HW217568   0.721   0.156  10.648 -0.9226  1.3520  1.2448
 2036SOL     OW17569   0.879   2.679   5.320 -0.7091 -0.1499 -0.4936
 2036SOL    HW117570   0.801   2.732   5.331 -0.8480 -0.6734  1.0209
 2036SOL    HW217571   0.842   2.610   5.265  2.5569 -1.8273 -0.6230
 2037SOL     OW17572   0.561   4.484   6.335  0.6911  0.6069  0.2716
 2037SOL    HW117573   0.610   4.444   6.264  1.8854  1.9464  0.3491
 2037SOL    HW217574   0.621   4.469   6.408  0.3472 -4.1698 -0.4340
 2038SOL     OW17575   4.263   3.002   3.851 -0.3962 -0.5450 -0.2959
 2038SOL    HW117576   4.353   2.969   3.850 -0.6915 -1.3522 -0.8925
 2038SOL    HW217577   4.222   2.925   3.811 -0.1343 -0.8283 -0.0223
 2039SOL     OW17578   0.264   1.519   5.439 -0.3370  0.1480  0.0042
 2039SOL    HW117579   0.192   1.569   5.400 -0.1960 -0.5247 -1.1490
 2039SOL    HW217580   0.234   1.511   5.529  1.6561 -0.1648  0.6280
 2040SOL     OW17581   2.068   2.797   6.352  0.0605  0.0240  0.5557
 2040SOL    HW117582   2.022   2.880   6.364 -1.0259 -0.3384 -1.0733
 2040SOL    HW217583   2.063   2.775   6.259 -1.8479 -0.6908  0.8305
 2041SOL     OW17584   2.905   0.413  11.049 -0.2655  0.0849  0.1815
 2041SOL    HW117585   2.974   0.456  11.000 -1.1110 -0.0973 -1.1662
 2041SOL    HW217586   2.836   0.480  11.040 -0.8244 -0.6230 -0.7603
 2042SOL     OW17587   3.089   3.799  14.937 -0.3098  0.5130 -0.2381
 2042SOL    HW117588   3.033   3.733  14.977  2.3524 -1.3055  0.4586
 2042SOL    HW217589   3.169   3.748  14.938 -1.5372 -1.3875  0.8506
 2043SOL     OW17590   3.032   4.148   9.782  0.2299 -0.1139 -0.5188
 2043SOL    HW117591   2.988   4.114   9.860  3.1631 -3.2466 -0.2735
 2043SOL    HW217592   3.005   4.086   9.715 -0.1546 -0.9237  0.3747
 2044SOL     OW17593   3.677   3.006   1.624 -0.1838  0.1755  0.1058
 2044SOL    HW117594   3.640   3.077   1.676 -0.7933  0.1730 -0.3266
 2044SOL    HW217595   3.736   2.962   1.685 -0.0256  1.6427  0.9989
 2045SOL     OW17596   1.486   3.374  17.329 -0.2372  0.0378 -0.3745
 2045SOL    HW117597   1.433   3.388  17.407  0.8141  3.2546 -0.2141
 2045SOL    HW217598   1.438   3.299  17.294  0.1926  0.6553 -2.3314
 2046SOL     OW17599   3.456   0.659   1.893 -0.1627  0.1852 -0.3185
 2046SOL    HW117600   3.548   0.647   1.914 -0.6338 -0.9148  1.0626
 2046SOL    HW217601   3.460   0.755   1.894 -0.9952  0.2297 -0.6324
 2047SOL     OW17602   1.203   4.073   1.065  0.3447 -0.1655  0.5818
 2047SOL    HW117603   1.209   4.155   1.016  1.1919 -0.5289  0.0812
 2047SOL    HW217604   1.286   4.025   1.056  1.9211  2.8884 -1.1101
 2048SOL     OW17605   1.281   0.036  13.862  0.2664  0.4279  0.2429
 2048SOL    HW117606   1.348   0.063  13.924  1.0762 -0.2285 -0.3584
 2048SOL    HW217607   1.234   4.684  13.899 -2.8991  2.5691  0.5951
 2049SOL     OW17608   4.416   0.337   3.858  0.1610 -0.0158  0.8910
 2049SOL    HW117609   4.394   0.419   3.902 -1.6679 -0.1286  0.2012
 2049SOL    HW217610   4.466   0.360   3.780  1.1160 -1.7275  1.0085
 2050SOL     OW17611   2.298   2.103   4.981  0.3621  0.3835  0.3789
 2050SOL    HW117612   2.232   2.133   5.044 -0.6962  1.2440 -1.1144
 2050SOL    HW217613   2.235   2.057   4.925 -0.6210  1.3013  0.7206
 2051SOL     OW17614   2.617   4.072   5.550  0.2207  0.4117  0.1174
 2051SOL    HW117615   2.710   4.085   5.534  0.1159  0.6321 -0.3236
 2051SOL    HW217616   2.573   4.151   5.517 -0.2577  0.0094 -0.2231
 2052SOL     OW17617   1.130   1.068  10.050  0.0661  0.0701  0.3587
 2052SOL    HW117618   1.047   1.097  10.089 -0.7313 -1.2748 -0.3015
 2052SOL    HW217619   1.174   1.152  10.039 -0.3490  0.4618  1.7129
 2053SOL     OW17620   3.126   4.267   5.324  0.2044  0.3056  0.1005
 2053SOL    HW117621   3.133   4.354   5.285  1.2988  0.0696 -0.2460
 2053SOL    HW217622   3.189   4.268   5.397  0.3232  1.7167 -0.0297
 2054SOL     OW17623   4.150   2.951   2.082 -0.1151  0.1550 -0.0958
 2054SOL    HW117624   4.081   2.898   2.123 -1.6697  1.4343 -1.0798
 2054SOL    HW217625   4.150   3.018   2.150  1.4986  0.2249 -0.1680
 2055SOL     OW17626   2.809   1.634   7.810 -0.1156  0.6276 -0.2808
 2055SOL    HW117627   2.897   1.597   7.805 -0.7202 -1.1391  2.1339
 2055SOL    HW217628   2.776   1.580   7.882  0.4392 -0.8949 -1.1744
 2056SOL     OW17629   0.539   3.063   7.725  0.3082  0.0108  0.0916
 2056SOL    HW117630   0.559   3.067   7.632  0.7036 -1.4331  0.1209
 2056SOL    HW217631   0.483   3.138   7.746  0.4491 -0.0374  0.6397
 2057SOL     OW17632   2.818   3.289  16.886  0.4345 -0.0978  0.1991
 2057SOL    HW117633   2.910   3.288  16.912  0.4075  0.9855  0.3588
 2057SOL    HW217634   2.796   3.205  16.847 -2.2767  0.1775  1.1493
 2058SOL     OW17635   3.066   0.170   1.993  0.2608 -0.0531  0.4122
 2058SOL    HW117636   3.026   0.217   2.066 -0.3108  2.2332 -1.4148
 2058SOL    HW217637   3.026   0.083   2.000 -0.8620  0.5196  1.1133
 2059SOL     OW17638   3.839   1.034   5.294 -0.0561 -0.1692 -0.1413
 2059SOL    HW117639   3.894   1.064   5.366 -0.3721  0.7560 -0.2781
 2059SOL    HW217640   3.838   1.112   5.238 -0.3541  0.0099  0.1148
 2060SOL     OW17641   2.990   4.300   3.475 -0.0604  0.8251 -0.1229
 2060SOL    HW117642   2.959   4.211   3.492  0.9897  0.7098  1.1443
 2060SOL    HW217643   3.079   4.275   3.496 -0.5948 -1.2484 -0.3844
 2061SOL     OW17644   3.249   3.977   2.685  0.5453 -0.1808  0.1267
 2061SOL    HW117645   3.208   4.058   2.655 -0.3532 -0.8289 -0.3902
 2061SOL    HW217646   3.167   3.934   2.708 -0.4383 -0.6925 -4.2805
 2062SOL     OW17647   3.810   2.415   3.824  0.0818  0.0524 -0.2603
 2062SOL    HW117648   3.715   2.413   3.813 -0.2275 -1.1394  2.6570
 2062SOL    HW217649   3.851   2.335   3.790 -0.3577 -0.1271 -0.3652
 2063SOL     OW17650   3.270   4.292   9.777 -0.2355 -0.4213 -0.1090
 2063SOL    HW117651   3.199   4.228   9.783  0.9232 -1.6980  0.0090
 2063SOL    HW217652   3.249   4.331   9.693  1.4883 -2.0604 -1.2934
 2064SOL     OW17653   2.402   2.625   6.576 -0.0861  0.0508 -0.5056
 2064SOL    HW117654   2.364   2.682   6.509 -0.1639  0.1976 -0.3361
 2064SOL    HW217655   2.339   2.626   6.649  0.6545 -0.5550  0.1395
 2065SOL     OW17656   2.159   0.161   3.873  0.3919  0.3647 -0.3231
 2065SOL    HW117657   2.157   0.255   3.854 -0.3201  0.1890 -1.0813
 2065SOL    HW217658   2.107   0.162   3.954  0.0789 -0.0872 -0.5206
 2066SOL     OW17659   2.000   3.155   9.037 -0.1396 -0.2677 -0.2089
 2066SOL    HW117660   2.002   3.244   9.071 -1.0015 -0.2943 -0.0849
 2066SOL    HW217661   2.063   3.102   9.086 -0.0564 -0.5235 -0.5884
 2067SOL     OW17662   3.486   2.853   1.482 -0.3556 -0.0361  0.1917
 2067SOL    HW117663   3.547   2.913   1.525 -0.1913  0.7814 -1.1889
 2067SOL    HW217664   3.414   2.901   1.522 -1.0232  0.8634 -2.0781
 2068SOL     OW17665   2.351   0.775   9.695 -0.0918  0.5216  1.0287
 2068SOL    HW117666   2.358   0.701   9.755 -0.9399 -0.9395 -0.6978
 2068SOL    HW217667   2.319   0.849   9.748  0.3894  1.5289 -0.0915
 2069SOL     OW17668   0.151   1.066   5.856 -0.0182  0.4021  0.1839
 2069SOL    HW117669   0.062   1.054   5.890  0.7904 -1.7895  1.5844
 2069SOL    HW217670   0.143   1.098   5.766 -1.2110  1.5338  0.6899
 2070SOL     OW17671   3.043   3.862   5.620 -0.1161  0.0803 -0.7526
 2070SOL    HW117672   2.997   3.914   5.686  0.7519  0.1379 -0.1895
 2070SOL    HW217673   2.999   3.778   5.634 -0.7759  0.9247  2.2900
 2071SOL     OW17674   3.663   1.563  12.239  0.0977  0.5178  0.1636
 2071SOL    HW117675   3.697   1.575  12.150  1.4350 -0.6414  0.5143
 2071SOL    HW217676   3.583   1.519  12.212  0.0473  0.8096 -0.1647
 2072SOL     OW17677   4.257   0.778  14.393 -0.2568 -0.0642 -0.0563
 2072SOL    HW117678   4.341   0.775  14.347  0.2643  0.0547  0.8744
 2072SOL    HW217679   4.192   0.723  14.348 -0.9233 -0.8551  1.8702
 2073SOL     OW17680   0.588   4.479   8.883 -0.5829 -0.2238  0.2905
 2073SOL    HW117681   0.609   4.471   8.976  1.9073  2.4515 -0.0210
 2073SOL    HW217682   0.545   4.396   8.863  0.4665 -0.7607  0.2651
 2074SOL     OW17683   3.020   2.402  13.240 -0.1179 -0.2873  0.8469
 2074SOL    HW117684   3.055   2.471  13.185 -0.6944  0.2612  1.1637
 2074SOL    HW217685   3.050   2.435  13.325  0.3632 -1.1591  1.0246
 2075SOL     OW17686   1.704   0.718   6.756 -0.3074 -0.4204 -0.6456
 2075SOL    HW117687   1.769   0.649   6.772 -2.1531 -2.1551 -0.5734
 2075SOL    HW217688   1.749   0.767   6.687  1.3919  0.5107  1.1528
 2076SOL     OW17689   3.699   2.268  14.164 -0.4846 -0.0973 -0.1859
 2076SOL    HW117690   3.774   2.322  14.186 -0.8127  0.7223 -1.0554
 2076SOL    HW217691   3.739   2.181  14.161  0.3401  0.1237  5.2566
 2077SOL     OW17692   4.223   3.187   2.788 -0.3034  0.2105  0.2115
 2077SOL    HW117693   4.168   3.229   2.854 -1.0826 -1.8788  0.8816
 2077SOL    HW217694   4.310   3.199   2.826  0.4300  1.4418 -1.8326
 2078SOL     OW17695   3.370   0.038   3.683 -0.0299  0.1593 -0.6652
 2078SOL    HW117696   3.328   0.067   3.765 -2.4509  1.8324 -2.5071
 2078SOL    HW217697   3.460   0.022   3.710  0.0595  0.7929 -0.5974
 2079SOL     OW17698   2.688   0.037   2.378  0.0083  0.0711  0.2086
 2079SOL    HW117699   2.783   0.040   2.375 -0.0289  0.1103 -0.9347
 2079SOL    HW217700   2.668   0.130   2.380 -0.1010  0.0560 -0.3093
 2080SOL     OW17701   2.742   2.255   2.061 -0.5448 -0.0754 -0.4467
 2080SOL    HW117702   2.670   2.223   2.007 -0.3916 -1.1331 -0.0135
 2080SOL    HW217703   2.727   2.347   2.036 -3.1759 -1.0746 -2.5232
 2081SOL     OW17704   1.999   2.471   2.834 -0.1572  0.1512 -0.2265
 2081SOL    HW117705   1.907   2.449   2.821  0.2325 -1.7075  0.1693
 2081SOL    HW217706   1.990   2.548   2.891  0.6877  0.7213 -0.8628
 2082SOL     OW17707   0.901   0.160   2.988 -0.4796  0.4211  0.3385
 2082SOL    HW117708   0.922   0.188   3.076 -1.8113 -0.5194  0.9597
 2082SOL    HW217709   0.991   0.156   2.954 -0.9832  1.4843 -1.0968
 2083SOL     OW17710   4.686   1.571   4.050  0.1429 -0.3142 -0.8137
 2083SOL    HW117711   4.605   1.569   4.101 -0.1340  0.8294 -1.2022
 2083SOL    HW217712   4.720   1.483   4.067 -0.3075 -0.6553 -1.6391
 2084SOL     OW17713   3.516   4.713   0.097 -0.0618  0.4616  0.5044
 2084SOL    HW117714   3.593   4.683   0.145 -0.7552 -2.5280 -0.2319
 2084SOL    HW217715   3.495   4.638   0.041 -0.3522  1.6625 -0.9952
 2085SOL     OW17716   3.282   1.744  14.477 -0.5689  0.0330  0.1196
 2085SOL    HW117717   3.295   1.773  14.387 -0.8348 -1.9794 -0.5838
 2085SOL    HW217718   3.214   1.677  14.469 -0.8542  0.6259 -2.3035
 2086SOL     OW17719   1.726   4.598   5.852  0.0881 -0.0434  0.0698
 2086SOL    HW117720   1.757   4.678   5.810 -1.3578 -0.1986 -1.3094
 2086SOL    HW217721   1.683   4.547   5.782 -0.2519 -0.4052  0.5434
 2087SOL     OW17722   3.888   2.165   2.633  0.6420  0.1807 -0.1172
 2087SOL    HW117723   3.825   2.093   2.629  1.3642 -0.8551  5.7873
 2087SOL    HW217724   3.963   2.108   2.615  1.0977  0.7937 -0.1716
 2088SOL     OW17725   1.074   0.884  17.567 -0.2957 -0.2710 -0.2755
 2088SOL    HW117726   1.005   0.923  17.621  0.0819 -0.9823  0.7228
 2088SOL    HW217727   1.036   0.903  17.481  0.0106 -1.4884 -0.6798
 2089SOL     OW17728   0.016   2.614   2.677  0.3474 -0.2889 -0.2628
 2089SOL    HW117729   4.669   2.661   2.632 -0.3413 -0.7663  0.2968
 2089SOL    HW217730   0.077   2.681   2.705  1.4164 -0.3886 -2.3688
 2090SOL     OW17731   1.416   0.404   5.523  0.0740  0.1617  0.0825
 2090SOL    HW117732   1.438   0.454   5.602  1.0408  0.4062 -0.3407
 2090SOL    HW217733   1.323   0.424   5.512  0.0320  0.4756  0.9799
 2091SOL     OW17734   3.292   0.145   8.684 -0.2447 -0.3487 -0.0049
 2091SOL    HW117735   3.308   0.215   8.747  4.1957 -1.8619  0.5241
 2091SOL    HW217736   3.335   0.185   8.608  1.3580  0.2969  1.2510
 2092SOL     OW17737   2.050   0.470  17.176 -0.3769 -0.0331 -0.1427
 2092SOL    HW117738   2.093   0.537  17.230  1.7020 -1.3905 -0.1336
 2092SOL    HW217739   2.057   0.397  17.237  2.9905 -1.9506 -2.8626
 2093SOL     OW17740   1.900   3.000   6.410 -0.5237 -0.1038 -0.2437
 2093SOL    HW117741   1.820   3.011   6.358 -1.0103  1.1815  0.7780
 2093SOL    HW217742   1.938   3.087   6.394  3.4694 -1.5100  1.6655
 2094SOL     OW17743   2.792   3.752   4.707 -0.2590  0.8738  0.1986
 2094SOL    HW117744   2.790   3.781   4.799  2.8085  1.7953 -0.0057
 2094SOL    HW217745   2.702   3.744   4.676  0.0192  1.0526 -0.6422
 2095SOL     OW17746   1.592   4.081  12.524 -0.0212  0.3133  0.0053
 2095SOL    HW117747   1.561   4.110  12.439  0.1321  0.7894  0.1094
 2095SOL    HW217748   1.687   4.096  12.526  0.0476 -0.1304  0.0916
 2096SOL     OW17749   0.072   4.684   2.193 -0.0274  0.3602  0.0212
 2096SOL    HW117750   0.068   4.705   2.286  1.6307  0.0006  0.1696
 2096SOL    HW217751   0.067   0.048   2.153 -0.1577 -0.4358 -1.6790
 2097SOL     OW17752   1.586   3.729   8.146 -0.4945  0.0217 -0.3294
 2097SOL    HW117753   1.544   3.719   8.232 -2.5494 -0.2739 -1.3809
 2097SOL    HW217754   1.667   3.682   8.166 -0.1203  1.6229  2.0114
 2098SOL     OW17755   3.367   0.411  10.075 -0.3399  0.0470  0.1593
 2098SOL    HW117756   3.449   0.384  10.034  0.6109  2.5869  0.3575
 2098SOL    HW217757   3.400   0.451  10.155 -3.0843  3.1790 -0.2515
 2099SOL     OW17758   0.020   0.825  11.237 -0.2265  0.0415 -0.1516
 2099SOL    HW117759   4.685   0.804  11.310  0.2766 -0.1647  0.1945
 2099SOL    HW217760   4.694   0.898  11.201 -1.2751 -0.4304  0.3245
 2100SOL     OW17761   2.533   1.272   3.415 -0.4099  0.2566 -0.0136
 2100SOL    HW117762   2.503   1.195   3.464  0.6364  0.7142  1.3113
 2100SOL    HW217763   2.628   1.262   3.419 -0.3636  0.8062  0.2478
 2101SOL     OW17764   3.144   1.046   9.323  0.4654  0.1152  0.1862
 2101SOL    HW117765   3.145   1.043   9.228 -0.8421  0.3925  0.1596
 2101SOL    HW217766   3.126   0.955   9.347  0.4932 -0.0270 -0.3474
 2102SOL     OW17767   2.270   0.967  13.218  0.1138  0.1890 -0.6016
 2102SOL    HW117768   2.248   0.895  13.158 -2.1268  0.4091 -0.0334
 2102SOL    HW217769   2.265   0.918  13.300 -0.9032 -1.9908 -1.9550
 2103SOL     OW17770   0.452   4.476   3.569 -0.3155 -0.5425 -0.0319
 2103SOL    HW117771   0.436   4.560   3.525  1.6221  0.0869  0.4554
 2103SOL    HW217772   0.463   4.421   3.491  1.4893 -0.2383 -0.0002
 2104SOL     OW17773   0.907   2.541  10.008  0.0843 -0.2884 -0.2840
 2104SOL    HW117774   0.812   2.525  10.003 -0.0984  1.3949 -2.5936
 2104SOL    HW217775   0.956   2.484   9.949  2.5327 -0.0432  1.5357
 2105SOL     OW17776   1.877   2.754   7.292 -0.0638  0.0351 -0.6457
 2105SOL    HW117777   1.972   2.746   7.296 -0.1571 -0.8397 -0.3148
 2105SOL    HW217778   1.857   2.662   7.276  0.9204 -0.7265  2.6801
 2106SOL     OW17779   1.278   2.484   7.975  0.0749  0.0542 -0.1282
 2106SOL    HW117780   1.273   2.473   8.070 -0.9528  1.1079 -0.0728
 2106SOL    HW217781   1.193   2.462   7.937  0.4672 -1.1687 -0.3282
 2107SOL     OW17782   0.889   0.131   3.287 -0.5025  0.5173 -0.8371
 2107SOL    HW117783   0.976   0.138   3.325 -0.7574 -2.2076  0.2022
 2107SOL    HW217784   0.857   0.052   3.330  0.1041  0.1875 -0.9919
 2108SOL     OW17785   2.464   0.131   1.811 -0.1742 -0.1202  0.1464
 2108SOL    HW117786   2.404   0.199   1.841  0.5460  1.0680 -1.1079
 2108SOL    HW217787   2.412   0.053   1.789 -0.3849  0.4385 -1.3254
 2109SOL     OW17788   3.430   3.912   5.810  0.1225  0.1494  0.1473
 2109SOL    HW117789   3.520   3.891   5.837 -0.8525 -2.8088  1.1077
 2109SOL    HW217790   3.389   3.833   5.846  1.4024 -0.7285 -0.3130
 2110SOL     OW17791   1.746   4.377  12.235  0.1100  1.1450 -0.4950
 2110SOL    HW117792   1.841   4.383  12.236  0.0801  1.8984 -2.3215
 2110SOL    HW217793   1.718   4.431  12.309 -1.3552 -0.4465  0.1041
 2111SOL     OW17794   1.462   2.576   5.031  0.1090  0.7705 -0.6262
 2111SOL    HW117795   1.431   2.613   4.949  0.8494 -0.1704 -1.3355
 2111SOL    HW217796   1.382   2.592   5.081 -0.0911 -3.3825  0.4074
 2112SOL     OW17797   1.653   1.650  16.414 -0.2568  0.0920 -0.1664
 2112SOL    HW117798   1.584   1.593  16.380  0.2811  0.5661 -2.0686
 2112SOL    HW217799   1.713   1.647  16.339  1.0382  2.1795  0.7820
 2113SOL     OW17800   3.609   3.163   8.244  0.1460 -0.5041  0.1322
 2113SOL    HW117801   3.675   3.125   8.302 -0.3976 -1.1695  0.3147
 2113SOL    HW217802   3.557   3.084   8.230  0.4020 -0.8944  1.4267
 2114SOL     OW17803   2.963   0.316   3.803 -0.4175  0.3993  0.1724
 2114SOL    HW117804   2.950   0.348   3.893 -1.6450 -0.4067  0.2755
 2114SOL    HW217805   2.873   0.301   3.776 -0.8918  2.8600  0.4240
 2115SOL     OW17806   1.941   1.557  11.864 -0.0217 -0.6466 -0.3124
 2115SOL    HW117807   1.874   1.622  11.884 -1.4527 -1.8638 -1.0744
 2115SOL    HW217808   2.002   1.572  11.937  0.5025 -3.5909 -0.1259
 2116SOL     OW17809   2.978   4.305   8.523  0.1105 -0.0551 -0.0485
 2116SOL    HW117810   2.934   4.315   8.439  0.4427  3.3225  0.1928
 2116SOL    HW217811   3.036   4.231   8.501  0.6564  0.3395  0.0699
 2117SOL     OW17812   2.911   0.967   5.112  0.5980  0.3865 -0.7841
 2117SOL    HW117813   2.910   1.062   5.124 -2.9786  0.5303 -2.3333
 2117SOL    HW217814   2.908   0.965   5.016  2.2758 -1.3933 -0.7948
 2118SOL     OW17815   1.907   4.163   0.888 -0.2379 -0.3858  0.3051
 2118SOL    HW117816   1.892   4.068   0.887  0.9863 -0.5330 -2.3936
 2118SOL    HW217817   1.984   4.162   0.832  1.3277  2.1412  2.3630
 2119SOL     OW17818   2.968   2.507   0.298 -0.2608  0.3636  0.0576
 2119SOL    HW117819   3.017   2.427   0.315 -0.2780  0.5511  1.0298
 2119SOL    HW217820   2.884   2.481   0.336 -0.2366  0.9721  0.5217
 2120SOL     OW17821   0.012   4.696   6.351  0.7714  0.2139  0.8725
 2120SOL    HW117822   0.064   4.616   6.341 -1.7596 -1.5635  2.1370
 2120SOL    HW217823   4.665   4.672   6.410  0.1659  1.3765  0.6299
 2121SOL     OW17824   1.185   0.052   2.438  0.0602  0.1440  0.5390
 2121SOL    HW117825   1.145   0.008   2.363  1.4173 -1.0340  0.5007
 2121SOL    HW217826   1.274   0.017   2.442 -0.2671 -0.5150  1.8569
 2122SOL     OW17827   1.714   4.363   1.332 -0.6581 -0.0588 -0.2847
 2122SOL    HW117828   1.773   4.323   1.268  0.8286  2.9102 -0.7710
 2122SOL    HW217829   1.742   4.453   1.315 -1.8875  0.4923  0.5627
 2123SOL     OW17830   1.084   3.108   9.205  0.7069  0.1058  0.2160
 2123SOL    HW117831   1.100   3.189   9.156  0.3217  0.5332  0.7975
 2123SOL    HW217832   1.159   3.105   9.265  1.9792 -0.5752 -1.4017
 2124SOL     OW17833   2.890   3.720   8.009  0.0407  0.3394  0.1301
 2124SOL    HW117834   2.927   3.776   7.940 -0.0977  2.6017  1.9085
 2124SOL    HW217835   2.891   3.782   8.081  0.6303  0.7982 -0.2698
 2125SOL     OW17836   3.913   1.641  12.548 -0.0019  0.5800  0.3421
 2125SOL    HW117837   3.822   1.638  12.577 -0.2607 -1.8469 -0.7402
 2125SOL    HW217838   3.963   1.591  12.612 -0.8922 -3.7024 -2.2784
 2126SOL     OW17839   3.677   0.173   5.288  0.1367  0.1133 -0.1123
 2126SOL    HW117840   3.637   0.224   5.218 -1.0172  0.2256  0.6270
 2126SOL    HW217841   3.714   0.094   5.249 -1.7953 -1.0674  0.4601
 2127SOL     OW17842   4.355   2.628   2.767  0.2962 -0.2418 -0.3264
 2127SOL    HW117843   4.371   2.692   2.698 -0.6693  0.0970 -0.2303
 2127SOL    HW217844   4.259   2.624   2.765  0.2799 -1.0416  1.4172
 2128SOL     OW17845   1.757   4.254   3.016  0.0924 -0.2252 -0.6161
 2128SOL    HW117846   1.837   4.297   2.987  0.3080  0.3304  0.7928
 2128SOL    HW217847   1.794   4.166   3.017  0.8300  0.0804 -1.4946
 2129SOL     OW17848   3.610   4.276   8.462  0.0776  0.2418 -0.6812
 2129SOL    HW117849   3.547   4.204   8.455  0.6933 -0.2301 -1.2555
 2129SOL    HW217850   3.695   4.234   8.477  1.2602  2.5719 -0.8792
 2130SOL     OW17851   0.231   4.095   4.747  0.4530  0.2731  0.2819
 2130SOL    HW117852   0.200   4.006   4.760  0.9300  0.0014 -0.4778
 2130SOL    HW217853   0.285   4.090   4.668 -1.2529  0.3459 -0.8913
 2131SOL     OW17854   1.223   0.349   3.724 -0.4337 -0.7401 -0.1013
 2131SOL    HW117855   1.178   0.265   3.712 -0.8983 -0.4341 -0.4952
 2131SOL    HW217856   1.260   0.337   3.811 -0.5196  0.6387  0.1185
 2132SOL     OW17857   1.133   3.089   5.770  0.1005  0.4484  0.1445
 2132SOL    HW117858   1.201   3.155   5.787 -0.9592  1.5356  0.1435
 2132SOL    HW217859   1.149   3.065   5.679 -0.9546  1.2463 -0.2470
 2133SOL     OW17860   1.034   1.421   7.975 -0.3332 -0.3767 -0.8618
 2133SOL    HW117861   1.062   1.338   8.014  0.2572  0.2995  0.1497
 2133SOL    HW217862   1.074   1.424   7.888  1.5936  0.1482  0.0378
 2134SOL     OW17863   3.821   2.483   6.016 -0.5356 -0.0538  0.3017
 2134SOL    HW117864   3.843   2.517   6.103  0.6532  1.5593 -0.6236
 2134SOL    HW217865   3.893   2.421   6.008 -0.8682 -0.4749  0.5807
 2135SOL     OW17866   3.100   4.340   4.872  0.3626 -0.4112 -0.1766
 2135SOL    HW117867   3.035   4.406   4.846  0.1999 -0.2377  0.6745
 2135SOL    HW217868   3.174   4.369   4.819 -2.3438  2.6443 -2.2663
 2136SOL     OW17869   0.562   1.135   2.898  0.5834 -0.5945  0.0772
 2136SOL    HW117870   0.587   1.061   2.843 -2.8398 -0.1874 -2.0959
 2136SOL    HW217871   0.481   1.107   2.942  0.3958 -2.5252 -1.4929
 2137SOL     OW17872   1.455   0.608  16.159  0.0984  0.0406 -0.5264
 2137SOL    HW117873   1.414   0.522  16.151  0.3160 -0.0619 -0.5377
 2137SOL    HW217874   1.528   0.597  16.221 -0.6494 -3.8205 -0.3797
 2138SOL     OW17875   1.096   3.669   3.590  0.0767  0.2160  0.2861
 2138SOL    HW117876   1.073   3.591   3.640  1.2656  0.0147  0.5207
 2138SOL    HW217877   1.063   3.646   3.503 -2.5452  0.6044  1.1735
 2139SOL     OW17878   2.493   3.207   9.953  0.1241 -0.1633  0.3577
 2139SOL    HW117879   2.410   3.246   9.981  0.6247  0.3874  1.0764
 2139SOL    HW217880   2.487   3.112   9.964 -1.0251 -0.0377  0.7966
 2140SOL     OW17881   1.930   2.459  15.300  0.5403 -0.0971 -0.1161
 2140SOL    HW117882   1.918   2.491  15.389 -2.8276  0.9552 -0.9292
 2140SOL    HW217883   1.996   2.392  15.315  0.0138 -0.7244 -0.6031
 2141SOL     OW17884   0.505   3.475   3.219 -0.1827 -0.1166  0.0312
 2141SOL    HW117885   0.483   3.385   3.240 -0.0199 -0.2902 -0.5498
 2141SOL    HW217886   0.583   3.474   3.164 -1.6856 -1.5217 -2.0485
 2142SOL     OW17887   0.552   3.578   5.500 -0.8010 -0.4396  0.0394
 2142SOL    HW117888   0.495   3.501   5.507 -3.0284  1.2124  0.1286
 2142SOL    HW217889   0.623   3.568   5.564  0.1917 -1.2268 -1.1910
 2143SOL     OW17890   4.522   0.868   5.492 -0.1407 -0.7298 -0.0518
 2143SOL    HW117891   4.517   0.902   5.581 -1.0583 -1.7278  0.2708
 2143SOL    HW217892   4.491   0.780   5.512  0.0241 -0.4048  1.6384
 2144SOL     OW17893   4.156   0.072   2.312 -0.2532  0.5272  0.0916
 2144SOL    HW117894   4.233   0.035   2.269  0.1459  1.3752  0.0746
 2144SOL    HW217895   4.108   4.718   2.340 -0.2187  0.2774 -0.5504
 2145SOL     OW17896   3.808   0.344  13.624  0.1547  0.4419  0.6071
 2145SOL    HW117897   3.775   0.374  13.540  2.4555 -1.7549 -1.0686
 2145SOL    HW217898   3.739   0.282  13.649  2.5059 -1.9035  1.2493
 2146SOL     OW17899   0.673   3.276   6.328 -0.1390 -0.0301  1.0646
 2146SOL    HW117900   0.653   3.368   6.340 -1.2587 -0.0249 -0.8957
 2146SOL    HW217901   0.768   3.287   6.339  0.1491  1.1072 -2.5438
 2147SOL     OW17902   0.829   3.092   6.749 -0.4307  0.4924  0.2636
 2147SOL    HW117903   0.767   3.111   6.820  0.3148  2.0485  0.4950
 2147SOL    HW217904   0.842   3.181   6.715  0.3786 -1.0023 -3.3144
 2148SOL     OW17905   3.456   1.129  15.077 -0.1768 -0.4328 -0.1854
 2148SOL    HW117906   3.514   1.063  15.040  0.3538 -1.4693  2.5438
 2148SOL    HW217907   3.379   1.075  15.094  0.1802 -0.8008  0.2322
 2149SOL     OW17908   2.003   3.630   8.998 -0.6719 -0.0143 -0.2275
 2149SOL    HW117909   1.910   3.640   9.016 -0.4116 -1.8986  2.0827
 2149SOL    HW217910   2.002   3.579   8.917 -0.7947  0.0115 -0.2422
 2150SOL     OW17911   4.685   2.222   8.923 -0.8565 -0.0774 -0.6838
 2150SOL    HW117912   0.048   2.261   8.935 -0.0394 -1.7635 -1.1431
 2150SOL    HW217913   4.670   2.177   9.006 -0.6237  1.4862  0.2132
 2151SOL     OW17914   2.529   1.810  17.559 -0.2707  0.0485  0.6652
 2151SOL    HW117915   2.569   1.884  17.512 -0.4467 -0.0351  0.3852
 2151SOL    HW217916   2.556   1.832  17.648  2.3316 -1.2665  0.1975
 2152SOL     OW17917   0.382   1.218   1.216 -0.5388  0.0950 -0.2014
 2152SOL    HW117918   0.333   1.143   1.182 -1.0388 -0.1981  1.1921
 2152SOL    HW217919   0.366   1.286   1.150 -2.6895 -1.9330 -1.7853
 2153SOL     OW17920   4.458   2.235   7.835 -0.0951  0.0610  0.1637
 2153SOL    HW117921   4.475   2.325   7.807  2.3775 -0.2059  0.8130
 2153SOL    HW217922   4.472   2.257   7.927 -1.3182 -1.1618  0.6313
 2154SOL     OW17923   2.559   3.168   7.520 -0.2707 -0.5757  0.5089
 2154SOL    HW117924   2.539   3.262   7.518  1.2591 -0.2578  0.5327
 2154SOL    HW217925   2.646   3.162   7.559 -0.2876 -1.0991  0.4578
 2155SOL     OW17926   3.832   2.796   5.160  0.0455 -0.1118 -0.5898
 2155SOL    HW117927   3.781   2.803   5.240 -0.5653  1.7554 -1.1524
 2155SOL    HW217928   3.868   2.884   5.147 -1.7667  0.8626  0.9871
 2156SOL     OW17929   3.557   3.129  11.726 -0.6140  0.0159 -0.9726
 2156SOL    HW117930   3.478   3.154  11.677 -0.5654 -0.1370 -1.1309
 2156SOL    HW217931   3.562   3.192  11.797 -2.6313  0.7381 -1.4724
 2157SOL     OW17932   4.418   4.604   8.221 -0.1649  0.5454  0.5703
 2157SOL    HW117933   4.451   4.516   8.205 -1.8711  0.3355 -1.8349
 2157SOL    HW217934   4.487   4.635   8.280  1.8110 -1.8807 -0.4883
 2158SOL     OW17935   3.530   4.581   9.662 -0.2393  0.2538  0.2714
 2158SOL    HW117936   3.545   4.552   9.751  1.6743  0.6733  0.0760
 2158SOL    HW217937   3.434   4.575   9.658 -0.1808 -0.2223 -0.6333
 2159SOL     OW17938   3.451   2.343  15.304  0.0456 -0.2957  0.1141
 2159SOL    HW117939   3.465   2.356  15.210  1.2993 -1.0025  0.2058
 2159SOL    HW217940   3.472   2.426  15.346 -3.8747 -0.1450  1.7842
 2160SOL     OW17941   3.946   3.682   7.562 -0.4004  0.4582 -0.6623
 2160SOL    HW117942   4.028   3.730   7.553  0.0115  0.5286  3.4150
 2160SOL    HW217943   3.948   3.624   7.486  0.7303 -0.9052  0.4327
 2161SOL     OW17944   1.246   4.150  17.370  0.3122 -0.2448 -0.6394
 2161SOL    HW117945   1.289   4.123  17.288  0.8872 -1.8288  0.1883
 2161SOL    HW217946   1.293   4.106  17.441 -1.8620 -1.7730 -0.1370
 2162SOL     OW17947   2.266   0.371   3.433 -0.9544  0.3160 -0.2790
 2162SOL    HW117948   2.189   0.414   3.396  0.0781  2.5867  0.2502
 2162SOL    HW217949   2.227   0.285   3.449  0.8595 -0.7837 -1.6537
 2163SOL     OW17950   3.847   0.303   5.690  0.0381  0.6494  0.1991
 2163SOL    HW117951   3.852   0.345   5.776 -1.2869  2.5268 -0.6166
 2163SOL    HW217952   3.844   0.372   5.624  1.0920  2.4675  2.0460
 2164SOL     OW17953   3.124   3.894  12.986 -0.5737  0.2103 -0.0293
 2164SOL    HW117954   3.039   3.930  12.962 -1.4327 -2.0612 -0.4480
 2164SOL    HW217955   3.150   3.844  12.908 -2.2597 -0.6306 -0.0662
 2165SOL     OW17956   0.502   4.488   2.339 -0.4294 -0.0234 -0.4955
 2165SOL    HW117957   0.452   4.514   2.261 -0.7934 -0.8998 -0.5628
 2165SOL    HW217958   0.594   4.485   2.313  0.0613 -3.8453  1.7818
 2166SOL     OW17959   3.079   1.154   6.072 -0.4548 -0.5604  0.6473
 2166SOL    HW117960   3.077   1.205   5.991 -3.2387 -2.8125 -0.7049
 2166SOL    HW217961   3.066   1.066   6.037  3.7369 -1.2133  0.7558
 2167SOL     OW17962   1.719   2.138   6.142 -0.4654  0.6073  0.1001
 2167SOL    HW117963   1.780   2.087   6.088 -0.6480  1.7749 -1.1949
 2167SOL    HW217964   1.772   2.211   6.173  1.8935 -0.7173 -0.8391
 2168SOL     OW17965   1.387   2.842   6.893 -0.3682 -0.1817 -0.4158
 2168SOL    HW117966   1.410   2.928   6.929 -0.6636  0.0776 -0.8527
 2168SOL    HW217967   1.308   2.824   6.944  1.4528 -1.7108  1.8499
 2169SOL     OW17968   3.011   1.738  13.564 -0.2440 -0.0417  0.2578
 2169SOL    HW117969   3.086   1.798  13.567 -0.2455  0.0830 -2.1409
 2169SOL    HW217970   3.014   1.693  13.649 -1.3421 -1.9891 -0.7373
 2170SOL     OW17971   1.484   3.688  16.253 -0.6214 -0.2353 -0.5493
 2170SOL    HW117972   1.434   3.611  16.280  1.7328 -1.5930 -0.1015
 2170SOL    HW217973   1.562   3.684  16.307  0.9735 -0.0516 -2.8217
 2171SOL     OW17974   1.398   0.620  14.646 -0.1108  0.4181  0.1985
 2171SOL    HW117975   1.474   0.582  14.602  1.0850  0.6424  2.0884
 2171SOL    HW217976   1.405   0.712  14.619  1.8299 -0.0301 -0.8069
 2172SOL     OW17977   2.066   4.619   3.439  0.5739  0.7612  0.2391
 2172SOL    HW117978   1.989   4.581   3.398  1.2585  1.8766 -2.0698
 2172SOL    HW217979   2.063   4.706   3.399 -1.4561  0.4546 -0.2356
 2173SOL     OW17980   2.413   2.681   9.307  0.0684 -0.0369 -0.4768
 2173SOL    HW117981   2.332   2.692   9.257  0.5961  1.0906 -1.0865
 2173SOL    HW217982   2.391   2.615   9.373  0.9466 -0.5502 -0.7107
 2174SOL     OW17983   3.291   2.449   8.381 -0.0613 -0.0273 -0.2851
 2174SOL    HW117984   3.323   2.363   8.353 -1.1281 -0.4056 -0.3578
 2174SOL    HW217985   3.248   2.418   8.461 -0.6209  0.6821 -0.3122
 2175SOL     OW17986   3.058   4.229   9.083  0.1801 -0.0149  1.0398
 2175SOL    HW117987   3.003   4.180   9.022 -1.5953  3.2131  0.0304
 2175SOL    HW217988   3.080   4.296   9.017 -1.4789  1.6414  2.1763
 2176SOL     OW17989   2.436   1.452   1.068  0.1176  0.7992 -0.1734
 2176SOL    HW117990   2.417   1.365   1.033  1.1489  0.1672  0.8455
 2176SOL    HW217991   2.354   1.478   1.110 -0.6325  0.5344 -1.4842
 2177SOL     OW17992   3.264   1.199   8.898  0.2989  0.4912 -0.1939
 2177SOL    HW117993   3.347   1.169   8.935 -0.4179 -0.6472  0.4830
 2177SOL    HW217994   3.296   1.232   8.814  2.0547  0.4153  0.4362
 2178SOL     OW17995   1.489   0.535   2.582  0.0085  0.8268  0.4939
 2178SOL    HW117996   1.439   0.587   2.645  0.6451 -0.3894  2.0069
 2178SOL    HW217997   1.563   0.593   2.565  0.9410 -0.3170  0.6583
 2179SOL     OW17998   1.756   2.002  12.693  0.0098 -0.0677 -0.0139
 2179SOL    HW117999   1.731   2.028  12.605  0.3082  0.5098  0.0659
 2179SOL    HW218000   1.832   1.945  12.683 -0.0329  0.1019 -1.2314
 2180SOL     OW18001   3.274   0.492  14.747  0.1696 -0.2229 -0.7977
 2180SOL    HW118002   3.240   0.406  14.769 -0.2294  0.2228  0.3296
 2180SOL    HW218003   3.345   0.481  14.683  1.5589  1.7878  0.3542
 2181SOL     OW18004   0.745   0.391   4.028 -0.3791  0.0383 -0.1476
 2181SOL    HW118005   0.678   0.385   3.960 -2.1544 -1.8013  1.7771
 2181SOL    HW218006   0.720   0.317   4.083  1.5109 -0.3708  0.1888
 2182SOL     OW18007   0.016   3.280   3.541  0.6233 -0.4288  0.1838
 2182SOL    HW118008   0.052   3.195   3.565  1.1768 -0.7874 -1.9019
 2182SOL    HW218009   4.653   3.272   3.583  0.5638 -0.7430 -0.0033
 2183SOL     OW18010   0.779   2.636   7.043 -0.0772  0.6233 -0.0130
 2183SOL    HW118011   0.760   2.549   7.079 -1.1387  1.9322  2.6604
 2183SOL    HW218012   0.725   2.645   6.965 -1.0142  0.7244  0.6538
 2184SOL     OW18013   2.732   0.803   9.223  0.0262 -0.1925  0.4513
 2184SOL    HW118014   2.793   0.850   9.166  0.2732 -1.2837 -0.1839
 2184SOL    HW218015   2.668   0.872   9.236  0.6384  0.7123 -1.3188
 2185SOL     OW18016   4.143   3.801   4.777 -0.1771 -0.3857 -0.0714
 2185SOL    HW118017   4.179   3.829   4.861  1.2606 -2.7159  0.0934
 2185SOL    HW218018   4.118   3.713   4.804  0.5040 -0.6415 -0.2629
 2186SOL     OW18019   2.475   4.409   4.415 -0.1209  0.5511  0.6434
 2186SOL    HW118020   2.388   4.389   4.450 -0.3286 -1.9032 -1.2419
 2186SOL    HW218021   2.504   4.318   4.406  0.0192  0.6302  0.2995
 2187SOL     OW18022   4.338   1.565   7.798 -0.6188  0.3260  0.6885
 2187SOL    HW118023   4.374   1.625   7.864  0.2024 -0.0816  0.6091
 2187SOL    HW218024   4.412   1.506   7.783  0.5042  1.8320  0.3724
 2188SOL     OW18025   4.664   0.491   8.899 -0.2059  0.0421  0.0418
 2188SOL    HW118026   4.589   0.539   8.935 -0.1882 -0.2486  0.4707
 2188SOL    HW218027   4.641   0.398   8.901  0.3920 -0.0459  2.7528
 2189SOL     OW18028   3.919   4.693   4.481  0.2099 -0.0260 -0.3776
 2189SOL    HW118029   3.903   0.023   4.403  1.6232 -1.2223 -1.5061
 2189SOL    HW218030   4.014   4.700   4.490  0.0178 -0.3367  1.8932
 2190SOL     OW18031   3.051   4.610   4.796  0.4121  0.4500 -0.0487
 2190SOL    HW118032   3.104   4.649   4.866 -0.3148 -1.0277  1.3476
 2190SOL    HW218033   2.970   4.660   4.808  0.1067 -0.2984  1.0527
 2191SOL     OW18034   0.411   0.080  14.005 -0.2529  0.2301 -0.3925
 2191SOL    HW118035   0.441   4.714  14.019  0.7619  0.5907 -0.2241
 2191SOL    HW218036   0.345   0.087  14.074  0.7361  0.3768  0.5350
 2192SOL     OW18037   0.222   2.635  14.104  0.2856  0.2318 -0.1802
 2192SOL    HW118038   0.230   2.701  14.172  0.6691 -0.3738  0.3676
 2192SOL    HW218039   0.220   2.682  14.020 -2.5338 -0.8558 -0.7098
 2193SOL     OW18040   2.279   2.513   1.441  0.2464 -0.7453 -0.2961
 2193SOL    HW118041   2.200   2.465   1.418  0.5220 -1.1915 -0.2918
 2193SOL    HW218042   2.330   2.481   1.367  0.2732  0.5621 -0.8447
 2194SOL     OW18043   0.779   1.964  17.078  0.3533  0.0788 -0.2785
 2194SOL    HW118044   0.763   1.910  17.156 -0.3532 -0.8230 -1.0406
 2194SOL    HW218045   0.703   2.021  17.068 -0.4319 -1.2742 -2.0764
 2195SOL     OW18046   0.861   1.138   9.334  0.1680 -0.1688 -0.2784
 2195SOL    HW118047   0.804   1.115   9.261  0.8738 -0.2610 -0.8011
 2195SOL    HW218048   0.884   1.228   9.311 -0.7595 -0.3758 -2.0317
 2196SOL     OW18049   2.353   1.737   4.521 -0.4074 -0.4067  0.1934
 2196SOL    HW118050   2.264   1.724   4.488  0.4179  0.4098 -2.3300
 2196SOL    HW218051   2.354   1.832   4.514 -0.5170 -0.4208  0.0068
 2197SOL     OW18052   3.847   0.462   5.973  0.0086  0.1821  0.0953
 2197SOL    HW118053   3.782   0.529   5.991 -0.9111 -0.4777 -0.7673
 2197SOL    HW218054   3.900   0.498   5.902  1.4474 -1.4803  0.3186
 2198SOL     OW18055   1.124   3.340   9.601  0.0695 -0.1759  1.0158
 2198SOL    HW118056   1.163   3.266   9.554  3.8104  1.7792  1.0719
 2198SOL    HW218057   1.147   3.414   9.545 -0.1813  0.3709  1.6489
 2199SOL     OW18058   3.499   3.579   6.148 -0.6698  0.2522  0.1235
 2199SOL    HW118059   3.437   3.512   6.121  1.3788 -1.3910 -0.4999
 2199SOL    HW218060   3.458   3.608   6.230  0.7018 -1.5475  1.4307
 2200SOL     OW18061   3.703   0.034   7.819 -0.0635  0.5282 -0.3395
 2200SOL    HW118062   3.716   4.702   7.742 -1.6060  0.4609 -0.5561
 2200SOL    HW218063   3.616   0.069   7.800 -0.5708 -0.6094 -0.0769
 2201SOL     OW18064   2.011   2.495   8.873 -0.2845  0.2732 -0.6325
 2201SOL    HW118065   1.999   2.435   8.799 -2.3022 -0.2549  0.1360
 2201SOL    HW218066   1.933   2.459   8.915 -1.6574  1.1685 -2.3623
 2202SOL     OW18067   1.208   2.623   9.600  0.2677 -0.3926  0.0564
 2202SOL    HW118068   1.246   2.588   9.519 -2.5610 -0.1540 -1.3726
 2202SOL    HW218069   1.226   2.716   9.606  0.6346 -0.4224 -0.5997
 2203SOL     OW18070   1.898   3.890   3.156  0.4960  0.5265  0.0851
 2203SOL    HW118071   1.948   3.927   3.084 -1.7646  1.5963 -0.9207
 2203SOL    HW218072   1.926   3.943   3.231 -0.3698  0.4844  0.4470
 2204SOL     OW18073   3.640   2.320   3.110  0.5535 -0.3452 -0.2019
 2204SOL    HW118074   3.695   2.309   3.033  0.8808 -1.9376  0.2614
 2204SOL    HW218075   3.571   2.381   3.082  0.5689  0.8596  2.3428
 2205SOL     OW18076   2.276   3.480   8.259  0.3645 -0.2605  0.4445
 2205SOL    HW118077   2.298   3.480   8.166  2.4315  1.3098  0.9266
 2205SOL    HW218078   2.183   3.462   8.246  0.1647  1.5121 -0.5123
 2206SOL     OW18079   4.387   4.414  16.737  0.0359 -1.3216 -0.6612
 2206SOL    HW118080   4.298   4.449  16.740 -0.4805 -2.9579  2.4477
 2206SOL    HW218081   4.411   4.430  16.646  2.8683 -1.2133  0.0941
 2207SOL     OW18082   1.783   0.140   8.340 -0.4071  0.0722  0.0140
 2207SOL    HW118083   1.866   0.187   8.342 -0.3936  0.1523 -2.0690
 2207SOL    HW218084   1.756   0.166   8.251 -0.8854 -0.8248 -0.1045
 2208SOL     OW18085   4.107   3.409  11.236  0.2852  0.3626 -0.3295
 2208SOL    HW118086   4.077   3.447  11.319  1.0913 -1.5731  0.8505
 2208SOL    HW218087   4.031   3.359  11.208  0.4677  0.3440 -0.7882
 2209SOL     OW18088   1.031   0.187   1.478  0.1633 -0.1564 -0.9046
 2209SOL    HW118089   0.941   0.209   1.500  0.5255 -1.2093  1.6880
 2209SOL    HW218090   1.067   0.163   1.564 -0.6009 -2.4043 -1.2061
 2210SOL     OW18091   0.800   3.016   6.228  0.2524 -0.0565 -0.0279
 2210SOL    HW118092   0.790   3.109   6.249 -2.0916 -0.2251 -0.3179
 2210SOL    HW218093   0.725   3.020   6.168  0.3303  1.5053 -0.0117
 2211SOL     OW18094   3.001   0.921   2.291 -0.1528 -0.0783  0.3351
 2211SOL    HW118095   3.057   0.842   2.290  0.1355  0.1226  0.4676
 2211SOL    HW218096   3.059   0.977   2.342  1.7116 -1.1858 -0.5486
 2212SOL     OW18097   3.634   0.939  13.045 -0.2021 -0.0902  0.0565
 2212SOL    HW118098   3.623   1.022  12.998 -0.2608 -0.3686 -0.4247
 2212SOL    HW218099   3.682   0.969  13.122 -0.2943 -2.0969  0.8927
 2213SOL     OW18100   0.205   2.036   2.401 -0.4357 -0.2712  0.0198
 2213SOL    HW118101   0.270   2.084   2.350  0.4133 -1.6049 -0.1424
 2213SOL    HW218102   0.184   2.092   2.476  0.6409 -0.8430  0.7357
 2214SOL     OW18103   1.032   3.199   7.331 -0.2255 -0.2256 -0.1585
 2214SOL    HW118104   1.101   3.249   7.287 -0.1920  0.0665  0.2288
 2214SOL    HW218105   0.998   3.153   7.255  0.9559  0.4371 -1.1035
 2215SOL     OW18106   1.034   0.451   3.397  0.1971  0.9394 -0.2007
 2215SOL    HW118107   0.940   0.455   3.412 -0.0200  0.4100 -1.4745
 2215SOL    HW218108   1.060   0.390   3.467  2.5587  1.0480 -0.9729
 2216SOL     OW18109   1.027   2.066  13.891 -0.1425 -0.4969 -0.6908
 2216SOL    HW118110   0.949   2.039  13.939  0.4377 -1.8452 -0.5060
 2216SOL    HW218111   1.053   2.133  13.954  1.4970 -2.1214  0.3594
 2217SOL     OW18112   4.190   0.414  11.454  0.2801  0.6461 -0.2324
 2217SOL    HW118113   4.121   0.481  11.459 -0.0725  0.5043 -3.0061
 2217SOL    HW218114   4.230   0.431  11.539  1.7439 -2.1858 -0.3806
 2218SOL     OW18115   0.406   0.854   2.729  0.3271  0.0692 -0.5361
 2218SOL    HW118116   0.400   0.785   2.794 -0.6059  0.0440 -0.6572
 2218SOL    HW218117   0.500   0.877   2.733  0.4014 -0.4004  0.4949
 2219SOL     OW18118   4.316   2.948   6.740 -0.5489 -0.4633  0.0300
 2219SOL    HW118119   4.273   3.033   6.748  0.4590 -0.3170  3.7485
 2219SOL    HW218120   4.310   2.937   6.645  0.2486 -1.1873  0.0599
 2220SOL     OW18121   1.809   2.069   6.437  0.0972 -0.1723 -0.2120
 2220SOL    HW118122   1.787   2.147   6.488 -0.7263 -0.0479 -0.7786
 2220SOL    HW218123   1.904   2.077   6.432  0.0652  0.1707 -0.2477
 2221SOL     OW18124   4.583   1.846   7.890  0.1976 -0.0058 -0.0934
 2221SOL    HW118125   4.645   1.885   7.951 -2.0907  0.7705  1.6915
 2221SOL    HW218126   4.576   1.760   7.932  3.0992 -0.4632 -0.5213
 2222SOL     OW18127   2.234   0.978   2.013 -0.0147 -0.3437 -0.4414
 2222SOL    HW118128   2.311   0.923   1.998  0.0597  0.2725 -2.3188
 2222SOL    HW218129   2.161   0.919   2.031 -0.5581  0.2416 -0.7309
 2223SOL     OW18130   0.482   3.153   6.519 -0.5725 -0.2829 -0.1426
 2223SOL    HW118131   0.533   3.172   6.441 -0.6572 -0.2665 -0.1944
 2223SOL    HW218132   0.390   3.150   6.492 -0.1086 -0.4270 -1.6829
 2224SOL     OW18133   2.583   2.667   7.339  0.1398 -0.1224  0.0803
 2224SOL    HW118134   2.637   2.706   7.269 -1.9244 -0.0911 -1.4907
 2224SOL    HW218135   2.567   2.751   7.382  0.0466  0.1857 -0.5508
 2225SOL     OW18136   3.713   2.479   0.251  0.2757 -0.2102 -0.2130
 2225SOL    HW118137   3.680   2.421   0.320  0.9110  1.1219  1.2172
 2225SOL    HW218138   3.794   2.511   0.292  0.6022 -0.3579 -0.7420
 2226SOL     OW18139   1.895   3.291   5.581 -0.0636  0.1707  0.4478
 2226SOL    HW118140   1.933   3.280   5.668  1.0968  2.1052  0.1867
 2226SOL    HW218141   1.956   3.232   5.538  0.4328  0.4675  0.7444
 2227SOL     OW18142   0.918   0.786   4.696 -0.3568  0.1632 -0.0130
 2227SOL    HW118143   0.858   0.826   4.633 -3.4445  1.0908  3.5075
 2227SOL    HW218144   0.971   0.853   4.739 -1.3074  2.0119 -1.7172
 2228SOL     OW18145   2.147   4.019   6.459 -0.0217 -0.0967 -0.0961
 2228SOL    HW118146   2.077   4.015   6.394 -2.2150  0.8726  2.1979
 2228SOL    HW218147   2.092   4.033   6.536  2.9687  2.1870  1.5958
 2229SOL     OW18148   2.374   2.409   3.605 -0.0180 -0.1639  0.1187
 2229SOL    HW118149   2.385   2.375   3.693 -1.3205  2.0377  1.1469
 2229SOL    HW218150   2.464   2.431   3.581  0.0907 -1.0757 -0.2801
 2230SOL     OW18151   0.457   2.630   3.967 -0.3308 -0.0900  0.2763
 2230SOL    HW118152   0.396   2.595   4.031 -1.1110  1.3936  0.3552
 2230SOL    HW218153   0.416   2.602   3.886 -1.7725  0.5643  0.7741
 2231SOL     OW18154   1.354   3.351   1.688 -0.1166  0.3410  0.6050
 2231SOL    HW118155   1.292   3.284   1.661  0.0983  0.4174 -0.0616
 2231SOL    HW218156   1.390   3.299   1.761  1.1230 -0.9540 -0.9324
 2232SOL     OW18157   0.641   4.192   9.031 -0.6640  0.2143 -0.1553
 2232SOL    HW118158   0.661   4.137   9.106 -0.2451 -1.3106 -1.3871
 2232SOL    HW218159   0.642   4.129   8.959  1.2300 -0.0495  0.1229
 2233SOL     OW18160   3.980   0.839   3.907  0.2601 -0.0386  0.0467
 2233SOL    HW118161   3.919   0.838   3.980  1.2414  0.6038  0.8893
 2233SOL    HW218162   4.040   0.913   3.917  1.9189 -1.6827  2.2952
 2234SOL     OW18163   2.307   0.237   4.937  0.8816 -0.3341 -0.5237
 2234SOL    HW118164   2.367   0.280   4.876  1.2467 -2.2537 -1.5061
 2234SOL    HW218165   2.237   0.203   4.881  0.2226  1.6150 -0.8904
 2235SOL     OW18166   3.370   2.124   6.223 -0.1267 -0.4682 -0.8647
 2235SOL    HW118167   3.460   2.130   6.254 -1.1231 -0.5047  1.9682
 2235SOL    HW218168   3.371   2.123   6.127  0.0412 -1.3819 -0.8461
 2236SOL     OW18169   3.087   4.217   4.193  0.0827 -0.6350 -1.0412
 2236SOL    HW118170   3.057   4.188   4.279  1.2334 -0.8207 -0.7009
 2236SOL    HW218171   3.004   4.228   4.147 -1.0180  1.7417  1.5163
 2237SOL     OW18172   4.413   2.435   7.641  0.8212 -0.6662 -0.2539
 2237SOL    HW118173   4.467   2.375   7.589  0.8983 -0.7170 -0.1141
 2237SOL    HW218174   4.450   2.522   7.629  0.8761 -0.8150 -1.1918
 2238SOL     OW18175   3.559   3.658  13.169 -0.0693 -0.3750  0.6121
 2238SOL    HW118176   3.483   3.648  13.113 -0.4531 -0.2217  1.1022
 2238SOL    HW218177   3.513   3.712  13.234 -0.9266 -1.6549  1.0528
 2239SOL     OW18178   3.099   2.469   6.848 -1.1074 -0.0709  0.4388
 2239SOL    HW118179   3.061   2.384   6.826  0.8125 -0.5505 -1.0297
 2239SOL    HW218180   3.098   2.458   6.943  2.5417 -1.1892  0.3591
 2240SOL     OW18181   2.851   0.307   3.432 -0.2465  0.0159 -0.1899
 2240SOL    HW118182   2.898   0.238   3.479  0.8360 -0.3500 -1.7956
 2240SOL    HW218183   2.850   0.382   3.491  0.6055  0.1996 -0.4196
 2241SOL     OW18184   1.498   3.675   5.610 -0.1495 -0.2179  0.1140
 2241SOL    HW118185   1.430   3.736   5.580  0.0207 -0.7038 -1.2798
 2241SOL    HW218186   1.501   3.622   5.531 -1.7378 -0.2916  0.1032
 2242SOL     OW18187   3.464   1.647   1.116 -0.1761  0.3143 -0.2960
 2242SOL    HW118188   3.458   1.624   1.209 -1.0124 -4.3414 -1.5257
 2242SOL    HW218189   3.386   1.607   1.078 -0.2942 -0.1362  0.4246
 2243SOL     OW18190   0.600   3.897   7.298  0.1169  0.0561 -0.0104
 2243SOL    HW118191   0.615   3.977   7.247  0.5382  0.1226  0.2162
 2243SOL    HW218192   0.670   3.843   7.261  2.4062  1.5541  2.1173
 2244SOL     OW18193   1.162   0.634  17.610  0.1253  0.0878 -0.1985
 2244SOL    HW118194   1.148   0.729  17.607  2.5744  0.4287 -0.7139
 2244SOL    HW218195   1.079   0.601  17.645 -0.1825  2.1754  1.0309
 2245SOL     OW18196   3.713   0.524   3.318 -0.4194 -0.1919  0.4085
 2245SOL    HW118197   3.650   0.559   3.381 -0.3289  3.0629 -1.3401
 2245SOL    HW218198   3.704   0.575   3.238  0.9031  1.0189  1.0432
 2246SOL     OW18199   1.070   4.405   5.502  0.1991  0.0552  0.6637
 2246SOL    HW118200   0.987   4.360   5.511 -0.0334  0.3923  0.1654
 2246SOL    HW218201   1.059   4.493   5.538  0.6770 -0.7155  2.6962
 2247SOL     OW18202   4.222   1.543  12.966  0.1329 -0.3797 -0.2371
 2247SOL    HW118203   4.167   1.582  13.034  1.1375  2.2973 -0.9651
 2247SOL    HW218204   4.285   1.509  13.030  1.7633 -0.6178 -1.9710
 2248SOL     OW18205   4.304   4.706   7.884  0.0302 -0.0359  0.4592
 2248SOL    HW118206   4.266   4.641   7.944  0.7606  0.4457  1.4585
 2248SOL    HW218207   4.284   0.061   7.936  0.2997 -0.6911  1.5713
 2249SOL     OW18208   0.853   0.511   7.814  0.6853  0.0130 -0.4086
 2249SOL    HW118209   0.782   0.542   7.758  0.9121  0.7594 -0.2789
 2249SOL    HW218210   0.837   0.554   7.898 -0.4235 -3.5854  1.2482
 2250SOL     OW18211   0.573   0.089   5.235  0.0554 -0.2569  0.1941
 2250SOL    HW118212   0.566   0.142   5.315  2.0968 -0.6464  0.6364
 2250SOL    HW218213   0.557   0.157   5.170 -1.1265 -1.6843 -0.9934
 2251SOL     OW18214   2.186   2.837   3.600 -0.1702  0.0179  0.7465
 2251SOL    HW118215   2.115   2.901   3.603  0.1039  0.3487 -0.0945
 2251SOL    HW218216   2.176   2.806   3.510  1.0777  2.4611 -0.2180
 2252SOL     OW18217   2.452   2.913  15.507  0.2684 -0.0688 -0.0529
 2252SOL    HW118218   2.529   2.892  15.454  1.4851  0.1190  1.6155
 2252SOL    HW218219   2.427   2.822  15.524 -2.3738  0.8161  0.7971
 2253SOL     OW18220   2.279   1.977  16.151 -0.2744  0.4471 -0.7181
 2253SOL    HW118221   2.357   1.940  16.192  0.5130 -0.3804 -3.0174
 2253SOL    HW218222   2.283   1.945  16.062  1.6581 -0.3239 -0.3414
 2254SOL     OW18223   3.884   4.137   3.256  0.1118 -0.5691 -0.0893
 2254SOL    HW118224   3.826   4.186   3.196  1.4335 -0.4661 -1.2816
 2254SOL    HW218225   3.949   4.204   3.276 -0.3505 -0.0770 -0.2353
 2255SOL     OW18226   1.825   3.125  12.538  0.5686 -0.3722  0.1727
 2255SOL    HW118227   1.910   3.137  12.496 -0.7749 -2.2348 -3.0643
 2255SOL    HW218228   1.792   3.043  12.501  2.8357 -1.5352  0.7137
 2256SOL     OW18229   1.678   4.415   5.008  0.1695  0.4306 -0.3725
 2256SOL    HW118230   1.711   4.329   5.031  0.6731  1.2442  1.9064
 2256SOL    HW218231   1.722   4.475   5.068  0.7506 -0.7498  0.3574
 2257SOL     OW18232   2.872   0.466  11.443 -0.2691  0.3739  0.0652
 2257SOL    HW118233   2.809   0.526  11.403 -1.4167 -1.1891 -0.5015
 2257SOL    HW218234   2.861   0.490  11.535  0.4338 -3.0878  1.0795
 2258SOL     OW18235   2.100   1.361   3.029  0.6750 -0.7962  0.1125
 2258SOL    HW118236   2.055   1.312   3.098 -2.0694  0.0907 -1.0511
 2258SOL    HW218237   2.031   1.353   2.964  1.4310  3.2804 -1.1936
 2259SOL     OW18238   3.431   2.026   6.960 -0.2006 -0.0648 -0.0972
 2259SOL    HW118239   3.356   1.967   6.961  1.3171 -1.9925  0.3674
 2259SOL    HW218240   3.450   2.044   6.868  0.2452  1.5270  0.3118
 2260SOL     OW18241   2.230   4.443   2.498  0.2956 -0.1446 -0.0617
 2260SOL    HW118242   2.269   4.440   2.411 -0.0142  1.0738 -0.2406
 2260SOL    HW218243   2.187   4.528   2.492 -2.4835 -1.4195  1.7607
 2261SOL     OW18244   4.271   1.072   1.878 -0.1980 -0.2011  0.3965
 2261SOL    HW118245   4.313   1.087   1.793  3.6322 -3.7010  1.6657
 2261SOL    HW218246   4.189   1.120   1.868 -0.2273  0.0684  1.9353
 2262SOL     OW18247   3.392   1.240   3.282  0.3027 -0.1585 -0.5007
 2262SOL    HW118248   3.368   1.256   3.373 -2.4583 -1.3293 -1.0224
 2262SOL    HW218249   3.384   1.325   3.238 -1.4921  0.3506  0.8113
 2263SOL     OW18250   1.515   2.565  11.230  0.2092  0.3245  0.4258
 2263SOL    HW118251   1.585   2.618  11.192  0.4330 -0.1191  0.2209
 2263SOL    HW218252   1.447   2.622  11.192  0.7084  0.0913 -0.8177
 2264SOL     OW18253   0.060   0.191  11.315 -0.0805 -0.1525  0.3654
 2264SOL    HW118254   4.701   0.215  11.271  1.1732 -0.7722 -2.2940
 2264SOL    HW218255   0.074   0.262  11.378 -2.7217  1.0890 -0.4443
 2265SOL     OW18256   1.813   0.150   3.596  0.1554  0.1096 -0.0901
 2265SOL    HW118257   1.873   0.137   3.522  0.6709 -1.5727  0.6147
 2265SOL    HW218258   1.765   0.068   3.591  2.2124 -0.9925 -1.7799
 2266SOL     OW18259   3.640   1.385   9.410  0.3463  0.2554 -0.3158
 2266SOL    HW118260   3.686   1.398   9.492 -0.3095 -2.3434  0.4467
 2266SOL    HW218261   3.713   1.371   9.350 -0.4452 -1.6378 -0.8258
 2267SOL     OW18262   0.863   1.291  17.484  0.3196  0.1133  0.1900
 2267SOL    HW118263   0.927   1.363  17.488 -0.9198  1.3239 -1.8773
 2267SOL    HW218264   0.800   1.330  17.424  1.8254  1.3927 -0.5728
 2268SOL     OW18265   2.195   0.158   5.158  0.1074 -0.7109 -0.0233
 2268SOL    HW118266   2.250   0.178   5.082 -1.7649  0.3567 -1.0772
 2268SOL    HW218267   2.141   0.237   5.164  0.7993 -0.1260 -1.4673
 2269SOL     OW18268   3.125   1.664   0.181  0.3213 -0.0624 -0.6680
 2269SOL    HW118269   3.157   1.588   0.232  0.6785  1.0183  0.7266
 2269SOL    HW218270   3.208   1.706   0.161 -0.1743  0.3573 -1.8150
 2270SOL     OW18271   1.235   2.028   4.406 -0.6220  0.1198  0.2536
 2270SOL    HW118272   1.205   2.043   4.495  0.3274 -2.2468  0.9683
 2270SOL    HW218273   1.249   2.115   4.369  1.4697  1.3184  3.9420
 2271SOL     OW18274   4.317   0.835   6.541  0.0092  0.6584  0.6846
 2271SOL    HW118275   4.357   0.775   6.603  1.4845 -1.4444 -2.3156
 2271SOL    HW218276   4.382   0.826   6.471 -1.5929  1.0971 -0.8672
 2272SOL     OW18277   1.287   2.551   7.636 -0.6472 -0.5383  0.1208
 2272SOL    HW118278   1.328   2.581   7.555  1.0351  0.4500  1.3410
 2272SOL    HW218279   1.345   2.478   7.656  2.1681  1.7475  0.3654
 2273SOL     OW18280   4.316   1.866   2.858  0.2046 -0.6296  0.9126
 2273SOL    HW118281   4.406   1.834   2.857  0.3674  0.0156 -2.3797
 2273SOL    HW218282   4.294   1.847   2.767 -0.6019  3.1201  0.3398
 2274SOL     OW18283   3.218   1.868  13.279 -0.7203 -0.0551 -0.1161
 2274SOL    HW118284   3.153   1.823  13.226 -0.5362  0.5605 -0.8628
 2274SOL    HW218285   3.191   1.959  13.286 -0.7770 -0.0833  0.0350
 2275SOL     OW18286   0.990   4.357   6.009  0.6587  0.1903 -0.0117
 2275SOL    HW118287   1.022   4.312   5.931 -0.0082  3.5961 -2.2036
 2275SOL    HW218288   1.069   4.386   6.054  0.0318 -0.1311  1.3046
 2276SOL     OW18289   3.607   3.533   1.517 -0.2434 -0.3299 -0.3662
 2276SOL    HW118290   3.663   3.485   1.577 -0.0003 -3.0942 -2.8041
 2276SOL    HW218291   3.607   3.619   1.559 -0.8019 -0.5649  0.1144
 2277SOL     OW18292   4.403   1.048   2.519  0.1662  0.1022 -0.5498
 2277SOL    HW118293   4.435   1.059   2.429  1.1702  0.5683 -0.1361
 2277SOL    HW218294   4.400   1.141   2.544 -1.8141 -0.3927  1.0327
 2278SOL     OW18295   0.680   1.410   9.252 -0.0263  0.6149  0.1103
 2278SOL    HW118296   0.676   1.329   9.200  0.4449  0.7527 -0.1423
 2278SOL    HW218297   0.772   1.409   9.278  0.1470  1.6827 -0.4476
 2279SOL     OW18298   1.616   1.080   3.628  0.3698 -0.6129 -0.4302
 2279SOL    HW118299   1.559   1.156   3.636 -1.4386 -1.8787 -1.0257
 2279SOL    HW218300   1.644   1.088   3.537 -1.9966 -2.3406 -1.3310
 2280SOL     OW18301   2.845   1.547  14.943 -0.0214 -0.1525 -0.0576
 2280SOL    HW118302   2.785   1.482  14.908  0.3467 -0.7117  0.3600
 2280SOL    HW218303   2.876   1.495  15.016 -0.1188 -1.3366 -0.8594
 2281SOL     OW18304   2.340   1.235  16.547  0.4873 -0.0527 -0.1736
 2281SOL    HW118305   2.259   1.255  16.500 -0.3064  0.0092  1.2091
 2281SOL    HW218306   2.302   1.215  16.633 -0.6852  2.2450 -0.1464
 2282SOL     OW18307   3.572   4.085  16.548  0.0231  1.0494  0.2047
 2282SOL    HW118308   3.562   3.994  16.576  2.1071  1.3476  1.8211
 2282SOL    HW218309   3.667   4.096  16.553  0.2156  0.0761 -1.2424
 2283SOL     OW18310   3.458   2.471   3.006  0.0903 -0.3813  0.6493
 2283SOL    HW118311   3.406   2.438   2.933 -1.4488  0.6975  1.2438
 2283SOL    HW218312   3.448   2.566   2.998 -1.9504 -0.6448 -0.1082
 2284SOL     OW18313   2.765   3.927  12.095  0.6693  0.2725  0.0388
 2284SOL    HW118314   2.721   3.842  12.098  1.8005 -0.3749 -1.5199
 2284SOL    HW218315   2.832   3.922  12.163  0.6311  2.0604  0.2060
 2285SOL     OW18316   1.992   0.526   0.381 -0.5383  0.4446  0.0137
 2285SOL    HW118317   1.972   0.611   0.419 -0.3621 -0.0642  1.2718
 2285SOL    HW218318   1.910   0.502   0.339 -1.5805  1.0755  1.6628
 2286SOL     OW18319   1.244   4.128   5.176 -1.1958  0.3899  0.2906
 2286SOL    HW118320   1.202   4.213   5.185 -0.3196  0.8194  0.3710
 2286SOL    HW218321   1.193   4.074   5.236 -0.3620  0.2924  0.9142
 2287SOL     OW18322   0.764   2.426   9.110 -0.1360  0.8957  0.1570
 2287SOL    HW118323   0.789   2.361   9.176  0.5400 -1.1044 -2.0609
 2287SOL    HW218324   0.849   2.439   9.067 -0.2710  1.3821  0.0361
 2288SOL     OW18325   3.828   1.345   5.398 -0.4523  0.0963  0.4902
 2288SOL    HW118326   3.836   1.298   5.481  3.7169  1.1333  0.6794
 2288SOL    HW218327   3.856   1.432   5.427 -0.6569  0.2510  0.2229
 2289SOL     OW18328   3.247   3.454   7.245 -0.3530 -0.2679 -0.3617
 2289SOL    HW118329   3.191   3.395   7.195 -0.2890 -0.9750  0.4053
 2289SOL    HW218330   3.307   3.389   7.281 -0.9160 -1.3538 -1.3709
 2290SOL     OW18331   0.995   0.766   5.366 -0.0041  0.0979 -0.0993
 2290SOL    HW118332   1.036   0.686   5.397 -1.3567 -0.5375  0.0394
 2290SOL    HW218333   1.035   0.768   5.279 -1.6920  0.8705 -0.8507
 2291SOL     OW18334   2.444   1.961   8.972  0.1739  0.0074  0.3870
 2291SOL    HW118335   2.353   1.945   8.945  0.0143 -1.4910  1.8194
 2291SOL    HW218336   2.449   2.049   8.935 -0.2761 -0.1895 -0.1562
 2292SOL     OW18337   0.470   0.993  14.767  0.2956  0.0881  0.5189
 2292SOL    HW118338   0.444   0.902  14.758  2.1708 -0.4681  0.7111
 2292SOL    HW218339   0.559   0.991  14.731  0.0268 -0.2476 -0.1071
 2293SOL     OW18340   0.538   4.425   2.907 -0.8346  0.6444 -0.1813
 2293SOL    HW118341   0.514   4.480   2.982 -1.0917  1.3114 -0.7555
 2293SOL    HW218342   0.611   4.477   2.875 -0.6548  0.3389 -0.2733
 2294SOL     OW18343   1.266   4.296   0.290 -0.2913 -0.0256  0.2135
 2294SOL    HW118344   1.220   4.211   0.287  0.6764 -0.5766  1.0606
 2294SOL    HW218345   1.228   4.320   0.375  1.3838 -0.7488  1.1701
 2295SOL     OW18346   2.811   4.382   7.116 -0.3144  0.3349  0.0794
 2295SOL    HW118347   2.853   4.381   7.202 -2.2899 -2.0806  1.0085
 2295SOL    HW218348   2.889   4.389   7.061 -1.2523  0.1479 -1.2924
 2296SOL     OW18349   3.635   2.260  11.501  0.2733  0.7151 -0.6325
 2296SOL    HW118350   3.624   2.295  11.590  3.7858 -2.7197  1.1480
 2296SOL    HW218351   3.606   2.170  11.513  1.9328  0.3128  0.4702
 2297SOL     OW18352   1.144   0.989   1.410  0.0494  0.2075 -0.2169
 2297SOL    HW118353   1.173   1.079   1.425  2.5254 -0.6046 -0.1091
 2297SOL    HW218354   1.084   0.975   1.483  2.7437  1.7681  2.2615
 2298SOL     OW18355   4.327   1.287   5.576 -0.0616 -0.7872 -0.3158
 2298SOL    HW118356   4.277   1.340   5.514 -0.2388  0.2572  0.7372
 2298SOL    HW218357   4.292   1.200   5.556 -0.7732 -0.6872  0.5102
 2299SOL     OW18358   3.377   1.962   4.830 -0.9279  0.6011  0.5742
 2299SOL    HW118359   3.285   1.987   4.845 -1.2126 -1.0369  1.5742
 2299SOL    HW218360   3.409   2.048   4.802  0.4939  0.1604  0.8500
 2300SOL     OW18361   1.944   1.877   2.728 -0.4234 -0.7270 -0.6071
 2300SOL    HW118362   2.024   1.877   2.675  0.9322  2.0833  1.4627
 2300SOL    HW218363   1.885   1.821   2.678 -1.0964 -0.1844 -0.4254
 2301SOL     OW18364   1.228   2.907   9.570 -0.5831 -0.3879 -0.0780
 2301SOL    HW118365   1.280   2.937   9.644 -1.6414  0.9293  0.1324
 2301SOL    HW218366   1.255   2.969   9.502  0.4492 -0.1762  0.5344
 2302SOL     OW18367   3.278   4.371   5.926  0.3683  0.0515 -0.5154
 2302SOL    HW118368   3.270   4.280   5.952 -0.9451 -0.2228 -1.9131
 2302SOL    HW218369   3.222   4.374   5.849  0.5992 -1.6592 -0.7354
 2303SOL     OW18370   2.499   0.024   3.244 -0.0724 -0.1844 -0.1701
 2303SOL    HW118371   2.503   0.103   3.191  1.3696  0.9937  1.7226
 2303SOL    HW218372   2.569   4.697   3.203 -0.4903 -1.7516  1.0090
 2304SOL     OW18373   1.656   2.657   3.614 -0.6959 -0.3619 -0.4852
 2304SOL    HW118374   1.630   2.637   3.704  2.0828  0.1736  0.4694
 2304SOL    HW218375   1.688   2.747   3.620 -1.0714 -0.2826  0.2883
 2305SOL     OW18376   3.820   3.046   4.594 -0.2158 -0.1022  0.2390
 2305SOL    HW118377   3.748   2.992   4.561  0.0645 -0.0157 -0.5251
 2305SOL    HW218378   3.875   2.973   4.624  0.9621  0.9364  0.5878
 2306SOL     OW18379   0.574   0.957  17.134 -0.3703  0.1435  0.0544
 2306SOL    HW118380   0.600   1.003  17.054 -2.2899 -0.0178 -0.6388
 2306SOL    HW218381   0.522   1.022  17.181  0.4254 -0.3365  1.5835
 2307SOL     OW18382   1.131   1.842   8.818 -0.9052  0.4508 -0.4029
 2307SOL    HW118383   1.193   1.771   8.834 -1.5768 -0.2304 -0.8671
 2307SOL    HW218384   1.105   1.865   8.908  0.4480 -0.3601  0.1907
 2308SOL     OW18385   1.283   0.963   3.371  0.1072 -0.4684  0.0133
 2308SOL    HW118386   1.251   1.031   3.429  1.2686  0.8912 -0.9611
 2308SOL    HW218387   1.334   1.022   3.315  0.9637 -2.0263 -0.8616
 2309SOL     OW18388   1.407   2.873   1.205 -0.0154 -0.8548  0.3830
 2309SOL    HW118389   1.391   2.813   1.133  0.3697 -0.1664 -0.2785
 2309SOL    HW218390   1.323   2.865   1.251 -0.3505 -0.3271 -0.1341
 2310SOL     OW18391   2.430   0.221   7.893  0.1129 -0.7503  0.3387
 2310SOL    HW118392   2.436   0.127   7.914  1.7554 -0.5419  0.8467
 2310SOL    HW218393   2.384   0.207   7.811 -1.9141 -0.1366  1.3604
 2311SOL     OW18394   3.942   0.168   4.289 -0.2759 -0.2255  0.3600
 2311SOL    HW118395   3.857   0.210   4.299 -0.9943 -1.7877  0.9455
 2311SOL    HW218396   3.997   0.241   4.316  1.0745 -0.2547 -2.2530
 2312SOL     OW18397   2.774   2.123   2.802 -0.3091 -0.6707  0.3743
 2312SOL    HW118398   2.716   2.086   2.869  0.3652  0.0965  1.3770
 2312SOL    HW218399   2.788   2.212   2.834  1.4298 -0.8738  0.2025
 2313SOL     OW18400   4.227   3.505   5.511 -0.1634  0.4021  0.0732
 2313SOL    HW118401   4.165   3.521   5.582 -2.0397  0.6835 -1.6269
 2313SOL    HW218402   4.207   3.416   5.482 -2.3841  0.4589  1.4060
 2314SOL     OW18403   0.487   3.687   9.901  0.6428  0.6191  0.6680
 2314SOL    HW118404   0.460   3.748   9.970 -0.0128  1.0395  0.0427
 2314SOL    HW218405   0.408   3.678   9.847 -0.0750 -0.9790  1.9948
 2315SOL     OW18406   2.003   4.656  16.389 -1.0154  0.1925  0.7097
 2315SOL    HW118407   1.939   4.705  16.337 -0.6978  0.6455  0.7480
 2315SOL    HW218408   2.080   4.669  16.333 -1.6114 -0.9972 -0.4065
 2316SOL     OW18409   3.501   3.773   3.551 -0.2094  0.0667 -0.2460
 2316SOL    HW118410   3.591   3.802   3.562 -0.5032  1.7301 -2.2802
 2316SOL    HW218411   3.472   3.841   3.490 -0.8253  1.6552  1.8187
 2317SOL     OW18412   0.135   0.320   0.604  0.1562 -0.4007  0.3284
 2317SOL    HW118413   0.096   0.316   0.691  0.9810  0.2515  0.7359
 2317SOL    HW218414   0.210   0.261   0.600  1.2077  0.9841 -0.7541
 2318SOL     OW18415   3.977   0.419  14.104 -0.3763  0.4206  0.3287
 2318SOL    HW118416   3.951   0.331  14.131  1.3936 -0.1003  0.3874
 2318SOL    HW218417   3.960   0.467  14.185  3.0714  0.1410  1.2630
 2319SOL     OW18418   2.750   3.334   1.951  0.4473  0.5807  0.3700
 2319SOL    HW118419   2.720   3.423   1.936 -0.4154  0.4101  1.0883
 2319SOL    HW218420   2.840   3.341   1.917  0.5400 -2.0232  0.0517
 2320SOL     OW18421   2.002   3.443   8.387  0.2170 -0.2117  0.0619
 2320SOL    HW118422   1.932   3.394   8.430  0.7834  0.2715  1.5309
 2320SOL    HW218423   1.988   3.530   8.423 -1.8176 -0.1104 -1.0208
 2321SOL     OW18424   4.558   2.501   8.386 -0.6630 -0.0044 -0.2311
 2321SOL    HW118425   4.586   2.552   8.462 -0.9192  0.3102 -0.3481
 2321SOL    HW218426   4.536   2.566   8.319 -1.4192  1.3053  1.3005
 2322SOL     OW18427   1.162   4.706  14.658  0.0291 -0.5407 -0.7280
 2322SOL    HW118428   1.214   0.007  14.735  0.5204 -1.6424 -0.6978
 2322SOL    HW218429   1.176   0.066  14.614  0.0485  0.6978  1.5815
 2323SOL     OW18430   1.505   4.088   3.392 -0.6866 -0.0154 -0.3312
 2323SOL    HW118431   1.528   4.033   3.317  0.3817 -1.9921  1.4662
 2323SOL    HW218432   1.590   4.119   3.423 -1.3573 -0.7887  2.2146
 2324SOL     OW18433   1.270   1.005   1.175 -0.0775 -0.6214 -0.0830
 2324SOL    HW118434   1.218   0.950   1.116  0.0350  0.0951 -0.8606
 2324SOL    HW218435   1.220   1.018   1.256 -0.6850  0.1067 -0.5627
 2325SOL     OW18436   2.048   3.977   7.891 -1.1417  0.5107  0.1789
 2325SOL    HW118437   2.109   4.022   7.834 -1.3138  0.2811 -0.1873
 2325SOL    HW218438   2.045   4.038   7.964  0.6745  0.4279  0.3219
 2326SOL     OW18439   4.361   1.831  10.838  0.0219  0.0346 -0.2631
 2326SOL    HW118440   4.354   1.741  10.808  0.6917  0.4535 -1.6745
 2326SOL    HW218441   4.434   1.861  10.784  0.2507  0.5435  0.3292
 2327SOL     OW18442   0.178   1.384   4.334 -0.3868  0.2871 -0.1848
 2327SOL    HW118443   0.218   1.420   4.254  2.6973 -0.2942  1.0919
 2327SOL    HW218444   0.161   1.291   4.316 -0.7792  0.3332 -0.0524
 2328SOL     OW18445   0.793   4.247  13.935  0.1564 -0.3488 -0.6426
 2328SOL    HW118446   0.707   4.272  13.900 -0.1935 -1.2675 -0.4205
 2328SOL    HW218447   0.813   4.327  13.983 -1.5326 -0.5798  0.4454
 2329SOL     OW18448   4.495   0.446   2.535 -0.2038  0.0066  0.1542
 2329SOL    HW118449   4.474   0.539   2.546  1.1517  0.5038 -1.5782
 2329SOL    HW218450   4.572   0.431   2.590 -2.0275 -2.1388  2.1207
 2330SOL     OW18451   0.669   2.729  14.870 -0.3340 -0.2475  0.3017
 2330SOL    HW118452   0.689   2.823  14.873 -1.0779 -0.0413 -1.2015
 2330SOL    HW218453   0.637   2.721  14.780 -1.6132 -1.3270  0.8595
 2331SOL     OW18454   2.815   2.451   6.215 -0.2114 -0.1268 -0.3255
 2331SOL    HW118455   2.768   2.469   6.296  2.3938  2.5873  0.6025
 2331SOL    HW218456   2.908   2.455   6.239 -0.9258 -0.9031  2.5601
 2332SOL     OW18457   1.930   2.372  16.315  0.1023  0.6498 -0.3161
 2332SOL    HW118458   1.851   2.383  16.263 -0.9971  0.1128  1.2221
 2332SOL    HW218459   1.897   2.327  16.393 -0.8269  0.5608 -0.7691
 2333SOL     OW18460   1.665   1.798   7.918 -0.2354 -0.3838  0.3726
 2333SOL    HW118461   1.727   1.785   7.989  1.3653  0.8076 -0.8326
 2333SOL    HW218462   1.706   1.868   7.868 -0.9607  1.6890  2.6663
 2334SOL     OW18463   0.673   0.380  14.844  0.9623 -0.7151  0.6174
 2334SOL    HW118464   0.623   0.382  14.925 -0.4049  1.1504 -0.2647
 2334SOL    HW218465   0.752   0.425  14.874  0.0965  1.4568 -0.2972
 2335SOL     OW18466   1.503   4.389   1.746 -0.0507 -0.1918 -0.6256
 2335SOL    HW118467   1.473   4.477   1.768 -2.0884 -0.8064 -0.8907
 2335SOL    HW218468   1.595   4.398   1.720  0.6832 -0.8732  1.7781
 2336SOL     OW18469   1.686   4.316   6.359 -0.4452  0.3207  0.2867
 2336SOL    HW118470   1.716   4.399   6.394  1.9168 -0.3317 -0.1450
 2336SOL    HW218471   1.627   4.279   6.425  0.4187 -1.9933 -0.2171
 2337SOL     OW18472   1.506   2.968   4.242  0.3232  0.0376  0.0032
 2337SOL    HW118473   1.456   3.001   4.167  1.5243 -0.4886 -1.0398
 2337SOL    HW218474   1.540   2.891   4.197  0.6970 -0.5345  1.2631
 2338SOL     OW18475   1.129   2.053  17.497  0.3795  0.6436  0.1686
 2338SOL    HW118476   1.136   2.019  17.408 -0.3361  0.4018  0.2039
 2338SOL    HW218477   1.103   2.144  17.479 -1.6105  0.1527  0.5654
 2339SOL     OW18478   4.267   3.394   3.796  0.0169  0.7675 -0.0677
 2339SOL    HW118479   4.219   3.313   3.779  1.0225 -0.2449  1.8403
 2339SOL    HW218480   4.316   3.377   3.876 -1.1683 -1.9006  0.1104
 2340SOL     OW18481   3.140   1.373   2.551  0.4430 -0.0041 -0.2346
 2340SOL    HW118482   3.121   1.408   2.638  1.1274  0.8756 -0.4428
 2340SOL    HW218483   3.179   1.453   2.516 -1.5465  1.5791  1.1840
 2341SOL     OW18484   1.160   0.893   4.461 -0.1017  0.0638 -0.1796
 2341SOL    HW118485   1.136   0.806   4.430 -1.4988  0.1046  0.7701
 2341SOL    HW218486   1.154   0.874   4.555  0.1151  0.9238  0.0103
 2342SOL     OW18487   3.098   3.998   3.977  0.4346  0.2497 -0.1953
 2342SOL    HW118488   3.144   4.079   3.952 -2.2305  0.8847 -2.9496
 2342SOL    HW218489   3.031   4.029   4.038  2.3415  2.7045  0.6598
 2343SOL     OW18490   2.617   0.459   6.295  0.0893 -0.5156  0.2043
 2343SOL    HW118491   2.710   0.456   6.317  0.0736  0.6730  0.4647
 2343SOL    HW218492   2.578   0.515   6.363 -1.2457  1.4163 -2.1358
 2344SOL     OW18493   3.360   4.597  12.314 -0.9127 -0.2323 -0.0055
 2344SOL    HW118494   3.335   4.679  12.273  1.9618  0.6960  0.0436
 2344SOL    HW218495   3.358   4.530  12.246  4.1802 -0.2727 -0.1423
 2345SOL     OW18496   1.603   3.510  10.899  0.1787 -0.2314  0.0647
 2345SOL    HW118497   1.671   3.510  10.832  0.6267 -0.7808  0.5212
 2345SOL    HW218498   1.610   3.602  10.923 -0.0302 -0.2821  0.3300
 2346SOL     OW18499   4.576   0.850   0.260 -0.4993  0.4415 -0.0867
 2346SOL    HW118500   4.510   0.792   0.222  1.0825 -1.9510  0.8004
 2346SOL    HW218501   4.632   0.786   0.305 -0.2666 -0.0214 -1.0235
 2347SOL     OW18502   1.408   3.858  12.275 -0.6990 -0.2760  0.5600
 2347SOL    HW118503   1.409   3.781  12.332  3.5731 -1.0749 -0.6129
 2347SOL    HW218504   1.316   3.884  12.276  0.1298  2.6770  2.0988
 2348SOL     OW18505   0.967   4.458   2.368 -0.1012  0.7972  0.4674
 2348SOL    HW118506   0.967   4.553   2.359 -2.4301  0.7288 -0.3946
 2348SOL    HW218507   1.043   4.458   2.426 -0.3278 -0.3900  0.7617
 2349SOL     OW18508   1.001   2.316  14.443 -0.1758 -0.2471 -0.2174
 2349SOL    HW118509   1.080   2.352  14.484  0.1854 -0.7470 -0.4822
 2349SOL    HW218510   0.934   2.328  14.510  0.5461 -0.3109  0.5177
 2350SOL     OW18511   0.942   1.996  13.183  0.1803  0.1032 -0.1727
 2350SOL    HW118512   0.893   1.958  13.110  0.1580  0.2439 -0.2315
 2350SOL    HW218513   1.004   2.047  13.131 -0.1404  0.7692  0.0896
 2351SOL     OW18514   3.831   2.997   9.128 -0.3600 -0.3080  0.6856
 2351SOL    HW118515   3.883   3.040   9.061 -0.2715  0.7216  1.4174
 2351SOL    HW218516   3.868   3.040   9.205 -1.3879  1.4975  0.1622
 2352SOL     OW18517   2.367   3.005   3.176  0.7065 -0.0134 -0.2032
 2352SOL    HW118518   2.318   3.087   3.171 -0.3792 -0.6320  0.4760
 2352SOL    HW218519   2.389   3.006   3.269 -1.3773 -3.4732  0.3298
 2353SOL     OW18520   1.768   2.269  14.723 -0.3305  0.2126 -0.1545
 2353SOL    HW118521   1.814   2.279  14.640 -1.0274 -2.3939 -0.8423
 2353SOL    HW218522   1.803   2.347  14.767  0.0958  0.2724 -0.5953
 2354SOL     OW18523   0.425   1.594  17.684  1.1087 -0.2660  0.2473
 2354SOL    HW118524   0.404   1.530   0.057  1.7956 -2.9649 -2.0888
 2354SOL    HW218525   0.494   1.646   0.030  2.8993 -1.1902 -1.5736
 2355SOL     OW18526   2.818   3.205   7.575  0.2809 -0.3874  0.2314
 2355SOL    HW118527   2.886   3.201   7.641  0.7321  1.2360 -0.1274
 2355SOL    HW218528   2.801   3.299   7.582  0.5154 -0.5734  3.1133
 2356SOL     OW18529   1.682   0.525   9.760  0.3297 -0.0488  0.2420
 2356SOL    HW118530   1.775   0.499   9.761  0.1251 -0.7253  1.5094
 2356SOL    HW218531   1.666   0.534   9.854 -0.0612 -0.6475  0.2301
 2357SOL     OW18532   4.595   3.719  15.124 -0.2514  0.0260  0.5179
 2357SOL    HW118533   4.635   3.735  15.038  2.0992 -1.4850  1.3046
 2357SOL    HW218534   4.576   3.805  15.160  0.8595  0.7809 -0.6797
 2358SOL     OW18535   3.983   4.594  10.537  0.2030  0.3374  0.1820
 2358SOL    HW118536   4.040   4.669  10.554  1.0943 -0.2475 -0.2436
 2358SOL    HW218537   4.048   4.524  10.536 -1.0467 -0.8770  3.9874
 2359SOL     OW18538   0.191   1.703  13.415 -0.0492  0.4433  0.0526
 2359SOL    HW118539   0.267   1.734  13.364 -0.5799 -0.2997 -1.1919
 2359SOL    HW218540   0.199   1.608  13.410  0.7127  0.5668 -1.3227
 2360SOL     OW18541   2.518   1.616   2.652 -0.0776  0.1108  0.0688
 2360SOL    HW118542   2.448   1.552   2.639 -0.5940  0.6665  0.0928
 2360SOL    HW218543   2.496   1.698   2.608 -0.2976  1.0273  1.8973
 2361SOL     OW18544   1.950   3.289  15.979  0.0736 -0.1025 -0.1849
 2361SOL    HW118545   1.940   3.279  15.884  1.2251  1.1328 -0.4209
 2361SOL    HW218546   2.034   3.334  15.985  0.2346 -0.5537  0.9451
 2362SOL     OW18547   0.271   2.090   5.135  0.4142 -0.1597 -0.1057
 2362SOL    HW118548   0.192   2.064   5.181  0.6878 -2.8732 -1.1805
 2362SOL    HW218549   0.328   2.091   5.212 -0.2881  1.5824  0.3992
 2363SOL     OW18550   3.038   0.103   8.057  0.6496  0.0739  0.1536
 2363SOL    HW118551   3.128   0.070   8.055  0.5077 -0.4327  2.1077
 2363SOL    HW218552   3.060   0.196   8.055 -0.5430  0.3213 -1.0190
 2364SOL     OW18553   0.091   1.290   3.763 -0.2280 -0.5166 -0.1560
 2364SOL    HW118554   0.146   1.364   3.738 -0.0708 -0.1642  1.2148
 2364SOL    HW218555   0.160   1.223   3.754  1.3719  1.0714  0.1846
 2365SOL     OW18556   0.283   1.768   5.958 -0.0319 -0.3177 -0.5425
 2365SOL    HW118557   0.238   1.844   5.923 -0.0093 -0.7139 -1.4130
 2365SOL    HW218558   0.375   1.796   5.959 -0.5523  1.3101  1.2270
 2366SOL     OW18559   1.415   3.172   3.333 -0.1136 -0.2833 -0.2322
 2366SOL    HW118560   1.498   3.177   3.379 -1.0671  0.2928  1.4382
 2366SOL    HW218561   1.391   3.264   3.330  0.0413 -0.2710 -0.9952
 2367SOL     OW18562   0.843   2.712  15.083 -0.0573 -0.6064 -0.0427
 2367SOL    HW118563   0.830   2.791  15.135  0.1505 -0.3455 -0.3883
 2367SOL    HW218564   0.787   2.729  15.007 -0.0463  0.6652  0.2380
 2368SOL     OW18565   1.529   0.237  14.839 -0.0544  0.3142  0.5183
 2368SOL    HW118566   1.501   0.312  14.891 -1.7321  0.6206 -0.8128
 2368SOL    HW218567   1.543   0.280  14.754  2.3508 -2.0901 -0.2947
 2369SOL     OW18568   3.146   0.225   3.227  0.4653  0.5434 -0.2692
 2369SOL    HW118569   3.167   0.238   3.320 -3.8555 -0.5216  0.8235
 2369SOL    HW218570   3.097   0.144   3.238  0.1363  0.7846  0.0469
 2370SOL     OW18571   1.044   3.674   8.551  0.0385 -0.2080 -0.1887
 2370SOL    HW118572   0.962   3.669   8.502 -0.0379 -0.1016 -0.0698
 2370SOL    HW218573   1.019   3.733   8.622 -3.6471 -1.4978 -0.4442
 2371SOL     OW18574   0.992   4.515   6.737  0.8608  0.2242 -0.0177
 2371SOL    HW118575   1.079   4.525   6.776  1.2282 -0.5798 -0.6361
 2371SOL    HW218576   0.928   4.519   6.807  1.7372  1.0949  0.7296
 2372SOL     OW18577   1.806   0.416  12.889 -0.4364  0.3029 -0.0066
 2372SOL    HW118578   1.762   0.458  12.815  0.4360 -1.6551 -1.6273
 2372SOL    HW218579   1.746   0.353  12.928  2.5711 -1.4662  1.7911
 2373SOL     OW18580   0.679   1.784   7.083 -0.1182 -0.1156 -0.1745
 2373SOL    HW118581   0.627   1.728   7.024  0.6817 -1.0729  0.0335
 2373SOL    HW218582   0.713   1.859   7.034  2.6324 -0.2639  1.5180
 2374SOL     OW18583   2.140   0.248   1.104  0.1604  0.3066  0.0757
 2374SOL    HW118584   2.138   0.310   1.032  1.0316  0.3064  0.0545
 2374SOL    HW218585   2.232   0.254   1.128 -0.1476 -0.4187  1.4555
 2375SOL     OW18586   0.876   1.760   9.191 -0.0509 -0.0649  0.3839
 2375SOL    HW118587   0.941   1.707   9.238  0.0552  0.8392  1.2287
 2375SOL    HW218588   0.838   1.809   9.263 -0.4862 -1.9332  1.4303
 2376SOL     OW18589   4.078   3.615   1.916  0.1476  0.4279  0.4317
 2376SOL    HW118590   4.034   3.556   1.855  0.1599 -0.4431  1.2616
 2376SOL    HW218591   4.070   3.694   1.863  2.8388 -1.5390 -2.9283
 2377SOL     OW18592   1.317   3.410   6.878 -0.1664  0.1874 -0.3957
 2377SOL    HW118593   1.248   3.391   6.942  0.3076  1.0304  0.3518
 2377SOL    HW218594   1.344   3.497   6.906 -2.0384  0.8397 -0.6008
 2378SOL     OW18595   1.884   0.636   4.390  0.0484 -0.3214  0.4207
 2378SOL    HW118596   1.804   0.600   4.426  1.7905 -0.9550  3.6489
 2378SOL    HW218597   1.875   0.626   4.295  1.2506 -2.5682  0.5303
 2379SOL     OW18598   2.832   3.721   2.553 -0.4262  0.3813 -0.5031
 2379SOL    HW118599   2.865   3.760   2.471 -2.3059  1.2127 -0.8504
 2379SOL    HW218600   2.810   3.632   2.525  1.0755 -0.4696  1.0141
 2380SOL     OW18601   0.613   0.886   1.113  0.3201  0.1724 -0.4126
 2380SOL    HW118602   0.689   0.908   1.167 -0.2918 -0.9066  0.8797
 2380SOL    HW218603   0.572   0.972   1.116 -0.0723 -0.0092 -0.6910
 2381SOL     OW18604   2.553   1.123  10.689  0.0767 -0.0692 -0.5616
 2381SOL    HW118605   2.550   1.161  10.601  2.7575  1.4098 -0.0204
 2381SOL    HW218606   2.588   1.036  10.671  0.0130 -0.5238  1.4365
 2382SOL     OW18607   2.891   1.503  13.153 -0.0157  0.2340  0.6272
 2382SOL    HW118608   2.870   1.537  13.240 -0.4117  0.7193  0.3414
 2382SOL    HW218609   2.852   1.416  13.168 -2.1648  1.1022  0.1659
 2383SOL     OW18610   4.072   0.245  13.618  0.3182 -0.2396  0.3254
 2383SOL    HW118611   4.108   0.310  13.678  0.6873 -1.0730  1.0077
 2383SOL    HW218612   3.990   0.295  13.610  0.1735 -0.5485 -0.1287
 2384SOL     OW18613   2.122   3.409  11.552  0.3368  0.2941  0.2954
 2384SOL    HW118614   2.138   3.495  11.514 -0.1664  0.0655 -0.4266
 2384SOL    HW218615   2.193   3.357  11.514 -0.1197 -0.2289  0.1638
 2385SOL     OW18616   4.705   1.776   0.078  0.1838  0.4549  0.0196
 2385SOL    HW118617   4.626   1.829   0.070  0.7304  1.2756  0.0286
 2385SOL    HW218618   0.027   1.827   0.145  0.7813 -0.7300  0.5192
 2386SOL     OW18619   3.517   1.480   7.329 -0.3030 -0.0358  0.6188
 2386SOL    HW118620   3.428   1.513   7.331 -0.7060 -1.0141 -1.4993
 2386SOL    HW218621   3.549   1.501   7.417  0.4334  0.1945  0.2937
 2387SOL     OW18622   1.769   2.509   5.395 -0.0042 -0.0894  0.1653
 2387SOL    HW118623   1.738   2.477   5.310  1.0076 -2.0391  0.5177
 2387SOL    HW218624   1.779   2.431   5.450 -0.5525  0.0122  0.4039
 2388SOL     OW18625   0.118   1.020   0.468  0.4401  0.1223 -0.2507
 2388SOL    HW118626   0.124   0.977   0.383  1.1284  0.8154 -0.5541
 2388SOL    HW218627   0.198   1.000   0.516  0.5108  0.6833 -0.1378
 2389SOL     OW18628   1.637   0.871   0.516  0.4021  0.2800 -0.1539
 2389SOL    HW118629   1.683   0.935   0.462 -0.5946  0.2729 -1.0304
 2389SOL    HW218630   1.677   0.792   0.480 -1.2583 -0.3678 -0.5887
 2390SOL     OW18631   2.759   1.780  13.324  0.1245  0.2527  0.0537
 2390SOL    HW118632   2.682   1.734  13.293  0.2982  1.1832 -1.7733
 2390SOL    HW218633   2.791   1.714  13.385 -0.4799 -0.3396 -0.2825
 2391SOL     OW18634   0.669   4.329   6.843  0.1332  0.3653  0.4568
 2391SOL    HW118635   0.734   4.275   6.888 -0.5807  0.8648  2.0980
 2391SOL    HW218636   0.687   4.417   6.877  0.2769  0.9182 -1.0819
 2392SOL     OW18637   1.505   0.052   5.579 -0.1148 -0.3156 -0.2146
 2392SOL    HW118638   1.594   0.021   5.564  0.3485  0.6438  0.5670
 2392SOL    HW218639   1.498   0.133   5.528  2.3126 -0.7834 -1.2697
 2393SOL     OW18640   2.881   3.637  15.061  0.2163 -0.2725 -0.1189
 2393SOL    HW118641   2.845   3.725  15.069 -0.6553 -0.8166  1.9185
 2393SOL    HW218642   2.805   3.607  15.012 -0.7383  1.9146  0.0083
 2394SOL     OW18643   3.797   3.736  16.853 -0.1800  0.2347  0.1472
 2394SOL    HW118644   3.792   3.695  16.939  1.1520  2.0688  1.0965
 2394SOL    HW218645   3.759   3.659  16.811  0.0801  0.3298 -0.2618
 2395SOL     OW18646   1.735   1.065  11.614  0.2854  0.2104  0.5657
 2395SOL    HW118647   1.783   1.117  11.679  0.4502  0.0869  0.5415
 2395SOL    HW218648   1.775   1.111  11.540  1.6276 -0.8130  0.6721
 2396SOL     OW18649   1.045   3.639   5.665  0.4978 -0.1452  0.0893
 2396SOL    HW118650   1.138   3.632   5.686 -0.1051 -0.6953  2.5311
 2396SOL    HW218651   1.054   3.618   5.572 -3.3898 -1.3418  0.0053
 2397SOL     OW18652   1.013   2.164   9.505  0.2562  0.5389 -0.3581
 2397SOL    HW118653   1.096   2.132   9.541 -0.5244 -0.4013  0.5902
 2397SOL    HW218654   1.023   2.248   9.549 -1.9806  1.4425 -1.6009
 2398SOL     OW18655   0.850   0.777  11.923 -0.8258  0.1239 -0.7011
 2398SOL    HW118656   0.837   0.727  12.004  1.3273 -1.0922 -1.1080
 2398SOL    HW218657   0.936   0.742  11.901  0.6871  2.0601  2.2113
 2399SOL     OW18658   1.224   3.852   2.952  0.0239 -0.0705  0.1510
 2399SOL    HW118659   1.304   3.888   2.913 -1.4363  2.7166 -0.2750
 2399SOL    HW218660   1.161   3.923   2.941  0.9383  0.4315 -1.8793
 2400SOL     OW18661   2.964   0.567   7.687  0.1834 -0.1070  0.0997
 2400SOL    HW118662   3.034   0.602   7.742 -0.1669 -2.9991  2.3622
 2400SOL    HW218663   2.965   0.476   7.715  2.0559 -0.1696 -0.1924
 2401SOL     OW18664   0.003   2.395   9.837  0.0931  0.2876  0.0434
 2401SOL    HW118665   4.722   2.335   9.911 -1.2267  0.2992 -0.0292
 2401SOL    HW218666   0.004   2.480   9.879  0.7177 -0.0440  0.7022
 2402SOL     OW18667   3.417   0.670  14.345 -0.1221  0.2879  0.1812
 2402SOL    HW118668   3.473   0.613  14.293  0.8672 -0.2894  1.8561
 2402SOL    HW218669   3.410   0.634  14.434  1.7664  0.8325  0.5695
 2403SOL     OW18670   1.123   2.669   3.160  0.3835  0.1123 -0.3131
 2403SOL    HW118671   1.088   2.603   3.101 -0.6343  0.3161  0.0755
 2403SOL    HW218672   1.148   2.732   3.092  1.7943  0.5556  0.6170
 2404SOL     OW18673   0.645   3.532   8.971  0.2055 -0.0574  0.0387
 2404SOL    HW118674   0.734   3.561   8.990 -0.3884  1.4201  0.5807
 2404SOL    HW218675   0.649   3.519   8.876  1.2397 -0.4662  0.1394
 2405SOL     OW18676   2.941   1.609  12.291 -0.1110 -0.2533 -0.6279
 2405SOL    HW118677   2.983   1.642  12.212  0.9001 -0.6237 -0.2355
 2405SOL    HW218678   2.986   1.647  12.366 -0.5737  1.8717 -1.4298
 2406SOL     OW18679   1.130   4.464   3.493  0.2735 -0.6016  0.5524
 2406SOL    HW118680   1.073   4.541   3.486 -1.2512 -1.7473  0.2936
 2406SOL    HW218681   1.152   4.451   3.401  1.6564  1.4147  0.6115
 2407SOL     OW18682   0.093   4.676  16.450 -0.0301 -0.0388  0.0007
 2407SOL    HW118683   0.036   0.030  16.442 -0.6104 -0.6256 -1.4916
 2407SOL    HW218684   0.079   4.649  16.541 -0.7925 -1.2737 -0.4765
 2408SOL     OW18685   2.294   1.396   8.546 -0.0307 -0.3787 -0.1063
 2408SOL    HW118686   2.224   1.388   8.481  0.8564  1.4823 -1.3081
 2408SOL    HW218687   2.345   1.451   8.487  0.3402 -0.9487 -0.3119
 2409SOL     OW18688   1.053   4.180   0.449 -0.5467  0.3135  0.3651
 2409SOL    HW118689   1.003   4.128   0.511 -0.8564  0.8473  0.5639
 2409SOL    HW218690   1.029   4.137   0.366 -1.1716  3.4020 -1.0597
 2410SOL     OW18691   2.080   0.286   4.245 -0.1688  0.5592  0.1793
 2410SOL    HW118692   1.989   0.258   4.232  0.1040 -0.1749 -0.1328
 2410SOL    HW218693   2.068   0.379   4.222  3.2538  0.8332 -0.3884
 2411SOL     OW18694   0.229   3.833  15.048 -0.0122  0.1026 -0.9637
 2411SOL    HW118695   0.182   3.883  14.981 -1.5600  0.2466  0.2335
 2411SOL    HW218696   0.160   3.773  15.073  0.6445 -0.9805 -1.7292
 2412SOL     OW18697   2.126   1.247   9.103  0.1876  0.0261 -0.0851
 2412SOL    HW118698   2.170   1.317   9.152  0.1768 -0.4337  0.5667
 2412SOL    HW218699   2.109   1.285   9.016 -2.4337 -1.2788 -0.1377
 2413SOL     OW18700   4.409   1.651  13.514 -0.3941  0.2512 -0.1354
 2413SOL    HW118701   4.339   1.681  13.457  0.7457 -0.7230 -2.0546
 2413SOL    HW218702   4.489   1.655  13.462 -1.8140  0.9032 -2.2360
 2414SOL     OW18703   3.081   2.459   6.352 -0.1295  0.2131 -0.0176
 2414SOL    HW118704   3.095   2.520   6.425  0.9854 -0.1505  0.0713
 2414SOL    HW218705   3.102   2.370   6.378  0.0491  0.0072 -0.8805
 2415SOL     OW18706   0.395   1.394   5.238  0.7494 -0.7926 -0.2024
 2415SOL    HW118707   0.325   1.393   5.173 -0.7639  0.6253  1.4168
 2415SOL    HW218708   0.346   1.438   5.308  0.3902  0.7367 -1.4213
 2416SOL     OW18709   2.400   4.120   8.740 -0.4093  0.5218 -0.0945
 2416SOL    HW118710   2.396   4.061   8.664 -2.9642  1.0597 -0.3836
 2416SOL    HW218711   2.344   4.191   8.708 -0.6474 -0.1067 -1.0861
 2417SOL     OW18712   0.265   1.979   7.666 -0.5041 -0.0232 -0.1972
 2417SOL    HW118713   0.204   2.038   7.621  0.1973  1.4758  0.7912
 2417SOL    HW218714   0.240   1.892   7.636 -0.5491  0.7397 -2.3827
 2418SOL     OW18715   1.699   0.703   2.505  0.0229 -0.2681  0.0820
 2418SOL    HW118716   1.660   0.789   2.494 -1.3261 -0.9896 -0.8523
 2418SOL    HW218717   1.778   0.716   2.557 -2.2075 -1.3871  3.7673
 2419SOL     OW18718   1.185   4.220   2.915 -0.0310  0.4543 -0.3406
 2419SOL    HW118719   1.169   4.179   2.830  1.7279 -1.3227  0.1799
 2419SOL    HW218720   1.248   4.290   2.895 -0.2151  0.1082 -2.1875
 2420SOL     OW18721   0.498   0.134   0.271 -0.9092 -0.6140 -0.0548
 2420SOL    HW118722   0.510   0.108   0.363  1.6535 -1.3149 -0.5948
 2420SOL    HW218723   0.581   0.101   0.237 -1.1439 -2.1625  0.8395
 2421SOL     OW18724   3.414   4.257   8.762 -0.8223 -0.0980  0.2450
 2421SOL    HW118725   3.399   4.242   8.856 -2.0157 -0.4614 -0.0013
 2421SOL    HW218726   3.479   4.190   8.742  2.2384  2.6475  1.0137
 2422SOL     OW18727   2.017   3.511   6.754 -0.1175  0.5673 -0.0977
 2422SOL    HW118728   1.925   3.535   6.762 -0.4616 -0.7089 -0.3069
 2422SOL    HW218729   2.057   3.593   6.785 -1.0046 -0.0614  2.7209
 2423SOL     OW18730   4.628   1.552   5.479 -0.0637 -0.1871 -0.1440
 2423SOL    HW118731   4.670   1.602   5.550  2.4621 -1.7314 -0.5239
 2423SOL    HW218732   4.617   1.468   5.524 -0.0513 -2.2590 -4.0351
 2424SOL     OW18733   4.188   3.694   8.771 -0.2017 -0.6080 -0.0370
 2424SOL    HW118734   4.249   3.760   8.738 -0.0168 -0.2995  0.9340
 2424SOL    HW218735   4.154   3.654   8.691 -0.0075 -0.6490 -0.0983
 2425SOL     OW18736   0.009   4.311   3.330  0.1459  0.1474  0.4155
 2425SOL    HW118737   4.677   4.335   3.405 -3.3475 -2.2461 -1.3904
 2425SOL    HW218738   0.025   4.397   3.291 -2.1799 -0.3907 -1.7227
 2426SOL     OW18739   3.629   1.928   7.997  0.1951 -0.5602  0.1681
 2426SOL    HW118740   3.694   1.985   8.038 -1.8576  2.1808 -0.3814
 2426SOL    HW218741   3.667   1.923   7.910  0.1733  1.5703  0.0545
 2427SOL     OW18742   0.622   2.237   1.215  0.0226  0.7071 -1.2181
 2427SOL    HW118743   0.640   2.291   1.138  1.3274  1.6536 -0.2452
 2427SOL    HW218744   0.553   2.288   1.256 -0.1280 -0.2436 -0.3020
 2428SOL     OW18745   3.693   2.762   0.174  0.2877  0.2145 -0.0382
 2428SOL    HW118746   3.687   2.667   0.168  2.1995  0.0048  1.2593
 2428SOL    HW218747   3.607   2.794   0.145 -0.2306 -1.7426 -0.6553
 2429SOL     OW18748   2.294   1.555   3.890  0.1370 -0.7616 -0.2153
 2429SOL    HW118749   2.217   1.567   3.946  0.0867  2.9867 -1.0657
 2429SOL    HW218750   2.282   1.462   3.867 -1.0390 -0.4894 -0.7329
 2430SOL     OW18751   2.263   1.502   2.640  0.0701  0.6380 -0.0758
 2430SOL    HW118752   2.187   1.453   2.609  1.8289 -2.7774  1.0611
 2430SOL    HW218753   2.266   1.487   2.734  0.8201 -2.4477 -0.6139
 2431SOL     OW18754   1.379   4.383   3.565  0.0473  0.4241 -0.0685
 2431SOL    HW118755   1.288   4.411   3.559 -0.5542 -1.7508 -1.1063
 2431SOL    HW218756   1.403   4.400   3.474 -0.9659 -4.6277 -1.2870
 2432SOL     OW18757   1.935   3.194  12.858  0.2416 -0.0821 -0.6232
 2432SOL    HW118758   2.031   3.195  12.848  0.4343  2.2443  1.4453
 2432SOL    HW218759   1.924   3.099  12.857 -0.7609  0.0224  2.2150
 2433SOL     OW18760   2.516   1.843   9.550  0.4886 -0.4379  0.0813
 2433SOL    HW118761   2.542   1.931   9.577 -0.2325 -0.1751 -0.0844
 2433SOL    HW218762   2.514   1.806   9.638  0.8899 -0.9422 -0.1238
 2434SOL     OW18763   2.722   1.122   2.770 -0.4999  0.0329  0.1092
 2434SOL    HW118764   2.766   1.201   2.738 -0.9837 -0.4559 -1.7818
 2434SOL    HW218765   2.739   1.049   2.710 -1.9643  0.5398 -0.9462
 2435SOL     OW18766   2.746   2.855   5.887  0.1054  0.0656 -0.1500
 2435SOL    HW118767   2.701   2.936   5.908 -0.4400 -0.0998 -0.6787
 2435SOL    HW218768   2.700   2.824   5.809 -0.3743  0.0624  0.1382
 2436SOL     OW18769   0.129   3.708   3.294 -0.1745 -0.1344 -0.4508
 2436SOL    HW118770   0.039   3.694   3.264 -0.8820  0.5851  1.3693
 2436SOL    HW218771   0.162   3.619   3.284  1.2681  0.2846  0.4562
 2437SOL     OW18772   4.672   0.359   5.743 -0.2417  0.0805  0.3546
 2437SOL    HW118773   4.639   0.417   5.812  0.5066  0.6956  0.1977
 2437SOL    HW218774   4.718   0.292   5.794 -0.2734 -0.0265  0.2407
 2438SOL     OW18775   0.619   0.563  14.548  0.4755  0.2964 -0.2509
 2438SOL    HW118776   0.535   0.587  14.586  0.3809  0.0777 -0.3242
 2438SOL    HW218777   0.601   0.547  14.455  0.9617  1.8601 -0.6116
 2439SOL     OW18778   3.714   3.910   0.241 -0.7365 -0.5705  0.0735
 2439SOL    HW118779   3.783   3.871   0.295 -0.6316 -0.6325 -0.1045
 2439SOL    HW218780   3.752   3.996   0.253  0.2215 -1.0676  0.5684
 2440SOL     OW18781   3.550   1.219   6.038 -0.2403 -0.5985  0.5008
 2440SOL    HW118782   3.586   1.268   5.964 -0.4650 -0.0694  0.7415
 2440SOL    HW218783   3.470   1.179   6.002 -1.0693  1.6873 -0.1769
 2441SOL     OW18784   4.315   4.196   4.381 -0.3596  0.1912 -0.3353
 2441SOL    HW118785   4.325   4.102   4.367 -1.8928  0.3052 -2.1527
 2441SOL    HW218786   4.350   4.237   4.302 -0.3821 -2.6781 -1.8106
 2442SOL     OW18787   0.183   3.778   3.019  0.3137 -0.0254 -0.2590
 2442SOL    HW118788   0.117   3.846   3.007 -1.5041 -1.9762 -1.2020
 2442SOL    HW218789   0.150   3.745   3.103 -0.7942  1.2218 -0.2084
 2443SOL     OW18790   3.029   3.385   1.182 -0.5976  0.3350 -0.2684
 2443SOL    HW118791   3.115   3.360   1.146 -1.5437 -0.6488 -1.8515
 2443SOL    HW218792   2.982   3.426   1.110  1.5302  1.7517 -0.8490
 2444SOL     OW18793   0.970   1.608   6.419  0.0329  0.2437  0.1793
 2444SOL    HW118794   0.884   1.601   6.377  0.0000 -0.1784  0.3173
 2444SOL    HW218795   1.022   1.660   6.359  0.9355 -1.0344 -0.1365
 2445SOL     OW18796   0.410   0.977   4.070 -0.3902 -0.4660  0.2729
 2445SOL    HW118797   0.336   1.030   4.041  0.6684  1.6875  1.4658
 2445SOL    HW218798   0.477   1.043   4.087 -0.1865 -1.1602  2.1307
 2446SOL     OW18799   0.363   4.574   6.562  0.2835 -0.5307  0.4911
 2446SOL    HW118800   0.377   4.598   6.653 -1.2468 -0.7836  0.7846
 2446SOL    HW218801   0.455   4.565   6.536  0.9541  1.7026  2.0802
 2447SOL     OW18802   1.465   0.721   4.622 -0.4433  0.3147 -0.3202
 2447SOL    HW118803   1.436   0.799   4.670 -1.8499 -1.1427  1.1720
 2447SOL    HW218804   1.400   0.657   4.651  0.8266 -0.5771  0.5495
 2448SOL     OW18805   1.208   2.334   6.383  0.2456  0.0930 -0.0383
 2448SOL    HW118806   1.243   2.385   6.310  0.9334 -0.9360 -0.4313
 2448SOL    HW218807   1.145   2.400   6.412 -0.4668  0.2115 -1.8274
 2449SOL     OW18808   3.601   2.106  16.497 -0.6573  0.4436  0.3907
 2449SOL    HW118809   3.564   2.094  16.409  1.3687 -0.9825 -0.2611
 2449SOL    HW218810   3.578   2.196  16.520  0.0631  0.5166  0.8362
 2450SOL     OW18811   4.105   1.664   5.597  0.0445  0.1051 -0.1440
 2450SOL    HW118812   4.054   1.744   5.603 -0.4807 -0.0469 -2.5078
 2450SOL    HW218813   4.143   1.671   5.510 -0.6082 -2.7288 -0.6596
 2451SOL     OW18814   1.007   0.581   2.270 -0.4934 -0.1324  0.2756
 2451SOL    HW118815   0.993   0.535   2.352 -1.2821 -0.6489 -0.1524
 2451SOL    HW218816   1.087   0.630   2.290  1.1512 -2.2810 -1.0551
 2452SOL     OW18817   3.253   3.250  15.044  0.7677 -0.0836  0.3146
 2452SOL    HW118818   3.237   3.323  15.104 -0.1524 -2.5156  3.0197
 2452SOL    HW218819   3.331   3.273  14.993  0.2105  1.3356  0.1194
 2453SOL     OW18820   3.944   0.219   7.004 -0.5937 -0.4720 -0.0293
 2453SOL    HW118821   3.917   0.183   6.920  0.2152 -1.3004  0.0667
 2453SOL    HW218822   3.965   0.309   6.978  0.8159 -1.3029 -1.7500
 2454SOL     OW18823   2.257   3.622  16.550  0.0122 -0.4948  0.8388
 2454SOL    HW118824   2.296   3.564  16.616 -1.4031 -1.0672  1.1620
 2454SOL    HW218825   2.340   3.656  16.515  0.2067 -1.9301 -0.0954
 2455SOL     OW18826   0.263   3.591   6.486 -0.2445  0.4779 -0.3494
 2455SOL    HW118827   0.228   3.537   6.556  0.2745 -0.7418 -1.0224
 2455SOL    HW218828   0.355   3.565   6.495  0.4663  1.7511 -3.6673
 2456SOL     OW18829   2.078   4.024   6.777  0.5312  0.1799 -0.6153
 2456SOL    HW118830   2.107   4.109   6.746  2.7473 -0.4491 -0.2342
 2456SOL    HW218831   2.023   4.051   6.851  0.2490 -0.4796 -0.5820
 2457SOL     OW18832   2.485   3.972   7.142  0.0924 -0.1357  0.0642
 2457SOL    HW118833   2.507   3.879   7.145  1.6652  0.1950 -2.0194
 2457SOL    HW218834   2.488   3.988   7.048 -3.6211  1.6828  0.2522
 2458SOL     OW18835   0.872   4.240  15.306  0.1890 -0.2548  0.4399
 2458SOL    HW118836   0.782   4.272  15.299  0.1866 -0.1760  0.8112
 2458SOL    HW218837   0.865   4.165  15.248 -2.6507 -0.3602  0.9492
 2459SOL     OW18838   2.493   0.466   1.699  0.2932  0.1769  0.7035
 2459SOL    HW118839   2.419   0.483   1.756 -0.8593 -2.4030 -0.0231
 2459SOL    HW218840   2.451   0.403   1.640  0.1358 -0.4538  1.4823
 2460SOL     OW18841   1.967   0.261  15.054 -0.1412 -0.4161  0.0662
 2460SOL    HW118842   1.977   0.280  15.147  0.4053 -1.5351  0.2461
 2460SOL    HW218843   1.886   0.210  15.061 -0.1538 -0.8289 -2.9319
 2461SOL     OW18844   0.088   3.652   7.790  0.2393 -0.3522  0.7838
 2461SOL    HW118845   0.167   3.634   7.739  0.1515  0.0897  0.4941
 2461SOL    HW218846   0.130   3.664   7.875 -0.1912  1.6251  0.7278
 2462SOL     OW18847   3.276   1.970  10.944 -0.2071 -0.0614 -0.1360
 2462SOL    HW118848   3.225   2.045  10.914  1.0788  1.1077  0.6069
 2462SOL    HW218849   3.361   1.986  10.904 -0.9286  0.6538 -1.3697
 2463SOL     OW18850   1.922   2.359   6.951  0.5407 -0.0005  0.2113
 2463SOL    HW118851   1.954   2.382   6.864  1.2644  0.5150  0.6099
 2463SOL    HW218852   1.832   2.387   6.937  0.8192  0.3892 -0.8125
 2464SOL     OW18853   3.552   0.542   2.547  0.1021  0.6946  0.5720
 2464SOL    HW118854   3.492   0.480   2.505  0.9375 -1.4977  2.6158
 2464SOL    HW218855   3.542   0.615   2.486  1.7428 -0.8538 -1.5761
 2465SOL     OW18856   1.236   1.682  17.379  0.3889  0.0893  0.1479
 2465SOL    HW118857   1.201   1.762  17.341 -3.1856 -0.5362  2.1254
 2465SOL    HW218858   1.261   1.718  17.464 -0.5620 -1.3926  1.0410
 2466SOL     OW18859   1.011   0.348   7.276  0.3810  0.4794  0.2739
 2466SOL    HW118860   1.066   0.355   7.355 -0.2980 -1.0974  0.9018
 2466SOL    HW218861   0.990   0.255   7.282  3.8743 -0.3738 -0.5050
 2467SOL     OW18862   3.598   2.460  11.925  0.1820  0.0919  0.5679
 2467SOL    HW118863   3.628   2.529  11.983 -2.7943  2.0849 -0.2710
 2467SOL    HW218864   3.586   2.505  11.841 -0.1763  0.7699  0.9781
 2468SOL     OW18865   1.366   3.979  17.185 -0.8491 -0.1983  0.1343
 2468SOL    HW118866   1.300   3.910  17.181  1.3924 -2.3650  0.6502
 2468SOL    HW218867   1.418   3.950  17.260  0.2071 -0.6506 -0.7904
 2469SOL     OW18868   1.752   4.036  12.017  0.7523  0.5497  0.1491
 2469SOL    HW118869   1.789   3.964  11.966 -0.9962 -1.0162  1.1107
 2469SOL    HW218870   1.810   4.103  11.979 -3.4168  3.8239 -0.4269
 2470SOL     OW18871   3.297   4.017   4.414 -0.0453 -0.3864 -0.2115
 2470SOL    HW118872   3.297   3.978   4.327 -1.0271  0.4102 -0.5685
 2470SOL    HW218873   3.204   4.040   4.413  0.0332 -0.0046  0.8883
 2471SOL     OW18874   2.321   3.652   5.983  0.2411  0.1966  0.1516
 2471SOL    HW118875   2.283   3.732   5.945  1.9859  0.0183 -1.9913
 2471SOL    HW218876   2.414   3.654   5.962  0.5989 -0.2413  1.6817
 2472SOL     OW18877   4.022   2.568   5.212 -0.6640 -0.7942  0.5122
 2472SOL    HW118878   3.949   2.629   5.212 -0.8517 -1.0195  1.0539
 2472SOL    HW218879   4.029   2.556   5.117 -1.9094  0.2512  0.2913
 2473SOL     OW18880   0.061   3.631   1.084  0.4174  0.3480 -0.2655
 2473SOL    HW118881   0.113   3.554   1.062 -0.2196 -0.8633  2.4600
 2473SOL    HW218882   0.125   3.696   1.052 -1.5735  3.6163  2.3487
 2474SOL     OW18883   3.288   2.252  13.151  0.5895  0.4291  0.3840
 2474SOL    HW118884   3.226   2.197  13.199 -0.6315  0.8613 -0.6969
 2474SOL    HW218885   3.241   2.288  13.076 -0.1070 -0.4258  0.4116
 2475SOL     OW18886   2.970   4.420  15.349 -0.7216 -0.1861 -0.7044
 2475SOL    HW118887   2.907   4.411  15.420  0.9786  0.0152  0.8264
 2475SOL    HW218888   2.964   4.512  15.323  0.3864 -1.2890 -4.7965
 2476SOL     OW18889   1.642   3.144  12.760 -0.3985  0.0822  0.8610
 2476SOL    HW118890   1.632   3.068  12.817  1.3484 -0.4412  0.4571
 2476SOL    HW218891   1.695   3.107  12.690  0.0852  0.4325  1.0438
 2477SOL     OW18892   1.134   1.288   5.331  0.1120  0.9646 -0.1553
 2477SOL    HW118893   1.085   1.325   5.258  0.6162 -1.6034 -1.8266
 2477SOL    HW218894   1.117   1.196   5.311  1.7400  0.1768  2.0149
 2478SOL     OW18895   0.069   1.833  17.246  0.4144  0.3126  0.3593
 2478SOL    HW118896   0.045   1.743  17.268  1.7444 -0.4056 -1.1323
 2478SOL    HW218897   0.160   1.837  17.275  0.0627 -3.3006  1.9668
 2479SOL     OW18898   4.170   4.165   0.301 -0.0375 -0.4906  0.3085
 2479SOL    HW118899   4.194   4.257   0.309 -0.0671 -0.4262 -0.3932
 2479SOL    HW218900   4.186   4.139   0.392  0.4618  1.4510  0.7740
 2480SOL     OW18901   1.486   2.604  17.343  0.4070 -0.3975  0.7503
 2480SOL    HW118902   1.524   2.523  17.309  3.7001  1.2070  0.6386
 2480SOL    HW218903   1.447   2.631  17.260  2.8187  0.6407 -0.0152
 2481SOL     OW18904   1.057   2.780  11.547 -0.1161  0.5368 -0.1932
 2481SOL    HW118905   1.079   2.698  11.592  1.1543  0.6089 -0.6995
 2481SOL    HW218906   1.120   2.772  11.476 -0.2842 -1.0796 -0.1634
 2482SOL     OW18907   0.648   1.717   2.731  0.0943  0.0914  0.0348
 2482SOL    HW118908   0.566   1.672   2.748 -1.2891  2.9666  1.0676
 2482SOL    HW218909   0.614   1.796   2.689  0.4307  0.4818  0.4974
 2483SOL     OW18910   1.561   4.422   2.944 -0.1788 -0.7794  0.6534
 2483SOL    HW118911   1.629   4.476   2.904  0.6013  0.0555  3.1330
 2483SOL    HW218912   1.617   4.351   2.975  1.5848  0.3254 -0.0031
 2484SOL     OW18913   2.572   3.765   5.492  0.3518 -0.4711 -0.0974
 2484SOL    HW118914   2.630   3.825   5.444  1.3375 -0.7283  0.7922
 2484SOL    HW218915   2.492   3.815   5.473 -0.2638 -0.8497  1.5361
 2485SOL     OW18916   4.462   1.658  12.269 -0.1218 -0.2549 -0.2238
 2485SOL    HW118917   4.499   1.612  12.345  0.5042 -0.2041 -0.4997
 2485SOL    HW218918   4.514   1.614  12.202 -1.0744 -0.4178 -0.8559
 2486SOL     OW18919   1.248   0.936  17.237  0.3359 -0.1804  0.0359
 2486SOL    HW118920   1.212   1.015  17.278  0.4534  0.9940 -2.1132
 2486SOL    HW218921   1.330   0.968  17.199 -0.6140  0.2030 -1.6767
 2487SOL     OW18922   1.493   2.858   2.775  0.1034  0.6433  0.3464
 2487SOL    HW118923   1.475   2.774   2.817 -1.1361  0.9458  0.4414
 2487SOL    HW218924   1.587   2.870   2.787  0.3260  1.2665 -1.9896
 2488SOL     OW18925   2.147   0.895   7.548  0.0387  0.0430 -0.2150
 2488SOL    HW118926   2.210   0.869   7.615  1.9424  1.3350 -1.4971
 2488SOL    HW218927   2.137   0.816   7.494 -0.8819 -0.6628  0.9769
 2489SOL     OW18928   3.188   2.274   5.750 -0.8903  0.4091 -0.0400
 2489SOL    HW118929   3.162   2.350   5.803 -0.8113  0.5440 -0.1971
 2489SOL    HW218930   3.146   2.195   5.785  1.7894 -0.6690  0.7096
 2490SOL     OW18931   4.411   1.905   5.678  0.0730  0.1548 -0.0170
 2490SOL    HW118932   4.368   1.830   5.721  1.4658  0.1705  1.4140
 2490SOL    HW218933   4.441   1.952   5.756  0.7238  0.2119 -0.2988
 2491SOL     OW18934   2.403   0.657  11.839 -0.4823  0.0848 -0.4577
 2491SOL    HW118935   2.465   0.593  11.873 -0.2069  1.0565  0.8683
 2491SOL    HW218936   2.381   0.611  11.758 -2.2656  0.6399 -0.2821
 2492SOL     OW18937   0.542   2.409   7.306  0.0916 -0.5820 -0.2271
 2492SOL    HW118938   0.459   2.444   7.274  0.7702  1.6457  0.4156
 2492SOL    HW218939   0.546   2.332   7.250 -0.9803 -1.8191  1.3744
 2493SOL     OW18940   3.032   3.639   0.068 -0.1844  0.1306 -0.4801
 2493SOL    HW118941   3.116   3.595   0.080  0.8704  2.0250 -0.9538
 2493SOL    HW218942   3.070   3.713   0.021 -0.4676 -0.3396 -1.4406
 2494SOL     OW18943   2.044   3.707   8.555 -0.2958 -0.3178 -0.2805
 2494SOL    HW118944   2.026   3.792   8.515 -0.0874  0.5326  1.4158
 2494SOL    HW218945   2.138   3.698   8.541 -0.0551  0.9485  0.4642
 2495SOL     OW18946   3.966   0.213   2.659 -0.5689  0.1189 -0.4611
 2495SOL    HW118947   4.056   0.244   2.645 -0.9548 -0.1026 -3.4379
 2495SOL    HW218948   3.976   0.119   2.674 -1.2661  0.1802  0.3668
 2496SOL     OW18949   2.975   0.778   7.955  0.4772 -0.4962  0.1723
 2496SOL    HW118950   2.927   0.705   7.995  0.7588 -0.3847  0.7171
 2496SOL    HW218951   3.065   0.754   7.979  1.6263  3.8767  0.2657
 2497SOL     OW18952   1.668   3.823   3.403 -0.2564 -0.5235 -0.2219
 2497SOL    HW118953   1.658   3.728   3.396 -0.1161 -0.7074  2.1858
 2497SOL    HW218954   1.672   3.851   3.311 -1.1680 -1.6076 -0.5803
 2498SOL     OW18955   3.001   0.806   8.566  0.5636  0.1928 -0.2553
 2498SOL    HW118956   3.084   0.785   8.608  0.9847  0.3920 -0.9888
 2498SOL    HW218957   2.968   0.716   8.573 -2.6809  1.3078 -1.0779
 2499SOL     OW18958   4.562   3.712  14.429  0.3947  0.5485  0.1385
 2499SOL    HW118959   4.592   3.747  14.512  1.9625  0.0105 -0.2158
 2499SOL    HW218960   4.563   3.786  14.367  2.1435  0.1006 -0.3679
 2500SOL     OW18961   3.979   3.274  16.041 -0.2936  0.7298 -0.0939
 2500SOL    HW118962   3.927   3.316  15.973 -0.6699 -0.6508 -0.6644
 2500SOL    HW218963   3.953   3.184  16.024 -2.3346  1.5283 -1.2017
 2501SOL     OW18964   3.674   4.526   1.449 -0.0657 -0.2045 -0.1368
 2501SOL    HW118965   3.686   4.456   1.513 -1.0015  0.3385  0.6133
 2501SOL    HW218966   3.714   4.597   1.499  2.2227 -2.1832  0.8443
 2502SOL     OW18967   3.126   1.017   3.302 -0.0698  0.2494  0.4849
 2502SOL    HW118968   3.110   1.103   3.342  0.4738 -0.2622  1.7930
 2502SOL    HW218969   3.150   1.043   3.213 -0.6774  1.6735  0.7309
 2503SOL     OW18970   4.087   1.737  10.166  0.5430  0.0843  0.6033
 2503SOL    HW118971   4.113   1.760  10.076  0.4410  0.2598  0.6189
 2503SOL    HW218972   4.162   1.682  10.190 -0.6346 -0.0661  3.9684
 2504SOL     OW18973   0.110   0.323   1.780  0.1116 -0.7603  0.4490
 2504SOL    HW118974   0.192   0.320   1.732 -0.1551 -0.2418 -0.0512
 2504SOL    HW218975   0.154   0.363   1.855 -1.3111  1.9867 -0.1565
 2505SOL     OW18976   2.363   1.056   4.592 -0.4359  0.1842  0.1720
 2505SOL    HW118977   2.385   1.129   4.651 -0.8843 -0.4811  1.1619
 2505SOL    HW218978   2.313   1.102   4.524 -0.5974 -0.9867 -0.4957
 2506SOL     OW18979   2.514   0.356  12.933  0.2203 -0.3522 -0.0825
 2506SOL    HW118980   2.539   0.304  12.856  1.0666 -0.6971  0.4187
 2506SOL    HW218981   2.479   0.292  12.995 -0.0475 -0.9686 -0.8648
 2507SOL     OW18982   2.445   2.759   4.640 -0.5963 -0.7604 -0.3495
 2507SOL    HW118983   2.408   2.740   4.553 -2.2350 -3.7267  0.9973
 2507SOL    HW218984   2.536   2.731   4.630 -0.3492 -0.3624  0.8287
 2508SOL     OW18985   4.340   2.212   6.016  0.6377  0.1609 -0.0048
 2508SOL    HW118986   4.358   2.128   5.972 -0.2533 -0.5672  1.0537
 2508SOL    HW218987   4.363   2.187   6.105  1.8303  0.6104 -0.1770
 2509SOL     OW18988   1.676   2.421   6.838  0.3024  0.9457 -0.2621
 2509SOL    HW118989   1.701   2.512   6.820  2.2809  0.1504 -1.4399
 2509SOL    HW218990   1.580   2.426   6.846  0.3438  0.8816  0.3097
 2510SOL     OW18991   0.123   2.223  17.545  0.3819  0.0018  0.0993
 2510SOL    HW118992   0.088   2.171  17.473  0.6615  0.1408 -0.1343
 2510SOL    HW218993   0.073   2.197  17.623 -1.8527 -1.7958 -1.9207
 2511SOL     OW18994   4.304   0.543   3.463  0.1035  0.3245 -0.0183
 2511SOL    HW118995   4.394   0.511   3.461 -0.8257 -2.3134  0.8682
 2511SOL    HW218996   4.256   0.466   3.493  0.3834 -0.1234 -0.7299
 2512SOL     OW18997   3.864   2.668   4.181  0.0488  0.4974 -0.1099
 2512SOL    HW118998   3.795   2.634   4.124  1.4028  0.8744 -1.9707
 2512SOL    HW218999   3.915   2.590   4.203  1.1923  1.3919  0.3822
 2513SOL     OW19000   0.128   0.538   1.109 -0.4861  0.0502  0.0879
 2513SOL    HW119001   0.043   0.565   1.141  0.8737  2.8946  1.2836
 2513SOL    HW219002   0.164   0.508   1.193 -1.4460  0.2636  0.5698
 2514SOL     OW19003   1.860   4.153  16.093 -0.3155 -0.3176  0.1477
 2514SOL    HW119004   1.793   4.215  16.122  0.2882  0.1869  0.4644
 2514SOL    HW219005   1.928   4.176  16.156 -2.1932  1.4485  1.5387
 2515SOL     OW19006   0.312   2.117  14.547 -0.2978 -0.1124 -0.1126
 2515SOL    HW119007   0.346   2.027  14.538  0.0078  0.2168 -2.2756
 2515SOL    HW219008   0.258   2.120  14.625  0.6497 -1.7080  0.6093
 2516SOL     OW19009   1.716   3.948  14.207 -0.4919 -0.6607  0.3283
 2516SOL    HW119010   1.722   3.856  14.181 -1.4069 -0.2286 -1.4632
 2516SOL    HW219011   1.804   3.982  14.192 -0.9919  2.0931  3.7165
 2517SOL     OW19012   3.645   4.351  17.299  0.1403 -0.3193  0.3272
 2517SOL    HW119013   3.694   4.370  17.219 -0.2733 -2.5833 -0.4776
 2517SOL    HW219014   3.694   4.391  17.371  0.4641  0.5820 -0.3938
 2518SOL     OW19015   4.462   2.672   8.175 -0.0473 -0.4405 -0.1162
 2518SOL    HW119016   4.549   2.691   8.142 -0.3124  1.1861  0.1184
 2518SOL    HW219017   4.423   2.757   8.156 -1.3137 -1.3166 -1.4289
 2519SOL     OW19018   0.506   1.809  13.359  0.0136 -0.2201  0.2001
 2519SOL    HW119019   0.511   1.789  13.453 -1.6652  0.9725  0.5277
 2519SOL    HW219020   0.580   1.869  13.352 -1.5452  1.9215  2.0533
 2520SOL     OW19021   4.281   2.422   3.660 -0.1655 -0.3636 -0.5359
 2520SOL    HW119022   4.306   2.447   3.571 -0.0688  5.1924  1.0489
 2520SOL    HW219023   4.199   2.378   3.638 -0.2984 -0.8022  0.8492
 2521SOL     OW19024   0.100   4.267   5.240 -0.4563 -0.3241  0.5132
 2521SOL    HW119025   0.171   4.327   5.262  0.5880 -0.9828 -1.0900
 2521SOL    HW219026   0.138   4.234   5.159 -0.1645 -1.2677  1.0372
 2522SOL     OW19027   2.463   0.425  11.686  0.2351  0.4096 -0.3558
 2522SOL    HW119028   2.494   0.371  11.614  0.0589  1.4103 -1.1850
 2522SOL    HW219029   2.536   0.487  11.698 -0.0872  0.7507 -0.1440
 2523SOL     OW19030   3.514   0.389   0.269 -0.2951  0.1193 -0.0639
 2523SOL    HW119031   3.464   0.307   0.273 -0.5515  0.1890 -1.8867
 2523SOL    HW219032   3.450   0.456   0.294 -0.4652  0.6261 -1.8544
 2524SOL     OW19033   3.184   3.488   7.857  0.2374  0.8451  0.3492
 2524SOL    HW119034   3.143   3.521   7.777  0.0938  1.0783  0.5220
 2524SOL    HW219035   3.120   3.492   7.928 -1.3431 -4.1560 -0.8001
 2525SOL     OW19036   4.408   2.932   6.072  0.0129  0.0630  0.2648
 2525SOL    HW119037   4.469   2.859   6.074  0.1072  0.1307 -0.4184
 2525SOL    HW219038   4.466   2.995   6.029 -1.5381 -1.0661 -3.4029
 2526SOL     OW19039   3.625   1.882   7.518  0.2314  0.0030  0.1985
 2526SOL    HW119040   3.557   1.879   7.585 -0.8736  2.5230 -0.8134
 2526SOL    HW219041   3.573   1.876   7.438  0.0701  0.4374  0.2737
 2527SOL     OW19042   2.039   1.600   7.912  0.2033 -0.0181  0.4373
 2527SOL    HW119043   2.077   1.688   7.917  1.0193 -0.4461  1.8479
 2527SOL    HW219044   2.111   1.537   7.908 -1.2234 -1.6064 -0.5381
 2528SOL     OW19045   4.372   2.007   8.590 -0.2751 -0.2432  0.4405
 2528SOL    HW119046   4.452   1.989   8.639 -0.3360 -0.0401  0.6175
 2528SOL    HW219047   4.374   2.102   8.583 -0.3094 -0.4371 -2.1667
 2529SOL     OW19048   0.603   0.467   0.538  0.5875  0.4424  0.3748
 2529SOL    HW119049   0.609   0.446   0.631  2.5034 -0.9477 -0.0568
 2529SOL    HW219050   0.671   0.415   0.496  0.0019  0.0422 -0.0870
 2530SOL     OW19051   4.460   1.007   3.777 -0.0881 -0.5179  0.3241
 2530SOL    HW119052   4.485   1.090   3.737  2.7651 -0.3368  2.4764
 2530SOL    HW219053   4.510   0.942   3.729  1.2714  1.2354 -0.6281
 2531SOL     OW19054   3.559   1.995   0.734 -0.4117  0.0360 -0.1867
 2531SOL    HW119055   3.594   1.952   0.656 -0.9974  0.1023 -0.4867
 2531SOL    HW219056   3.638   2.047   0.754 -1.6737  2.3730 -1.3112
 2532SOL     OW19057   4.411   4.066   4.925  0.0843  0.0298 -0.2086
 2532SOL    HW119058   4.440   4.092   5.012 -0.3028  0.0789 -0.0959
 2532SOL    HW219059   4.399   4.154   4.888  1.6358  0.7097  0.9156
 2533SOL     OW19060   2.788   0.182  11.196  0.0608 -0.7154  0.4331
 2533SOL    HW119061   2.779   0.087  11.188 -0.5709 -0.3927 -2.8378
 2533SOL    HW219062   2.871   0.194  11.242 -0.3453 -0.8025  1.1785
 2534SOL     OW19063   2.666   4.260   6.911 -0.0116  0.2033  0.8174
 2534SOL    HW119064   2.708   4.275   6.995 -1.5262 -0.6885  1.7296
 2534SOL    HW219065   2.643   4.348   6.881  1.1868  1.1151  2.6331
 2535SOL     OW19066   1.796   3.566   7.722 -0.6173 -0.0656  0.3445
 2535SOL    HW119067   1.811   3.620   7.800 -1.4588  0.2857  0.2592
 2535SOL    HW219068   1.877   3.516   7.731 -0.9300 -0.6981 -0.3247
 2536SOL     OW19069   2.914   0.486  13.849 -0.0620 -0.0196  0.1055
 2536SOL    HW119070   2.987   0.532  13.889  1.7480 -2.7037 -0.1141
 2536SOL    HW219071   2.897   0.401  13.890 -0.2040  0.8900  1.9357
 2537SOL     OW19072   2.142   0.767   2.846  0.3240  0.6144 -0.0225
 2537SOL    HW119073   2.179   0.721   2.921  0.9250  1.6138  0.3061
 2537SOL    HW219074   2.218   0.766   2.788  1.3559  0.2757  1.3146
 2538SOL     OW19075   3.258   1.272   7.000  0.5527 -0.0496 -0.6446
 2538SOL    HW119076   3.268   1.192   6.949  0.1148 -0.8402  0.4941
 2538SOL    HW219077   3.202   1.318   6.938 -0.1266 -2.4298 -1.8050
 2539SOL     OW19078   3.003   1.717   5.595 -0.3010  0.0342 -0.5276
 2539SOL    HW119079   2.938   1.735   5.528 -1.4174  0.3645  0.6355
 2539SOL    HW219080   2.957   1.644   5.637 -2.1709  0.8234 -1.2281
 2540SOL     OW19081   1.413   3.004   5.266  0.5156 -0.4945 -0.1656
 2540SOL    HW119082   1.439   3.063   5.337  2.0113 -1.0237 -0.2923
 2540SOL    HW219083   1.378   2.932   5.319 -0.5040  0.5109  0.5591
 2541SOL     OW19084   0.558   0.279   3.855  0.2483  0.9217 -0.0339
 2541SOL    HW119085   0.535   0.233   3.775 -0.8706  2.4307 -0.5878
 2541SOL    HW219086   0.466   0.298   3.870 -0.9104 -4.3248 -0.5803
 2542SOL     OW19087   0.154   2.358  13.655  0.0501 -0.0689 -0.0215
 2542SOL    HW119088   0.080   2.373  13.597 -0.1282 -2.0926 -0.3156
 2542SOL    HW219089   0.114   2.369  13.741 -1.7324 -0.7228 -0.7768
 2543SOL     OW19090   2.983   3.411  16.651 -0.6149  0.1742 -0.7407
 2543SOL    HW119091   2.903   3.379  16.611 -0.9285  0.9393 -0.7230
 2543SOL    HW219092   2.952   3.424  16.741 -0.7227  1.7336 -1.0023
 2544SOL     OW19093   0.006   2.885   2.084  0.3293  0.0246  0.5382
 2544SOL    HW119094   0.064   2.824   2.039  0.2556  0.7318 -0.5298
 2544SOL    HW219095   4.686   2.923   2.007  1.1703 -0.4753 -0.1793
 2545SOL     OW19096   1.210   0.226  17.585 -0.8223 -0.2497 -0.4676
 2545SOL    HW119097   1.221   0.140  17.546  0.3549 -0.0851 -0.5013
 2545SOL    HW219098   1.137   0.214  17.646  0.2432  1.8496  1.2144
 2546SOL     OW19099   0.443   1.236  10.010 -0.3048 -0.3120 -0.2286
 2546SOL    HW119100   0.375   1.271  10.067  0.4370  2.9410 -1.3465
 2546SOL    HW219101   0.441   1.143  10.031 -0.2756 -0.1248  0.6098
 2547SOL     OW19102   1.751   3.021   3.863  0.3081  0.1253  0.5939
 2547SOL    HW119103   1.710   2.949   3.911  1.8441  0.0976  1.9003
 2547SOL    HW219104   1.712   3.089   3.918 -1.2153 -0.0334 -0.2971
 2548SOL     OW19105   4.672   1.613   2.236 -0.1507  0.5241  0.6877
 2548SOL    HW119106   4.616   1.625   2.159  1.0810 -1.2367 -0.4776
 2548SOL    HW219107   4.722   1.695   2.235  0.5476  0.1423  3.4300
 2549SOL     OW19108   2.833   4.232  15.180  0.2251  0.9491  0.3707
 2549SOL    HW119109   2.924   4.261  15.170  0.3411 -0.0619 -1.5120
 2549SOL    HW219110   2.823   4.217  15.274  1.3987  1.0426  0.5098
 2550SOL     OW19111   3.763   0.588   3.706  0.1659  0.2794  0.7011
 2550SOL    HW119112   3.850   0.550   3.695 -0.0723  0.0153 -0.2513
 2550SOL    HW219113   3.706   0.529   3.657  1.3125  0.9903 -1.4666
 2551SOL     OW19114   0.908   2.058  13.606 -0.0156  0.3995 -0.1016
 2551SOL    HW119115   0.913   2.052  13.701 -0.6019 -0.1790 -0.1024
 2551SOL    HW219116   0.874   2.146  13.588 -2.0813 -0.3216  0.2200
 2552SOL     OW19117   3.603   0.913  14.299  0.4440 -0.4617  0.0035
 2552SOL    HW119118   3.548   0.873  14.233 -1.0010  1.1969  0.1984
 2552SOL    HW219119   3.688   0.871  14.286  1.4758  2.2268 -1.9179
 2553SOL     OW19120   2.676   1.362   6.147  0.1862 -0.0699  0.1776
 2553SOL    HW119121   2.678   1.372   6.242  0.7054  1.6663 -0.0046
 2553SOL    HW219122   2.707   1.273   6.130 -0.2280 -0.3507  0.9026
 2554SOL     OW19123   2.894   0.489   6.946 -0.3438 -0.0894  0.4927
 2554SOL    HW119124   2.929   0.448   7.025 -0.8745  1.9173  1.7689
 2554SOL    HW219125   2.809   0.517   6.979 -0.0671 -0.8985  1.8785
 2555SOL     OW19126   3.120   2.862  13.832 -0.2042 -0.5478  0.0782
 2555SOL    HW119127   3.185   2.852  13.763  0.5794 -1.4930  0.9492
 2555SOL    HW219128   3.050   2.880  13.769  0.6309  0.0651 -0.6871
 2556SOL     OW19129   2.957   0.672   0.091  0.0295  0.0572  0.7638
 2556SOL    HW119130   2.939   0.620   0.012  1.8208  1.1568 -0.3719
 2556SOL    HW219131   3.051   0.686   0.083 -0.2010  0.3660 -1.5928
 2557SOL     OW19132   0.854   2.767   3.500 -0.7546 -0.3011 -0.3321
 2557SOL    HW119133   0.825   2.850   3.463  3.0643  0.9993 -0.4217
 2557SOL    HW219134   0.779   2.753   3.558 -0.3142  2.8555  0.9865
 2558SOL     OW19135   4.425   2.423   1.556 -0.2077  0.1393 -0.1450
 2558SOL    HW119136   4.430   2.346   1.499 -0.6351 -0.7953  1.0641
 2558SOL    HW219137   4.516   2.453   1.554 -0.6798  1.6619  0.8471
 2559SOL     OW19138   1.458   0.490   4.201  0.3264  0.4784 -0.7484
 2559SOL    HW119139   1.409   0.429   4.257 -0.0265 -0.2134 -1.8139
 2559SOL    HW219140   1.420   0.576   4.220  0.6058 -0.0987  2.5685
 2560SOL     OW19141   1.774   2.329  10.190 -0.2880 -0.3714 -0.2764
 2560SOL    HW119142   1.824   2.361  10.265  0.0196  0.1107 -0.6840
 2560SOL    HW219143   1.837   2.275  10.141  1.0597 -0.2171  1.2928
 2561SOL     OW19144   3.047   1.526  17.425  0.3955 -0.2735  0.0271
 2561SOL    HW119145   3.020   1.560  17.511  1.0149 -1.4961  0.7094
 2561SOL    HW219146   3.017   1.435  17.429  1.8935 -0.8226 -1.2187
 2562SOL     OW19147   3.831   2.036   7.395 -0.6509 -0.0343 -0.2591
 2562SOL    HW119148   3.870   2.084   7.468  1.3139 -1.8356 -0.1290
 2562SOL    HW219149   3.751   1.998   7.431  0.0001 -0.9508  0.2058
 2563SOL     OW19150   1.144   1.074   7.230  0.1627  0.0852  0.5140
 2563SOL    HW119151   1.080   1.126   7.182 -0.7614 -1.8861 -0.3727
 2563SOL    HW219152   1.080   1.031   7.287 -1.1359 -1.3499 -2.0102
 2564SOL     OW19153   3.665   2.749   8.295  0.3560 -0.3599 -0.2122
 2564SOL    HW119154   3.613   2.812   8.244 -1.9598 -0.4703  2.0292
 2564SOL    HW219155   3.683   2.688   8.223  2.3416 -0.1452  0.0902
 2565SOL     OW19156   2.563   0.230   5.703  0.2124  0.6595  0.0314
 2565SOL    HW119157   2.546   0.283   5.625 -0.6164  0.0216 -0.2240
 2565SOL    HW219158   2.656   0.252   5.711  1.1242 -2.3288 -2.4055
 2566SOL     OW19159   3.139   4.083  14.048  0.1629 -0.0741  0.1791
 2566SOL    HW119160   3.165   4.162  14.002  0.2627  0.9562  1.9921
 2566SOL    HW219161   3.122   4.036  13.966 -0.1305 -0.7443  0.6240
 2567SOL     OW19162   0.324   2.731   1.165 -0.0061  0.2896  0.2808
 2567SOL    HW119163   0.280   2.701   1.086 -0.7877  0.1630  0.7747
 2567SOL    HW219164   0.389   2.792   1.130  0.6335 -1.6190 -1.8307
 2568SOL     OW19165   3.565   3.265  13.856  0.4433 -0.1252  0.2862
 2568SOL    HW119166   3.627   3.216  13.910  2.1469  2.6902  0.9098
 2568SOL    HW219167   3.621   3.336  13.824 -1.0694  0.4522 -1.0632
 2569SOL     OW19168   0.859   0.752   4.991  0.1584 -0.0320 -0.1319
 2569SOL    HW119169   0.853   0.760   4.895 -0.3997 -1.1427 -0.1975
 2569SOL    HW219170   0.802   0.824   5.016 -1.2782 -0.5825 -1.7115
 2570SOL     OW19171   0.470   0.254  15.047 -0.4611  0.2490 -0.0783
 2570SOL    HW119172   0.435   0.287  15.129 -0.0453  0.0009  0.1983
 2570SOL    HW219173   0.499   0.166  15.068  0.1068  0.8820  1.7579
 2571SOL     OW19174   0.814   1.360   5.715  0.2373 -0.4011  0.4253
 2571SOL    HW119175   0.896   1.361   5.665 -0.1157 -1.0995 -0.1524
 2571SOL    HW219176   0.776   1.282   5.675  0.5267 -0.3712  0.0948
 2572SOL     OW19177   0.484   3.791   4.034 -0.2228 -0.5305 -0.6010
 2572SOL    HW119178   0.478   3.762   3.943 -2.6851  0.6049 -0.8026
 2572SOL    HW219179   0.544   3.731   4.078 -0.6215  1.4713  2.6768
 2573SOL     OW19180   0.571   0.677   7.290 -0.4238  0.2314  0.1291
 2573SOL    HW119181   0.598   0.736   7.220 -2.0709 -0.1958 -0.8684
 2573SOL    HW219182   0.653   0.644   7.326 -2.4530 -2.0694  2.7092
 2574SOL     OW19183   2.634   2.944   3.635 -0.2018 -0.5584 -0.0877
 2574SOL    HW119184   2.585   2.988   3.704 -0.9274 -1.7837  0.1764
 2574SOL    HW219185   2.707   3.004   3.617 -0.8036  0.2605  0.1868
 2575SOL     OW19186   4.630   2.354   2.403  0.3357  0.4756  0.6158
 2575SOL    HW119187   4.536   2.347   2.382  0.7248  3.2672 -2.0008
 2575SOL    HW219188   4.668   2.374   2.317  1.7535  1.0283  1.3816
 2576SOL     OW19189   0.870   3.829   4.565  0.4668  0.0765 -0.3684
 2576SOL    HW119190   0.918   3.874   4.635 -1.1926  1.8263 -0.3492
 2576SOL    HW219191   0.933   3.841   4.494 -3.5681  0.5299 -3.8313
 2577SOL     OW19192   0.761   2.237   3.362 -0.4969  0.2040  0.2034
 2577SOL    HW119193   0.689   2.189   3.404 -0.6034  0.0048 -0.2009
 2577SOL    HW219194   0.712   2.304   3.315 -1.0941  1.2272  2.3162
 2578SOL     OW19195   2.943   3.776   2.277  0.2360 -0.0234  0.1278
 2578SOL    HW119196   2.930   3.871   2.280 -1.2517 -0.2227  0.0767
 2578SOL    HW219197   3.038   3.775   2.275  0.2104 -2.6434 -0.1585
 2579SOL     OW19198   0.394   1.865  15.340 -0.0293 -0.3673  0.3141
 2579SOL    HW119199   0.464   1.832  15.396 -0.5245  0.5740  1.4944
 2579SOL    HW219200   0.322   1.832  15.395  0.5428  1.1913  1.9986
 2580SOL     OW19201   3.115   4.057   8.558  0.3247 -0.2451 -0.0186
 2580SOL    HW119202   3.068   3.990   8.508  0.8113 -0.0214 -0.7730
 2580SOL    HW219203   3.196   4.010   8.576 -0.4021 -1.3700  0.3230
 2581SOL     OW19204   2.337   2.145   1.329  0.5599  0.2050  0.1780
 2581SOL    HW119205   2.267   2.182   1.382  0.5491  0.7197 -0.1931
 2581SOL    HW219206   2.299   2.146   1.241  2.8801 -1.9790 -0.8497
 2582SOL     OW19207   3.429   4.563  10.305  0.5842  0.5015  0.1469
 2582SOL    HW119208   3.488   4.617  10.357  1.2248  1.5178 -1.6392
 2582SOL    HW219209   3.384   4.630  10.254  2.2574  2.7137  1.5965
 2583SOL     OW19210   3.807   2.331   6.318  0.2595  0.8963  0.2873
 2583SOL    HW119211   3.815   2.422   6.292  0.9033  0.7399 -0.0706
 2583SOL    HW219212   3.890   2.300   6.283 -0.8889 -1.0871 -0.7219
 2584SOL     OW19213   3.991   1.717  14.291  0.3097  0.1176  0.0815
 2584SOL    HW119214   3.987   1.750  14.201  1.0895  1.6671  0.6005
 2584SOL    HW219215   3.999   1.623  14.274 -1.9513  0.1774 -1.2663
 2585SOL     OW19216   2.177   2.140   0.534  0.5593  0.1051 -1.0258
 2585SOL    HW119217   2.239   2.070   0.553 -2.2056 -1.7276  1.3092
 2585SOL    HW219218   2.092   2.096   0.530  0.2435  0.6882 -0.6640
 2586SOL     OW19219   0.224   3.360  13.547 -0.1487 -0.1668  0.0884
 2586SOL    HW119220   0.129   3.345  13.542 -0.0366 -1.3463  1.6603
 2586SOL    HW219221   0.257   3.271  13.560  2.9121  0.7348 -1.5494
 2587SOL     OW19222   1.985   3.467   3.452  0.7907 -0.0854 -0.3423
 2587SOL    HW119223   1.890   3.473   3.464  0.6786  1.7483 -2.1989
 2587SOL    HW219224   2.000   3.385   3.406  0.5900 -0.9211  1.0703
 2588SOL     OW19225   1.704   2.291   1.484 -0.8763 -0.3879  0.3233
 2588SOL    HW119226   1.666   2.278   1.570 -0.0392  0.2630  0.7890
 2588SOL    HW219227   1.794   2.296   1.515 -0.4293  0.8084 -1.1417
 2589SOL     OW19228   0.067   3.263   4.607 -0.4040  0.1005  0.5037
 2589SOL    HW119229   0.009   3.202   4.653 -0.2786 -0.1665  0.3072
 2589SOL    HW219230   0.012   3.332   4.571 -1.4210 -0.1032  1.6651
 2590SOL     OW19231   1.670   2.194   6.701 -0.1938 -0.5629 -0.0290
 2590SOL    HW119232   1.702   2.282   6.721  2.0543 -1.3698 -0.0686
 2590SOL    HW219233   1.623   2.210   6.619 -1.1283 -1.3160  0.3621
 2591SOL     OW19234   2.559   1.030   9.244  0.0026  0.0412 -0.0159
 2591SOL    HW119235   2.489   1.039   9.179 -2.1347  0.3739  2.3074
 2591SOL    HW219236   2.507   1.027   9.325 -1.1113  1.0912 -0.6889
 2592SOL     OW19237   4.430   3.809  10.918 -0.0953 -0.2468 -0.1943
 2592SOL    HW119238   4.421   3.731  10.973  1.0307 -0.3605 -0.1791
 2592SOL    HW219239   4.508   3.844  10.960  0.6345  0.8662 -2.4597
 2593SOL     OW19240   4.636   4.610   4.855  0.0859  0.3967  0.1635
 2593SOL    HW119241   4.688   4.661   4.917 -3.1910  3.8917  0.0444
 2593SOL    HW219242   4.551   4.654   4.863 -0.0738  0.1009  0.0853
 2594SOL     OW19243   3.060   3.620   9.159 -0.1545  0.0028 -0.0651
 2594SOL    HW119244   3.000   3.610   9.234 -0.1733 -0.2004 -0.1060
 2594SOL    HW219245   3.023   3.569   9.087  0.8422 -0.5517 -0.1828
 2595SOL     OW19246   1.496   0.494  15.878  0.2715  0.1279 -0.4362
 2595SOL    HW119247   1.532   0.579  15.903 -0.9305  0.4998  0.0201
 2595SOL    HW219248   1.468   0.463  15.964  0.0888 -0.9569 -0.8890
 2596SOL     OW19249   0.850   1.141   4.612 -0.7214  0.2153  0.4870
 2596SOL    HW119250   0.846   1.151   4.517  2.1297  0.5662  0.4267
 2596SOL    HW219251   0.774   1.193   4.638 -1.8156 -1.2091  0.1415
 2597SOL     OW19252   3.025   4.381   6.847  0.4178  0.1249 -0.3021
 2597SOL    HW119253   3.113   4.362   6.816  0.4986 -0.1152  0.0786
 2597SOL    HW219254   2.986   4.425   6.771 -2.0348 -0.7035  0.4737
 2598SOL     OW19255   4.404   3.038   8.556 -0.1232 -0.3612  0.0686
 2598SOL    HW119256   4.370   3.084   8.480  2.6407 -1.6759 -1.9398
 2598SOL    HW219257   4.496   3.034   8.530  0.2536  2.9910  0.8956
 2599SOL     OW19258   4.000   1.200   7.738  0.3935 -0.2109  0.1402
 2599SOL    HW119259   4.083   1.226   7.698 -0.0050  1.4137  0.3716
 2599SOL    HW219260   4.022   1.209   7.831  2.7498  1.8508 -0.5910
 2600SOL     OW19261   0.777   0.203   2.009 -0.3358  0.0546 -0.0391
 2600SOL    HW119262   0.828   0.173   1.933  0.6513 -0.0676  0.6678
 2600SOL    HW219263   0.793   0.298   2.006  1.4289 -0.2441 -0.0802
 2601SOL     OW19264   1.894   2.819   4.517 -0.1171 -0.2507  0.4043
 2601SOL    HW119265   1.962   2.752   4.518  0.1321 -0.0017 -0.3245
 2601SOL    HW219266   1.889   2.848   4.426 -0.3913 -2.4343 -0.2771
 2602SOL     OW19267   4.259   4.161   3.743  0.3134 -0.1643 -1.0893
 2602SOL    HW119268   4.317   4.095   3.780  1.3164  1.0906 -0.4438
 2602SOL    HW219269   4.320   4.207   3.685  0.6637 -0.1249 -0.6897
 2603SOL     OW19270   3.389   4.491   1.620  0.4062 -0.2577 -0.0285
 2603SOL    HW119271   3.469   4.521   1.662  0.2314  0.6195 -0.3118
 2603SOL    HW219272   3.316   4.524   1.672  0.2827  0.7934 -0.8688
 2604SOL     OW19273   2.514   1.178   1.545  0.1492 -0.5371 -0.1997
 2604SOL    HW119274   2.457   1.234   1.492 -1.1462 -0.8951  0.7934
 2604SOL    HW219275   2.478   1.093   1.519 -2.1432 -0.2088  1.8079
 2605SOL     OW19276   3.846   1.345  12.523 -0.1721 -0.2020  0.2441
 2605SOL    HW119277   3.805   1.266  12.488  0.1499  0.1974 -1.0341
 2605SOL    HW219278   3.810   1.410  12.463 -0.8289  0.4798  1.3864
 2606SOL     OW19279   3.297   3.431  17.496  0.1273  0.0115  0.1761
 2606SOL    HW119280   3.357   3.496  17.534 -0.8725 -0.4227  2.5334
 2606SOL    HW219281   3.262   3.391  17.576 -0.0962 -0.6895 -0.2766
 2607SOL     OW19282   4.210   2.570   8.625 -0.0116 -0.5927 -0.2964
 2607SOL    HW119283   4.257   2.511   8.565  0.2338 -2.1391  1.4186
 2607SOL    HW219284   4.276   2.635   8.650 -0.9191  0.2231 -0.0477
 2608SOL     OW19285   2.573   2.916  17.551 -0.0980 -0.1848  0.3824
 2608SOL    HW119286   2.481   2.895  17.567 -0.5520 -1.9018 -4.2354
 2608SOL    HW219287   2.572   2.989  17.490  0.7620  0.2590  0.8922
 2609SOL     OW19288   3.060   0.656   5.760  0.0039 -0.1726 -0.4736
 2609SOL    HW119289   3.012   0.595   5.703 -1.6313 -0.1940  0.9445
 2609SOL    HW219290   3.109   0.589   5.807 -0.5241 -0.6427 -0.5942
 2610SOL     OW19291   1.914   1.098   4.770 -0.2302 -0.3846  0.1521
 2610SOL    HW119292   1.987   1.041   4.793 -0.6917 -1.5076 -1.2294
 2610SOL    HW219293   1.868   1.030   4.722 -0.3126  1.3776 -2.2670
 2611SOL     OW19294   2.710   4.125   2.476  0.8252  0.3666 -0.0659
 2611SOL    HW119295   2.670   4.205   2.510  1.2347  0.9564 -0.9719
 2611SOL    HW219296   2.711   4.071   2.555 -2.4558  1.3016  0.6024
 2612SOL     OW19297   3.550   1.083   3.593  0.2371  0.4331 -0.3511
 2612SOL    HW119298   3.455   1.081   3.604  0.2645  0.7984 -0.0569
 2612SOL    HW219299   3.571   1.156   3.650  0.2515  0.7211 -0.7279
 2613SOL     OW19300   3.059   4.571   7.236  0.2467  0.3368  0.2809
 2613SOL    HW119301   3.042   4.651   7.287 -0.7857  0.4844 -0.2956
 2613SOL    HW219302   3.047   4.608   7.148 -0.3449  1.5644  0.8738
 2614SOL     OW19303   0.415   0.477   7.164 -0.2114  0.4126 -0.7117
 2614SOL    HW119304   0.470   0.404   7.193 -0.3230 -0.0607 -1.6851
 2614SOL    HW219305   0.470   0.551   7.187  0.3585 -0.7248  1.5838
 2615SOL     OW19306   1.525   1.394   8.868 -0.0162  0.2859 -0.0729
 2615SOL    HW119307   1.461   1.338   8.824 -1.3743 -0.4902  2.9308
 2615SOL    HW219308   1.593   1.406   8.802 -0.1721 -0.8986 -0.4564
 2616SOL     OW19309   0.849   3.139   4.838  0.5739  0.4544 -0.5998
 2616SOL    HW119310   0.792   3.204   4.797 -0.4989 -0.5204 -0.6669
 2616SOL    HW219311   0.794   3.062   4.853  1.8384  0.2025  2.7543
 2617SOL     OW19312   2.912   0.857   1.664  0.4352 -0.1244 -0.0568
 2617SOL    HW119313   2.994   0.847   1.616  0.5101  1.1698 -0.2047
 2617SOL    HW219314   2.868   0.920   1.607  1.1012 -0.4845 -0.9745
 2618SOL     OW19315   0.921   1.068   1.676 -0.0922 -0.1400 -0.3823
 2618SOL    HW119316   0.850   1.056   1.613  0.6809  0.8609 -1.4556
 2618SOL    HW219317   0.887   1.135   1.735  0.6380  1.4620 -1.7704
 2619SOL     OW19318   2.625   4.630   7.504  0.0253 -0.4455 -0.7550
 2619SOL    HW119319   2.596   4.555   7.557  1.5043  0.2156  0.9781
 2619SOL    HW219320   2.717   4.625   7.530 -0.1849 -2.8287 -0.4632
 2620SOL     OW19321   1.710   3.645   6.133 -0.1992 -0.1669 -0.1713
 2620SOL    HW119322   1.801   3.658   6.158 -0.6177  0.9037  0.8016
 2620SOL    HW219323   1.719   3.643   6.038 -1.5689 -0.9713 -0.2974
 2621SOL     OW19324   0.134   2.404  12.182  0.2827 -0.4291 -0.6533
 2621SOL    HW119325   0.165   2.417  12.271  0.5359 -2.1077 -0.4956
 2621SOL    HW219326   0.046   2.370  12.199 -1.0240  2.9442 -0.6566
 2622SOL     OW19327   0.558   4.153   6.527  0.2578  0.1155  0.2719
 2622SOL    HW119328   0.627   4.217   6.542  0.0495  0.6638 -1.1007
 2622SOL    HW219329   0.604   4.111   6.455  0.3327  2.7742 -1.2310
 2623SOL     OW19330   3.345   2.865  11.059 -0.5522  0.3052  0.4968
 2623SOL    HW119331   3.422   2.896  11.106 -0.9733  0.7884  0.8734
 2623SOL    HW219332   3.373   2.861  10.968 -1.5339  1.2945  0.1545
 2624SOL     OW19333   1.130   3.584   4.452 -0.0130 -0.2699 -0.1782
 2624SOL    HW119334   1.210   3.577   4.401  0.5408 -0.9751  0.8030
 2624SOL    HW219335   1.076   3.640   4.395  1.8102 -0.2232 -1.8446
 2625SOL     OW19336   2.449   3.327   9.298  0.1519  0.2005 -0.4156
 2625SOL    HW119337   2.437   3.421   9.310  1.7309  0.4874 -1.0415
 2625SOL    HW219338   2.511   3.300   9.366 -1.9039 -1.1157  0.9203
 2626SOL     OW19339   4.492   1.030   0.460  0.1834  0.2578  0.0340
 2626SOL    HW119340   4.552   1.099   0.433  1.7683 -0.1832  2.4134
 2626SOL    HW219341   4.508   0.955   0.403  0.1989  0.0289  0.3372
 2627SOL     OW19342   3.834   3.717   5.557 -0.2843 -0.7208  0.3516
 2627SOL    HW119343   3.840   3.813   5.566  0.0539 -0.6906 -0.1962
 2627SOL    HW219344   3.883   3.704   5.476  0.4953  0.0764  0.6870
 2628SOL     OW19345   3.832   2.193  11.731  0.2142  0.1866 -1.0550
 2628SOL    HW119346   3.784   2.144  11.798  1.0269  1.5262  0.4957
 2628SOL    HW219347   3.901   2.223  11.790  0.1102 -2.1790  0.2443
 2629SOL     OW19348   0.020   3.788   8.291 -0.7646 -0.0185 -0.1319
 2629SOL    HW119349   0.050   3.878   8.303  2.6996 -1.4832  2.3688
 2629SOL    HW219350   4.670   3.810   8.233 -0.5624 -0.0186 -0.3845
 2630SOL     OW19351   3.935   0.911  10.972 -0.7398  0.3235 -0.2054
 2630SOL    HW119352   3.909   0.848  10.904  0.5286 -1.2037  0.7365
 2630SOL    HW219353   3.909   0.995  10.935  1.8192  0.8645 -0.7444
 2631SOL     OW19354   4.324   4.506   7.664  0.7319 -0.2432 -0.5558
 2631SOL    HW119355   4.369   4.441   7.718 -0.1568  0.0142  0.4889
 2631SOL    HW219356   4.309   4.582   7.720 -1.2281 -0.2410 -1.0955
 2632SOL     OW19357   2.872   0.171  10.916 -0.1059  0.4162 -0.1440
 2632SOL    HW119358   2.902   0.230  10.986  3.0071  0.0864 -1.1903
 2632SOL    HW219359   2.795   0.216  10.880 -1.4347 -2.4778 -0.9102
 2633SOL     OW19360   2.550   4.489   7.194  0.5389  0.5410  0.7222
 2633SOL    HW119361   2.636   4.449   7.201  0.6229  0.6950  0.5780
 2633SOL    HW219362   2.581   4.568   7.149  3.0162 -0.2180  1.0815
 2634SOL     OW19363   2.453   1.181   7.830  0.9872 -0.1392 -0.1913
 2634SOL    HW119364   2.368   1.211   7.797  0.5792 -0.5849  0.4626
 2634SOL    HW219365   2.458   1.086   7.827  0.0372 -0.2340  1.5242
 2635SOL     OW19366   0.048   2.322   4.726 -0.0111  0.8944  0.4331
 2635SOL    HW119367   0.018   2.251   4.783 -0.3896  2.4619  2.1868
 2635SOL    HW219368   0.019   2.283   4.643  0.8521  2.1976 -0.4858
 2636SOL     OW19369   0.485   4.208  12.756 -0.5847 -0.2645  0.1361
 2636SOL    HW119370   0.547   4.137  12.741  1.1005  1.0600  0.7471
 2636SOL    HW219371   0.514   4.267  12.687 -1.8711  1.7391  1.2905
 2637SOL     OW19372   0.080   2.561   9.300 -0.6044 -0.2591  0.0555
 2637SOL    HW119373   0.127   2.580   9.382  1.0112 -0.4966 -0.8089
 2637SOL    HW219374   0.025   2.486   9.321 -1.5584  0.3052 -0.4385
 2638SOL     OW19375   1.958   3.063   7.373  0.4378  0.1425  0.3629
 2638SOL    HW119376   2.009   3.038   7.450 -0.2547  0.0417  0.7844
 2638SOL    HW219377   1.923   2.976   7.353  1.5223 -0.2769  0.2555
 2639SOL     OW19378   4.353   0.724   4.738 -0.1205 -0.5175 -0.2840
 2639SOL    HW119379   4.392   0.669   4.806 -0.1110 -1.1546 -0.7968
 2639SOL    HW219380   4.430   0.757   4.693 -0.0399  0.2300  0.3966
 2640SOL     OW19381   1.552   1.147   0.683 -0.2149 -0.4650  0.5981
 2640SOL    HW119382   1.529   1.210   0.614 -1.0991 -0.0818  1.2331
 2640SOL    HW219383   1.487   1.080   0.665 -2.2511  1.3390  1.2048
 2641SOL     OW19384   1.158   1.657   2.048  0.1509  0.5824  0.0477
 2641SOL    HW119385   1.190   1.573   2.014  1.3264  2.2156 -2.9124
 2641SOL    HW219386   1.161   1.643   2.142  0.9964  0.1182 -0.0459
 2642SOL     OW19387   3.867   0.557   0.692  0.0325 -0.5371 -0.0240
 2642SOL    HW119388   3.798   0.550   0.626 -0.8450 -1.1940  0.9602
 2642SOL    HW219389   3.869   0.650   0.715 -3.4606 -0.2796 -0.6874
 2643SOL     OW19390   2.575   1.135  17.030  0.0761 -0.0786  0.4495
 2643SOL    HW119391   2.515   1.198  16.992  0.5077  0.2238  0.2642
 2643SOL    HW219392   2.558   1.051  16.986 -1.0301  0.5270 -0.2698
 2644SOL     OW19393   4.252   0.831  14.667 -0.4263 -0.2431 -0.3801
 2644SOL    HW119394   4.330   0.881  14.687 -0.0222 -1.8071  1.9610
 2644SOL    HW219395   4.249   0.824  14.572 -0.6101 -1.7581 -0.2629
 2645SOL     OW19396   3.286   2.251   6.607 -0.3703 -0.6095 -0.5817
 2645SOL    HW119397   3.248   2.192   6.672 -0.7829 -0.0512 -0.3156
 2645SOL    HW219398   3.223   2.229   6.539 -0.9016 -0.6755 -0.0706
 2646SOL     OW19399   0.200   0.092   5.478  0.2508 -0.0776 -0.7308
 2646SOL    HW119400   0.210   0.126   5.389  1.1248  1.5155 -0.0197
 2646SOL    HW219401   0.264   0.021   5.479  2.4028  1.8961 -1.3680
 2647SOL     OW19402   1.393   0.941  14.741  0.0733  0.9839  0.2554
 2647SOL    HW119403   1.332   0.915  14.672  2.7580 -1.5883 -1.1372
 2647SOL    HW219404   1.469   0.968  14.689 -0.9683  2.1829 -0.6587
 2648SOL     OW19405   0.805   2.167  17.415 -0.1062 -0.1484 -0.0441
 2648SOL    HW119406   0.895   2.185  17.388  0.1223 -0.3274  0.5917
 2648SOL    HW219407   0.793   2.223  17.492  1.1292  0.0862 -0.0339
 2649SOL     OW19408   2.567   4.070  10.580  0.1151  0.8176  0.0132
 2649SOL    HW119409   2.527   4.081  10.666 -2.7728  4.3105 -1.7190
 2649SOL    HW219410   2.613   3.987  10.583 -1.5357 -0.1156 -0.4739
 2650SOL     OW19411   1.356   1.257   5.057 -0.2100 -0.6253 -0.0799
 2650SOL    HW119412   1.356   1.167   5.089  0.0745 -0.7510 -0.4237
 2650SOL    HW219413   1.325   1.251   4.966 -0.9695 -0.2532  0.1525
 2651SOL     OW19414   1.704   3.832   7.443 -0.2063 -0.2778 -0.7912
 2651SOL    HW119415   1.659   3.816   7.525  2.4468  2.0739  1.1530
 2651SOL    HW219416   1.795   3.828   7.472  0.5397 -0.9891 -3.2005
 2652SOL     OW19417   2.062   3.469   2.308  0.3569  0.1517  0.3940
 2652SOL    HW119418   1.993   3.402   2.307  1.4891 -1.0093 -0.2243
 2652SOL    HW219419   2.118   3.428   2.243 -0.2140  0.6065 -0.3910
 2653SOL     OW19420   0.160   3.075   7.832  0.1549 -0.2941  0.1435
 2653SOL    HW119421   0.197   3.060   7.919 -1.3169  1.0986  1.0107
 2653SOL    HW219422   0.216   3.149   7.811 -0.0730 -0.6631 -1.7659
 2654SOL     OW19423   1.626   0.529  13.123 -0.3807 -0.6189 -0.4993
 2654SOL    HW119424   1.585   0.615  13.121  0.1614 -0.3692 -1.0415
 2654SOL    HW219425   1.706   0.536  13.176 -0.2323 -0.3470 -0.7558
 2655SOL     OW19426   0.007   1.046   9.424 -0.6425 -0.3850  0.0829
 2655SOL    HW119427   0.028   1.009   9.338  0.1196  1.0482 -0.3556
 2655SOL    HW219428   4.708   1.137   9.403 -0.9318 -0.4630  0.0503
 2656SOL     OW19429   2.656   1.655  13.658 -0.2011  0.4853 -0.8139
 2656SOL    HW119430   2.672   1.748  13.644  0.9493  0.3889 -0.1162
 2656SOL    HW219431   2.627   1.653  13.749 -1.1567 -0.6666 -1.1301
 2657SOL     OW19432   1.190   0.645  17.217  0.4532  0.0188 -0.5295
 2657SOL    HW119433   1.167   0.730  17.253  2.9992 -0.1260  1.4930
 2657SOL    HW219434   1.108   0.604  17.190 -0.0091  0.5781  0.0187
 2658SOL     OW19435   4.248   1.148   1.268 -0.1614 -0.1696  0.5692
 2658SOL    HW119436   4.193   1.143   1.347 -2.2924 -0.2779 -0.9243
 2658SOL    HW219437   4.336   1.116   1.289  0.7217  1.8278 -0.0731
 2659SOL     OW19438   4.054   0.987   9.515  0.4055 -0.3300 -0.5897
 2659SOL    HW119439   4.104   0.911   9.547  1.0071 -0.3156 -1.4829
 2659SOL    HW219440   4.069   0.971   9.422 -2.1516 -0.2962 -0.9993
 2660SOL     OW19441   1.896   4.077   7.183  0.1267 -0.1686 -0.3698
 2660SOL    HW119442   1.946   3.997   7.196 -1.0193 -0.8879 -0.3410
 2660SOL    HW219443   1.820   4.042   7.136  1.0978 -1.7753 -0.7451
 2661SOL     OW19444   1.290   3.166   1.924  0.5361 -0.9383 -0.1292
 2661SOL    HW119445   1.204   3.202   1.903  0.2394 -0.7042  1.5022
 2661SOL    HW219446   1.267   3.115   2.001 -0.0935 -1.8788 -0.9346
 2662SOL     OW19447   2.541   2.653  10.013  0.1457  0.1276 -0.2155
 2662SOL    HW119448   2.489   2.573  10.013 -3.3863  2.4518 -0.8613
 2662SOL    HW219449   2.586   2.646   9.929  1.9412 -1.2511  0.8467
 2663SOL     OW19450   2.396   0.573  14.994 -0.0830  0.0839 -0.1379
 2663SOL    HW119451   2.454   0.509  15.034 -1.0987 -1.1166 -0.5938
 2663SOL    HW219452   2.355   0.513  14.932  1.9082 -1.6584  0.2126
 2664SOL     OW19453   2.920   2.486   3.283  0.3656 -0.2054 -0.5724
 2664SOL    HW119454   2.919   2.390   3.291  1.1372 -0.2886 -1.6673
 2664SOL    HW219455   2.983   2.498   3.213  1.4585 -3.5172 -0.1581
 2665SOL     OW19456   1.984   0.136   6.079  0.0579 -0.1829 -0.6935
 2665SOL    HW119457   2.014   0.177   5.998  0.0110  1.0904 -0.0692
 2665SOL    HW219458   2.007   0.199   6.147 -3.0922 -1.2833  1.3861
 2666SOL     OW19459   2.994   0.666   4.050 -0.4998  0.5172 -0.2445
 2666SOL    HW119460   3.046   0.743   4.074 -1.0305  0.9524 -0.4858
 2666SOL    HW219461   2.904   0.696   4.060 -0.7060  0.0013 -0.5727
 2667SOL     OW19462   0.074   0.378   2.504  0.3346  0.1213 -0.7388
 2667SOL    HW119463   0.051   0.408   2.416  1.1344 -4.4867 -2.5138
 2667SOL    HW219464   0.098   0.460   2.548 -2.3628  0.0990  0.7844
 2668SOL     OW19465   0.811   1.072  16.563  0.0407 -0.3691  0.1853
 2668SOL    HW119466   0.733   1.018  16.546  0.1984 -0.9059  1.1976
 2668SOL    HW219467   0.850   1.030  16.640  0.9239  0.9649  0.4649
 2669SOL     OW19468   1.196   2.995   7.515  0.0196 -0.5027 -0.6812
 2669SOL    HW119469   1.153   2.933   7.573  0.9380 -0.5401 -0.0489
 2669SOL    HW219470   1.117   3.035   7.477  0.3542 -0.1010 -0.9598
 2670SOL     OW19471   0.000   0.961   1.579  0.3263  0.1761 -0.0909
 2670SOL    HW119472   4.692   1.006   1.657  1.1417 -2.3058  1.6807
 2670SOL    HW219473   0.039   1.031   1.526  0.4998  0.2568  0.1430
 2671SOL     OW19474   4.564   0.214  11.168 -0.3276  0.1064 -0.1097
 2671SOL    HW119475   4.625   0.193  11.097  1.0932 -0.1862  1.2065
 2671SOL    HW219476   4.504   0.140  11.155 -1.0473  0.6072  0.3544
 2672SOL     OW19477   4.093   3.754   0.368  0.0580 -0.1336  0.3370
 2672SOL    HW119478   4.122   3.679   0.420 -0.4471 -1.1991 -0.9299
 2672SOL    HW219479   4.074   3.722   0.281 -1.1717  1.3009  0.0688
 2673SOL     OW19480   1.128   4.216  10.497  0.5690 -0.1623  0.1849
 2673SOL    HW119481   1.129   4.305  10.533  0.2087 -0.4120  0.7967
 2673SOL    HW219482   1.172   4.165  10.564  0.8068 -1.0827 -0.6639
 2674SOL     OW19483   0.140   1.313   6.207 -0.2178  0.3521 -0.6596
 2674SOL    HW119484   0.180   1.364   6.137  0.2394  1.5826  0.5034
 2674SOL    HW219485   0.091   1.372   6.266 -1.3365 -1.1231 -0.1098
 2675SOL     OW19486   4.167   3.489   8.942 -0.2952  0.4266 -0.5549
 2675SOL    HW119487   4.185   3.576   8.907  0.0734  0.4813 -0.2261
 2675SOL    HW219488   4.084   3.482   8.896 -1.1052 -2.1616  1.2478
 2676SOL     OW19489   3.464   2.375   8.029  0.5211 -0.2518 -0.3856
 2676SOL    HW119490   3.380   2.405   8.064 -1.0019 -2.0156 -2.5083
 2676SOL    HW219491   3.433   2.284   8.021  0.7348 -0.5434  2.1824
 2677SOL     OW19492   0.942   1.930   4.139 -0.2594  0.1196 -0.7564
 2677SOL    HW119493   1.023   1.980   4.145 -0.9994  1.3093 -0.9101
 2677SOL    HW219494   0.884   1.996   4.103  0.5116  0.7022 -0.9205
 2678SOL     OW19495   1.067   0.370   0.302 -0.5197 -0.4669 -0.5827
 2678SOL    HW119496   1.070   0.443   0.364 -2.5459 -0.7330 -0.1855
 2678SOL    HW219497   1.132   0.396   0.236 -0.9212  0.1203 -0.7408
 2679SOL     OW19498   0.620   2.066   0.170  0.9163  0.7422 -0.5002
 2679SOL    HW119499   0.694   2.028   0.217  0.3258  0.3505  0.1030
 2679SOL    HW219500   0.558   2.095   0.236  3.0140  1.7915  0.9791
 2680SOL     OW19501   3.664   2.585   8.082 -0.2209  0.0141 -0.0758
 2680SOL    HW119502   3.699   2.609   7.996 -2.9893 -4.4160 -2.3929
 2680SOL    HW219503   3.579   2.551   8.056  0.5788 -0.2442 -2.2960
 2681SOL     OW19504   4.200   2.626   2.423 -0.1317 -0.6704  0.2367
 2681SOL    HW119505   4.245   2.674   2.353 -1.3258  1.9331  1.2315
 2681SOL    HW219506   4.205   2.676   2.505 -1.4694 -0.2447  0.0564
 2682SOL     OW19507   3.963   4.110  12.341  0.3048 -0.0351  0.0516
 2682SOL    HW119508   3.881   4.065  12.320 -0.1332  0.4492  0.7576
 2682SOL    HW219509   3.940   4.194  12.302 -1.5101  0.3793  2.0290
 2683SOL     OW19510   2.344   3.406   7.352  0.4347  0.3572  0.1942
 2683SOL    HW119511   2.410   3.414   7.421  1.3090  1.1588 -0.7367
 2683SOL    HW219512   2.308   3.323   7.384  1.4670  0.0460  0.5607
 2684SOL     OW19513   0.151   2.146  14.785 -0.0106 -0.1791  0.4352
 2684SOL    HW119514   0.078   2.160  14.846 -1.3523  1.2288 -1.4948
 2684SOL    HW219515   0.223   2.192  14.827 -0.0709  1.2979 -1.0750
 2685SOL     OW19516   0.383   3.700   4.552  0.3731 -0.2074  0.6271
 2685SOL    HW119517   0.362   3.673   4.641  1.2240  1.4755  1.3507
 2685SOL    HW219518   0.467   3.656   4.541  1.0525  1.8908 -2.5858
 2686SOL     OW19519   1.994   2.589   5.639 -0.1442  0.3438 -0.0578
 2686SOL    HW119520   1.918   2.533   5.654  0.9025 -1.2459 -0.6812
 2686SOL    HW219521   2.010   2.581   5.545  3.1353  0.7312  0.4783
 2687SOL     OW19522   3.316   3.569   9.262 -0.3296 -0.7355 -0.2932
 2687SOL    HW119523   3.306   3.474   9.257 -0.2268 -0.7312 -0.5968
 2687SOL    HW219524   3.234   3.599   9.222 -0.6929 -0.6582  0.5117
 2688SOL     OW19525   0.190   4.675   2.696 -0.0774  0.1863  1.0254
 2688SOL    HW119526   0.264   0.010   2.711 -0.0434  0.0599  1.3577
 2688SOL    HW219527   0.210   4.610   2.763  0.3914  1.7641  2.4376
 2689SOL     OW19528   3.646   2.663   6.753 -0.2899  0.0694 -0.4369
 2689SOL    HW119529   3.687   2.584   6.788 -1.2076 -0.0261  0.4457
 2689SOL    HW219530   3.563   2.629   6.719  0.2038 -2.0570  0.4903
 2690SOL     OW19531   4.270   0.347   5.969  0.0984 -0.2653 -0.0430
 2690SOL    HW119532   4.356   0.383   5.988  1.0027 -1.6728 -1.4811
 2690SOL    HW219533   4.289   0.257   5.997  0.2623 -0.9711 -2.4641
 2691SOL     OW19534   1.870   0.998   1.778 -0.5346 -0.0890 -0.1359
 2691SOL    HW119535   1.823   1.079   1.759 -4.2062 -2.0060  0.5438
 2691SOL    HW219536   1.955   1.024   1.744 -0.3299 -0.3111  0.2073
 2692SOL     OW19537   4.541   1.076   5.066 -0.2415  0.9976  0.2934
 2692SOL    HW119538   4.545   1.082   5.162  4.5620 -0.5898  0.2358
 2692SOL    HW219539   4.529   0.982   5.053  1.5819  0.5303  1.8916
 2693SOL     OW19540   3.406   2.120   8.034 -0.1852  0.6008 -0.2954
 2693SOL    HW119541   3.321   2.078   8.031 -0.2666  0.8607 -1.4288
 2693SOL    HW219542   3.460   2.050   7.998 -0.4644  0.9104 -1.2927
 2694SOL     OW19543   4.685   2.144   7.701 -0.3329  0.2755 -0.1582
 2694SOL    HW119544   4.598   2.163   7.736  0.1592  1.4801  0.3972
 2694SOL    HW219545   4.657   2.166   7.612 -1.0811 -0.5197 -0.1194
 2695SOL     OW19546   3.738   1.196   4.734  0.0857 -0.4871  0.4251
 2695SOL    HW119547   3.796   1.128   4.766 -1.2419 -0.8383  2.0875
 2695SOL    HW219548   3.698   1.145   4.663 -0.2282  1.8154 -1.0679
 2696SOL     OW19549   3.712   3.047  12.235  0.5782 -0.2008 -0.4077
 2696SOL    HW119550   3.645   3.006  12.290 -0.4718  2.0277 -0.0269
 2696SOL    HW219551   3.777   2.977  12.224  1.9833  1.1690 -0.8158
 2697SOL     OW19552   3.422   4.085   8.392 -0.4258  0.0128  0.0026
 2697SOL    HW119553   3.398   4.042   8.473 -1.6553  0.8151  0.0545
 2697SOL    HW219554   3.450   4.004   8.348  0.3033  0.2337  0.0624
 2698SOL     OW19555   3.085   3.022  13.222 -0.4621 -0.2095 -0.3106
 2698SOL    HW119556   3.043   3.098  13.182  0.7316 -0.3411 -1.8285
 2698SOL    HW219557   3.164   3.018  13.169 -0.5298  1.1670 -0.5015
 2699SOL     OW19558   3.453   2.815  12.832 -0.1742  0.0393  0.4179
 2699SOL    HW119559   3.508   2.758  12.778 -0.3035  0.8729 -0.5794
 2699SOL    HW219560   3.408   2.750  12.887  3.8025 -2.0769  1.2014
 2700SOL     OW19561   3.258   0.569   1.382  0.4022  0.2095  0.7829
 2700SOL    HW119562   3.272   0.618   1.302 -1.5513  0.9430  0.8938
 2700SOL    HW219563   3.343   0.524   1.390  0.4032  0.2185  0.8262
 2701SOL     OW19564   2.888   1.323   7.219  0.6052  0.0587 -0.5290
 2701SOL    HW119565   2.963   1.377   7.243  0.0163  0.0813  1.2155
 2701SOL    HW219566   2.818   1.351   7.277  1.2714 -0.0245  0.3207
 2702SOL     OW19567   0.794   0.829   2.998 -0.0668  0.3916 -0.7819
 2702SOL    HW119568   0.713   0.851   3.044  0.3134 -1.8299  0.9586
 2702SOL    HW219569   0.854   0.881   3.052 -0.6942 -1.4317  1.6613
 2703SOL     OW19570   4.332   2.055  13.516  0.3933  0.0428  0.1295
 2703SOL    HW119571   4.326   2.121  13.448  3.4311  1.3524  1.1329
 2703SOL    HW219572   4.242   2.028  13.533  0.4629 -0.7515 -0.7494
 2704SOL     OW19573   2.278   0.984   6.534 -0.4672  0.5773  0.1316
 2704SOL    HW119574   2.242   1.072   6.550  0.2395  0.7511  0.7773
 2704SOL    HW219575   2.322   0.994   6.449  2.2872 -0.0457  1.4908
 2705SOL     OW19576   3.575   1.050   8.850  0.2887 -0.6843 -0.8856
 2705SOL    HW119577   3.664   1.013   8.843 -0.0388 -1.8608  1.5131
 2705SOL    HW219578   3.528   0.970   8.828 -2.0286  0.6938 -0.8759
 2706SOL     OW19579   4.386   1.420   2.991 -0.2109  0.2779 -0.6496
 2706SOL    HW119580   4.330   1.432   2.914 -0.8004  0.7677 -0.1472
 2706SOL    HW219581   4.477   1.437   2.969 -0.0324  0.0207 -0.1035
 2707SOL     OW19582   2.113   2.361   3.885  0.0977 -0.1924 -0.3268
 2707SOL    HW119583   2.208   2.353   3.879  0.1081 -0.7825  0.6824
 2707SOL    HW219584   2.083   2.366   3.794  1.1901 -1.2715 -0.7370
 2708SOL     OW19585   2.657   3.284   0.572  0.3083  0.0814 -0.1288
 2708SOL    HW119586   2.691   3.223   0.507 -0.8287 -1.0783  0.3377
 2708SOL    HW219587   2.726   3.284   0.639  0.1908 -1.8278 -0.0127
 2709SOL     OW19588   3.744   1.761   3.967  0.6281 -0.3473 -0.1760
 2709SOL    HW119589   3.708   1.846   3.942  2.0899 -0.5056 -2.7605
 2709SOL    HW219590   3.681   1.702   3.924  0.4252 -0.2015 -0.0811
 2710SOL     OW19591   3.241   0.622   4.826 -0.1018  0.0642  0.5220
 2710SOL    HW119592   3.163   0.626   4.880  0.4470 -0.4199  1.3492
 2710SOL    HW219593   3.315   0.661   4.873 -0.7817  1.5384  0.3368
 2711SOL     OW19594   2.855   0.406   2.603  0.1533 -0.0983 -0.5588
 2711SOL    HW119595   2.938   0.445   2.574 -0.1647 -0.7792 -2.3368
 2711SOL    HW219596   2.879   0.328   2.653 -2.4213 -0.5224 -0.0088
 2712SOL     OW19597   0.375   0.317   4.200 -0.1648 -0.4699 -0.0335
 2712SOL    HW119598   0.469   0.302   4.207  0.1445  1.4617 -0.1810
 2712SOL    HW219599   0.329   0.245   4.243 -0.2347  0.2132  1.0369
 2713SOL     OW19600   2.574   1.978  11.728 -0.3760 -0.0103 -0.1484
 2713SOL    HW119601   2.544   1.985  11.637  1.0913  0.4872 -0.5840
 2713SOL    HW219602   2.659   2.021  11.726 -0.0964 -0.4437  1.9012
 2714SOL     OW19603   1.722   0.476  16.121  0.3309 -0.1628  0.1168
 2714SOL    HW119604   1.726   0.565  16.087  0.8437 -0.4747 -0.6468
 2714SOL    HW219605   1.809   0.435  16.125  0.2751 -0.2458  0.5120
 2715SOL     OW19606   2.611   1.026   3.611  0.2175  0.1205 -0.6276
 2715SOL    HW119607   2.663   0.996   3.537  1.6117  0.2459  0.2879
 2715SOL    HW219608   2.683   1.030   3.675  0.7866  3.3247 -1.4854
 2716SOL     OW19609   3.386   0.041   4.193 -0.2459 -0.0108  0.0225
 2716SOL    HW119610   3.417   0.095   4.266 -1.5951 -0.5616  1.0193
 2716SOL    HW219611   3.413   4.679   4.228  0.0215  0.0052 -0.1521
 2717SOL     OW19612   0.198   3.547   5.646 -0.2334  0.2028 -0.1906
 2717SOL    HW119613   0.119   3.592   5.675 -0.4247  0.8242 -1.6975
 2717SOL    HW219614   0.263   3.600   5.693  0.4046 -0.3159 -0.5010
 2718SOL     OW19615   3.631   2.512   5.026  0.1532  0.1914  0.0996
 2718SOL    HW119616   3.667   2.474   5.106 -2.8758  0.7141  1.7063
 2718SOL    HW219617   3.538   2.497   5.040  0.0951 -0.9885 -1.4577
 2719SOL     OW19618   2.299   1.196  11.469 -0.5845  0.2810  0.3952
 2719SOL    HW119619   2.256   1.113  11.487 -0.7553  0.0785 -0.9335
 2719SOL    HW219620   2.355   1.207  11.546  0.8488 -0.5113 -0.5168
 2720SOL     OW19621   0.502   3.571   4.249  0.0710  0.6599 -0.0656
 2720SOL    HW119622   0.577   3.549   4.304  0.0224  0.1771 -0.1945
 2720SOL    HW219623   0.462   3.636   4.308 -0.0298 -0.8428  1.5291
 2721SOL     OW19624   2.266   3.955   7.322 -0.1950  0.4903 -0.2049
 2721SOL    HW119625   2.350   3.943   7.278  0.0366 -1.6675  0.8186
 2721SOL    HW219626   2.238   4.030   7.269  1.7324  0.2399 -1.5831
 2722SOL     OW19627   0.621   3.875   1.994 -0.0171 -0.4694 -0.0067
 2722SOL    HW119628   0.579   3.916   2.069 -1.5191 -2.0269  0.0308
 2722SOL    HW219629   0.547   3.839   1.944  0.8535 -0.8132 -1.0478
 2723SOL     OW19630   2.020   3.979   8.215  0.5633 -0.3538 -0.6017
 2723SOL    HW119631   2.055   3.980   8.304  0.1151 -2.1933 -0.4164
 2723SOL    HW219632   2.053   3.892   8.194  1.2919 -0.6033  1.5372
 2724SOL     OW19633   4.077   3.241  15.169 -0.1462  0.1216 -0.5385
 2724SOL    HW119634   4.061   3.167  15.227  2.3812  0.6541  0.8338
 2724SOL    HW219635   4.017   3.217  15.099 -0.6751  0.2353 -0.1297
 2725SOL     OW19636   2.011   4.471   4.548 -0.2736 -0.1145  0.5258
 2725SOL    HW119637   1.959   4.470   4.629  0.9460 -0.0639  1.2970
 2725SOL    HW219638   1.989   4.557   4.511 -0.9819 -0.7841 -0.6181
 2726SOL     OW19639   1.874   1.676   7.241 -0.2841  0.0005  0.4654
 2726SOL    HW119640   1.902   1.768   7.241  0.1364 -0.1206  3.5374
 2726SOL    HW219641   1.849   1.659   7.150 -0.2297 -0.9494  0.6253
 2727SOL     OW19642   0.613   3.039   8.788 -0.9433 -0.2161  0.0354
 2727SOL    HW119643   0.595   3.032   8.881  0.9440 -0.7313  0.3534
 2727SOL    HW219644   0.549   2.976   8.754 -1.7314 -0.7030  2.4690
 2728SOL     OW19645   3.485   2.906   6.234 -0.1760  0.2476 -0.1278
 2728SOL    HW119646   3.407   2.913   6.179 -0.5794  0.7670  0.5195
 2728SOL    HW219647   3.513   2.818   6.207 -2.4422 -1.0405  1.6491
 2729SOL     OW19648   3.003   2.781   9.414  0.3772  0.6167 -0.1802
 2729SOL    HW119649   2.980   2.872   9.395 -1.7378 -0.1623 -1.3604
 2729SOL    HW219650   3.002   2.740   9.327  0.7874  1.5433 -0.6151
 2730SOL     OW19651   2.103   2.459   7.895 -0.1616  0.2731 -0.0061
 2730SOL    HW119652   2.108   2.547   7.857 -0.6012  0.0601 -0.5577
 2730SOL    HW219653   2.034   2.472   7.960 -0.1116 -1.5691  0.4060
 2731SOL     OW19654   2.424   1.501   3.349  0.4970  0.6821  0.0144
 2731SOL    HW119655   2.459   1.413   3.359 -1.9924 -0.0043  2.6199
 2731SOL    HW219656   2.345   1.498   3.402 -0.4953  2.8582 -1.3086
 2732SOL     OW19657   1.432   3.334   2.927 -0.5570  0.7837 -0.1488
 2732SOL    HW119658   1.488   3.263   2.897  1.4533  2.3109  0.0102
 2732SOL    HW219659   1.499   3.379   2.979 -1.2581  1.2487  0.3550
 2733SOL     OW19660   3.754   3.925  15.790 -0.0171 -0.3473  0.2929
 2733SOL    HW119661   3.808   3.977  15.849  0.4622  2.0679 -2.2505
 2733SOL    HW219662   3.675   3.977  15.777 -0.2990  0.1538  3.9922
 2734SOL     OW19663   1.147   4.385   4.122  0.3254  0.4321 -0.1780
 2734SOL    HW119664   1.091   4.418   4.192  1.0323 -1.7462  1.4129
 2734SOL    HW219665   1.087   4.369   4.048 -1.6660  1.9012  1.1072
 2735SOL     OW19666   0.382   2.901   6.014 -0.7654  0.0866 -0.0522
 2735SOL    HW119667   0.363   2.972   5.952  0.6403  0.1836 -0.3801
 2735SOL    HW219668   0.475   2.889   5.997 -1.6892 -2.3550 -3.3908
 2736SOL     OW19669   1.123   4.354  13.281 -0.5791 -0.2324  0.2011
 2736SOL    HW119670   1.174   4.302  13.344  0.3526 -1.2770 -1.3883
 2736SOL    HW219671   1.118   4.289  13.210  1.7435  0.3389 -0.5135
 2737SOL     OW19672   4.689   0.128   5.918  0.2223 -0.4255  0.3444
 2737SOL    HW119673   4.723   0.068   5.852  3.6213  0.6185  1.1073
 2737SOL    HW219674   4.628   0.070   5.963 -0.5234  1.2300  1.4697
 2738SOL     OW19675   3.147   0.740   2.094  0.1315 -0.1337 -0.0386
 2738SOL    HW119676   3.083   0.752   2.023  0.1062  2.4695  0.4512
 2738SOL    HW219677   3.140   0.645   2.101 -2.0940 -0.0521 -1.0535
 2739SOL     OW19678   0.536   2.250  14.329 -0.4942  0.1740 -0.0368
 2739SOL    HW119679   0.610   2.190  14.338 -0.4498  0.1021 -0.9585
 2739SOL    HW219680   0.588   2.324  14.296 -0.4546 -0.4878 -1.4289
 2740SOL     OW19681   0.356   2.154  13.695  0.2051  0.1045 -0.5858
 2740SOL    HW119682   0.290   2.104  13.648 -1.4724  1.4738  0.3321
 2740SOL    HW219683   0.307   2.227  13.733 -1.2870 -0.4188 -1.5590
 2741SOL     OW19684   2.860   4.545   2.905 -0.2212  0.3796  0.7996
 2741SOL    HW119685   2.869   4.454   2.933 -0.7546 -0.2642 -1.1382
 2741SOL    HW219686   2.951   4.573   2.911  0.3490 -1.1474 -0.7045
 2742SOL     OW19687   3.152   2.300   4.240  0.2751  0.2095  0.0826
 2742SOL    HW119688   3.075   2.298   4.184  1.6376  2.3311 -1.8371
 2742SOL    HW219689   3.122   2.345   4.319  2.3245  3.3151 -0.8924
 2743SOL     OW19690   2.900   1.169   8.024  0.7112  0.3627 -0.3376
 2743SOL    HW119691   2.960   1.107   8.064 -0.2516  0.1083  0.7060
 2743SOL    HW219692   2.854   1.117   7.958  1.4500 -1.3408  0.5144
 2744SOL     OW19693   3.314   2.216  12.267 -0.0348 -0.7169  0.0199
 2744SOL    HW119694   3.251   2.276  12.309  2.1259  2.2495 -0.9858
 2744SOL    HW219695   3.298   2.244  12.177  1.6194 -1.1906 -0.4141
 2745SOL     OW19696   3.194   3.734   0.504  0.1256 -0.3635 -0.0982
 2745SOL    HW119697   3.209   3.810   0.561 -4.0957  1.4106 -1.3666
 2745SOL    HW219698   3.153   3.776   0.429 -2.1723 -0.7714  0.9113
 2746SOL     OW19699   2.612   2.488   6.737 -0.4092 -0.4677 -0.3471
 2746SOL    HW119700   2.669   2.495   6.813  0.2768 -4.1791 -0.5217
 2746SOL    HW219701   2.574   2.573   6.716 -0.7160 -0.6535 -0.5389
 2747SOL     OW19702   0.283   2.986   0.437  0.1974 -0.3731  0.0945
 2747SOL    HW119703   0.251   3.037   0.511 -0.5022 -1.2444  0.3981
 2747SOL    HW219704   0.347   3.053   0.416  0.6979 -0.9957 -0.3608
 2748SOL     OW19705   1.984   1.080   5.367  0.3470 -0.5990 -0.1763
 2748SOL    HW119706   1.911   1.025   5.394 -1.1804  0.5322 -1.9783
 2748SOL    HW219707   1.985   1.147   5.436 -1.9842 -1.4346  0.6521
 2749SOL     OW19708   2.076   2.688  12.418  0.1031  0.6232  0.2898
 2749SOL    HW119709   2.014   2.744  12.371 -1.9306 -0.9798  1.0458
 2749SOL    HW219710   2.116   2.746  12.483 -0.7751  1.7132 -0.1470
 2750SOL     OW19711   1.763   0.175   1.460 -0.0223  0.3927 -0.1013
 2750SOL    HW119712   1.703   0.245   1.483  1.0389  1.6872 -1.2963
 2750SOL    HW219713   1.814   0.218   1.391 -0.0248 -0.8226 -0.8704
 2751SOL     OW19714   1.019   1.055   5.218  0.4116 -0.5636 -0.5112
 2751SOL    HW119715   1.049   0.973   5.178  0.4681 -0.7871 -0.0096
 2751SOL    HW219716   0.941   1.011   5.254  2.4083 -2.0753  1.9282
 2752SOL     OW19717   3.844   1.292   1.983 -0.0601  0.1799  0.0320
 2752SOL    HW119718   3.790   1.308   1.906  1.0586  0.3153 -0.7197
 2752SOL    HW219719   3.832   1.375   2.028 -0.1429 -0.3149  0.9219
 2753SOL     OW19720   3.145   2.310   3.534 -0.2071 -0.4008  0.0678
 2753SOL    HW119721   3.167   2.239   3.474 -1.3044 -0.3912 -0.3477
 2753SOL    HW219722   3.231   2.341   3.561  0.3735 -2.0303  0.0881
 2754SOL     OW19723   3.531   0.622   8.638  0.2784 -0.0050 -0.1581
 2754SOL    HW119724   3.490   0.698   8.597 -0.5654 -0.1569  0.4108
 2754SOL    HW219725   3.536   0.657   8.727  1.8392 -0.7607  0.0498
 2755SOL     OW19726   4.498   3.175   3.648 -0.3105  0.5496  0.2093
 2755SOL    HW119727   4.431   3.126   3.600  1.6455 -2.1378  0.2264
 2755SOL    HW219728   4.524   3.118   3.721 -2.1645 -1.6183 -0.8354
 2756SOL     OW19729   0.840   3.296   9.714  0.3493 -0.3742  0.3641
 2756SOL    HW119730   0.810   3.235   9.781  1.2577 -0.4236  0.7207
 2756SOL    HW219731   0.932   3.279   9.734 -0.1127 -2.4653  0.7157
 2757SOL     OW19732   1.042   0.784   3.531  0.8102 -0.0555 -0.4541
 2757SOL    HW119733   1.060   0.868   3.574  1.8418  1.2375 -3.3933
 2757SOL    HW219734   1.113   0.724   3.554  0.6020  0.3567  1.1962
 2758SOL     OW19735   2.362   2.270   9.607  0.1270  0.1171  0.0132
 2758SOL    HW119736   2.327   2.206   9.669 -0.5913  0.2766 -0.2281
 2758SOL    HW219737   2.281   2.289   9.561 -1.0057 -0.0056  1.9500
 2759SOL     OW19738   3.051   0.642   9.054  0.0896 -0.0674 -0.3906
 2759SOL    HW119739   3.098   0.650   8.971 -0.5273 -1.3846 -0.8680
 2759SOL    HW219740   3.113   0.582   9.097 -1.8156 -2.1872 -0.6151
 2760SOL     OW19741   0.222   0.417   2.874  0.1856 -0.6741  0.3912
 2760SOL    HW119742   0.242   0.325   2.861  2.1227 -0.2387  0.2257
 2760SOL    HW219743   0.306   0.454   2.846 -0.5060 -1.1171 -2.3070
 2761SOL     OW19744   3.678   4.249   8.963 -0.3862  0.4440 -0.2211
 2761SOL    HW119745   3.659   4.195   8.887 -1.3117  1.1074 -0.4685
 2761SOL    HW219746   3.728   4.186   9.015 -1.3836  0.3510  0.6287
 2762SOL     OW19747   4.294   2.927   2.879 -0.3597  0.1585  0.2663
 2762SOL    HW119748   4.236   2.859   2.845 -0.4504 -0.3465  1.4457
 2762SOL    HW219749   4.246   3.006   2.853 -0.6796 -0.5200 -1.1642
 2763SOL     OW19750   1.591   0.509   7.666 -0.3499  0.6020  0.3196
 2763SOL    HW119751   1.646   0.473   7.736  0.4173  0.2063 -0.4721
 2763SOL    HW219752   1.652   0.569   7.622 -0.0873  0.4946  0.5388
 2764SOL     OW19753   0.403   0.514   7.955  0.3695 -0.8122 -0.3275
 2764SOL    HW119754   0.420   0.420   7.955  1.0047 -0.6962 -2.8320
 2764SOL    HW219755   0.407   0.538   8.048 -0.7321  2.6783 -1.1935
 2765SOL     OW19756   3.052   4.198   7.072 -0.0313 -0.2466 -0.5430
 2765SOL    HW119757   3.058   4.117   7.021 -0.9879 -1.7753  1.7614
 2765SOL    HW219758   3.050   4.256   6.996  1.5959  0.3754 -0.1055
 2766SOL     OW19759   0.153   2.896   5.721  0.5090  0.2203 -0.2143
 2766SOL    HW119760   0.138   2.807   5.688  2.0928 -0.4037  0.7261
 2766SOL    HW219761   0.207   2.936   5.653 -0.0580  0.8246 -0.3013
 2767SOL     OW19762   4.148   1.528   9.113  0.4978  0.3686  0.4071
 2767SOL    HW119763   4.169   1.542   9.021 -0.9535  2.9032  0.4713
 2767SOL    HW219764   4.072   1.470   9.107  1.2288 -0.5595  0.0961
 2768SOL     OW19765   3.752   2.946   3.943 -0.3003 -0.2425  0.0308
 2768SOL    HW119766   3.684   2.933   4.009  1.0538 -0.3843  1.4053
 2768SOL    HW219767   3.731   2.878   3.880 -1.5407  0.0400  0.1395
 2769SOL     OW19768   3.378   0.747   3.074 -0.7579 -0.9373  0.1332
 2769SOL    HW119769   3.367   0.711   2.986 -0.2120 -0.8008  0.0085
 2769SOL    HW219770   3.350   0.838   3.066 -0.3577 -0.8886 -0.6716
 2770SOL     OW19771   3.502   0.534   6.811  0.6745 -0.1761  0.3773
 2770SOL    HW119772   3.588   0.549   6.852 -0.4882  1.1250  2.3380
 2770SOL    HW219773   3.466   0.622   6.803  1.7415  0.2752  0.4803
 2771SOL     OW19774   3.948   2.935   0.371  0.4104  0.2558  0.6846
 2771SOL    HW119775   3.989   2.886   0.442  3.3989 -0.3851 -1.4763
 2771SOL    HW219776   3.859   2.932   0.406  0.5640  0.8293  1.1129
 2772SOL     OW19777   1.539   2.156  15.454 -0.8933 -0.0741 -0.1311
 2772SOL    HW119778   1.536   2.241  15.410 -1.3093 -0.2378 -0.4218
 2772SOL    HW219779   1.454   2.155  15.498 -0.4138 -1.4034  0.7568
 2773SOL     OW19780   0.174   2.235  16.896  0.2784  0.3737 -0.4985
 2773SOL    HW119781   0.123   2.166  16.855 -0.0749 -0.0803  0.7060
 2773SOL    HW219782   0.222   2.177  16.956  1.9080 -1.2899 -3.3997
 2774SOL     OW19783   0.350   2.630   6.828 -0.4162  0.1838 -0.5936
 2774SOL    HW119784   0.270   2.650   6.878  0.4342 -0.7448  1.1450
 2774SOL    HW219785   0.337   2.687   6.753 -0.7364 -0.8238 -1.3125
 2775SOL     OW19786   4.389   4.138  10.879 -0.6566  0.2613  0.2879
 2775SOL    HW119787   4.317   4.185  10.920 -0.1370  0.3715  1.0790
 2775SOL    HW219788   4.354   4.126  10.790 -2.9309 -0.5103  1.2872
 2776SOL     OW19789   3.819   2.207  16.215  0.3762  0.4176 -0.1788
 2776SOL    HW119790   3.827   2.296  16.250 -0.1385  0.5615 -0.4144
 2776SOL    HW219791   3.765   2.225  16.138  1.5251 -1.6009 -1.4707
 2777SOL     OW19792   2.718   3.826   9.585  0.4618 -0.6943 -0.6086
 2777SOL    HW119793   2.726   3.732   9.570  2.1261 -0.3324 -1.8908
 2777SOL    HW219794   2.691   3.859   9.500  0.0745  1.3995  0.3305
 2778SOL     OW19795   2.341   3.513   5.038 -0.2704  0.2172 -0.6922
 2778SOL    HW119796   2.343   3.516   5.134 -0.6825 -0.3912 -0.6633
 2778SOL    HW219797   2.254   3.547   5.019 -0.0139  1.6029  0.6400
 2779SOL     OW19798   3.333   0.335   9.552  0.0048 -0.4304 -0.1482
 2779SOL    HW119799   3.319   0.410   9.494  1.3132 -1.4626 -1.7941
 2779SOL    HW219800   3.344   0.377   9.638  1.8513  0.0064 -0.5970
 2780SOL     OW19801   4.194   2.019   7.035  0.2526 -0.2640  0.0761
 2780SOL    HW119802   4.173   1.990   7.124  1.0094 -1.3211 -0.0857
 2780SOL    HW219803   4.282   1.980   7.030  2.3991  4.5694  0.1304
 2781SOL     OW19804   3.595   2.938   5.905  0.3241 -0.1207 -0.1337
 2781SOL    HW119805   3.674   2.884   5.910  0.3151 -0.2674 -1.5481
 2781SOL    HW219806   3.547   2.866   5.866  0.4964  0.1502 -0.8398
 2782SOL     OW19807   4.548   0.962   6.802  0.4894  0.4726  0.0107
 2782SOL    HW119808   4.635   0.921   6.794 -0.1734 -0.7503 -0.9994
 2782SOL    HW219809   4.498   0.883   6.779  1.2901 -0.5596  1.8571
 2783SOL     OW19810   2.585   2.034   2.970  0.1984  0.6824  0.2763
 2783SOL    HW119811   2.526   2.035   3.045  0.3672  3.7071  0.3887
 2783SOL    HW219812   2.516   2.007   2.910 -1.2278  1.5169  1.5522
 2784SOL     OW19813   2.600   1.309   5.184  0.4918 -0.1004  0.1256
 2784SOL    HW119814   2.616   1.404   5.179 -1.9376  0.3560  0.7275
 2784SOL    HW219815   2.688   1.286   5.156  0.2187 -0.0745 -0.7573
 2785SOL     OW19816   0.347   3.574  11.687 -0.4026 -0.0290 -0.4870
 2785SOL    HW119817   0.435   3.543  11.709 -0.3496 -1.4838 -2.7025
 2785SOL    HW219818   0.355   3.669  11.700  1.7824 -0.1934 -0.5162
 2786SOL     OW19819   0.961   3.943  10.394 -0.1583  0.2768 -0.6495
 2786SOL    HW119820   0.983   3.868  10.339 -3.9347 -1.0142 -0.4351
 2786SOL    HW219821   1.030   3.944  10.461 -2.0480  0.6977  1.3160
 2787SOL     OW19822   3.938   2.098   9.893 -0.5361  0.1830  0.3618
 2787SOL    HW119823   4.017   2.148   9.874 -0.2056 -0.0846  1.0145
 2787SOL    HW219824   3.948   2.059   9.980  2.6757  0.4332  0.0858
 2788SOL     OW19825   3.003   2.193  10.178  0.0276  0.2449 -0.3729
 2788SOL    HW119826   2.917   2.236  10.180 -1.1286 -2.0626 -1.6677
 2788SOL    HW219827   3.060   2.253  10.131 -1.4695  0.3473 -2.0738
 2789SOL     OW19828   3.411   2.809   2.402  0.2833  0.7443 -0.0199
 2789SOL    HW119829   3.346   2.739   2.393  0.1425  0.8567  0.1226
 2789SOL    HW219830   3.390   2.847   2.487 -1.6777 -1.6192  0.5524
 2790SOL     OW19831   0.425   1.689  14.049  0.2551 -0.0776 -0.0878
 2790SOL    HW119832   0.368   1.762  14.025  1.4153  0.5559 -0.9037
 2790SOL    HW219833   0.505   1.735  14.075  1.7542 -1.4363 -2.2482
 2791SOL     OW19834   0.166   1.443  14.567 -0.1592  0.3193  0.0032
 2791SOL    HW119835   0.190   1.400  14.485 -1.0053  1.1301 -0.6853
 2791SOL    HW219836   0.082   1.399  14.585  0.0350 -0.2674 -0.5299
 2792SOL     OW19837   4.320   0.571   3.974 -0.5897  0.0015 -0.2663
 2792SOL    HW119838   4.278   0.575   3.888  1.4932 -0.9811 -1.3507
 2792SOL    HW219839   4.262   0.626   4.026 -0.5936  1.1293 -1.4913
 2793SOL     OW19840   3.580   1.354   3.688  0.4735  0.1096  0.5242
 2793SOL    HW119841   3.485   1.370   3.688  0.1108 -2.0250 -0.0113
 2793SOL    HW219842   3.601   1.441   3.720  1.1554 -0.0592  0.5174
 2794SOL     OW19843   3.924   0.958   6.703  0.1877  0.0449 -0.0560
 2794SOL    HW119844   3.898   0.867   6.718  0.4869 -0.0963 -0.4005
 2794SOL    HW219845   3.976   0.966   6.783  0.4424  0.6350 -0.2754
 2795SOL     OW19846   3.397   1.753   7.980  0.4597  0.8806 -0.1298
 2795SOL    HW119847   3.400   1.729   8.073 -0.3243 -1.2210 -0.6424
 2795SOL    HW219848   3.468   1.816   7.990 -0.9154  2.3117  0.6361
 2796SOL     OW19849   0.226   1.233   7.129 -0.5353  0.5700  0.1626
 2796SOL    HW119850   0.132   1.217   7.124 -0.3287 -1.0461  1.6778
 2796SOL    HW219851   0.246   1.218   7.221 -0.3247  0.7858  0.1531
 2797SOL     OW19852   2.122   4.575  15.570  0.0027 -0.3195 -0.1518
 2797SOL    HW119853   2.150   4.643  15.632  1.0105  1.0533 -2.0707
 2797SOL    HW219854   2.111   4.635  15.496  3.2585 -0.4899 -0.7922
 2798SOL     OW19855   4.277   1.345  15.602 -0.7769  0.5460  0.0218
 2798SOL    HW119856   4.247   1.406  15.670 -1.4747  0.5060 -0.2488
 2798SOL    HW219857   4.261   1.396  15.524 -1.6251  1.2971  0.6899
 2799SOL     OW19858   1.444   4.295   8.758  0.3195  0.1283 -0.5428
 2799SOL    HW119859   1.455   4.332   8.845  0.5968 -1.0084 -0.0953
 2799SOL    HW219860   1.477   4.360   8.695 -3.2505  3.1090  0.6573
 2800SOL     OW19861   0.935   1.443   0.750  0.5753  0.1033  0.2075
 2800SOL    HW119862   0.973   1.423   0.835 -0.3399  2.8470  1.2638
 2800SOL    HW219863   1.015   1.451   0.698  0.8699  2.9412  1.1076
 2801SOL     OW19864   4.467   0.862   4.045  0.1138  0.2656  0.2502
 2801SOL    HW119865   4.482   0.892   3.955 -0.4645  0.3192  0.1690
 2801SOL    HW219866   4.517   0.781   4.050 -0.7846 -0.4223 -1.7861
 2802SOL     OW19867   4.541   2.851   4.504  0.3946 -0.2557  0.0412
 2802SOL    HW119868   4.593   2.776   4.473 -1.1948 -0.9422 -0.9411
 2802SOL    HW219869   4.497   2.811   4.579  1.6345 -1.4562  0.1483
 2803SOL     OW19870   0.548   2.390   4.151 -0.0360 -0.7862 -0.3838
 2803SOL    HW119871   0.579   2.451   4.083 -0.6346  0.5555  0.5498
 2803SOL    HW219872   0.598   2.403   4.232  0.0503 -0.5555 -0.4747
 2804SOL     OW19873   4.001   3.398   2.740  0.6120  0.1739  0.0042
 2804SOL    HW119874   4.024   3.346   2.818 -1.1879 -0.3965  0.1432
 2804SOL    HW219875   3.926   3.348   2.710  0.7741 -0.5249  0.7531
 2805SOL     OW19876   4.410   3.558   8.185  0.0846 -0.4099 -0.1762
 2805SOL    HW119877   4.435   3.621   8.117 -2.2505  0.2854 -0.3913
 2805SOL    HW219878   4.325   3.591   8.215  0.1522 -0.9729  0.6321
 2806SOL     OW19879   2.544   0.242   3.103 -0.4205  0.1011  0.2537
 2806SOL    HW119880   2.544   0.266   3.010 -0.3638 -1.2965 -0.1109
 2806SOL    HW219881   2.638   0.245   3.118 -0.6667 -1.0645  2.0109
 2807SOL     OW19882   2.271   3.476  11.889 -0.0822 -0.3815  0.1959
 2807SOL    HW119883   2.216   3.463  11.811 -1.4760 -0.3174  1.1566
 2807SOL    HW219884   2.203   3.486  11.956 -0.8763 -0.3945 -0.5982
 2808SOL     OW19885   3.736   4.014   3.429  0.1841 -0.0478 -0.3066
 2808SOL    HW119886   3.798   4.065   3.376 -0.2069  1.7100  0.9225
 2808SOL    HW219887   3.743   3.931   3.382 -1.4372 -0.5698  0.4107
 2809SOL     OW19888   1.871   2.884   6.944 -0.1288  0.1532  0.5247
 2809SOL    HW119889   1.891   2.797   6.980  3.3168 -0.3274 -2.4818
 2809SOL    HW219890   1.951   2.936   6.952 -0.5866  1.2635 -2.2715
 2810SOL     OW19891   1.946   0.370   2.264 -0.5452 -0.6333 -1.0318
 2810SOL    HW119892   1.986   0.449   2.301 -0.9520  0.2460 -2.4717
 2810SOL    HW219893   1.921   0.394   2.175  2.2979  0.8331 -1.4553
 2811SOL     OW19894   4.677   1.856   7.637  0.3113 -0.2911 -0.3296
 2811SOL    HW119895   4.641   1.849   7.725 -2.1521  0.9025 -1.2379
 2811SOL    HW219896   4.676   1.951   7.627  1.0944 -0.3521 -1.0168
 2812SOL     OW19897   0.330   1.178   7.781 -0.2766  0.0834  0.1941
 2812SOL    HW119898   0.363   1.265   7.805  2.0449 -0.6376 -0.4742
 2812SOL    HW219899   0.249   1.207   7.737 -0.1930 -1.6929 -1.1064
 2813SOL     OW19900   1.306   4.004  11.365 -0.1699 -0.0181 -0.8327
 2813SOL    HW119901   1.349   4.007  11.451 -1.5579 -0.6187 -0.1108
 2813SOL    HW219902   1.238   4.069  11.385 -0.5421 -0.8291  0.5075
 2814SOL     OW19903   1.116   3.962   5.421 -0.7493 -0.0892  0.1897
 2814SOL    HW119904   1.099   4.012   5.501  2.8558  0.1212  0.8243
 2814SOL    HW219905   1.038   3.909   5.402 -0.1551 -1.7056  2.2227
 2815SOL     OW19906   3.825   4.466   8.206 -0.0901 -0.5766 -0.0686
 2815SOL    HW119907   3.740   4.439   8.241 -0.4835  0.7912  0.0105
 2815SOL    HW219908   3.830   4.411   8.128  0.7362 -0.5272 -0.0566
 2816SOL     OW19909   3.989   1.902  13.280  0.0233  0.2721  0.0108
 2816SOL    HW119910   4.013   1.993  13.264 -0.3510  0.2333 -0.7907
 2816SOL    HW219911   3.895   1.904  13.263 -0.3132 -0.1594  1.7510
 2817SOL     OW19912   2.946   2.584   0.987  0.4670 -0.1572 -0.2174
 2817SOL    HW119913   2.987   2.611   0.904  2.6124 -2.7642 -0.0118
 2817SOL    HW219914   2.894   2.506   0.970  1.3925 -1.2800  2.1971
 2818SOL     OW19915   1.428   0.709   7.402 -0.7430  0.3542  0.0190
 2818SOL    HW119916   1.363   0.776   7.422 -0.9923 -0.9126  3.5833
 2818SOL    HW219917   1.416   0.688   7.310  1.9090 -1.5604  0.1060
 2819SOL     OW19918   3.338   1.936   3.943  0.4466  0.6098  0.2571
 2819SOL    HW119919   3.293   1.914   4.024 -1.3992 -1.8379 -1.4113
 2819SOL    HW219920   3.271   1.908   3.881  3.4786 -0.7130 -2.4390
 2820SOL     OW19921   1.414   4.625   0.320  0.4724  0.1805 -0.1013
 2820SOL    HW119922   1.360   4.695   0.283 -0.1345  1.2961  2.9441
 2820SOL    HW219923   1.385   4.635   0.411  3.4115 -2.4766  1.1120
 2821SOL     OW19924   3.863   0.570  12.462  0.0445 -0.1897 -0.2614
 2821SOL    HW119925   3.954   0.579  12.432 -0.3464 -2.0740 -1.9458
 2821SOL    HW219926   3.812   0.627  12.404 -0.7712 -0.2511  0.3966
 2822SOL     OW19927   3.807   0.095  15.110 -0.1529  0.3144 -0.0594
 2822SOL    HW119928   3.718   0.102  15.145 -0.9036 -2.9481 -1.2746
 2822SOL    HW219929   3.785   0.029  15.044 -1.8032 -0.7257  1.5356
 2823SOL     OW19930   3.905   1.072   1.341 -0.2426  0.2093  0.7860
 2823SOL    HW119931   3.884   1.136   1.274 -0.6327  0.1094  0.8160
 2823SOL    HW219932   3.824   1.059   1.390  0.6010 -3.4669  1.2103
 2824SOL     OW19933   0.013   3.481   8.506 -0.1560 -0.5308  0.3263
 2824SOL    HW119934   4.645   3.472   8.478 -0.2960 -2.7204  1.5049
 2824SOL    HW219935   0.011   3.537   8.583  1.4935  0.4534 -0.3449
 2825SOL     OW19936   2.331   2.628  15.263  0.4558 -0.2813  0.5847
 2825SOL    HW119937   2.369   2.619  15.351  1.5459 -1.8152 -0.0482
 2825SOL    HW219938   2.315   2.534  15.260  0.8115 -0.2891 -0.8741
 2826SOL     OW19939   1.085   3.142  10.835  0.8133 -0.4132  0.0856
 2826SOL    HW119940   1.048   3.223  10.868  0.2200  0.0162 -1.6301
 2826SOL    HW219941   1.005   3.101  10.801  0.2245  1.1571 -0.4085
 2827SOL     OW19942   3.272   2.058   5.130  0.3003 -0.5107 -0.4557
 2827SOL    HW119943   3.360   2.038   5.099  0.5923 -0.4707  0.3465
 2827SOL    HW219944   3.235   2.076   5.043  1.7120  1.4708 -0.6322
 2828SOL     OW19945   2.890   2.103   5.037 -0.0277 -0.7754 -0.1040
 2828SOL    HW119946   2.891   2.190   5.076 -2.2091 -1.2951  1.1069
 2828SOL    HW219947   2.800   2.077   5.057 -0.0254 -1.5207 -1.0675
 2829SOL     OW19948   4.509   1.577   4.961 -0.4164 -0.6303  0.3090
 2829SOL    HW119949   4.568   1.609   5.030 -1.3317  0.9072  0.3811
 2829SOL    HW219950   4.570   1.556   4.891 -1.6914  0.9161 -1.2549
 2830SOL     OW19951   1.814   4.259   6.125  0.2005 -0.0371 -0.4494
 2830SOL    HW119952   1.752   4.235   6.055 -0.2919  0.4535 -0.1812
 2830SOL    HW219953   1.758   4.284   6.198  1.2759  0.6240  0.1329
 2831SOL     OW19954   1.695   3.569  15.678 -0.6256  0.0321  0.2533
 2831SOL    HW119955   1.613   3.590  15.632  1.4289  3.4783 -1.8053
 2831SOL    HW219956   1.724   3.482  15.649 -0.5472  0.1486 -0.0179
 2832SOL     OW19957   4.689   3.456   8.196 -0.2233  0.1791 -0.1536
 2832SOL    HW119958   0.057   3.447   8.169 -0.4790  1.4183 -1.4242
 2832SOL    HW219959   4.666   3.549   8.208 -0.9168  0.3011 -2.4059
 2833SOL     OW19960   0.192   0.094   8.816  0.0342 -0.2418 -0.7793
 2833SOL    HW119961   0.249   0.118   8.889 -1.9235  0.3664  0.5686
 2833SOL    HW219962   0.187   0.000   8.833 -3.2799 -0.4355 -2.8386
 2834SOL     OW19963   0.510   1.675  17.393  0.5068 -0.9297  0.0145
 2834SOL    HW119964   0.426   1.642  17.426  0.9350  0.6232  2.6308
 2834SOL    HW219965   0.540   1.723  17.470 -0.9155 -0.2676  0.1559
 2835SOL     OW19966   4.085   0.153   5.610  0.1452  0.4288 -0.3735
 2835SOL    HW119967   3.993   0.179   5.607  0.3397  1.0462 -0.9246
 2835SOL    HW219968   4.082   0.087   5.679  1.9722 -0.1279 -0.8257
 2836SOL     OW19969   0.798   2.962  15.233  0.8452 -0.2837 -0.1729
 2836SOL    HW119970   0.797   3.050  15.270  0.8266  0.3223 -1.6218
 2836SOL    HW219971   0.763   2.915  15.309  0.7233 -0.0983 -0.1146
 2837SOL     OW19972   4.303   1.300   4.419 -0.2830  0.0878 -0.1320
 2837SOL    HW119973   4.235   1.351   4.464  2.1171  0.4688  3.0987
 2837SOL    HW219974   4.247   1.226   4.397  0.3425 -0.0304 -1.3193
 2838SOL     OW19975   1.310   1.331   2.289 -0.6443  0.0922  0.4113
 2838SOL    HW119976   1.327   1.425   2.288  1.6493 -0.3267  0.6123
 2838SOL    HW219977   1.267   1.315   2.373 -0.6703  0.8136  0.5392
 2839SOL     OW19978   1.518   2.366   2.676  0.3303  0.0536  0.5210
 2839SOL    HW119979   1.518   2.279   2.636  0.3184  0.7297 -0.9656
 2839SOL    HW219980   1.525   2.428   2.603  0.4476  0.0576  0.5345
 2840SOL     OW19981   0.930   4.132   9.465  0.6796 -0.1092  0.5223
 2840SOL    HW119982   0.892   4.191   9.530  1.4362  0.7886  0.1436
 2840SOL    HW219983   0.852   4.122   9.411  0.9939  1.3029 -0.1952
 2841SOL     OW19984   2.885   1.550  13.421  0.8608  0.4820 -0.2316
 2841SOL    HW119985   2.929   1.615  13.475 -0.4022  0.3801  0.9169
 2841SOL    HW219986   2.888   1.472  13.476  0.1460  0.1837 -0.6142
 2842SOL     OW19987   1.179   0.139   2.930 -0.0950  0.7359 -0.6927
 2842SOL    HW119988   1.217   0.211   2.980  0.1082  1.2967 -1.6543
 2842SOL    HW219989   1.255   0.085   2.910  0.0404  0.4747  0.5207
 2843SOL     OW19990   2.001   4.471   7.986  0.0838  0.5361 -0.1487
 2843SOL    HW119991   1.972   4.381   8.003  0.1729  0.7663  1.2006
 2843SOL    HW219992   1.967   4.519   8.061 -1.7112  0.8920 -1.1828
 2844SOL     OW19993   1.725   2.874   8.389 -0.1330  0.5307  0.4113
 2844SOL    HW119994   1.731   2.894   8.482 -3.8992  1.8087  0.3855
 2844SOL    HW219995   1.728   2.962   8.352 -3.1743  0.5843  0.2687
 2845SOL     OW19996   0.463   3.508   6.717  0.3294  0.1856 -0.3151
 2845SOL    HW119997   0.467   3.602   6.701  2.0588  0.1516  0.0005
 2845SOL    HW219998   0.482   3.496   6.810  0.8278 -1.0262 -0.5748
 2846SOL     OW19999   0.115   2.594   3.227 -0.2480 -0.4279  0.0777
 2846SOL    HW120000   0.160   2.638   3.299  1.8170 -1.8831 -0.3298
 2846SOL    HW220001   0.069   2.525   3.274 -1.6017  0.2815 -0.2199
 2847SOL     OW20002   2.700   4.099   3.453 -0.1524  0.2483  0.1261
 2847SOL    HW120003   2.785   4.078   3.490  0.0199  1.0977  0.2199
 2847SOL    HW220004   2.702   4.194   3.440  1.1505  0.0990 -0.8353
 2848SOL     OW20005   3.425   2.459   7.763 -0.3306 -0.2604  0.1373
 2848SOL    HW120006   3.474   2.439   7.843  0.4168 -0.8672 -0.4701
 2848SOL    HW220007   3.340   2.434   7.801  0.0668 -2.3306 -0.3012
 2849SOL     OW20008   1.921   2.899  12.304  0.1671 -0.1052  0.5076
 2849SOL    HW120009   1.833   2.930  12.281 -1.0768 -2.0230  2.7815
 2849SOL    HW220010   1.967   2.954  12.240  2.2670 -2.9005 -0.3474
 2850SOL     OW20011   2.691   4.055   3.151 -0.4337  0.1783  0.2090
 2850SOL    HW120012   2.730   3.995   3.087  1.1257  0.9456  0.4400
 2850SOL    HW220013   2.685   3.998   3.228 -2.6703 -1.4079 -1.1465
 2851SOL     OW20014   0.131   3.464   2.588 -0.3564 -0.7318  0.0468
 2851SOL    HW120015   0.199   3.397   2.586 -2.2200 -2.5630 -2.5026
 2851SOL    HW220016   0.062   3.424   2.535 -1.0031  0.7888 -0.2471
 2852SOL     OW20017   3.008   3.043   6.328  0.5514 -0.0681  0.0920
 2852SOL    HW120018   3.073   3.078   6.268  1.2244 -2.1902 -0.4015
 2852SOL    HW220019   2.960   2.987   6.266 -1.8340 -0.0792  1.9378
 2853SOL     OW20020   2.006   2.826  13.959  0.4903 -0.4363  0.0050
 2853SOL    HW120021   2.061   2.839  13.882  0.7676 -2.2192 -0.1030
 2853SOL    HW220022   2.024   2.903  14.012 -0.3327 -0.4805  0.3564
 2854SOL     OW20023   3.162   2.061   6.744  0.7398 -0.5061 -0.2536
 2854SOL    HW120024   3.118   2.078   6.827  1.3476 -1.9387  0.3584
 2854SOL    HW220025   3.232   1.997   6.761 -1.2725 -2.1011  1.8964
 2855SOL     OW20026   1.134   0.697  14.694 -0.2248 -0.5431  0.4513
 2855SOL    HW120027   1.213   0.645  14.680  0.6236  1.0814 -0.8745
 2855SOL    HW220028   1.139   0.762  14.624 -0.0402  0.4772  1.4204
 2856SOL     OW20029   0.533   2.048  13.100 -0.3419  0.1611 -0.0746
 2856SOL    HW120030   0.602   2.112  13.084 -1.9889  2.3323  1.6343
 2856SOL    HW220031   0.450   2.092  13.082 -0.9462 -1.5612 -1.5214
 2857SOL     OW20032   0.084   2.391   7.109 -0.3056 -0.9268 -0.3107
 2857SOL    HW120033   0.045   2.401   7.021 -0.4335  1.5727  0.0161
 2857SOL    HW220034   0.084   2.296   7.120  1.5676 -0.7529  1.0973
 2858SOL     OW20035   3.422   3.921  12.769  0.4097 -0.9353  0.2231
 2858SOL    HW120036   3.445   3.914  12.862  0.2937  2.0068  0.4715
 2858SOL    HW220037   3.339   3.874  12.768 -0.1485  0.0654 -0.7892
 2859SOL     OW20038   1.486   1.391  12.499  0.1346  0.4771 -0.3274
 2859SOL    HW120039   1.423   1.439  12.445  0.5422 -0.0068 -1.2250
 2859SOL    HW220040   1.448   1.304  12.507 -0.0774  0.7860  1.9099
 2860SOL     OW20041   1.149   1.951  11.847 -0.1014 -0.3132 -0.1541
 2860SOL    HW120042   1.120   1.860  11.852 -0.7361 -0.1035 -0.1228
 2860SOL    HW220043   1.238   1.940  11.882 -0.2744  0.5515  0.5538
 2861SOL     OW20044   2.707   2.500  15.530 -0.7865 -0.0946 -0.0571
 2861SOL    HW120045   2.783   2.549  15.562 -1.2353  0.3703  0.2920
 2861SOL    HW220046   2.728   2.509  15.437 -1.1716  0.5588 -0.0812
 2862SOL     OW20047   0.243   0.492  12.597 -0.2855 -0.1321 -0.3000
 2862SOL    HW120048   0.275   0.402  12.599  2.6504  0.8670 -2.8349
 2862SOL    HW220049   0.176   0.477  12.530  1.9792 -1.0666 -2.3781
 2863SOL     OW20050   1.444   3.603   6.515  0.0615  0.0083 -0.1315
 2863SOL    HW120051   1.393   3.659   6.457 -0.5655 -0.5718 -0.1277
 2863SOL    HW220052   1.504   3.670   6.550  0.0577  0.2785 -0.6366
 2864SOL     OW20053   0.424   0.973  16.715 -0.2929  0.0019 -0.4349
 2864SOL    HW120054   0.437   0.899  16.775 -0.9177 -1.4664 -2.1180
 2864SOL    HW220055   0.483   0.947  16.644  0.0334 -1.6894  0.4487
 2865SOL     OW20056   0.269   2.245  14.166  0.3422 -0.3831  0.3040
 2865SOL    HW120057   0.294   2.153  14.162  2.6463  0.3244 -1.5559
 2865SOL    HW220058   0.185   2.251  14.120  1.7388 -0.9135 -2.3275
 2866SOL     OW20059   1.572   1.631   9.447 -0.2428  0.3621 -0.3316
 2866SOL    HW120060   1.571   1.702   9.512  0.7399 -1.6982  1.9283
 2866SOL    HW220061   1.651   1.636   9.393 -0.0940  1.1611 -0.0370
 2867SOL     OW20062   0.348   3.484   5.953  0.3461  0.1572  0.7737
 2867SOL    HW120063   0.276   3.421   5.964  0.8233 -0.7816 -1.3719
 2867SOL    HW220064   0.392   3.446   5.877  0.8871  1.8754  0.2225
 2868SOL     OW20065   3.609   1.711   2.587  0.4911 -0.1352  0.3571
 2868SOL    HW120066   3.605   1.768   2.664  1.7554  1.0064 -0.4257
 2868SOL    HW220067   3.619   1.627   2.631  2.2285  0.5276  1.2382
 2869SOL     OW20068   4.269   0.739  13.122  0.0187 -0.0863  0.1089
 2869SOL    HW120069   4.349   0.789  13.107 -0.8107  0.4289 -2.5892
 2869SOL    HW220070   4.291   0.646  13.124 -2.4138 -0.6673 -0.3575
 2870SOL     OW20071   3.815   1.527   4.492 -0.0826 -0.1838 -0.8359
 2870SOL    HW120072   3.754   1.599   4.478  2.5269  1.8533 -1.5088
 2870SOL    HW220073   3.758   1.471   4.545  1.9996  0.9087  2.5191
 2871SOL     OW20074   0.243   0.245  10.130 -0.3773  0.1405  0.0766
 2871SOL    HW120075   0.334   0.216  10.140 -1.2546 -2.9118 -0.7419
 2871SOL    HW220076   0.262   0.324  10.181  1.0761 -0.2919  0.2082
 2872SOL     OW20077   3.887   2.351   7.105 -0.2856 -0.2964  0.0386
 2872SOL    HW120078   3.852   2.403   7.177 -2.3401 -1.3434 -0.2293
 2872SOL    HW220079   3.856   2.264   7.130  0.7948 -0.3405  1.2379
 2873SOL     OW20080   3.585   3.479  17.591  0.4292  0.2794 -0.2243
 2873SOL    HW120081   3.542   3.439  17.667  1.4294  0.9764  0.7174
 2873SOL    HW220082   3.584   3.565  17.632 -3.1037  0.3989 -0.5897
 2874SOL     OW20083   4.181   1.553   4.815  0.3893 -0.7432  0.1774
 2874SOL    HW120084   4.214   1.470   4.849 -0.4604 -0.7816  0.9212
 2874SOL    HW220085   4.150   1.532   4.727  1.7649  0.2578 -0.5320
 2875SOL     OW20086   1.172   4.477   1.725  0.3988  0.1122 -0.4489
 2875SOL    HW120087   1.210   4.458   1.811 -0.9898 -0.1198  0.1236
 2875SOL    HW220088   1.077   4.468   1.733  0.5993 -1.4089  0.2975
 2876SOL     OW20089   3.769   3.240   6.190 -0.1652  0.6036 -0.1004
 2876SOL    HW120090   3.778   3.335   6.198  1.3279  0.0457  4.4555
 2876SOL    HW220091   3.743   3.215   6.278  0.2522  1.3414  0.2290
 2877SOL     OW20092   4.130   2.365   8.804 -0.0382  0.0824  0.1561
 2877SOL    HW120093   4.223   2.346   8.812 -0.7876 -2.3695  3.0178
 2877SOL    HW220094   4.130   2.434   8.738  1.4769 -1.5087 -1.4974
 2878SOL     OW20095   3.320   1.451   3.716  0.0829  0.3777 -0.2966
 2878SOL    HW120096   3.351   1.542   3.716 -2.1292  1.1204  0.0196
 2878SOL    HW220097   3.267   1.453   3.796  0.1576 -0.4518 -0.2237
 2879SOL     OW20098   0.435   0.766  16.889 -0.1163 -0.2144  0.4764
 2879SOL    HW120099   0.516   0.758  16.939  0.5863  0.1974 -0.5845
 2879SOL    HW220100   0.432   0.679  16.849  0.7414 -0.6047  1.2542
 2880SOL     OW20101   4.272   0.784   9.525  0.3870  0.4495 -0.5341
 2880SOL    HW120102   4.258   0.699   9.568  1.2645 -0.0637 -1.2643
 2880SOL    HW220103   4.366   0.780   9.509  0.2661 -2.1449 -0.5838
 2881SOL     OW20104   3.721   2.659  16.425  0.2120 -0.1382 -0.4687
 2881SOL    HW120105   3.644   2.637  16.476 -1.2799  4.1478 -0.9044
 2881SOL    HW220106   3.720   2.755  16.424  0.4073 -0.1337 -0.3551
 2882SOL     OW20107   0.435   4.186  13.605  0.8378 -0.2528  0.6481
 2882SOL    HW120108   0.451   4.258  13.543 -1.6809  0.6450  1.0391
 2882SOL    HW220109   0.366   4.134  13.564 -0.0822  0.0364  1.8314
 2883SOL     OW20110   0.001   2.835  13.883  0.0027 -0.0984 -0.2746
 2883SOL    HW120111   4.687   2.902  13.825  0.4168  0.7608  0.4452
 2883SOL    HW220112   0.082   2.874  13.915  0.0280 -0.3442 -0.0361
 2884SOL     OW20113   0.538   3.583  15.298 -0.2367  0.5661  0.3117
 2884SOL    HW120114   0.461   3.577  15.242 -1.9433 -1.9937  2.9649
 2884SOL    HW220115   0.593   3.517  15.255  0.1357  0.0496  1.5745
 2885SOL     OW20116   2.397   3.381  17.658  0.1532  0.5092  0.1993
 2885SOL    HW120117   2.361   3.470  17.651 -1.4046 -0.3173 -2.4023
 2885SOL    HW220118   2.466   3.401   0.026  1.1174 -4.0922  0.6119
 2886SOL     OW20119   0.294   0.163   6.396  0.1500 -0.4721  0.4165
 2886SOL    HW120120   0.382   0.131   6.380  0.1542  0.2617 -0.9482
 2886SOL    HW220121   0.270   0.091   6.454  2.0863 -0.3098  1.3972
 2887SOL     OW20122   3.916   2.548   0.427  0.2437  0.1056  0.2505
 2887SOL    HW120123   3.980   2.513   0.365  0.1603 -1.1970  0.8971
 2887SOL    HW220124   3.962   2.624   0.462  1.9865 -0.5897 -0.4920
 2888SOL     OW20125   2.105   0.969   8.943 -0.4558 -0.0553 -0.3223
 2888SOL    HW120126   2.094   0.993   9.036  0.2451 -1.1167  0.0247
 2888SOL    HW220127   2.135   0.880   8.957 -0.5471 -0.2422 -1.3709
 2889SOL     OW20128   1.816   2.908   4.884  0.2274  0.2157 -0.1399
 2889SOL    HW120129   1.767   2.881   4.962  0.3543  1.5250  0.3901
 2889SOL    HW220130   1.908   2.887   4.900 -0.2299  0.1744  2.4736
 2890SOL     OW20131   0.502   3.686  13.728 -0.0412 -0.1941 -0.0415
 2890SOL    HW120132   0.541   3.771  13.705  0.1583 -0.1078  0.6265
 2890SOL    HW220133   0.568   3.651  13.788 -0.8921 -1.7783 -0.0426
 2891SOL     OW20134   3.302   1.060   7.803  0.7428  0.2223  0.1262
 2891SOL    HW120135   3.371   1.025   7.747  0.6751 -0.3026  0.3731
 2891SOL    HW220136   3.328   1.037   7.892 -1.4567 -0.3263  0.6270
 2892SOL     OW20137   3.884   0.948  13.861 -0.2445  0.2774 -0.7756
 2892SOL    HW120138   3.874   0.855  13.837 -1.1100  0.1437  0.1131
 2892SOL    HW220139   3.857   0.993  13.781 -1.3097  0.8910 -0.0587
 2893SOL     OW20140   4.240   1.101   7.376  0.3623 -0.0771  0.0539
 2893SOL    HW120141   4.334   1.115   7.377  0.3983 -0.3456  0.2532
 2893SOL    HW220142   4.212   1.173   7.320  0.8067  1.3276  1.6461
 2894SOL     OW20143   2.471   4.479  11.003  0.5947  0.0295 -0.3096
 2894SOL    HW120144   2.525   4.436  11.070 -1.1461 -2.2250 -0.3452
 2894SOL    HW220145   2.495   4.432  10.923  0.1706 -0.1441 -0.3370
 2895SOL     OW20146   0.393   1.064   4.963 -0.2921 -0.3518 -0.3120
 2895SOL    HW120147   0.424   1.007   5.034 -1.0577 -0.9048 -0.4204
 2895SOL    HW220148   0.338   1.011   4.906  0.4980 -1.2587 -0.2310
 2896SOL     OW20149   1.230   2.576   1.301  1.1034 -0.2569 -0.1613
 2896SOL    HW120150   1.196   2.665   1.289 -0.8852 -0.8887  0.8795
 2896SOL    HW220151   1.199   2.530   1.223  0.5693  1.6036 -1.0534
 2897SOL     OW20152   0.268   2.834  13.907  0.4658 -0.4729  0.1879
 2897SOL    HW120153   0.296   2.926  13.905 -1.7545  0.1550 -1.2836
 2897SOL    HW220154   0.314   2.802  13.830  1.3594  0.1067  0.4679
 2898SOL     OW20155   4.208   0.375   9.274  0.2313 -0.2253  0.5221
 2898SOL    HW120156   4.172   0.331   9.196  0.2782 -0.9524  0.9057
 2898SOL    HW220157   4.296   0.340   9.258 -0.0365 -0.7816  0.2662
 2899SOL     OW20158   1.279   2.583   2.445  0.4267 -0.0447  0.3803
 2899SOL    HW120159   1.268   2.629   2.362 -0.6849 -2.4483 -0.7816
 2899SOL    HW220160   1.221   2.507   2.436 -0.1670  0.2322  1.9341
 2900SOL     OW20161   1.131   2.160   4.014  0.2529 -0.6575  0.6150
 2900SOL    HW120162   1.172   2.105   3.948  1.6016  0.7299  0.3012
 2900SOL    HW220163   1.094   2.238   3.973  0.7075 -0.1538  1.1662
 2901SOL     OW20164   0.630   1.463   0.873  0.6613  0.7565  0.4246
 2901SOL    HW120165   0.716   1.457   0.831  0.9529 -1.3634  1.3496
 2901SOL    HW220166   0.579   1.510   0.807 -0.0511 -0.8884 -0.2053
 2902SOL     OW20167   2.487   3.958   3.473 -0.8682 -0.3396 -0.3081
 2902SOL    HW120168   2.562   4.017   3.467  0.2298 -1.7688 -0.6456
 2902SOL    HW220169   2.438   3.983   3.552 -3.5903 -0.0425 -2.0774
 2903SOL     OW20170   2.642   1.594   6.446 -0.3133  0.0421 -0.3952
 2903SOL    HW120171   2.640   1.651   6.369  1.2301  0.0709 -0.4037
 2903SOL    HW220172   2.725   1.546   6.448 -0.1773  0.4202  2.3105
 2904SOL     OW20173   0.271   1.461   4.111 -0.5739  0.2160 -0.5347
 2904SOL    HW120174   0.217   1.411   4.049  1.1629 -3.3260  0.7734
 2904SOL    HW220175   0.304   1.533   4.057  0.8260 -1.5440 -2.0412
 2905SOL     OW20176   1.908   4.126  15.132  0.3907 -0.1327  0.0314
 2905SOL    HW120177   1.988   4.118  15.185 -0.3117 -1.0328  0.9602
 2905SOL    HW220178   1.903   4.046  15.080  1.4420 -1.1270  1.4614
 2906SOL     OW20179   1.421   4.019   6.716  0.0985 -0.0071 -0.1171
 2906SOL    HW120180   1.430   4.016   6.811  1.0450 -0.1611 -0.2107
 2906SOL    HW220181   1.452   3.930   6.697  1.0932 -0.1531  2.2051
 2907SOL     OW20182   0.829   3.671   2.088  0.5447 -0.6183 -0.2352
 2907SOL    HW120183   0.920   3.698   2.072 -0.0234 -0.1952 -2.7729
 2907SOL    HW220184   0.780   3.753   2.093 -1.2545 -1.8024  1.4831
 2908SOL     OW20185   2.192   3.152   4.034  0.3216  0.0768  0.1657
 2908SOL    HW120186   2.126   3.220   4.031 -1.3509 -1.3997  2.5014
 2908SOL    HW220187   2.146   3.084   3.985  0.7710  0.4819 -0.8049
 2909SOL     OW20188   4.616   1.632   5.926 -0.0212 -0.3543 -0.5976
 2909SOL    HW120189   4.643   1.722   5.947 -0.8870 -0.2717  0.1793
 2909SOL    HW220190   4.520   1.639   5.919 -0.1640  0.7206  2.0228
 2910SOL     OW20191   1.280   0.715   1.690 -0.1203 -0.0434  0.0376
 2910SOL    HW120192   1.354   0.775   1.682  0.0396 -0.3631 -0.8381
 2910SOL    HW220193   1.206   0.775   1.704  0.8484  1.3695 -0.9414
 2911SOL     OW20194   3.936   3.250   7.627  0.4854 -0.2010  0.3654
 2911SOL    HW120195   3.878   3.263   7.551  0.0177  1.8837  1.0806
 2911SOL    HW220196   3.930   3.156   7.640  0.7377 -0.9029 -4.4462
 2912SOL     OW20197   0.335   3.821   4.272 -0.0605 -0.0938 -0.2626
 2912SOL    HW120198   0.418   3.858   4.241  0.6933 -0.2242  1.5914
 2912SOL    HW220199   0.358   3.816   4.364  1.1927  1.8912 -0.4771
 2913SOL     OW20200   1.531   2.746  10.562  0.0170  0.0569 -0.2972
 2913SOL    HW120201   1.557   2.783  10.646 -3.9227  0.7789  0.5985
 2913SOL    HW220202   1.613   2.724  10.519  0.5067 -0.2872  0.8303
 2914SOL     OW20203   2.046   4.251   7.004 -0.2735  0.0880  0.1693
 2914SOL    HW120204   2.138   4.238   7.028 -0.8607 -0.3730  2.1659
 2914SOL    HW220205   2.006   4.184   7.060  0.0061  0.4044  0.7500
 2915SOL     OW20206   3.095   3.870   3.327 -0.0114 -0.0170  0.7111
 2915SOL    HW120207   3.181   3.886   3.365 -0.4126  0.6055  1.3566
 2915SOL    HW220208   3.095   3.775   3.314  0.2829 -0.0985  1.3159
 2916SOL     OW20209   2.358   4.124   2.838  0.6112 -0.1760 -0.3030
 2916SOL    HW120210   2.407   4.118   2.920  2.9699  1.4483 -1.5653
 2916SOL    HW220211   2.314   4.040   2.829  0.7249 -0.2631 -0.0604
 2917SOL     OW20212   0.765   3.965   2.316 -0.0926 -0.2444  0.3263
 2917SOL    HW120213   0.822   3.993   2.244 -0.7025  0.4257  0.1021
 2917SOL    HW220214   0.687   4.017   2.298  0.5647  1.5554  2.6918
 2918SOL     OW20215   3.320   3.526   3.975 -0.5482 -0.2551  0.4050
 2918SOL    HW120216   3.316   3.620   3.995  0.6704 -0.0569 -0.3549
 2918SOL    HW220217   3.414   3.523   3.959 -0.6387  1.0790 -0.4027
 2919SOL     OW20218   4.656   1.084   7.975 -0.4061  1.2005 -0.7778
 2919SOL    HW120219   0.002   1.057   8.036 -1.2213  1.6825  0.3694
 2919SOL    HW220220   4.673   1.030   7.898  0.9254  1.0595 -0.3868
 2920SOL     OW20221   1.414   0.680  10.639  0.2816  0.3198 -0.2375
 2920SOL    HW120222   1.323   0.649  10.638  0.6339 -0.7301  2.9969
 2920SOL    HW220223   1.425   0.708  10.548  1.0516 -2.1574 -0.9061
 2921SOL     OW20224   4.235   2.359  14.229  0.1519  0.4245 -0.5334
 2921SOL    HW120225   4.222   2.448  14.195 -1.1353 -0.2373 -1.8026
 2921SOL    HW220226   4.255   2.313  14.147  1.1158  0.0880 -0.1038
 2922SOL     OW20227   3.408   2.132  14.731  0.5781  0.3458  0.1926
 2922SOL    HW120228   3.452   2.084  14.801  2.0830 -0.3470 -1.2311
 2922SOL    HW220229   3.485   2.155  14.679  1.3100 -1.0616  0.6783
 2923SOL     OW20230   4.651   2.816   5.359  0.4983 -0.2396  0.1859
 2923SOL    HW120231   0.019   2.823   5.386  1.4779 -2.1895 -2.5279
 2923SOL    HW220232   4.618   2.759   5.429  1.1956 -3.1383 -1.8190
 2924SOL     OW20233   0.657   1.024   7.036 -0.1411  0.2644 -0.3004
 2924SOL    HW120234   0.564   1.024   7.057 -0.1111  0.5655 -0.1706
 2924SOL    HW220235   0.678   0.932   7.018 -0.6091  0.2350 -0.6982
 2925SOL     OW20236   4.477   0.310  11.400  0.2687  0.1043 -0.4293
 2925SOL    HW120237   4.383   0.308  11.418  0.0417 -1.2495 -1.6594
 2925SOL    HW220238   4.479   0.269  11.313  0.2789  0.7909 -0.7528
 2926SOL     OW20239   2.714   2.168  16.065 -0.3495 -0.5141  0.3918
 2926SOL    HW120240   2.657   2.208  16.131  0.5405  0.2536  0.6866
 2926SOL    HW220241   2.712   2.240  16.002  0.9346  0.4444  1.4312
 2927SOL     OW20242   0.515   1.473   8.434  0.4889 -0.0376  0.2222
 2927SOL    HW120243   0.536   1.427   8.353  1.8632  1.1729 -0.1147
 2927SOL    HW220244   0.549   1.560   8.416 -1.0587  0.7148  0.9397
 2928SOL     OW20245   3.486   1.347   8.508 -0.0192  0.2644  0.1481
 2928SOL    HW120246   3.453   1.437   8.508  0.4074  0.4253  1.4370
 2928SOL    HW220247   3.483   1.330   8.414 -0.3770 -0.8744  0.3733
 2929SOL     OW20248   2.258   0.554   2.679 -0.2345 -0.1439  0.4803
 2929SOL    HW120249   2.240   0.528   2.770  0.0361 -1.2069  0.2355
 2929SOL    HW220250   2.300   0.477   2.640  0.6110  0.6973 -0.2577
 2930SOL     OW20251   4.377   2.591   5.129 -0.0453 -0.3657 -0.0943
 2930SOL    HW120252   4.377   2.543   5.046 -2.0644 -1.2018  0.3698
 2930SOL    HW220253   4.405   2.524   5.192 -0.6881  0.5499  1.1528
 2931SOL     OW20254   0.829   4.393   6.243 -0.4531 -0.3031  0.4711
 2931SOL    HW120255   0.882   4.354   6.312 -0.5856  1.2289  1.4180
 2931SOL    HW220256   0.883   4.380   6.165  0.0362  0.2875  0.7165
 2932SOL     OW20257   0.724   2.464   8.804  0.2715 -0.2489 -0.9953
 2932SOL    HW120258   0.739   2.397   8.737 -1.4085 -3.9352  2.3192
 2932SOL    HW220259   0.770   2.420   8.875 -2.0467  0.3276  0.8549
 2933SOL     OW20260   0.481   3.271  10.608 -0.1276  0.4857 -0.4217
 2933SOL    HW120261   0.475   3.340  10.542 -0.6688  0.6114 -0.2437
 2933SOL    HW220262   0.538   3.207  10.566 -1.4239 -1.1715  0.3264
 2934SOL     OW20263   0.842   1.303  11.936 -0.5445  0.0510  0.3331
 2934SOL    HW120264   0.819   1.320  11.845 -2.5077  0.1905  0.8634
 2934SOL    HW220265   0.779   1.233  11.954  0.4630 -0.2754  2.6549
 2935SOL     OW20266   0.640   1.992   7.988  0.0977  0.7910 -0.0655
 2935SOL    HW120267   0.681   2.077   7.970  0.2369  0.8069  0.3239
 2935SOL    HW220268   0.546   2.003   7.976 -0.2619 -2.7376 -0.2583
 2936SOL     OW20269   0.446   4.237  10.603 -0.4700 -0.5199  0.3123
 2936SOL    HW120270   0.453   4.150  10.642 -1.1042 -0.1452  1.2599
 2936SOL    HW220271   0.376   4.268  10.661 -0.5837  0.4636 -0.3481
 2937SOL     OW20272   0.666   1.953   7.667  0.3889  0.4676  0.1398
 2937SOL    HW120273   0.657   1.953   7.762  0.5132  0.2496  0.1541
 2937SOL    HW220274   0.591   2.006   7.640 -1.3448 -2.7847 -1.4706
 2938SOL     OW20275   1.494   1.259   7.457  0.1821  0.0336  0.2904
 2938SOL    HW120276   1.545   1.288   7.533  0.4728  1.4428 -0.4591
 2938SOL    HW220277   1.553   1.285   7.387  0.8832  0.3513  1.0042
 2939SOL     OW20278   4.324   4.373   7.277 -0.3723 -0.0085  0.1686
 2939SOL    HW120279   4.353   4.364   7.187  1.2088 -2.3822  0.9293
 2939SOL    HW220280   4.346   4.466   7.285 -1.2328  0.2129  0.0366
 2940SOL     OW20281   1.237   3.287   5.347  0.0522  0.4727  0.0873
 2940SOL    HW120282   1.257   3.320   5.260  0.6474  0.9841  0.4109
 2940SOL    HW220283   1.190   3.361   5.385 -0.9690 -0.4567  0.6524
 2941SOL     OW20284   4.139   2.705   6.569 -0.4890 -0.3219 -0.2515
 2941SOL    HW120285   4.102   2.776   6.516 -0.3469  1.3173  1.8399
 2941SOL    HW220286   4.227   2.734   6.547 -0.0480 -1.9172 -0.5662
 2942SOL     OW20287   4.374   3.758   3.404 -0.5004  0.7667 -0.4642
 2942SOL    HW120288   4.382   3.684   3.465 -2.1266  1.1671  0.2152
 2942SOL    HW220289   4.295   3.737   3.355  0.0917  2.2247 -2.0268
 2943SOL     OW20290   0.301   2.326   6.878  0.0623  1.0548 -0.7092
 2943SOL    HW120291   0.396   2.322   6.865 -0.1485 -0.3517 -1.7722
 2943SOL    HW220292   0.291   2.413   6.916  0.5583  1.8172 -2.2862
 2944SOL     OW20293   3.588   3.089   5.070  0.4013  0.3309 -0.0715
 2944SOL    HW120294   3.606   3.016   5.128  1.2824 -0.4990 -1.3912
 2944SOL    HW220295   3.649   3.163   5.080  0.5490  0.3404 -0.9927
 2945SOL     OW20296   3.275   1.329   0.646 -0.4047 -0.7762 -0.3163
 2945SOL    HW120297   3.319   1.401   0.691 -1.7629 -0.7337  0.9466
 2945SOL    HW220298   3.236   1.373   0.570  0.8811 -0.2389 -0.6560
 2946SOL     OW20299   1.373   2.117   8.767  0.1105  0.2079 -0.3978
 2946SOL    HW120300   1.458   2.126   8.809 -0.3892  0.9225  0.4888
 2946SOL    HW220301   1.386   2.162   8.684  0.3603 -0.2515 -0.6016
 2947SOL     OW20302   2.870   4.699   7.907 -0.0762  0.6662 -0.3366
 2947SOL    HW120303   2.939   0.030   7.945  0.5285 -1.6167  1.8204
 2947SOL    HW220304   2.793   0.015   7.948 -0.1953  0.0198  0.0740
 2948SOL     OW20305   3.448   3.053   2.205 -0.2932 -0.1638 -0.1517
 2948SOL    HW120306   3.528   3.052   2.152  0.1755 -0.1234  0.5521
 2948SOL    HW220307   3.467   3.001   2.283  1.8369  0.4069 -0.3072
 2949SOL     OW20308   3.782   2.902  16.245  0.1981  0.1434  0.1564
 2949SOL    HW120309   3.863   2.861  16.215 -0.9237 -0.8334 -1.5374
 2949SOL    HW220310   3.741   2.902  16.158 -0.0303 -2.5744  0.2591
 2950SOL     OW20311   3.306   3.882   2.046 -0.0521 -0.0161  0.1470
 2950SOL    HW120312   3.261   3.798   2.055 -0.1955 -0.1020 -1.4398
 2950SOL    HW220313   3.391   3.848   2.020 -0.4499 -0.2582 -0.8399
 2951SOL     OW20314   2.241   4.028   1.309  0.3364  0.0065 -0.3026
 2951SOL    HW120315   2.325   4.044   1.352  0.9793  0.1461 -1.6208
 2951SOL    HW220316   2.268   4.038   1.218 -1.5554  1.7882 -0.6800
 2952SOL     OW20317   4.533   0.829  11.426 -0.2078  0.3261  0.0061
 2952SOL    HW120318   4.553   0.739  11.453 -1.8125 -0.1130 -0.3149
 2952SOL    HW220319   4.544   0.873  11.511 -0.2292  0.3939 -0.0266
 2953SOL     OW20320   2.358   3.946   2.513  0.0250  0.1416 -0.4084
 2953SOL    HW120321   2.421   3.972   2.579  0.0135 -2.1243  0.4990
 2953SOL    HW220322   2.340   4.031   2.473 -1.2794  0.6099  1.1863
 2954SOL     OW20323   2.984   3.275   6.456 -0.5486  0.2727  0.2312
 2954SOL    HW120324   2.929   3.267   6.534  1.0136  0.5568  1.3481
 2954SOL    HW220325   2.963   3.185   6.432  0.2659  0.7612 -2.3017
 2955SOL     OW20326   0.194   2.655   9.542  0.2824 -0.2886  0.2394
 2955SOL    HW120327   0.129   2.694   9.601 -0.7503  0.9062 -1.6963
 2955SOL    HW220328   0.219   2.736   9.498 -1.7222 -1.3249 -2.7941
 2956SOL     OW20329   2.464   0.621   8.386 -0.0323  0.0455  0.0034
 2956SOL    HW120330   2.500   0.573   8.461  0.0580  1.8534  1.1151
 2956SOL    HW220331   2.496   0.711   8.393  1.0357 -0.3323 -0.0025
 2957SOL     OW20332   4.461   3.863  10.409  0.0339  0.1780 -0.2749
 2957SOL    HW120333   4.424   3.950  10.420 -1.3907 -0.0751 -3.0532
 2957SOL    HW220334   4.476   3.839  10.501  1.7232  1.3927 -0.2401
 2958SOL     OW20335   1.949   1.639  15.926  0.4271 -0.2198 -0.1388
 2958SOL    HW120336   2.024   1.579  15.925 -0.2237 -1.0041 -1.3267
 2958SOL    HW220337   1.978   1.709  15.868  0.1644 -0.7129 -0.8576
 2959SOL     OW20338   1.722   2.783   1.821  0.0887 -0.5512  0.3121
 2959SOL    HW120339   1.651   2.728   1.788  0.5632 -3.7255  4.5921
 2959SOL    HW220340   1.740   2.838   1.745  2.4908 -1.8837 -0.0735
 2960SOL     OW20341   3.076   0.983   6.394 -0.4167 -0.1039  0.1569
 2960SOL    HW120342   3.154   1.003   6.342  0.0556  0.6351  1.1538
 2960SOL    HW220343   3.100   1.029   6.475  1.4489 -1.7414  0.5574
 2961SOL     OW20344   1.227   1.215  14.217  0.2239  0.0425 -0.0620
 2961SOL    HW120345   1.216   1.260  14.133  0.0624 -0.4429 -0.3036
 2961SOL    HW220346   1.262   1.287  14.269  0.9675 -1.9996  2.2689
 2962SOL     OW20347   4.635   1.555   5.200  0.0192 -0.8529 -0.4898
 2962SOL    HW120348   4.659   1.478   5.150  1.1592 -0.4461 -0.5657
 2962SOL    HW220349   4.664   1.543   5.291  0.4624  1.7561 -0.2886
 2963SOL     OW20350   0.970   1.038   8.345  0.1576 -0.1372  0.3645
 2963SOL    HW120351   1.027   1.105   8.307 -1.9668  2.5505  1.8612
 2963SOL    HW220352   0.974   1.056   8.439  0.0078  1.9839 -0.0278
 2964SOL     OW20353   4.709   2.821   9.652  0.6590 -0.3206  0.0240
 2964SOL    HW120354   0.027   2.889   9.705 -2.3930  1.6139 -0.1136
 2964SOL    HW220355   4.658   2.868   9.586  0.6837 -2.2891 -1.4019
 2965SOL     OW20356   4.558   1.259   3.754 -0.0144  0.0340 -0.2055
 2965SOL    HW120357   4.536   1.317   3.681  1.2466  0.5790 -0.1409
 2965SOL    HW220358   4.654   1.255   3.753 -0.0553 -1.3354  0.5976
 2966SOL     OW20359   1.966   1.227  11.542 -0.1042  0.3981 -0.0600
 2966SOL    HW120360   1.966   1.170  11.464 -0.0150 -0.3363  0.4757
 2966SOL    HW220361   2.058   1.252  11.538 -0.4743  1.9582  1.4821
 2967SOL     OW20362   1.517   3.777   6.771 -0.6193  0.1931 -0.5537
 2967SOL    HW120363   1.610   3.756   6.761 -0.1599  0.5960  3.0298
 2967SOL    HW220364   1.492   3.706   6.830 -0.2864  0.9092  0.4550
 2968SOL     OW20365   4.717   3.939   6.180  0.0308  0.0931 -0.0722
 2968SOL    HW120366   0.071   3.993   6.201 -0.0477 -0.0431  0.5816
 2968SOL    HW220367   0.028   3.851   6.192  0.3451 -0.2346 -3.6745
 2969SOL     OW20368   4.566   2.178   7.164  0.7070 -0.0694 -0.2861
 2969SOL    HW120369   4.655   2.155   7.193  1.2239 -0.3166 -2.0771
 2969SOL    HW220370   4.578   2.142   7.077  1.3265  0.5600 -0.4619
 2970SOL     OW20371   4.341   3.912   7.034 -0.2557  0.1275 -0.8023
 2970SOL    HW120372   4.281   3.954   6.972 -0.5179  2.2330  0.8757
 2970SOL    HW220373   4.290   3.834   7.056 -0.3302  0.2425 -0.5623
 2971SOL     OW20374   2.604   1.474   5.760  0.0593  0.1321 -0.3657
 2971SOL    HW120375   2.594   1.388   5.801  1.8554 -0.6341 -1.5251
 2971SOL    HW220376   2.698   1.482   5.772  0.2128 -3.1110  0.5832
 2972SOL     OW20377   1.538   1.174  11.844 -0.1420  0.4141  0.5262
 2972SOL    HW120378   1.443   1.170  11.835 -0.0760 -1.6126  0.6630
 2972SOL    HW220379   1.565   1.151  11.756 -1.5083 -0.9400  0.4717
 2973SOL     OW20380   3.207   1.114   6.639  0.3739 -0.3196 -0.5441
 2973SOL    HW120381   3.278   1.176   6.654 -0.3453  0.0550  1.3358
 2973SOL    HW220382   3.156   1.121   6.720 -0.2969  1.8538 -1.1463
 2974SOL     OW20383   1.456   4.485   3.329 -0.2499  1.0308  0.5167
 2974SOL    HW120384   1.386   4.506   3.266 -1.8870  1.0201  2.3419
 2974SOL    HW220385   1.511   4.561   3.308  2.6914 -0.6414  2.1943
 2975SOL     OW20386   4.199   3.192   6.765 -0.2149  0.1236 -0.1310
 2975SOL    HW120387   4.200   3.268   6.823  0.8226 -1.9534  2.6293
 2975SOL    HW220388   4.116   3.213   6.724 -1.1319  1.4616  2.4615
 2976SOL     OW20389   1.121   0.527   0.524  0.6304 -0.2570  0.1684
 2976SOL    HW120390   1.156   0.594   0.584  0.0766 -0.4376  0.6837
 2976SOL    HW220391   1.099   0.457   0.585 -0.4088  0.1665  0.2805
 2977SOL     OW20392   3.941   2.266   5.181 -0.1590  0.5769 -0.4418
 2977SOL    HW120393   3.965   2.260   5.088  0.8228 -2.2000  0.0155
 2977SOL    HW220394   3.912   2.179   5.208 -0.7203  1.2530  1.1056
 2978SOL     OW20395   2.541   1.785   4.824 -0.0543  0.2613  0.1735
 2978SOL    HW120396   2.476   1.742   4.879  0.3429 -0.6672 -0.0845
 2978SOL    HW220397   2.493   1.860   4.788 -0.9814  0.3064  1.5221
 2979SOL     OW20398   4.054   4.130   5.323 -0.2232  0.2021 -0.2888
 2979SOL    HW120399   3.963   4.117   5.352  0.2698  0.1131  1.1867
 2979SOL    HW220400   4.111   4.090   5.388  0.9209  0.5607 -1.0852
 2980SOL     OW20401   3.046   3.094   5.895 -0.0950 -0.3170  0.2782
 2980SOL    HW120402   3.014   3.123   5.809 -0.1917 -2.5384 -0.4106
 2980SOL    HW220403   3.115   3.032   5.873  1.9716  1.2695  2.3447
 2981SOL     OW20404   3.471   4.441   2.164  0.3654  0.5979  0.0121
 2981SOL    HW120405   3.427   4.463   2.082  2.8826 -0.8773 -1.7694
 2981SOL    HW220406   3.546   4.500   2.169  1.7880 -1.0110 -1.9259
 2982SOL     OW20407   2.425   0.469   2.275  0.2878  0.2782  0.2352
 2982SOL    HW120408   2.445   0.485   2.182  0.9715 -1.2120  0.1310
 2982SOL    HW220409   2.340   0.515   2.272  1.7561  3.0571  1.3657
 2983SOL     OW20410   0.698   3.278   3.312  0.3973 -0.3238  0.1498
 2983SOL    HW120411   0.749   3.359   3.319 -0.2822  0.0350  0.9229
 2983SOL    HW220412   0.690   3.273   3.217  0.6574  1.5753  0.0229
 2984SOL     OW20413   3.758   0.899   1.090 -0.0155 -0.2414  0.2257
 2984SOL    HW120414   3.809   0.859   1.019 -1.7442 -1.3857 -0.3640
 2984SOL    HW220415   3.804   0.983   1.094 -0.2574 -0.0487 -0.9332
 2985SOL     OW20416   3.886   4.647   6.228  0.2635 -0.3670 -0.1007
 2985SOL    HW120417   3.803   4.612   6.196 -0.2744  1.2173 -0.4574
 2985SOL    HW220418   3.884   0.010   6.186 -0.0038 -0.3601 -0.0783
 2986SOL     OW20419   0.013   1.377   8.539 -0.2451 -0.3466 -0.9486
 2986SOL    HW120420   4.710   1.455   8.589 -0.1166  0.4714 -2.1724
 2986SOL    HW220421   4.711   1.310   8.603 -1.8172 -0.1527 -1.3662
 2987SOL     OW20422   2.311   2.505   6.231  0.3003 -0.4644  0.0117
 2987SOL    HW120423   2.337   2.578   6.175  0.8852 -0.7103 -0.0357
 2987SOL    HW220424   2.392   2.454   6.222  0.1788 -0.6753  0.1193
 2988SOL     OW20425   2.469   3.249  11.792 -0.1351 -0.4020 -0.3268
 2988SOL    HW120426   2.558   3.215  11.787  0.6391  1.3354  1.6812
 2988SOL    HW220427   2.435   3.218  11.708 -3.6165 -0.3380  1.0637
 2989SOL     OW20428   3.231   2.573   6.152  0.0473 -0.0433  0.3535
 2989SOL    HW120429   3.305   2.512   6.158 -0.0876 -0.2142  0.2969
 2989SOL    HW220430   3.174   2.535   6.219  0.7551  0.2440  1.1107
 2990SOL     OW20431   2.529   1.736  15.838 -0.1061 -0.1002 -0.7490
 2990SOL    HW120432   2.592   1.794  15.795  2.0829 -1.1425  1.1062
 2990SOL    HW220433   2.553   1.651  15.803 -0.0058 -0.7152  0.8613
 2991SOL     OW20434   1.604   1.222   5.468  0.2824  0.1790  0.0927
 2991SOL    HW120435   1.628   1.222   5.376 -0.7709  0.0263 -0.1806
 2991SOL    HW220436   1.665   1.155   5.500  0.5515  0.2479 -0.2835
 2992SOL     OW20437   2.591   3.098   5.858  0.6259  0.1667 -0.1321
 2992SOL    HW120438   2.662   3.141   5.905 -0.3662  1.0963  0.5060
 2992SOL    HW220439   2.619   3.108   5.766 -0.8117  2.1716 -0.3425
 2993SOL     OW20440   3.926   1.832   2.795  0.0650  0.0218  0.4777
 2993SOL    HW120441   3.961   1.863   2.711 -2.1768  0.3451 -0.3383
 2993SOL    HW220442   3.957   1.742   2.793  2.2123  0.7666 -0.9984
 2994SOL     OW20443   3.650   4.364   7.656  0.3531  0.5926 -0.1479
 2994SOL    HW120444   3.582   4.303   7.627  1.5362 -0.3378 -0.9578
 2994SOL    HW220445   3.624   4.447   7.615 -0.5577  0.1963 -0.3757
 2995SOL     OW20446   4.625   4.013   4.748 -0.6047 -0.0485 -0.0497
 2995SOL    HW120447   4.590   4.078   4.687 -2.7136 -2.6135 -1.5702
 2995SOL    HW220448   4.563   4.017   4.821 -0.5475 -0.8327  0.0431
 2996SOL     OW20449   1.488   4.623   8.692  0.5949  0.5291 -0.2178
 2996SOL    HW120450   1.557   4.644   8.628  0.3749 -3.0427 -1.6423
 2996SOL    HW220451   1.520   4.672   8.767 -1.0529  1.7612 -0.3288
 2997SOL     OW20452   1.531   1.891   7.614  0.0226  0.6522 -0.1911
 2997SOL    HW120453   1.493   1.805   7.631  0.8379  0.5516  1.1064
 2997SOL    HW220454   1.511   1.903   7.521  1.7953  1.0213 -0.5343
 2998SOL     OW20455   3.180   1.967   0.282 -0.0994  0.0512  0.1181
 2998SOL    HW120456   3.131   1.885   0.294 -0.7312  0.1209 -1.9944
 2998SOL    HW220457   3.243   1.963   0.354 -0.2994  0.6885  0.3208
 2999SOL     OW20458   4.386   1.566  10.789  0.5459 -0.5806 -0.2703
 2999SOL    HW120459   4.421   1.526  10.869 -3.2137 -0.2000  1.5184
 2999SOL    HW220460   4.328   1.495  10.762 -0.2659 -0.5227  1.3426
 3000SOL     OW20461   3.765   3.338   2.492  0.0228 -0.1202 -0.3900
 3000SOL    HW120462   3.676   3.337   2.456  1.0092  1.7754 -2.7835
 3000SOL    HW220463   3.773   3.433   2.496 -1.6687  0.0451 -0.8552
 3001SOL     OW20464   3.326   3.684   7.353  0.3288  0.0594 -0.6511
 3001SOL    HW120465   3.282   3.614   7.305 -1.3223 -0.9382  2.2642
 3001SOL    HW220466   3.417   3.655   7.358  0.8762  1.5560 -2.2019
 3002SOL     OW20467   4.036   3.839   5.159 -0.1295  0.6199  0.0493
 3002SOL    HW120468   3.959   3.787   5.135 -0.8670  2.1894 -0.9931
 3002SOL    HW220469   3.983   3.914   5.185  2.0065  2.5726 -1.1745
 3003SOL     OW20470   3.619   3.523   9.092  0.6645  0.4257  0.2323
 3003SOL    HW120471   3.553   3.552   9.155  0.5709 -0.9311  0.7413
 3003SOL    HW220472   3.663   3.449   9.133  0.3135  0.8281  1.3268
 3004SOL     OW20473   4.398   4.339   7.863  0.1603 -0.0146  0.4136
 3004SOL    HW120474   4.313   4.300   7.841 -2.6815  4.2557  3.7248
 3004SOL    HW220475   4.419   4.274   7.930  0.0830  1.0123  1.4346
 3005SOL     OW20476   2.009   2.391   6.704  0.2539  0.2840  0.5819
 3005SOL    HW120477   1.968   2.416   6.621  1.3944  0.9776  0.2350
 3005SOL    HW220478   2.094   2.361   6.673 -1.1409 -2.4747 -0.6506
 3006SOL     OW20479   0.713   4.221   7.883 -0.1887  0.5847 -0.0742
 3006SOL    HW120480   0.648   4.288   7.863  0.2194  1.2951  0.9692
 3006SOL    HW220481   0.772   4.256   7.951  0.5754 -3.0761  1.1448
 3007SOL     OW20482   4.207   3.953   8.357  0.3435  0.0768 -0.2983
 3007SOL    HW120483   4.255   3.988   8.432 -0.3977 -1.2702  0.8055
 3007SOL    HW220484   4.126   4.003   8.348 -0.6133 -1.6369 -1.1285
 3008SOL     OW20485   1.352   3.126   4.100  0.0309 -0.5600  0.0148
 3008SOL    HW120486   1.277   3.099   4.047 -0.6028  1.0875  0.0952
 3008SOL    HW220487   1.305   3.170   4.170 -0.1078 -0.1409 -0.3410
 3009SOL     OW20488   1.913   0.757   9.247  0.6236  0.4203  0.0105
 3009SOL    HW120489   1.870   0.843   9.248 -0.6730 -0.2080 -1.2674
 3009SOL    HW220490   1.865   0.705   9.311 -2.0959  2.7904 -0.1163
 3010SOL     OW20491   1.244   4.254   9.464  0.4178 -0.2905  0.2187
 3010SOL    HW120492   1.276   4.284   9.378 -0.2061 -0.6003 -0.1238
 3010SOL    HW220493   1.183   4.321   9.495  1.3050  0.1022  1.1207
 3011SOL     OW20494   0.264   1.941  13.158 -0.3608 -0.3876 -0.1814
 3011SOL    HW120495   0.225   1.987  13.233  0.1186 -0.4472  0.1050
 3011SOL    HW220496   0.355   1.966  13.169 -0.4332  0.0923 -0.6784
 3012SOL     OW20497   0.524   2.025   6.921  0.2205  0.4266  0.1796
 3012SOL    HW120498   0.433   2.019   6.894  0.5631  0.5519 -0.9935
 3012SOL    HW220499   0.555   1.935   6.904 -1.0035  0.0643 -0.1405
 3013SOL     OW20500   4.131   4.024   4.649  0.3813 -0.6431 -0.1035
 3013SOL    HW120501   4.125   3.933   4.679  1.4762 -0.3471  1.0137
 3013SOL    HW220502   4.039   4.032   4.625 -0.1294 -0.5129  1.8892
 3014SOL     OW20503   4.035   2.760   0.555 -0.3732  0.3057  0.2385
 3014SOL    HW120504   4.126   2.789   0.561 -0.2400 -0.1008  0.1591
 3014SOL    HW220505   4.008   2.747   0.646 -0.7791 -0.8862 -0.0473
 3015SOL     OW20506   3.904   2.595   6.246 -0.2805 -0.4369 -0.4356
 3015SOL    HW120507   3.848   2.641   6.308  0.6057  0.8415 -0.5903
 3015SOL    HW220508   3.982   2.650   6.256 -0.2526 -0.5841  0.1198
 3016SOL     OW20509   1.725   1.341   1.447 -0.6845  0.3991 -0.5837
 3016SOL    HW120510   1.820   1.337   1.450 -0.7796 -1.4714 -0.2778
 3016SOL    HW220511   1.703   1.402   1.376  0.6708 -2.2345 -3.2982
 3017SOL     OW20512   0.158   2.206   9.715 -0.0660 -0.5023  0.3685
 3017SOL    HW120513   0.111   2.148   9.655 -1.2493  1.9684 -1.0713
 3017SOL    HW220514   0.109   2.288   9.720  1.4461  0.5432 -2.3338
 3018SOL     OW20515   4.274   3.040   5.212 -0.3501 -0.0413 -0.1046
 3018SOL    HW120516   4.335   3.025   5.284  1.6298  1.5003 -1.4801
 3018SOL    HW220517   4.238   2.951   5.222 -3.2056  0.8803 -2.1246
 3019SOL     OW20518   1.008   2.621  11.264  0.6415 -0.4615  0.0577
 3019SOL    HW120519   1.057   2.702  11.275  1.0811 -0.4304 -2.1908
 3019SOL    HW220520   0.940   2.652  11.205  0.6694 -0.0871  0.2232
 3020SOL     OW20521   1.163   0.636   1.446 -0.2145 -0.0166 -0.1418
 3020SOL    HW120522   1.182   0.543   1.442 -2.2932 -0.3784 -1.6807
 3020SOL    HW220523   1.226   0.659   1.514  0.7593 -1.3084 -0.6128
 3021SOL     OW20524   1.051   1.604  10.756 -0.8096 -0.1552  0.4616
 3021SOL    HW120525   1.046   1.699  10.758 -0.3302 -0.1441  1.0832
 3021SOL    HW220526   1.011   1.594  10.843 -3.8235  0.9438 -0.7921
 3022SOL     OW20527   4.698   1.374   5.908 -0.3824 -0.0872 -0.5533
 3022SOL    HW120528   4.669   1.465   5.912  0.8087  0.1161  4.0471
 3022SOL    HW220529   0.069   1.389   5.899 -0.3945 -0.6819 -1.6469
 3023SOL     OW20530   3.726   4.274   3.082  0.3691  0.5177  0.0506
 3023SOL    HW120531   3.673   4.353   3.078  0.1596  0.3629 -0.2238
 3023SOL    HW220532   3.719   4.248   2.990  1.2583 -2.3692  0.8171
 3024SOL     OW20533   1.614   3.948   3.149  0.9274 -0.3631  0.0947
 3024SOL    HW120534   1.579   3.972   3.063  0.1263  2.0058  1.0790
 3024SOL    HW220535   1.709   3.944   3.136  0.8305 -0.2338 -0.6914
 3025SOL     OW20536   2.428   3.448   7.097  0.6260 -0.2992  0.0200
 3025SOL    HW120537   2.400   3.430   7.186 -0.5947  0.1933 -0.2562
 3025SOL    HW220538   2.370   3.395   7.042 -0.5699  0.0252  0.9792
 3026SOL     OW20539   4.442   2.170   2.771 -0.6484  0.4012 -0.3802
 3026SOL    HW120540   4.357   2.162   2.727 -0.1406 -1.3270 -1.0659
 3026SOL    HW220541   4.476   2.257   2.751 -0.5431  0.4620  0.0636
 3027SOL     OW20542   2.337   4.367   7.300 -0.7157  0.2947 -0.3265
 3027SOL    HW120543   2.282   4.441   7.326  0.1777 -0.0341  2.5995
 3027SOL    HW220544   2.422   4.407   7.284  0.3469 -1.3364  1.2102
 3028SOL     OW20545   4.531   3.704  16.500 -0.0354  0.1301  0.1580
 3028SOL    HW120546   4.486   3.778  16.540  1.0594  1.5133 -1.2200
 3028SOL    HW220547   4.601   3.697  16.564  1.1357 -1.1674 -1.2616
 3029SOL     OW20548   2.236   0.657   0.858  0.0326 -0.6505 -0.2782
 3029SOL    HW120549   2.297   0.668   0.931 -0.1380  1.4455 -0.4494
 3029SOL    HW220550   2.308   0.643   0.796  1.8801 -0.6302  1.8840
 3030SOL     OW20551   0.584   4.340  15.341 -0.2336  0.1478 -0.4143
 3030SOL    HW120552   0.613   4.414  15.393 -0.5375 -1.3302  1.8936
 3030SOL    HW220553   0.532   4.392  15.281 -0.8726 -1.1865 -1.0284
 3031SOL     OW20554   2.705   2.433   4.713 -0.0265 -0.4484 -0.2419
 3031SOL    HW120555   2.705   2.391   4.627 -0.0704  0.2372 -0.5796
 3031SOL    HW220556   2.638   2.385   4.762 -0.0374  1.2925  1.4607
 3032SOL     OW20557   4.166   1.972  16.523 -0.1470 -0.3921 -0.6281
 3032SOL    HW120558   4.186   1.946  16.433  2.3453 -1.0869  0.1195
 3032SOL    HW220559   4.078   2.004  16.508 -0.3917 -0.7802 -0.0317
 3033SOL     OW20560   2.708   0.846   5.641  0.7096  0.0678 -0.4611
 3033SOL    HW120561   2.691   0.801   5.724  2.3236  2.2168  1.0241
 3033SOL    HW220562   2.623   0.858   5.598  1.9803  0.2717 -2.9498
 3034SOL     OW20563   0.224   2.141   4.036 -0.0319  0.2971  0.6807
 3034SOL    HW120564   0.298   2.174   3.985 -1.2569  0.1743 -1.2150
 3034SOL    HW220565   0.160   2.120   3.968  0.5459  0.1028  0.2013
 3035SOL     OW20566   3.856   3.900   7.700  0.2626  0.1214  0.5058
 3035SOL    HW120567   3.904   3.821   7.676 -0.9911 -0.0434 -1.4139
 3035SOL    HW220568   3.909   3.908   7.780 -0.0681 -0.9786  0.8413
 3036SOL     OW20569   0.154   2.953   2.301 -0.1558 -0.2774  0.2790
 3036SOL    HW120570   0.145   3.048   2.292  0.6963 -0.3659 -1.4485
 3036SOL    HW220571   0.088   2.924   2.238  0.9880  2.0769 -2.0155
 3037SOL     OW20572   4.169   4.213   5.081  0.3732 -0.5029 -0.1824
 3037SOL    HW120573   4.141   4.196   5.171  0.8580 -1.0784 -0.1396
 3037SOL    HW220574   4.117   4.146   5.037 -1.9398  1.0624  0.1491
 3038SOL     OW20575   3.408   1.953   0.448  0.0092 -0.8894  0.0516
 3038SOL    HW120576   3.442   2.033   0.408  1.0117 -0.5744  1.5460
 3038SOL    HW220577   3.495   1.920   0.470 -0.3482 -0.6592  1.8178
 3039SOL     OW20578   2.020   2.253   3.067  0.4889 -0.3713 -0.6536
 3039SOL    HW120579   2.037   2.328   3.009 -0.3623 -0.6237 -1.2201
 3039SOL    HW220580   1.925   2.259   3.077  0.6360  0.0638  0.5129
 3040SOL     OW20581   4.148   3.213  11.467  0.2518 -0.1949  0.1854
 3040SOL    HW120582   4.149   3.298  11.510  0.2035 -0.7503  1.2720
 3040SOL    HW220583   4.054   3.207  11.447  0.0058  1.0824  0.9485
 3041SOL     OW20584   4.288   2.842   0.600 -0.2590  0.0840  0.4749
 3041SOL    HW120585   4.351   2.914   0.600 -0.3450  0.1673 -0.4261
 3041SOL    HW220586   4.300   2.821   0.692  3.0953  0.2365  0.0716
 3042SOL     OW20587   1.730   0.342   2.634  0.2005  0.2187  0.3011
 3042SOL    HW120588   1.654   0.356   2.691  0.1137 -0.6931  0.4192
 3042SOL    HW220589   1.778   0.418   2.667  1.1929 -1.3769  2.5480
 3043SOL     OW20590   1.319   3.154  11.866  0.0413 -0.3415 -0.0679
 3043SOL    HW120591   1.395   3.200  11.830  0.3351 -1.0519 -0.3659
 3043SOL    HW220592   1.258   3.227  11.874  0.7643  0.3564 -0.9015
 3044SOL     OW20593   0.156   0.084   1.423  0.3526  0.4555 -0.0055
 3044SOL    HW120594   0.199   0.068   1.508 -0.9589  1.0284  0.7663
 3044SOL    HW220595   0.068   0.047   1.427  0.5971 -0.4283 -2.8420
 3045SOL     OW20596   0.217   1.749   4.802  0.4755  0.4036  0.2668
 3045SOL    HW120597   0.274   1.673   4.791 -1.0131 -0.6060 -0.4989
 3045SOL    HW220598   0.208   1.771   4.709 -0.3517  2.1896  0.7653
 3046SOL     OW20599   0.597   2.314   7.592 -0.1192 -0.7559  0.3220
 3046SOL    HW120600   0.566   2.378   7.528  1.3804 -1.1031 -0.7537
 3046SOL    HW220601   0.556   2.234   7.559  1.4503 -0.9624 -1.1268
 3047SOL     OW20602   2.369   1.211   3.144  0.4856 -0.2051 -0.7188
 3047SOL    HW120603   2.417   1.129   3.139  2.1462  0.6765  0.8142
 3047SOL    HW220604   2.449   1.263   3.140  0.4743 -0.2372 -1.3534
 3048SOL     OW20605   1.170   3.158  14.759  0.0431 -0.1440  0.3532
 3048SOL    HW120606   1.126   3.086  14.804 -0.3242 -0.0767  0.0988
 3048SOL    HW220607   1.094   3.200  14.719  1.5965  0.1866 -2.2222
 3049SOL     OW20608   1.723   1.276   5.211 -0.0174  0.3676 -0.3284
 3049SOL    HW120609   1.760   1.242   5.130 -1.3350  1.1873 -1.2658
 3049SOL    HW220610   1.779   1.353   5.222  0.6932 -0.3855  1.3043
 3050SOL     OW20611   0.993   2.989  17.071 -0.4248  0.3547 -0.3672
 3050SOL    HW120612   0.916   3.041  17.091  0.3445  2.0326 -1.7329
 3050SOL    HW220613   0.958   2.943  16.995 -1.7509  0.7781 -0.0039
 3051SOL     OW20614   4.683   4.427   7.886  0.1423 -0.4550  0.3557
 3051SOL    HW120615   4.602   4.386   7.855 -0.8320  0.4571  1.7086
 3051SOL    HW220616   4.672   4.518   7.856  0.1295  0.1354  2.1657
 3052SOL     OW20617   2.455   1.267  17.272 -0.4371 -0.0774  0.0560
 3052SOL    HW120618   2.531   1.227  17.314  0.1783  0.8814 -0.1463
 3052SOL    HW220619   2.492   1.348  17.238  0.3607 -0.4891 -0.0581
 3053SOL     OW20620   3.826   0.108   6.791  0.1279 -0.2420 -0.1775
 3053SOL    HW120621   3.759   0.042   6.773  0.4788 -1.1454  1.8246
 3053SOL    HW220622   3.782   0.170   6.733 -1.9408 -0.1858  1.4528
 3054SOL     OW20623   3.240   2.857   1.330 -0.3966  0.1749 -0.2992
 3054SOL    HW120624   3.192   2.802   1.268  1.8475  0.0537 -1.9152
 3054SOL    HW220625   3.329   2.852   1.298 -0.4979 -1.4704 -0.3337
 3055SOL     OW20626   3.590   2.206  12.255  0.0217 -0.2123 -0.1681
 3055SOL    HW120627   3.583   2.295  12.291  0.4420 -0.1593 -0.2095
 3055SOL    HW220628   3.500   2.180  12.273 -0.8192  2.3729 -0.5508
 3056SOL     OW20629   4.532   2.986  13.698 -0.2114  0.2904  0.1988
 3056SOL    HW120630   4.533   2.895  13.668  0.2978  0.9354 -1.7921
 3056SOL    HW220631   4.496   3.031  13.621  1.1490  2.1367  0.6278
 3057SOL     OW20632   3.887   1.243   8.870  0.7450 -0.0576 -0.1197
 3057SOL    HW120633   3.875   1.211   8.781 -1.9388 -2.2105  1.0365
 3057SOL    HW220634   3.911   1.164   8.919  0.4665  0.3770  0.7066
 3058SOL     OW20635   2.481   0.184   0.110  0.3575 -0.3241  0.0588
 3058SOL    HW120636   2.538   0.257   0.086  1.4075 -0.9270  0.6912
 3058SOL    HW220637   2.402   0.237   0.117  0.8807  0.4621 -0.0208
 3059SOL     OW20638   2.301   4.613   5.156  0.1820  0.4407  0.2357
 3059SOL    HW120639   2.232   4.664   5.115  1.4113  0.9121 -1.2793
 3059SOL    HW220640   2.315   4.551   5.084 -1.3752  0.6123 -0.2062
 3060SOL     OW20641   4.097   3.101   5.452 -0.1503 -0.4626  0.1014
 3060SOL    HW120642   4.161   3.087   5.382 -0.8863  2.2733 -1.1176
 3060SOL    HW220643   4.147   3.162   5.506  0.6070 -0.0624 -1.0557
 3061SOL     OW20644   2.009   0.822  13.833  0.2385  0.0059  0.7210
 3061SOL    HW120645   2.080   0.881  13.808 -0.4060  0.0543 -0.9745
 3061SOL    HW220646   2.055   0.743  13.859 -0.3874  0.2541  2.5633
 3062SOL     OW20647   3.298   1.620   9.068  0.3439  0.3207  0.1065
 3062SOL    HW120648   3.234   1.573   9.015  1.3862  2.5917 -3.1112
 3062SOL    HW220649   3.314   1.554   9.136 -3.4942  0.3399  1.0518
 3063SOL     OW20650   3.913   0.436   5.443  0.0995  0.2321 -0.1492
 3063SOL    HW120651   3.969   0.396   5.377 -1.5996  0.8211 -1.9382
 3063SOL    HW220652   3.922   0.528   5.418 -1.0374  0.7946  1.4923
 3064SOL     OW20653   4.416   3.601   5.022  0.3134  0.5426  0.1423
 3064SOL    HW120654   4.355   3.547   4.971 -0.5478  1.1120  0.5661
 3064SOL    HW220655   4.366   3.683   5.021  0.2506  0.4941 -1.0939
 3065SOL     OW20656   2.391   1.523  14.496 -0.2591 -0.4247 -0.2445
 3065SOL    HW120657   2.324   1.540  14.563  0.0671  0.1215 -0.0617
 3065SOL    HW220658   2.440   1.603  14.511  1.4406 -1.7235  1.1386
 3066SOL     OW20659   0.369   2.633  17.481  0.0451 -0.2720 -0.4789
 3066SOL    HW120660   0.315   2.644  17.404  1.7042  0.9486 -1.4709
 3066SOL    HW220661   0.323   2.564  17.529 -0.1263  0.5172  0.4869
 3067SOL     OW20662   3.009   0.536   4.434  0.0952  0.2220  0.0137
 3067SOL    HW120663   2.914   0.537   4.424  0.0596  1.9974  0.4670
 3067SOL    HW220664   3.028   0.443   4.422 -0.2540  0.2144 -0.4918
 3068SOL     OW20665   3.637   3.772   5.939  0.1263 -0.2572 -0.0186
 3068SOL    HW120666   3.607   3.707   6.002 -1.9195  1.3267  0.6320
 3068SOL    HW220667   3.716   3.797   5.988 -1.0943  0.7974  1.4118
 3069SOL     OW20668   0.298   3.964  12.432 -0.7318  0.1699  0.1468
 3069SOL    HW120669   0.359   3.958  12.506  0.7440 -1.6719 -1.2230
 3069SOL    HW220670   0.226   3.912  12.466 -1.0841 -0.2272 -1.2203
 3070SOL     OW20671   2.650   2.043   8.633 -0.0864 -0.3608  0.2875
 3070SOL    HW120672   2.720   2.064   8.695  2.9478 -2.4404 -2.4285
 3070SOL    HW220673   2.608   1.970   8.679 -1.5686 -0.0318 -0.5556
 3071SOL     OW20674   4.632   2.237  14.907  0.2038 -0.1320  0.1867
 3071SOL    HW120675   4.594   2.319  14.876  0.2512  0.3209  1.3115
 3071SOL    HW220676   4.657   2.254  14.998  0.4308 -2.2860  0.5437
 3072SOL     OW20677   3.261   4.461   1.971 -0.1656  0.1122 -0.0206
 3072SOL    HW120678   3.215   4.502   1.897  0.1295  2.2221  0.9756
 3072SOL    HW220679   3.201   4.484   2.042 -1.8867 -0.1039 -1.4029
 3073SOL     OW20680   0.503   4.583  16.207 -0.1487 -0.1444  0.5680
 3073SOL    HW120681   0.451   4.506  16.183  2.9447 -1.8970 -0.4752
 3073SOL    HW220682   0.469   4.604  16.294 -0.5084  1.6057  0.0012
 3074SOL     OW20683   2.786   2.077   3.180  0.4835  0.7064 -0.1307
 3074SOL    HW120684   2.847   2.096   3.109 -1.7707  0.0482 -2.2298
 3074SOL    HW220685   2.709   2.092   3.126 -0.9874 -1.0264  1.4826
 3075SOL     OW20686   3.545   3.561   6.853 -0.0481 -0.3758 -0.0434
 3075SOL    HW120687   3.519   3.528   6.766 -0.3909  0.8340 -0.4059
 3075SOL    HW220688   3.639   3.565   6.838  0.3643  0.6490  3.0282
 3076SOL     OW20689   1.020   3.886   5.795 -0.7968  0.1907 -0.2474
 3076SOL    HW120690   0.994   3.811   5.742  0.9036 -0.9212  0.4942
 3076SOL    HW220691   1.055   3.838   5.870  0.1041  2.3562  0.7195
 3077SOL     OW20692   0.363   2.236   9.491 -0.3979  0.0952 -0.1768
 3077SOL    HW120693   0.334   2.216   9.580 -0.0940 -3.3540 -0.8731
 3077SOL    HW220694   0.366   2.332   9.500  1.6559  0.1194 -1.1140
 3078SOL     OW20695   3.573   3.835   1.998 -0.2940 -0.1944  0.4097
 3078SOL    HW120696   3.637   3.766   1.981  0.6949  1.2866 -1.8580
 3078SOL    HW220697   3.628   3.906   1.967  1.4611 -1.4093  0.7448
 3079SOL     OW20698   2.739   2.056   1.690 -0.0431  0.2872  0.1428
 3079SOL    HW120699   2.660   2.108   1.673  0.0063  0.4657  0.4663
 3079SOL    HW220700   2.814   2.112   1.668  0.9018 -0.3530  1.7574
 3080SOL     OW20701   3.513   4.238   0.148 -0.3754  0.5058 -0.2160
 3080SOL    HW120702   3.603   4.272   0.147 -0.7369  1.4585 -0.4449
 3080SOL    HW220703   3.508   4.205   0.238 -0.4557  0.3321 -0.2854
 3081SOL     OW20704   3.965   1.702  12.878 -0.4081 -0.0626  0.3288
 3081SOL    HW120705   3.998   1.684  12.966 -0.0591  1.1662  0.4401
 3081SOL    HW220706   3.982   1.623  12.826 -0.6493  0.6790 -0.8600
 3082SOL     OW20707   3.661   3.634   5.373  0.3104 -0.5824  0.0724
 3082SOL    HW120708   3.606   3.712   5.382  1.1256 -0.2069  1.8200
 3082SOL    HW220709   3.714   3.634   5.453 -0.4674  1.0586  0.5897
 3083SOL     OW20710   4.062   0.181   6.441 -0.8141 -0.4970 -0.1780
 3083SOL    HW120711   3.986   0.213   6.392  0.7231  1.1383 -1.4655
 3083SOL    HW220712   4.114   0.261   6.448 -1.9441  0.2348  0.0088
 3084SOL     OW20713   1.269   0.947   0.363 -0.2931  0.7096 -0.8456
 3084SOL    HW120714   1.183   0.929   0.400  0.4270 -1.4429 -0.2248
 3084SOL    HW220715   1.268   1.043   0.365 -0.0276  0.6947  0.0910
 3085SOL     OW20716   1.292   1.099   4.352 -0.1819 -0.5682 -0.0566
 3085SOL    HW120717   1.256   1.021   4.392 -0.5009  0.2506  1.2595
 3085SOL    HW220718   1.301   1.056   4.267  1.5596  0.0904 -0.2094
 3086SOL     OW20719   0.636   2.070   4.528  1.1012  0.6574 -0.5681
 3086SOL    HW120720   0.690   2.146   4.549 -0.1647  1.5946 -0.7045
 3086SOL    HW220721   0.698   2.025   4.470 -0.3523  0.4474 -1.9412
 3087SOL     OW20722   4.274   0.860  10.192  1.0178 -0.3538 -0.4006
 3087SOL    HW120723   4.190   0.867  10.148  1.9809 -0.2087 -2.2226
 3087SOL    HW220724   4.251   0.787  10.248  0.8749 -0.3054 -0.3966
 3088SOL     OW20725   3.865   1.709   8.017  0.0128  0.4083 -0.0413
 3088SOL    HW120726   3.818   1.787   8.045 -0.5718  0.6971 -1.7940
 3088SOL    HW220727   3.955   1.741   8.004  1.6797 -3.0575  2.9981
 3089SOL     OW20728   3.143   0.117  15.103  0.5681  0.2708  0.3801
 3089SOL    HW120729   3.205   0.177  15.146 -2.0656  0.9700  3.1696
 3089SOL    HW220730   3.072   0.178  15.086 -0.6772 -1.0786  0.7887
 3090SOL     OW20731   3.681   2.784   3.165  0.7473  0.4664  0.2817
 3090SOL    HW120732   3.683   2.784   3.261 -2.4416  2.1956  0.3697
 3090SOL    HW220733   3.599   2.831   3.148  1.0411  1.4259  1.5216
 3091SOL     OW20734   3.817   3.974   5.616  0.2809  0.5116 -0.0331
 3091SOL    HW120735   3.724   3.981   5.594  1.1126  1.8761 -3.0238
 3091SOL    HW220736   3.840   4.066   5.600 -0.3428  0.8108  0.7335
 3092SOL     OW20737   1.109   0.711   6.080 -0.3692  0.2962  0.6058
 3092SOL    HW120738   1.147   0.780   6.026 -0.8480 -1.0867 -1.5083
 3092SOL    HW220739   1.023   0.711   6.038 -0.3209  0.3628  0.5068
 3093SOL     OW20740   1.008   1.376   4.286 -0.0543  0.2887  0.0444
 3093SOL    HW120741   0.952   1.319   4.339  1.2462 -0.5376  0.5129
 3093SOL    HW220742   0.937   1.427   4.246  1.8155  2.5169 -0.4003
 3094SOL     OW20743   4.439   1.860  16.940 -0.1830 -0.0727 -0.4973
 3094SOL    HW120744   4.400   1.886  16.857 -0.5320  1.0173  0.0059
 3094SOL    HW220745   4.386   1.784  16.964  2.4294 -1.3086  1.3536
 3095SOL     OW20746   0.753   0.525   5.077  0.4694  0.4184 -0.4580
 3095SOL    HW120747   0.679   0.554   5.130  2.1734  2.2475  0.8899
 3095SOL    HW220748   0.793   0.601   5.035  2.0908  0.0060  0.3711
 3096SOL     OW20749   3.081   2.119  13.274 -0.2610  1.0889 -0.0055
 3096SOL    HW120750   3.046   2.208  13.268 -0.7398  0.9432  0.6102
 3096SOL    HW220751   3.004   2.068  13.249 -0.3599  0.5503  1.3770
 3097SOL     OW20752   2.769   3.563   9.599 -0.0014  0.0867 -0.1784
 3097SOL    HW120753   2.847   3.509   9.612  0.6368  1.4007  1.3213
 3097SOL    HW220754   2.708   3.531   9.666  0.9760 -0.8988  0.2542
 3098SOL     OW20755   0.636   0.199   3.487  0.3880 -0.6162  0.3901
 3098SOL    HW120756   0.631   0.244   3.403  0.2197 -0.3266  0.5554
 3098SOL    HW220757   0.728   0.185   3.509  0.6530 -0.6053 -0.7360
 3099SOL     OW20758   1.443   3.631  17.251 -0.5639  0.2555 -0.7702
 3099SOL    HW120759   1.439   3.552  17.306  1.5786  1.3222  0.9397
 3099SOL    HW220760   1.536   3.639  17.229 -0.7638  1.7048 -1.0632
 3100SOL     OW20761   0.022   1.706   4.422  0.1027  0.0428 -0.2339
 3100SOL    HW120762   0.008   1.762   4.346 -0.7832  0.9979  0.6173
 3100SOL    HW220763   0.114   1.719   4.446 -0.2801 -1.7730  2.3504
 3101SOL     OW20764   2.167   2.457  16.414 -0.5514 -0.1822 -0.5659
 3101SOL    HW120765   2.088   2.448  16.361 -0.0923 -0.5727 -1.1937
 3101SOL    HW220766   2.133   2.510  16.485 -3.2106 -0.0175 -1.9647
 3102SOL     OW20767   3.489   3.528   8.449 -0.2567 -0.0163  0.2779
 3102SOL    HW120768   3.469   3.480   8.368  1.1780 -1.0253  0.5359
 3102SOL    HW220769   3.575   3.562   8.425  0.0213 -1.0751 -0.2169
 3103SOL     OW20770   2.897   4.277   2.088  0.0780 -0.0219  0.0837
 3103SOL    HW120771   2.936   4.365   2.089  1.4289 -0.6257  0.5359
 3103SOL    HW220772   2.954   4.223   2.034  0.6395  0.1937  0.4593
 3104SOL     OW20773   2.360   0.681  16.424  0.2504 -0.2941  0.3605
 3104SOL    HW120774   2.441   0.700  16.473  0.2597  1.5575 -0.3643
 3104SOL    HW220775   2.317   0.761  16.456 -0.2063 -1.4042  2.5408
 3105SOL     OW20776   3.361   0.019   5.843  0.9243  0.0255 -0.1826
 3105SOL    HW120777   3.426   0.087   5.823  0.2693  0.0400 -2.2713
 3105SOL    HW220778   3.421   4.684   5.889 -0.1563  0.1985  1.4758
 3106SOL     OW20779   3.344   0.527   9.821 -0.2827 -0.0790 -0.5073
 3106SOL    HW120780   3.313   0.604   9.868  0.6451  0.2563 -0.4453
 3106SOL    HW220781   3.371   0.475   9.897 -0.3603  0.5323 -0.0660
 3107SOL     OW20782   3.367   1.475   8.050  0.3904  0.3112  0.0768
 3107SOL    HW120783   3.275   1.449   8.054  0.1662  1.2371  1.2729
 3107SOL    HW220784   3.364   1.559   8.005  0.4081 -1.3338 -2.9974
 3108SOL     OW20785   3.283   4.566   3.118  0.1461 -0.0526 -0.4536
 3108SOL    HW120786   3.251   4.476   3.114  1.3980 -0.5582  0.9770
 3108SOL    HW220787   3.222   4.598   3.051 -1.5204  0.4506  1.3335
 3109SOL     OW20788   0.050   1.890  14.704  0.1369  0.3068  0.3460
 3109SOL    HW120789   0.108   1.962  14.729 -0.0636  0.5114  0.2180
 3109SOL    HW220790   4.688   1.928  14.722  0.6067  0.8637  1.3979
 3110SOL     OW20791   3.676   2.162   4.481 -0.5983  0.5989 -0.5167
 3110SOL    HW120792   3.628   2.177   4.400  3.9473  2.4242 -2.8506
 3110SOL    HW220793   3.598   2.166   4.537  0.4126  0.8653  0.8739
 3111SOL     OW20794   1.942   2.900   8.853  0.0647  0.2748 -0.1871
 3111SOL    HW120795   1.987   2.984   8.847  0.4729 -0.1355 -3.2251
 3111SOL    HW220796   1.883   2.906   8.778  0.9684 -1.9292 -1.0950
 3112SOL     OW20797   0.534   2.542  16.980 -0.7221 -0.2422 -0.2598
 3112SOL    HW120798   0.562   2.508  17.065 -0.7376  0.5472  0.0664
 3112SOL    HW220799   0.442   2.518  16.986 -0.5984 -0.3795  1.0847
 3113SOL     OW20800   0.824   2.429   7.679  0.7865 -0.3073 -0.0703
 3113SOL    HW120801   0.895   2.409   7.617 -1.7959 -3.7034 -1.9181
 3113SOL    HW220802   0.758   2.366   7.649  0.2913  0.5053 -0.6934
 3114SOL     OW20803   1.153   0.281  16.505  0.6070 -0.0637  0.3651
 3114SOL    HW120804   1.221   0.219  16.532  0.0957 -1.2950 -1.1843
 3114SOL    HW220805   1.198   0.360  16.476 -0.5449  0.6885  0.6619
 3115SOL     OW20806   3.449   2.054   1.841  0.7828 -0.2965  0.1987
 3115SOL    HW120807   3.360   2.076   1.813  0.4050 -0.6077  1.1273
 3115SOL    HW220808   3.436   1.967   1.880  1.0113 -0.3100  0.2426
 3116SOL     OW20809   2.058   2.647   3.372 -0.3562 -1.0476 -0.0297
 3116SOL    HW120810   1.981   2.612   3.326  0.2224 -0.2128 -1.6253
 3116SOL    HW220811   2.051   2.598   3.455 -0.3506 -1.2893 -0.1711
 3117SOL     OW20812   0.789   1.591   8.997 -0.0788 -0.3381  0.3703
 3117SOL    HW120813   0.696   1.588   9.017 -0.3783 -1.3814 -1.1942
 3117SOL    HW220814   0.817   1.664   9.052 -1.9340  0.4576  0.2253
 3118SOL     OW20815   0.345   0.276   5.847 -0.2125  0.3467 -0.1540
 3118SOL    HW120816   0.376   0.186   5.831 -2.2289 -0.3113 -0.4161
 3118SOL    HW220817   0.339   0.268   5.942  0.9218 -0.9334 -0.1839
 3119SOL     OW20818   4.168   4.542   8.101 -0.1515  0.0726 -0.3672
 3119SOL    HW120819   4.186   4.450   8.082 -0.4641  0.5624 -3.0677
 3119SOL    HW220820   4.247   4.573   8.145 -0.5853 -1.7036  1.6316
 3120SOL     OW20821   1.592   0.133  13.313  0.1441 -0.2268 -0.2400
 3120SOL    HW120822   1.637   0.063  13.266 -0.7582 -0.0058 -1.4323
 3120SOL    HW220823   1.502   0.117  13.286 -0.2845 -1.6176  2.0541
 3121SOL     OW20824   3.062   2.761   2.858  0.2844  0.0430 -0.2905
 3121SOL    HW120825   3.006   2.839   2.855  0.9278  0.4613 -1.8044
 3121SOL    HW220826   3.122   2.782   2.786 -0.8155  0.6406 -1.0396
 3122SOL     OW20827   2.192   2.763   1.889  0.6738  0.4252 -0.5685
 3122SOL    HW120828   2.236   2.703   1.828  1.0079  0.6179 -0.5210
 3122SOL    HW220829   2.234   2.848   1.873  3.3703 -0.5084  1.4202
 3123SOL     OW20830   2.332   1.594   9.438 -0.9405 -0.0991 -0.4100
 3123SOL    HW120831   2.403   1.561   9.493 -0.4152 -0.5326 -1.3490
 3123SOL    HW220832   2.266   1.536   9.478 -1.0279  0.1277 -0.2238
 3124SOL     OW20833   2.543   0.370   7.018 -0.0094  0.6855  0.2373
 3124SOL    HW120834   2.562   0.388   6.926 -1.1493  1.1811  0.1024
 3124SOL    HW220835   2.585   0.442   7.065 -0.1639 -0.2264  1.7999
 3125SOL     OW20836   1.478   4.089   1.348  0.1432 -0.1442  0.1193
 3125SOL    HW120837   1.399   4.036   1.338 -0.3607  0.7444 -0.6554
 3125SOL    HW220838   1.538   4.032   1.396  0.7287  0.9389  0.6848
 3126SOL     OW20839   4.226   3.086   2.346  0.2796 -0.1487  0.3988
 3126SOL    HW120840   4.294   3.130   2.295  0.4264  1.6431  2.1233
 3126SOL    HW220841   4.192   3.170   2.376  0.5190  0.9162 -2.3316
 3127SOL     OW20842   1.870   1.570   1.101 -0.2276 -0.3182 -0.2874
 3127SOL    HW120843   1.849   1.639   1.039 -0.0019 -0.6445 -0.7246
 3127SOL    HW220844   1.966   1.581   1.104 -0.1778 -1.0129  0.9022
 3128SOL     OW20845   2.277   0.611   5.399  0.1245 -0.3843  0.0756
 3128SOL    HW120846   2.198   0.610   5.346  0.6697  1.6820 -0.7534
 3128SOL    HW220847   2.261   0.553   5.474  0.5187  1.6362  1.7145
 3129SOL     OW20848   0.330   3.113   5.820 -0.0001 -0.1379  0.8090
 3129SOL    HW120849   0.404   3.173   5.816  0.4851 -1.0100 -3.5620
 3129SOL    HW220850   0.291   3.153   5.742 -0.7380 -3.3898 -0.4872
 3130SOL     OW20851   3.612   2.309   0.993 -1.4821  0.7578  0.6276
 3130SOL    HW120852   3.532   2.272   0.956 -0.5877  0.3735 -0.8972
 3130SOL    HW220853   3.685   2.255   0.964 -1.2265  1.4007  0.0654
 3131SOL     OW20854   3.744   1.145   6.619  0.1633 -0.3883  0.1051
 3131SOL    HW120855   3.807   1.082   6.653  1.1080  0.1904 -0.5732
 3131SOL    HW220856   3.759   1.216   6.682 -0.5623 -1.1185  1.1053
 3132SOL     OW20857   3.337   4.203   9.023 -0.1826 -0.1322 -0.3042
 3132SOL    HW120858   3.343   4.108   9.008  0.5911  0.1731 -1.8826
 3132SOL    HW220859   3.251   4.204   9.065 -0.1815  2.8246 -0.4246
 3133SOL     OW20860   4.651   1.923   5.491  0.0521 -0.2771 -0.5286
 3133SOL    HW120861   4.622   1.864   5.421  0.0255 -1.9801  0.9109
 3133SOL    HW220862   4.578   1.928   5.553 -0.5210  1.3224 -1.3516
 3134SOL     OW20863   2.784   0.725  13.906 -0.1403 -0.2770 -0.0873
 3134SOL    HW120864   2.702   0.690  13.871  0.6658 -1.0166 -1.2276
 3134SOL    HW220865   2.830   0.641  13.910 -1.2651 -0.9691 -1.2962
 3135SOL     OW20866   0.782   3.576   5.703  0.0659  0.5320  0.3630
 3135SOL    HW120867   0.810   3.570   5.794 -2.9384 -0.1978  1.2403
 3135SOL    HW220868   0.858   3.612   5.658 -0.6471 -0.5385 -1.7173
 3136SOL     OW20869   1.726   2.994   1.039  0.3743  0.3303 -0.3767
 3136SOL    HW120870   1.791   2.980   0.969  0.3041  1.4049 -0.6536
 3136SOL    HW220871   1.687   3.078   1.015  2.2408  1.4572  0.5365
 3137SOL     OW20872   3.536   2.787   4.525 -0.0558 -0.2004  0.0495
 3137SOL    HW120873   3.580   2.730   4.588 -1.0059  0.0797  0.9597
 3137SOL    HW220874   3.610   2.789   4.463 -1.4891  1.5707 -1.6251
 3138SOL     OW20875   0.906   0.628  10.306 -0.0362  0.3393 -0.8594
 3138SOL    HW120876   0.830   0.633  10.363  0.1281 -1.9286 -0.4541
 3138SOL    HW220877   0.969   0.677  10.360 -0.7446 -0.3648  0.6032
 3139SOL     OW20878   4.566   1.620   9.641 -0.7149 -0.0579  0.2947
 3139SOL    HW120879   4.575   1.543   9.586  0.4425 -0.9617  1.7336
 3139SOL    HW220880   4.590   1.578   9.724  0.5855  2.4435  1.1947
 3140SOL     OW20881   1.114   1.268   2.106  0.0351 -0.2307  0.3244
 3140SOL    HW120882   1.175   1.282   2.179  0.5842 -0.0379 -0.1715
 3140SOL    HW220883   1.040   1.313   2.146  0.7340  1.7998 -0.6480
 3141SOL     OW20884   0.566   1.419  12.763 -0.6005  0.1882 -0.2667
 3141SOL    HW120885   0.541   1.330  12.742 -1.4304  0.2910  0.2864
 3141SOL    HW220886   0.492   1.465  12.725  0.9081  3.6337  0.9176
 3142SOL     OW20887   3.365   2.066  11.816 -0.4057 -0.5046  0.8662
 3142SOL    HW120888   3.335   1.975  11.812 -0.6834 -0.3998  0.5377
 3142SOL    HW220889   3.420   2.067  11.738 -1.9334  1.1296 -0.1980
 3143SOL     OW20890   2.650   2.031   9.360 -0.4656  0.0178 -0.3336
 3143SOL    HW120891   2.663   1.945   9.399 -1.0730 -0.4881 -1.2483
 3143SOL    HW220892   2.559   2.035   9.332 -0.5105  2.0684  0.1452
 3144SOL     OW20893   3.032   3.833   7.803 -0.0289  0.0472  0.6667
 3144SOL    HW120894   3.064   3.923   7.803  1.7494 -0.5872 -1.6708
 3144SOL    HW220895   3.119   3.793   7.801 -0.5021 -0.8552 -2.9692
 3145SOL     OW20896   1.610   3.609   3.635  0.2159 -0.2108  0.0531
 3145SOL    HW120897   1.544   3.590   3.702 -0.6607 -0.1403 -0.7888
 3145SOL    HW220898   1.662   3.668   3.690 -1.7112  0.8341  0.7719
 3146SOL     OW20899   4.119   1.767   3.808  0.0818  0.1925  0.0126
 3146SOL    HW120900   4.132   1.673   3.818  0.7310  0.1439 -1.3800
 3146SOL    HW220901   4.050   1.757   3.743 -1.3609 -0.8573  1.7162
 3147SOL     OW20902   3.340   0.727   2.802 -0.1532  0.2490  0.1918
 3147SOL    HW120903   3.310   0.727   2.711  0.3886  1.1369  0.0098
 3147SOL    HW220904   3.390   0.646   2.799  0.6921  0.7011  2.2433
 3148SOL     OW20905   3.926   0.088   0.225  0.3856  0.9655 -0.0930
 3148SOL    HW120906   3.958   0.162   0.173  2.1510  0.1752 -0.1403
 3148SOL    HW220907   3.859   0.131   0.278 -0.1267  0.2713 -0.1641
 3149SOL     OW20908   4.005   3.521   5.709 -0.0485 -0.3444  0.7348
 3149SOL    HW120909   3.920   3.523   5.665  1.7408 -0.4888 -2.7130
 3149SOL    HW220910   3.997   3.488   5.798  1.0204 -2.1105  0.1774
 3150SOL     OW20911   4.486   0.923   4.587  0.4862 -0.4087  0.0244
 3150SOL    HW120912   4.448   0.991   4.643  1.7670  0.7364 -0.4980
 3150SOL    HW220913   4.492   0.972   4.505  0.3623 -2.4962 -1.2414
 3151SOL     OW20914   2.968   1.236   3.894  0.2848 -0.5721 -0.3246
 3151SOL    HW120915   2.952   1.325   3.862 -0.9392 -1.1304 -1.2293
 3151SOL    HW220916   3.043   1.256   3.950  0.6234 -2.7720 -0.0066
 3152SOL     OW20917   1.389   2.080   1.421  0.1862 -0.4065 -0.1318
 3152SOL    HW120918   1.392   2.171   1.450 -1.7919 -0.3108 -0.1648
 3152SOL    HW220919   1.404   2.036   1.504 -2.2362  0.0081  0.5343
 3153SOL     OW20920   0.609   2.497   1.568  0.5634 -0.3905 -0.0327
 3153SOL    HW120921   0.594   2.403   1.572 -0.3304 -0.3446 -1.9867
 3153SOL    HW220922   0.544   2.519   1.501 -0.2168 -0.6220  0.6563
 3154SOL     OW20923   1.382   4.471  13.273 -0.0461  0.6850 -0.5164
 3154SOL    HW120924   1.401   4.513  13.189  0.7924  0.2129 -0.5620
 3154SOL    HW220925   1.287   4.462  13.260  0.2702 -2.7240 -0.4779
 3155SOL     OW20926   0.477   3.523  13.026 -0.3598  0.3291  0.2928
 3155SOL    HW120927   0.570   3.508  13.010 -0.5680  0.5234 -1.0874
 3155SOL    HW220928   0.483   3.560  13.115  1.2079 -3.7432  1.8797
 3156SOL     OW20929   2.602   2.003   5.013 -0.5227  0.0242  0.4430
 3156SOL    HW120930   2.602   1.919   5.060 -0.2682 -0.1615  0.1149
 3156SOL    HW220931   2.508   2.020   5.016 -0.3455  1.4863 -2.3260
 3157SOL     OW20932   2.907   3.275  15.149 -0.3266  1.1164  0.8096
 3157SOL    HW120933   2.973   3.286  15.218 -0.1576  2.3163  0.4615
 3157SOL    HW220934   2.950   3.233  15.075 -3.7792 -2.3619  0.8054
 3158SOL     OW20935   0.344   1.100   3.416 -0.2776  0.2354  0.1762
 3158SOL    HW120936   0.317   1.009   3.429 -0.6896  0.1741 -1.0868
 3158SOL    HW220937   0.426   1.101   3.465  0.9284  0.6492 -1.8389
 3159SOL     OW20938   0.907   2.696  17.675  0.3175  0.4624 -0.1691
 3159SOL    HW120939   0.844   2.634   0.019  1.9450 -1.1446 -0.0917
 3159SOL    HW220940   0.864   2.695  17.590  2.7644  0.5163 -1.3791
 3160SOL     OW20941   1.529   0.732   3.115  0.3393 -0.3745  0.2416
 3160SOL    HW120942   1.444   0.689   3.130  1.2439 -1.3413  2.4727
 3160SOL    HW220943   1.497   0.821   3.103 -0.7120 -0.5824  1.5339
 3161SOL     OW20944   1.104   0.818   5.109 -0.2461  0.1862 -0.5595
 3161SOL    HW120945   1.036   0.777   5.056 -0.4314  1.0367 -0.9862
 3161SOL    HW220946   1.174   0.758   5.081  0.1999  0.8206 -0.8324
 3162SOL     OW20947   1.492   0.362  12.708  0.1366 -0.1167  0.3185
 3162SOL    HW120948   1.549   0.432  12.677 -0.8868  1.8809  2.9912
 3162SOL    HW220949   1.553   0.305  12.756  0.0071  1.7528  2.7104
 3163SOL     OW20950   3.012   1.811  16.370  0.9226 -0.1197  0.2586
 3163SOL    HW120951   2.990   1.728  16.329  0.2987 -0.0040  0.3541
 3163SOL    HW220952   2.973   1.865  16.300 -1.7276 -1.4138  0.7299
 3164SOL     OW20953   4.526   1.563  16.155  0.2696 -0.4573 -0.1028
 3164SOL    HW120954   4.527   1.517  16.239  1.7111  0.8048  0.5796
 3164SOL    HW220955   4.585   1.507  16.104  0.2454 -0.4890 -0.0960
 3165SOL     OW20956   3.663   4.013   7.453  0.3057 -0.4124 -0.1027
 3165SOL    HW120957   3.573   4.004   7.486  0.1344 -2.7102 -1.1826
 3165SOL    HW220958   3.696   3.933   7.494 -0.3062 -0.7325 -0.2260
 3166SOL     OW20959   2.554   3.022   9.690 -0.0468  0.1248 -0.6123
 3166SOL    HW120960   2.499   2.949   9.661 -0.2274  0.1866 -0.4275
 3166SOL    HW220961   2.567   2.986   9.778  3.2058  1.3315 -0.6202
 3167SOL     OW20962   4.576   0.493   5.995 -0.6805  0.4723  0.2307
 3167SOL    HW120963   4.597   0.586   6.002 -0.6883  0.6955 -2.6758
 3167SOL    HW220964   4.627   0.469   6.072  0.8232  0.3912 -0.7882
 3168SOL     OW20965   2.103   0.616  13.974 -0.0957  0.3795  0.6218
 3168SOL    HW120966   2.082   0.529  13.942  2.5779 -0.2670  0.6190
 3168SOL    HW220967   2.185   0.591  14.018 -0.4551 -0.1150  1.0071
 3169SOL     OW20968   3.224   0.524   7.834 -0.3890  0.4187  0.3559
 3169SOL    HW120969   3.203   0.476   7.915 -1.0254 -0.2816 -0.2136
 3169SOL    HW220970   3.291   0.586   7.862 -0.2519  0.3645  0.1392
 3170SOL     OW20971   3.167   1.257  17.653 -0.4204 -0.3231 -0.0336
 3170SOL    HW120972   3.148   1.163  17.660 -1.0821 -0.2346 -0.7689
 3170SOL    HW220973   3.242   1.281   0.013 -1.9453  0.7347  1.6003
 3171SOL     OW20974   1.394   2.448   4.065  0.7633 -0.3660 -0.0079
 3171SOL    HW120975   1.366   2.419   3.978  2.0775 -0.8080 -0.2853
 3171SOL    HW220976   1.311   2.475   4.103  1.4473  2.4842 -0.5184
 3172SOL     OW20977   3.473   4.466  17.671 -0.2441 -0.3657 -0.2668
 3172SOL    HW120978   3.472   4.389   0.034  4.0089 -0.4203 -0.3118
 3172SOL    HW220979   3.543   4.438  17.612 -1.0731 -2.1332 -0.4443
 3173SOL     OW20980   2.864   2.861   3.371  0.3813 -0.4471 -0.1734
 3173SOL    HW120981   2.805   2.876   3.297  1.1212  0.5652 -0.5480
 3173SOL    HW220982   2.929   2.808   3.325  0.5034  0.3774 -0.9370
 3174SOL     OW20983   0.887   1.141   7.158  0.2630  0.3368 -0.3343
 3174SOL    HW120984   0.803   1.101   7.140 -0.2937  0.8633  1.1107
 3174SOL    HW220985   0.856   1.215   7.211 -1.1089  0.1019 -0.8281
 3175SOL     OW20986   3.375   2.435   3.609 -0.0455 -0.8825 -0.3252
 3175SOL    HW120987   3.346   2.525   3.593  1.6317 -0.4699 -1.0135
 3175SOL    HW220988   3.457   2.440   3.560 -0.9958 -0.6345 -1.9053
 3176SOL     OW20989   2.158   0.438   5.595 -0.0226  0.2528 -0.2589
 3176SOL    HW120990   2.080   0.393   5.560 -0.9121  3.0247 -1.8042
 3176SOL    HW220991   2.213   0.368   5.630  2.2010  1.8160 -0.6412
 3177SOL     OW20992   1.465   4.193   6.500  0.2139 -0.0704 -0.5012
 3177SOL    HW120993   1.528   4.123   6.482 -1.3049 -0.8574 -2.8367
 3177SOL    HW220994   1.418   4.152   6.572  1.6755  1.2079  1.1544
 3178SOL     OW20995   3.622   3.590   2.780 -0.7614  0.7162 -0.1912
 3178SOL    HW120996   3.655   3.606   2.691 -0.1401 -0.3738 -0.1598
 3178SOL    HW220997   3.535   3.627   2.765 -2.2150 -1.9295  1.9701
 3179SOL     OW20998   0.453   0.593  14.778 -0.4026 -0.4001 -0.0534
 3179SOL    HW120999   0.398   0.533  14.829 -0.6697  2.0187  2.5328
 3179SOL    HW221000   0.406   0.676  14.787  0.5987 -0.2058  3.6162
 3180SOL     OW21001   0.814   2.443  14.904  0.9844 -0.2464 -0.3623
 3180SOL    HW121002   0.770   2.527  14.916  0.3414 -0.3484 -1.9698
 3180SOL    HW221003   0.856   2.428  14.989  1.9272  2.7811 -0.3191
 3181SOL     OW21004   4.123   2.249  14.461 -0.4876 -0.1849 -0.1210
 3181SOL    HW121005   4.182   2.288  14.396 -0.6122 -1.8502 -1.2702
 3181SOL    HW221006   4.132   2.156  14.436 -0.2247  0.0386 -0.8798
 3182SOL     OW21007   1.565   0.687   5.096  0.1418  0.3323 -0.1514
 3182SOL    HW121008   1.472   0.677   5.077 -0.3810 -1.2824  3.3349
 3182SOL    HW221009   1.593   0.607   5.052 -1.4647 -0.7648  0.8158
 3183SOL     OW21010   3.904   3.192  15.744 -0.0414  0.1554 -0.3505
 3183SOL    HW121011   3.859   3.253  15.802  0.3950  0.5186 -0.3926
 3183SOL    HW221012   3.835   3.129  15.723  0.4099 -0.7083  0.7436
 3184SOL     OW21013   0.454   1.749  14.515  0.7365 -0.1774  0.5575
 3184SOL    HW121014   0.488   1.795  14.438 -2.3538 -0.5403 -1.0496
 3184SOL    HW221015   0.360   1.755  14.497  1.1999  0.3631 -1.7475
 3185SOL     OW21016   0.267   1.936  16.958 -0.3183  0.3959 -0.3793
 3185SOL    HW121017   0.299   1.907  17.043 -0.1236 -0.2396 -0.6714
 3185SOL    HW221018   0.172   1.921  16.964 -0.1470 -0.2234  0.8331
 3186SOL     OW21019   4.426   0.767   2.960  0.3372  0.3656  0.9396
 3186SOL    HW121020   4.427   0.862   2.950  0.1265  0.1672 -0.8088
 3186SOL    HW221021   4.466   0.765   3.048  0.6697  1.0954  0.8124
 3187SOL     OW21022   1.098   4.689   4.745 -0.1811  0.1406  0.5143
 3187SOL    HW121023   1.102   4.610   4.798 -0.6408 -1.7258 -2.2632
 3187SOL    HW221024   1.018   4.688   4.693 -0.9147  1.3010  1.6244
 3188SOL     OW21025   2.673   2.373  17.295  0.5833 -0.1561  0.2932
 3188SOL    HW121026   2.654   2.467  17.294  2.4467  0.2311  2.9282
 3188SOL    HW221027   2.766   2.367  17.316  1.1139  0.7786 -1.7689
 3189SOL     OW21028   3.365   4.281  17.326  0.2183 -0.3177 -0.4733
 3189SOL    HW121029   3.358   4.229  17.246 -1.7204 -0.5255 -0.1615
 3189SOL    HW221030   3.459   4.299  17.335 -0.3079  0.9337  2.2731
 3190SOL     OW21031   4.063   3.423   4.066  0.0490  0.1413 -0.2216
 3190SOL    HW121032   4.146   3.465   4.048  1.2506 -2.6334 -1.2217
 3190SOL    HW221033   4.059   3.349   4.005 -0.2996  0.3237 -0.4239
 3191SOL     OW21034   1.122   1.084   5.653  0.1309  0.4601 -0.2140
 3191SOL    HW121035   1.189   1.134   5.607  0.4408  1.2609  1.0903
 3191SOL    HW221036   1.061   1.143   5.697  1.2512  1.4647  0.0040
 3192SOL     OW21037   1.266   4.311   1.233 -0.2831  0.3722  0.5909
 3192SOL    HW121038   1.193   4.359   1.195  0.7999  1.3832 -0.2254
 3192SOL    HW221039   1.226   4.225   1.235  0.5306 -0.0516 -1.1704
 3193SOL     OW21040   0.763   2.620   1.161 -0.1474  0.3646  0.1034
 3193SOL    HW121041   0.761   2.538   1.112 -0.0618 -0.0022  0.7104
 3193SOL    HW221042   0.713   2.671   1.098  1.9288  0.1741 -1.7013
 3194SOL     OW21043   4.006   2.847   4.047 -0.0924  0.0600  0.1626
 3194SOL    HW121044   3.934   2.890   4.001 -0.0172  0.7672  0.7116
 3194SOL    HW221045   3.956   2.779   4.092  2.7491 -0.3547  2.6783
 3195SOL     OW21046   1.137   0.967   3.955 -0.1936 -0.0029  0.4855
 3195SOL    HW121047   1.153   0.938   4.044 -1.9323 -2.6131 -0.0561
 3195SOL    HW221048   1.214   0.932   3.910 -1.2254 -0.6512 -0.7950
 3196SOL     OW21049   4.303   2.862   2.541  0.1258 -0.7136 -0.1547
 3196SOL    HW121050   4.300   2.881   2.447  0.0375  1.9855  0.3976
 3196SOL    HW221051   4.209   2.879   2.555 -0.2157 -1.9226 -1.0101
 3197SOL     OW21052   1.139   2.097   3.028  0.0089  0.4880  0.0838
 3197SOL    HW121053   1.148   2.157   3.101 -0.7627 -0.0401  0.6046
 3197SOL    HW221054   1.078   2.031   3.060  1.7722 -1.7242 -1.1393
 3198SOL     OW21055   3.969   4.596   2.303 -0.4300 -0.1211  0.2674
 3198SOL    HW121056   4.001   4.506   2.309 -1.6703 -0.6916 -1.9280
 3198SOL    HW221057   3.895   4.593   2.364 -0.5053 -1.0872  0.1276
 3199SOL     OW21058   0.098   3.296   2.944 -0.1606  0.2938 -0.2996
 3199SOL    HW121059   0.144   3.376   2.919 -0.7731  0.9129  0.5414
 3199SOL    HW221060   0.149   3.255   3.014 -0.0444 -0.9364 -1.1037
 3200SOL     OW21061   4.384   2.284   4.442  0.1062  0.0707  0.1442
 3200SOL    HW121062   4.333   2.212   4.478  2.1972 -0.5335  1.9120
 3200SOL    HW221063   4.314   2.349   4.449  1.2211  0.8686  4.4197
 3201SOL     OW21064   3.332   0.059   4.641 -0.2966 -0.1218  0.2360
 3201SOL    HW121065   3.293   4.698   4.618  0.7967 -0.2712 -1.0360
 3201SOL    HW221066   3.258   0.116   4.622 -1.8097 -2.1700 -0.0472
 3202SOL     OW21067   1.447   0.302   2.721  0.0884 -0.4088 -0.1109
 3202SOL    HW121068   1.366   0.263   2.688  1.3611 -2.3791 -0.8910
 3202SOL    HW221069   1.470   0.375   2.663  0.3390 -0.0548  0.4332
 3203SOL     OW21070   2.050   4.437  11.627  0.2605 -0.2226  0.5360
 3203SOL    HW121071   2.144   4.439  11.645  0.0075 -1.1482  1.9314
 3203SOL    HW221072   2.017   4.376  11.693  1.5229 -0.0307  1.3515
 3204SOL     OW21073   4.593   3.977  15.244  0.7661 -0.5024  0.7618
 3204SOL    HW121074   4.515   4.009  15.199  0.9111  1.5590  1.9734
 3204SOL    HW221075   4.662   4.034  15.210  2.9004 -1.4634  3.4259
 3205SOL     OW21076   0.835   1.250   6.022 -0.3257 -0.4387  0.0841
 3205SOL    HW121077   0.802   1.317   5.963 -0.0476 -0.7390 -0.4076
 3205SOL    HW221078   0.856   1.183   5.957  0.1439 -0.4497  0.2457
 3206SOL     OW21079   1.170   1.974   5.663  0.1981  0.4715 -0.0172
 3206SOL    HW121080   1.131   2.000   5.580 -0.0964  1.1531  0.3317
 3206SOL    HW221081   1.176   1.879   5.650  0.8591  0.3781  0.9384
 3207SOL     OW21082   2.622   0.352  13.916 -0.4470  0.0857 -0.0410
 3207SOL    HW121083   2.540   0.324  13.957 -0.8517  1.7620  0.2889
 3207SOL    HW221084   2.672   0.317  13.989  3.4490  0.7133 -2.4224
 3208SOL     OW21085   2.321   3.734   3.366 -0.0644 -0.3993 -0.1094
 3208SOL    HW121086   2.358   3.734   3.278 -0.0325  0.5461 -0.0964
 3208SOL    HW221087   2.373   3.808   3.400  1.8352 -1.0238 -1.6600
 3209SOL     OW21088   1.685   2.101   2.433 -0.1806  0.8991 -0.2073
 3209SOL    HW121089   1.761   2.056   2.469  0.8078  3.0528  0.3943
 3209SOL    HW221090   1.719   2.187   2.406 -3.2973  2.0528 -0.5581
 3210SOL     OW21091   0.227   1.140   6.433 -0.3082  0.1232 -0.1142
 3210SOL    HW121092   0.322   1.143   6.420 -0.1193 -0.8621  1.0399
 3210SOL    HW221093   0.194   1.213   6.381  1.1561  0.0323 -1.2004
 3211SOL     OW21094   3.405   4.053   3.725  0.1522  0.0733  0.1498
 3211SOL    HW121095   3.376   4.107   3.799 -0.7040  0.2943 -0.3529
 3211SOL    HW221096   3.501   4.054   3.734  0.2036  0.6106 -0.4827
 3212SOL     OW21097   0.631   3.333   2.064  0.1757  0.1837 -0.1357
 3212SOL    HW121098   0.603   3.424   2.065 -0.2704  0.0695 -1.5640
 3212SOL    HW221099   0.548   3.301   2.028  0.9880 -0.2445 -1.6553
 3213SOL     OW21100   1.589   2.494   6.327 -0.5543  0.0046 -0.3269
 3213SOL    HW121101   1.641   2.573   6.337 -1.7185  0.5685  1.1854
 3213SOL    HW221102   1.612   2.478   6.235  1.3881 -0.5923  0.2668
 3214SOL     OW21103   3.605   0.837   6.718 -0.1056  0.5085 -0.8162
 3214SOL    HW121104   3.677   0.782   6.688 -0.3672 -0.0528 -0.4081
 3214SOL    HW221105   3.550   0.826   6.641  1.0236  0.3872 -1.6029
 3215SOL     OW21106   1.724   3.229  13.787 -0.3989  0.1479  0.0609
 3215SOL    HW121107   1.775   3.297  13.743 -0.8873  1.1205  0.9774
 3215SOL    HW221108   1.668   3.283  13.843  1.3843 -0.3294  2.3254
 3216SOL     OW21109   3.918   0.702   3.373 -0.1353  0.1781 -0.2110
 3216SOL    HW121110   4.009   0.686   3.351 -0.0309 -0.5368  0.7509
 3216SOL    HW221111   3.870   0.627   3.337 -0.9573  0.9878 -0.8132
 3217SOL     OW21112   1.548   1.895   0.479  1.1574 -0.3201  0.4397
 3217SOL    HW121113   1.561   1.828   0.546  0.4248  0.1300  1.0296
 3217SOL    HW221114   1.460   1.872   0.448  0.9678 -0.3269  0.9859
 3218SOL     OW21115   2.817   1.210   3.496  0.4387 -0.2415 -0.6450
 3218SOL    HW121116   2.847   1.185   3.583 -1.5882  0.5974  0.3081
 3218SOL    HW221117   2.891   1.255   3.455  1.7108 -1.0904  0.7281
 3219SOL     OW21118   1.430   3.971  17.478 -0.0276  0.2100 -0.0840
 3219SOL    HW121119   1.456   3.908  17.545  0.3169 -0.1309 -0.5337
 3219SOL    HW221120   1.486   4.049  17.489  2.8449 -1.9961  0.8855
 3220SOL     OW21121   1.495   3.611   3.366  0.4873  0.6403 -0.2215
 3220SOL    HW121122   1.500   3.649   3.453  0.7562 -0.8619  0.4156
 3220SOL    HW221123   1.431   3.667   3.320 -2.0554 -1.1128  1.1962
 3221SOL     OW21124   0.116   3.812   4.507  0.5569  0.0460 -0.3354
 3221SOL    HW121125   0.105   3.796   4.601 -0.7888  0.5685 -0.4196
 3221SOL    HW221126   0.209   3.834   4.503  0.6907 -0.3547  0.4903
 3222SOL     OW21127   2.069   2.372   0.222  0.3458  0.1971  0.3589
 3222SOL    HW121128   1.983   2.336   0.199 -1.1789  3.8743  0.2671
 3222SOL    HW221129   2.098   2.312   0.291 -2.1172 -1.9641 -0.4853
 3223SOL     OW21130   4.623   3.207  11.554  0.7137  0.3291  0.0921
 3223SOL    HW121131   4.597   3.249  11.472 -1.5627 -0.3910  0.4409
 3223SOL    HW221132   4.678   3.278  11.586 -0.9180  1.9564 -0.6870
 3224SOL     OW21133   3.210   1.714   9.331  0.4861 -0.3250  0.8600
 3224SOL    HW121134   3.153   1.790   9.340 -0.6081 -1.0310 -0.2174
 3224SOL    HW221135   3.215   1.697   9.237 -1.3967  0.2147  0.6703
 3225SOL     OW21136   4.466   0.887   2.252  0.0563 -0.5730  0.4565
 3225SOL    HW121137   4.415   0.891   2.172  2.9418 -0.5830 -1.4025
 3225SOL    HW221138   4.501   0.976   2.252 -2.0565  0.2363  1.6288
 3226SOL     OW21139   3.674   2.881   5.401  0.2200  0.4816 -0.0654
 3226SOL    HW121140   3.739   2.917   5.461  1.5018 -1.3914 -0.3469
 3226SOL    HW221141   3.604   2.944   5.419 -1.6936 -0.8883 -2.7072
 3227SOL     OW21142   1.504   3.577  12.372  0.6651  0.5570 -0.2831
 3227SOL    HW121143   1.529   3.580  12.280  0.8395 -1.7499 -0.3103
 3227SOL    HW221144   1.545   3.498  12.407  2.3093  0.8964 -1.4784
 3228SOL     OW21145   3.084   3.947   0.839 -0.3723  0.2789 -0.1154
 3228SOL    HW121146   3.088   3.851   0.836 -1.1741  0.2226  0.5369
 3228SOL    HW221147   3.119   3.961   0.751 -0.8523 -0.1263 -0.3715
 3229SOL     OW21148   2.218   4.213   5.091 -0.4396 -0.2428 -0.3866
 3229SOL    HW121149   2.304   4.213   5.132 -1.1529  1.8805  1.1012
 3229SOL    HW221150   2.236   4.280   5.026  2.4938  1.0227  1.7167
 3230SOL     OW21151   2.998   4.304   6.270  0.3283  0.3061 -0.4006
 3230SOL    HW121152   3.017   4.289   6.362  0.3545  1.0832 -0.2883
 3230SOL    HW221153   2.944   4.230   6.240  1.0253 -0.3275 -0.0964
 3231SOL     OW21154   4.128   2.695  10.394  0.4047  0.3360 -0.4987
 3231SOL    HW121155   4.074   2.705  10.472 -1.5476  0.0768 -1.7992
 3231SOL    HW221156   4.067   2.733  10.330 -2.3534 -0.3166  1.7490
 3232SOL     OW21157   0.605   2.049  11.245 -0.5652  0.0375 -0.0019
 3232SOL    HW121158   0.671   1.988  11.214 -1.4109 -1.7160  1.7268
 3232SOL    HW221159   0.662   2.113  11.288 -0.1040  0.5991 -1.4164
 3233SOL     OW21160   0.308   4.230   5.617  0.0203 -0.0602 -0.3322
 3233SOL    HW121161   0.340   4.205   5.704 -2.5253  0.6827  0.8243
 3233SOL    HW221162   0.356   4.311   5.598  2.0575 -0.9406  0.9252
 3234SOL     OW21163   3.920   1.933  13.825  0.1841 -0.0442  0.1351
 3234SOL    HW121164   3.893   1.875  13.753  2.9837 -0.0525 -0.9188
 3234SOL    HW221165   3.958   1.866  13.881  2.0192  1.0446  0.1935
 3235SOL     OW21166   3.316   0.187   2.061  0.3729 -0.4190 -0.6358
 3235SOL    HW121167   3.362   0.104   2.048  1.3262  0.0155 -0.0005
 3235SOL    HW221168   3.235   0.166   2.015  1.1647  0.5753 -2.4922
 3236SOL     OW21169   2.882   2.206   0.051 -0.4953  0.0631  0.1968
 3236SOL    HW121170   2.805   2.262   0.048 -0.5701  0.0157  1.2754
 3236SOL    HW221171   2.874   2.156   0.132 -0.9784 -2.0923 -1.1663
 3237SOL     OW21172   4.021   1.939   6.408 -0.0302  0.8767 -0.3556
 3237SOL    HW121173   4.064   2.010   6.456  1.2863 -0.2463  0.1365
 3237SOL    HW221174   4.006   1.871   6.474  2.1478  1.2672  0.5452
 3238SOL     OW21175   0.207   0.936   2.550 -0.3246  0.5334 -0.1803
 3238SOL    HW121176   0.259   0.921   2.629 -0.6555 -1.4817 -0.3485
 3238SOL    HW221177   0.153   1.006   2.588 -0.1622 -0.4835  1.8987
 3239SOL     OW21178   0.898   1.986   0.041  0.1653  0.0760  0.2883
 3239SOL    HW121179   0.897   2.079   0.017 -0.1403  1.2740  4.8571
 3239SOL    HW221180   0.816   1.973   0.088  0.1811  2.4141  0.9694
 3240SOL     OW21181   3.570   2.076   3.190 -0.3233 -0.9744  0.2689
 3240SOL    HW121182   3.577   2.172   3.186 -1.9929 -0.9111 -0.7624
 3240SOL    HW221183   3.649   2.065   3.137 -0.1680  0.9678  0.0819
 3241SOL     OW21184   3.925   0.997  11.390 -0.0749  0.0314  0.2255
 3241SOL    HW121185   3.907   1.047  11.469 -0.2141 -1.6361  1.2490
 3241SOL    HW221186   3.999   1.048  11.357  0.0830  1.0450  2.1632
 3242SOL     OW21187   1.731   1.227   4.385  0.2937 -0.1215 -0.6281
 3242SOL    HW121188   1.764   1.306   4.341 -0.9787  2.2831  2.7325
 3242SOL    HW221189   1.761   1.244   4.475 -0.9217 -0.1030 -0.2252
 3243SOL     OW21190   0.839   2.218  12.848  0.1150  0.1797  0.2373
 3243SOL    HW121191   0.901   2.185  12.914 -0.4225 -0.2739  0.5184
 3243SOL    HW221192   0.896   2.207  12.772 -0.4859  0.1148 -0.2057
 3244SOL     OW21193   3.500   2.989   6.487 -0.2554 -0.4579 -0.4623
 3244SOL    HW121194   3.433   2.967   6.551  1.3494 -0.4831  1.2257
 3244SOL    HW221195   3.466   2.958   6.403  2.3995 -0.1431 -1.6659
 3245SOL     OW21196   0.750   0.319  10.360 -0.0767 -0.5304  0.3269
 3245SOL    HW121197   0.841   0.346  10.347 -0.6238  2.7885  3.3025
 3245SOL    HW221198   0.747   0.224  10.367  0.1818 -0.6101 -0.7357
 3246SOL     OW21199   3.573   2.640   6.165  0.1318 -0.0527 -0.6205
 3246SOL    HW121200   3.533   2.557   6.191 -0.2987  0.1739 -0.5644
 3246SOL    HW221201   3.553   2.638   6.071  1.6211  0.8051 -0.9623
 3247SOL     OW21202   1.059   3.271   2.304  0.2447 -0.0087 -0.2547
 3247SOL    HW121203   1.065   3.268   2.400 -0.4076 -0.9512 -0.2421
 3247SOL    HW221204   1.010   3.352   2.290  0.0312 -0.2288 -0.7628
 3248SOL     OW21205   1.761   1.225   1.720 -0.4612 -0.0759 -0.4912
 3248SOL    HW121206   1.846   1.268   1.711 -1.7753  2.4750 -0.6084
 3248SOL    HW221207   1.699   1.298   1.710  1.6319  1.5333 -1.7554
 3249SOL     OW21208   4.070   0.086  12.617 -0.3130 -0.0354 -0.5755
 3249SOL    HW121209   4.004   0.139  12.573  0.3389  1.9941  0.9176
 3249SOL    HW221210   4.120   0.158  12.655  0.0880  0.3377 -1.8145
 3250SOL     OW21211   3.834   4.167   6.197 -0.1942  0.1043 -0.1491
 3250SOL    HW121212   3.880   4.112   6.261  0.3914 -0.1054 -0.7444
 3250SOL    HW221213   3.834   4.243   6.254  1.6478  0.9437 -1.2648
 3251SOL     OW21214   2.688   2.381   0.050  0.8132  0.0926  0.0860
 3251SOL    HW121215   2.650   2.314   0.106  1.7129 -0.5974 -0.1405
 3251SOL    HW221216   2.614   2.442   0.042  0.5415 -0.0233  1.6330
 3252SOL     OW21217   1.774   0.468   8.108  0.1051 -0.2012  0.0681
 3252SOL    HW121218   1.764   0.557   8.143 -0.6796 -0.3847  0.3162
 3252SOL    HW221219   1.840   0.428   8.164 -0.3899 -0.6745  0.3205
 3253SOL     OW21220   2.876   2.348   8.583 -0.3402 -0.1187 -0.2289
 3253SOL    HW121221   2.862   2.348   8.489 -1.3498  0.2360 -0.0822
 3253SOL    HW221222   2.972   2.351   8.592 -0.4398  1.7437  0.3614
 3254SOL     OW21223   4.435   3.638  10.260 -0.1571  0.2182  0.4392
 3254SOL    HW121224   4.458   3.726  10.289  2.4026 -0.0216 -0.8921
 3254SOL    HW221225   4.342   3.641  10.282 -0.2491  0.3007  0.0263
 3255SOL     OW21226   0.708   1.238  12.485  0.2897  0.1343 -0.3298
 3255SOL    HW121227   0.700   1.146  12.458  0.5279  0.2222 -0.6927
 3255SOL    HW221228   0.766   1.275  12.419  1.4331 -1.3322 -0.1553
 3256SOL     OW21229   3.139   0.797  11.491  0.4439  0.1891  0.2498
 3256SOL    HW121230   3.156   0.846  11.571 -1.9999  1.1773  0.1567
 3256SOL    HW221231   3.046   0.805  11.468  0.2495 -0.6128  0.7421
 3257SOL     OW21232   3.950   2.902  10.084 -0.2011 -0.9836 -0.0225
 3257SOL    HW121233   3.937   2.996  10.080 -1.0565 -1.0619  1.0815
 3257SOL    HW221234   3.957   2.880   9.991  2.8121 -0.1539  0.0042
 3258SOL     OW21235   4.409   3.580   7.230 -0.4395  0.3204 -0.4338
 3258SOL    HW121236   4.485   3.522   7.227  0.2790  1.2256  0.3162
 3258SOL    HW221237   4.442   3.646   7.291 -0.0198 -0.8139  0.5647
 3259SOL     OW21238   0.446   1.404   7.076  0.3471  0.4852 -0.2253
 3259SOL    HW121239   0.469   1.389   7.167 -2.7396  0.1444  0.4782
 3259SOL    HW221240   0.379   1.336   7.069  0.5711  0.2259  0.1331
 3260SOL     OW21241   4.682   2.016   2.781  0.6137  0.5082 -0.0246
 3260SOL    HW121242   4.600   2.062   2.799 -0.6250 -2.1416  1.1157
 3260SOL    HW221243   4.710   2.068   2.706  1.1915  4.2498  2.7706
 3261SOL     OW21244   4.206   0.277   5.405  0.0082 -0.2548 -0.4832
 3261SOL    HW121245   4.156   0.254   5.483  0.4103  2.4554  0.5926
 3261SOL    HW221246   4.232   0.188   5.381 -1.2748 -1.1557  1.5231
 3262SOL     OW21247   2.443   3.143   4.157  0.1435  0.2750  0.1539
 3262SOL    HW121248   2.443   3.047   4.152 -0.7607  0.2299  0.9254
 3262SOL    HW221249   2.361   3.170   4.116 -0.3449  0.1865  1.0629
 3263SOL     OW21250   0.922   4.136   8.810 -0.5825  0.5955  0.1624
 3263SOL    HW121251   0.925   4.177   8.896 -1.9610  2.3243 -0.6158
 3263SOL    HW221252   0.983   4.189   8.757  0.5576 -1.9713 -1.1017
 3264SOL     OW21253   3.817   2.116  14.757  0.0941  0.0947  0.0059
 3264SOL    HW121254   3.751   2.070  14.705 -1.9352 -0.2165  2.8764
 3264SOL    HW221255   3.903   2.088  14.726 -0.3955 -1.0809 -0.2861
 3265SOL     OW21256   4.542   3.616  16.832 -0.4234  0.3064 -0.2007
 3265SOL    HW121257   4.453   3.650  16.841 -0.2185  0.6578  0.5621
 3265SOL    HW221258   4.596   3.678  16.783  1.5415 -1.1658  0.1220
 3266SOL     OW21259   1.745   0.560   3.222 -0.2124  0.2590  0.3269
 3266SOL    HW121260   1.699   0.575   3.139  1.8633 -0.6470 -0.9752
 3266SOL    HW221261   1.674   0.516   3.270 -0.8229 -2.9951 -3.5852
 3267SOL     OW21262   2.620   2.575   2.342  0.0033  1.1173 -0.5884
 3267SOL    HW121263   2.698   2.622   2.372  0.9606  0.5007 -2.1299
 3267SOL    HW221264   2.628   2.491   2.387 -0.7784  0.7836 -1.0693
 3268SOL     OW21265   2.298   2.736   1.036  0.2732  0.2818 -0.1086
 3268SOL    HW121266   2.331   2.714   0.949 -1.9076 -0.1671 -0.8164
 3268SOL    HW221267   2.295   2.649   1.075 -1.0631  0.5991  0.5096
 3269SOL     OW21268   3.951   2.052  14.095 -0.0148  0.1027 -0.2878
 3269SOL    HW121269   3.961   2.146  14.110  1.2707 -0.5801  3.0603
 3269SOL    HW221270   4.041   2.024  14.082  0.1249  0.8556 -0.9034
 3270SOL     OW21271   0.628   2.769   7.442  0.4056 -0.0331  0.2826
 3270SOL    HW121272   0.706   2.719   7.420  0.2138 -0.1991 -0.0298
 3270SOL    HW221273   0.631   2.750   7.535  1.9179  1.8561  0.6062
 3271SOL     OW21274   0.415   0.936  17.576 -0.0093  0.4973 -0.0635
 3271SOL    HW121275   0.435   0.866  17.638  1.9233  0.0298 -1.2386
 3271SOL    HW221276   0.324   0.915  17.553  0.0059  2.2244 -1.7396
 3272SOL     OW21277   2.847   1.837   3.435 -0.7374 -0.5587 -0.2223
 3272SOL    HW121278   2.763   1.802   3.407 -0.6392 -1.3708  0.5092
 3272SOL    HW221279   2.858   1.798   3.522 -2.1673  0.4699  0.4367
 3273SOL     OW21280   1.729   1.589  13.303  0.7387  0.0141 -0.0273
 3273SOL    HW121281   1.771   1.674  13.300  1.0686 -0.1829 -0.8757
 3273SOL    HW221282   1.726   1.568  13.397 -4.5484 -0.8020 -0.3798
 3274SOL     OW21283   0.645   1.405   5.171  0.1621 -0.2539  0.1153
 3274SOL    HW121284   0.554   1.403   5.199 -0.5587  0.9224 -2.1306
 3274SOL    HW221285   0.688   1.468   5.230 -0.5244  0.2797  0.0368
 3275SOL     OW21286   1.385   0.972   1.906  0.0583  0.1256 -0.1198
 3275SOL    HW121287   1.408   0.942   1.818  1.5605  3.3138 -0.8222
 3275SOL    HW221288   1.424   1.059   1.902 -2.9586  1.5420  1.4564
 3276SOL     OW21289   2.161   1.369   9.501  0.1131  0.2074  0.3454
 3276SOL    HW121290   2.163   1.295   9.441  1.2748 -0.6037  1.3876
 3276SOL    HW221291   2.068   1.368   9.526  0.6432  0.5963  2.3666
 3277SOL     OW21292   4.304   4.100   3.423 -0.0630  0.3229 -0.4705
 3277SOL    HW121293   4.228   4.056   3.463 -0.8068  1.1484 -0.9711
 3277SOL    HW221294   4.281   4.093   3.330  1.7002 -0.9274 -0.8101
 3278SOL     OW21295   0.573   3.941  13.690 -0.5214 -0.0626  0.0329
 3278SOL    HW121296   0.665   3.964  13.692  0.3927 -3.4459 -1.7221
 3278SOL    HW221297   0.530   4.024  13.670  0.8803  0.7529  0.4333
 3279SOL     OW21298   2.542   0.129   7.139 -0.2734  0.0879 -0.2872
 3279SOL    HW121299   2.632   0.131   7.171 -0.1575  0.8973 -0.6607
 3279SOL    HW221300   2.537   0.219   7.106  2.1271  0.6584  0.8716
 3280SOL     OW21301   1.059   0.475   2.592 -0.4663 -0.1693  0.0617
 3280SOL    HW121302   1.125   0.413   2.622  0.1626 -0.7746 -2.5291
 3280SOL    HW221303   0.983   0.417   2.592 -0.1021 -0.6475 -1.8020
 3281SOL     OW21304   3.492   2.406  14.054 -0.3406  0.5337  0.0711
 3281SOL    HW121305   3.573   2.377  14.094 -1.0782 -1.3749  0.1954
 3281SOL    HW221306   3.504   2.369  13.967 -0.4862  1.2628 -0.2572
 3282SOL     OW21307   1.930   4.616  15.155  0.0530  0.0987  0.0615
 3282SOL    HW121308   1.914   4.662  15.072  1.5352  0.9179  0.2279
 3282SOL    HW221309   1.876   4.538  15.145 -0.9072  0.9734 -1.3990
 3283SOL     OW21310   0.219   3.865  17.169  0.4315 -0.3478 -0.0059
 3283SOL    HW121311   0.269   3.786  17.189  0.8012 -0.1136  0.0050
 3283SOL    HW221312   0.158   3.837  17.101  0.8746 -0.5528 -0.3244
 3284SOL     OW21313   3.400   0.964   1.921 -0.5981 -0.8105  0.4471
 3284SOL    HW121314   3.373   1.018   1.847  1.0690 -0.8763 -0.2022
 3284SOL    HW221315   3.319   0.935   1.964  0.5747 -0.0970  3.1632
 3285SOL     OW21316   3.062   3.094   3.980  0.2329 -0.2942 -0.3327
 3285SOL    HW121317   3.012   3.170   4.009  0.2325  0.1112 -1.4332
 3285SOL    HW221318   3.120   3.131   3.914  1.4141 -1.5487 -0.0131
 3286SOL     OW21319   0.929   3.149  11.810  0.0811  0.5515 -0.4966
 3286SOL    HW121320   1.010   3.186  11.846  0.4508  0.9176 -1.7284
 3286SOL    HW221321   0.963   3.101  11.735 -1.8463 -0.3728 -0.7728
 3287SOL     OW21322   0.001   2.468   7.344  0.0407 -0.6326 -0.5730
 3287SOL    HW121323   0.031   2.447   7.256  1.0369  0.1352 -0.4237
 3287SOL    HW221324   0.014   2.563   7.350 -0.0276 -0.6568 -0.0145
 3288SOL     OW21325   3.857   0.304  11.461 -0.1022  0.5286  0.2958
 3288SOL    HW121326   3.765   0.313  11.488 -0.1842 -0.5319  0.3498
 3288SOL    HW221327   3.863   0.394  11.429 -0.6608 -0.1138 -1.6128
 3289SOL     OW21328   1.712   3.565   8.466  0.6342 -0.6445  0.3776
 3289SOL    HW121329   1.685   3.617   8.542 -3.7736 -1.3125 -0.7303
 3289SOL    HW221330   1.657   3.488   8.474 -2.0477  1.0620 -1.6511
 3290SOL     OW21331   2.718   0.397   1.803 -0.8008 -0.2581  0.5276
 3290SOL    HW121332   2.756   0.359   1.724  0.4196 -0.5402  1.2575
 3290SOL    HW221333   2.631   0.424   1.773 -0.2824 -0.5954 -1.3082
 3291SOL     OW21334   1.391   3.375  14.316 -0.2903  0.4461  0.2103
 3291SOL    HW121335   1.411   3.467  14.296 -2.3589  0.9650  0.5841
 3291SOL    HW221336   1.404   3.384  14.411  1.4091 -0.3625  0.0606
 3292SOL     OW21337   3.288   3.407  15.358 -0.2312 -0.0177 -0.4935
 3292SOL    HW121338   3.368   3.447  15.323 -0.5893 -0.5787 -1.9349
 3292SOL    HW221339   3.225   3.476  15.336 -0.1386  0.7007  1.5237
 3293SOL     OW21340   2.277   3.158   7.487 -0.3525 -0.1211 -0.1835
 3293SOL    HW121341   2.364   3.148   7.527 -0.6523  0.0613  0.5248
 3293SOL    HW221342   2.242   3.069   7.481  0.5851 -0.4781 -0.3017
 3294SOL     OW21343   3.432   2.480   6.674  0.6094 -0.4241  0.8499
 3294SOL    HW121344   3.367   2.412   6.655 -1.3480  2.1752 -1.5905
 3294SOL    HW221345   3.494   2.442   6.611  0.1865 -0.5730  0.5246
 3295SOL     OW21346   3.842   4.560  14.301 -0.0848  0.3510  0.7006
 3295SOL    HW121347   3.871   4.469  14.295 -2.8506 -0.4013 -0.9404
 3295SOL    HW221348   3.796   4.571  14.218  0.9294  1.8740  0.3262
 3296SOL     OW21349   4.648   1.536   9.224 -0.2937  0.2672  0.0301
 3296SOL    HW121350   4.650   1.632   9.216 -1.6495  0.3615  0.8125
 3296SOL    HW221351   4.601   1.512   9.145  0.7594 -1.9016  0.0576
 3297SOL     OW21352   0.029   0.587   4.689  0.4350  0.4408 -0.8065
 3297SOL    HW121353   4.717   0.525   4.754  0.0910 -1.3742 -2.7366
 3297SOL    HW221354   0.054   0.521   4.625 -0.7303 -0.1829 -0.6238
 3298SOL     OW21355   4.086   2.952   7.181 -0.2612  0.1135 -0.3049
 3298SOL    HW121356   4.147   2.968   7.253 -1.1480 -3.1211  1.1886
 3298SOL    HW221357   4.157   2.935   7.119  0.0644 -0.7086  0.2972
 3299SOL     OW21358   4.649   3.883   6.519  0.1891 -0.8066 -0.5132
 3299SOL    HW121359   4.616   3.832   6.445  1.2621  0.9054 -2.2007
 3299SOL    HW221360   0.021   3.876   6.526  0.2512  1.2392  0.8922
 3300SOL     OW21361   2.713   0.614  11.013  0.3862  0.3834 -0.0433
 3300SOL    HW121362   2.628   0.654  10.995  0.4036  0.2434 -0.4296
 3300SOL    HW221363   2.744   0.590  10.926 -1.3801 -2.4604  0.1168
 3301SOL     OW21364   0.652   4.277   3.667  0.3172 -0.5032  0.0135
 3301SOL    HW121365   0.693   4.209   3.613 -1.5982 -1.6848  0.0713
 3301SOL    HW221366   0.578   4.303   3.612  0.2905  0.2275  0.3864
 3302SOL     OW21367   0.456   1.357   5.589 -0.0961 -0.0427  0.2857
 3302SOL    HW121368   0.543   1.316   5.592  0.0766  0.2461 -0.8732
 3302SOL    HW221369   0.400   1.295   5.541  1.3280 -2.0018  1.1309
 3303SOL     OW21370   0.953   4.127   7.247  0.3738 -0.3690  0.5254
 3303SOL    HW121371   1.037   4.122   7.293  0.6074 -1.7959 -0.0560
 3303SOL    HW221372   0.902   4.086   7.316 -2.0524  1.6769 -0.0464
 3304SOL     OW21373   0.416   1.878   6.394  0.6069  0.0155 -0.6537
 3304SOL    HW121374   0.397   1.892   6.301 -0.2982  0.0339 -0.4659
 3304SOL    HW221375   0.483   1.810   6.388 -2.0705 -2.7693  0.7768
 3305SOL     OW21376   3.209   3.590   8.523 -0.1763 -0.0336  0.3567
 3305SOL    HW121377   3.299   3.557   8.512 -0.5410 -0.9367  0.0809
 3305SOL    HW221378   3.153   3.520   8.489 -0.1415  1.5742 -3.0082
 3306SOL     OW21379   2.955   3.909   9.640  0.0993  0.6838  0.0832
 3306SOL    HW121380   2.870   3.871   9.618  1.4040 -1.1881 -1.6908
 3306SOL    HW221381   2.999   3.840   9.690 -0.1515  0.8673  0.5592
 3307SOL     OW21382   4.229   4.507   6.435 -0.1177 -0.2977 -1.0643
 3307SOL    HW121383   4.211   4.554   6.516  0.5506 -1.6864 -0.1126
 3307SOL    HW221384   4.201   4.572   6.370  1.8611  1.7229  0.0827
 3308SOL     OW21385   1.041   0.339  14.271  0.1677 -0.2456 -0.4135
 3308SOL    HW121386   1.073   0.277  14.206 -1.4749 -2.2756  0.7239
 3308SOL    HW221387   1.015   0.290  14.349 -2.9633 -0.8395 -1.8478
 3309SOL     OW21388   3.301   2.720   9.112  0.5057  0.0759 -0.2265
 3309SOL    HW121389   3.377   2.754   9.160 -0.0201  2.4217 -1.0525
 3309SOL    HW221390   3.317   2.747   9.021  0.6657 -0.0157 -0.2257
 3310SOL     OW21391   2.096   0.404  10.385  0.0476  0.2950 -0.2833
 3310SOL    HW121392   2.147   0.323  10.389 -0.8522 -0.2527 -0.0412
 3310SOL    HW221393   2.166   0.466  10.363  0.2922  0.2768  0.4536
 3311SOL     OW21394   1.285   0.853  14.503  0.2278 -0.0965 -0.2656
 3311SOL    HW121395   1.220   0.888  14.442  1.2440  2.4217  0.1204
 3311SOL    HW221396   1.363   0.873  14.451  0.8952 -1.3276  0.2469
 3312SOL     OW21397   2.578   0.875  16.957 -0.0922  0.2672 -0.3766
 3312SOL    HW121398   2.548   0.784  16.957  1.3306 -0.1992  0.1100
 3312SOL    HW221399   2.624   0.872  16.874 -0.3401  0.1450 -0.5111
 3313SOL     OW21400   2.151   1.018   5.763  0.1209  0.0415  0.2919
 3313SOL    HW121401   2.084   0.985   5.703  0.9356 -1.4840  0.2305
 3313SOL    HW221402   2.129   1.111   5.770 -0.5886 -0.0379 -1.0016
 3314SOL     OW21403   4.455   2.365   8.089 -0.4981  0.5749 -0.7612
 3314SOL    HW121404   4.474   2.452   8.055  0.0044  0.7094 -0.1415
 3314SOL    HW221405   4.535   2.350   8.139 -1.6538  1.5514  1.4327
 3315SOL     OW21406   2.171   1.227   3.387  0.3650 -0.5943  0.4988
 3315SOL    HW121407   2.230   1.238   3.312 -2.1409 -0.1852 -1.3980
 3315SOL    HW221408   2.238   1.215   3.454  1.4611 -1.7133 -0.7868
 3316SOL     OW21409   4.242   1.609  14.383 -0.4059  0.0976 -0.1184
 3316SOL    HW121410   4.157   1.654  14.382 -1.0036 -1.0229  0.9704
 3316SOL    HW221411   4.208   1.523  14.361  0.0951 -0.2937  0.6484
 3317SOL     OW21412   4.000   2.943   3.331  1.3114  0.6919 -0.9923
 3317SOL    HW121413   4.072   2.916   3.388  0.8027 -1.8682 -1.5903
 3317SOL    HW221414   3.934   2.941   3.400  2.4134 -2.0312 -0.0183
 3318SOL     OW21415   3.780   1.277   5.703  0.3100  0.3251 -0.1835
 3318SOL    HW121416   3.812   1.362   5.735 -1.8809  1.0472  0.0813
 3318SOL    HW221417   3.694   1.300   5.667  0.1340  0.2833  0.2180
 3319SOL     OW21418   2.981   0.025   5.694 -0.0332 -0.1671 -0.1727
 3319SOL    HW121419   2.908   4.693   5.723  1.2775 -1.3677  0.8020
 3319SOL    HW221420   2.995   4.709   5.609  0.9805 -1.4353  0.5872
 3320SOL     OW21421   3.861   4.194   8.059 -0.6529 -0.0103 -0.1671
 3320SOL    HW121422   3.852   4.200   7.964  1.2409  1.1447 -0.2724
 3320SOL    HW221423   3.775   4.212   8.098 -0.6703  0.9947 -0.6827
 3321SOL     OW21424   0.041   3.728  16.655 -0.5389  0.4354 -0.0920
 3321SOL    HW121425   0.124   3.691  16.626 -0.7648  1.4426 -1.9690
 3321SOL    HW221426   0.066   3.751  16.745  1.1733  0.5045 -0.5919
 3322SOL     OW21427   2.425   3.286   1.737  0.0041 -0.2866  0.1658
 3322SOL    HW121428   2.425   3.301   1.642 -1.3855 -0.3097  0.1691
 3322SOL    HW221429   2.419   3.375   1.770  1.5810  0.6243 -1.9874
 3323SOL     OW21430   4.457   4.566   4.541 -0.1957 -0.6553  0.8203
 3323SOL    HW121431   4.469   4.487   4.490 -1.3461  0.1235 -0.6616
 3323SOL    HW221432   4.402   4.536   4.613 -0.4372 -2.6307 -0.2062
 3324SOL     OW21433   2.016   4.047   6.201 -0.6180 -0.9289  0.4421
 3324SOL    HW121434   2.109   4.071   6.197 -0.2984 -1.6706  3.1362
 3324SOL    HW221435   1.975   4.123   6.161  1.6642 -0.5249 -1.1153
 3325SOL     OW21436   1.862   4.711   2.238  0.0825  0.0821  0.0700
 3325SOL    HW121437   1.859   0.034   2.321  0.5118  0.5892 -0.1985
 3325SOL    HW221438   1.941   0.026   2.200  0.5788 -0.2139  0.7972
 3326SOL     OW21439   2.459   3.793   6.791  0.2275 -0.1441  0.4694
 3326SOL    HW121440   2.487   3.879   6.824 -0.5597  0.4648 -0.4384
 3326SOL    HW221441   2.522   3.781   6.720  1.9691  1.9129  1.6601
 3327SOL     OW21442   0.621   1.695   8.325 -0.0139 -0.0847 -0.0384
 3327SOL    HW121443   0.606   1.783   8.357  1.9666 -1.0333  3.4061
 3327SOL    HW221444   0.598   1.706   8.232  1.5929 -1.2048 -0.5667
 3328SOL     OW21445   0.871   4.287   8.381 -0.0393 -0.1782 -0.2916
 3328SOL    HW121446   0.848   4.203   8.421 -1.8316 -0.3152 -1.6323
 3328SOL    HW221447   0.962   4.285   8.412 -0.2694 -0.3559  0.3727
 3329SOL     OW21448   3.360   3.282  17.293  0.3950 -0.1103 -0.8285
 3329SOL    HW121449   3.335   3.328  17.372  0.7871 -0.0502 -0.7405
 3329SOL    HW221450   3.442   3.323  17.268  0.5197 -0.5899 -1.2141
 3330SOL     OW21451   4.573   1.542  12.497  0.7188 -0.0869  0.7957
 3330SOL    HW121452   4.506   1.474  12.497  0.3599  0.2663  1.4285
 3330SOL    HW221453   4.602   1.522  12.586 -1.4998 -2.1448  1.0457
 3331SOL     OW21454   2.498   2.883   7.463  0.3002  0.2668 -0.3553
 3331SOL    HW121455   2.403   2.889   7.475  0.3548 -0.8793  0.6436
 3331SOL    HW221456   2.527   2.963   7.506 -1.0959  2.3849 -3.3460
 3332SOL     OW21457   2.522   1.217   3.982 -0.0056  0.1005  0.4815
 3332SOL    HW121458   2.583   1.213   3.909 -3.0125 -1.7443 -1.9068
 3332SOL    HW221459   2.501   1.309   3.998 -1.7689  0.0871 -1.8667
 3333SOL     OW21460   3.292   4.137  10.344  0.0994 -0.8908 -0.2553
 3333SOL    HW121461   3.216   4.149  10.287 -0.9076  0.1323  1.3253
 3333SOL    HW221462   3.364   4.124  10.282  1.7468  0.4886  1.3682
 3334SOL     OW21463   2.963   0.048   2.385 -0.1560  0.5668 -0.1653
 3334SOL    HW121464   2.982   0.020   2.475 -2.1448  0.0252  0.0821
 3334SOL    HW221465   3.044   0.027   2.339 -0.8237 -0.5798 -0.8180
 3335SOL     OW21466   1.217   4.118   7.348  0.8691  0.6167  0.2706
 3335SOL    HW121467   1.262   4.038   7.319  1.5516  1.0673  0.0898
 3335SOL    HW221468   1.288   4.182   7.351  1.8316 -0.6118  3.8409
 3336SOL     OW21469   3.239   2.908  10.095 -0.4488 -0.8742  0.0512
 3336SOL    HW121470   3.250   2.817  10.120 -0.4037 -0.6158  0.9618
 3336SOL    HW221471   3.329   2.940  10.107 -0.0337 -2.0461  0.0957
 3337SOL     OW21472   3.475   0.296   7.265 -0.3248 -0.0213 -0.0565
 3337SOL    HW121473   3.571   0.296   7.265 -0.3212  0.9604  1.5089
 3337SOL    HW221474   3.457   0.388   7.247  1.4107  0.1448 -0.9740
 3338SOL     OW21475   0.530   4.133   2.828 -0.7058  0.2472  0.7945
 3338SOL    HW121476   0.518   4.226   2.843 -2.0390  0.1701  0.1906
 3338SOL    HW221477   0.458   4.098   2.881 -2.5269 -0.2543 -2.0219
 3339SOL     OW21478   1.999   3.360   4.021 -0.5945  0.2599  0.4545
 3339SOL    HW121479   2.068   3.421   4.047 -1.4472  1.9404 -1.2560
 3339SOL    HW221480   1.971   3.406   3.942  0.2950  2.5597  1.4999
 3340SOL     OW21481   0.308   0.309   3.916 -0.0708 -0.2377 -0.2520
 3340SOL    HW121482   0.220   0.343   3.905  0.0063  0.4155  1.1508
 3340SOL    HW221483   0.305   0.312   4.012 -0.6615 -2.4941 -0.1897
 3341SOL     OW21484   0.907   2.718   7.870  0.3560 -0.4631  0.1375
 3341SOL    HW121485   0.895   2.813   7.873 -0.4340 -0.5052 -1.8545
 3341SOL    HW221486   0.844   2.699   7.801  0.2978 -0.8124  0.2885
 3342SOL     OW21487   0.775   0.097   2.280 -0.1272 -0.1742 -0.0324
 3342SOL    HW121488   0.849   0.157   2.294 -0.3960  0.7551 -2.5819
 3342SOL    HW221489   0.785   0.105   2.186  1.4004  0.5100  0.1780
 3343SOL     OW21490   2.127   3.737   8.246  0.4087 -0.1566 -0.2461
 3343SOL    HW121491   2.137   3.671   8.315  0.2999  0.7133  0.5998
 3343SOL    HW221492   2.128   3.672   8.176 -0.4232 -1.5230  0.9914
 3344SOL     OW21493   0.109   2.423   9.018 -0.1763  0.0856 -0.0717
 3344SOL    HW121494   0.204   2.415   9.028 -0.1405  1.1364  0.4821
 3344SOL    HW221495   0.077   2.467   9.097 -1.1129 -1.8311  0.6250
 3345SOL     OW21496   1.347   1.814   6.288  0.1905 -0.0457 -0.4108
 3345SOL    HW121497   1.295   1.827   6.367 -1.2159  0.8190 -1.4764
 3345SOL    HW221498   1.368   1.905   6.266 -0.9693  0.7841  1.9238
 3346SOL     OW21499   2.776   0.704   4.963 -0.9482 -0.0816 -0.4693
 3346SOL    HW121500   2.773   0.789   4.920 -0.4208  0.0203 -0.3137
 3346SOL    HW221501   2.707   0.657   4.917  0.3539 -0.4413 -2.0926
 3347SOL     OW21502   0.870   0.535  14.911 -0.2715 -0.3629 -0.0251
 3347SOL    HW121503   0.957   0.494  14.912  1.0155  2.3627 -1.1230
 3347SOL    HW221504   0.905   0.622  14.892 -1.4731  0.0688 -0.2615
 3348SOL     OW21505   3.291   0.814   3.405 -0.4558 -0.1665 -0.1527
 3348SOL    HW121506   3.272   0.899   3.368 -2.1902  0.1889  1.5594
 3348SOL    HW221507   3.253   0.810   3.493 -0.9628 -1.5137 -0.4297
 3349SOL     OW21508   2.006   3.346   7.382 -0.3803 -0.4578  0.4248
 3349SOL    HW121509   2.086   3.335   7.433 -0.4396  1.1851  0.8729
 3349SOL    HW221510   1.978   3.259   7.356  1.9852 -1.0770  0.0260
 3350SOL     OW21511   2.187   2.154   6.927  0.8953  0.6272  0.4483
 3350SOL    HW121512   2.279   2.178   6.914  0.5302  1.9246  0.3014
 3350SOL    HW221513   2.183   2.185   7.017  0.1241 -2.3996  1.4344
 3351SOL     OW21514   0.337   1.472  14.224  0.5821  0.2966 -0.1233
 3351SOL    HW121515   0.244   1.488  14.206  0.5462 -1.6115 -1.6795
 3351SOL    HW221516   0.366   1.557  14.190  0.2659 -1.0073 -3.7435
 3352SOL     OW21517   3.930   0.355  12.069 -0.1218  0.0915  0.4748
 3352SOL    HW121518   3.837   0.343  12.050 -0.4922  0.1393  2.2385
 3352SOL    HW221519   3.925   0.352  12.164 -0.8142  1.4614  0.4868
 3353SOL     OW21520   0.095   4.636  13.706 -0.1437  0.3051  0.2752
 3353SOL    HW121521   0.018   4.675  13.663  0.2553  0.7796 -0.0017
 3353SOL    HW221522   0.129   4.575  13.641  2.2097  1.3186  0.5777
 3354SOL     OW21523   1.892   1.878   5.075  0.3410 -0.6898  0.0117
 3354SOL    HW121524   1.885   1.814   5.146  0.9412  1.1786  1.7274
 3354SOL    HW221525   1.853   1.831   5.001 -0.5531 -1.4714  0.9714
 3355SOL     OW21526   1.506   3.116   1.782 -0.1888  0.0629  0.0864
 3355SOL    HW121527   1.508   3.021   1.790  2.0357  0.2234  1.6638
 3355SOL    HW221528   1.439   3.138   1.847 -0.8564  0.6977 -0.8087
 3356SOL     OW21529   0.810   0.051   6.267  0.1931 -1.1581 -0.6860
 3356SOL    HW121530   0.846   0.140   6.267 -1.0838 -0.6455  0.4721
 3356SOL    HW221531   0.872   0.003   6.212 -0.4603 -1.7043 -0.9423
 3357SOL     OW21532   1.735   4.659   1.309 -0.2474  0.1068  0.6517
 3357SOL    HW121533   1.785   0.014   1.328 -0.4215  0.3453  0.1425
 3357SOL    HW221534   1.669   4.694   1.248 -0.1675 -2.0390 -0.6766
 3358SOL     OW21535   0.399   2.520   6.299 -0.5174  0.0716 -0.2983
 3358SOL    HW121536   0.434   2.592   6.248 -2.2947  1.2048  0.1027
 3358SOL    HW221537   0.480   2.471   6.314 -2.2819 -2.4647  1.0091
 3359SOL     OW21538   2.728   2.948   1.572  0.0735 -0.0336 -0.3668
 3359SOL    HW121539   2.787   2.960   1.498 -1.6343  1.4186 -1.5153
 3359SOL    HW221540   2.770   3.005   1.636  1.9839 -1.1339 -0.6346
 3360SOL     OW21541   2.774   1.941   3.821 -0.1084 -0.5263  0.1729
 3360SOL    HW121542   2.814   1.856   3.806 -0.3401 -0.6722  0.3891
 3360SOL    HW221543   2.704   1.930   3.757  0.8024  0.3466 -0.9848
 3361SOL     OW21544   3.390   0.114   9.419  0.7390  0.4788  0.5747
 3361SOL    HW121545   3.368   0.049   9.486 -0.0587  2.3036  2.1090
 3361SOL    HW221546   3.363   0.189   9.471  0.6948  0.7763  0.1258
 3362SOL     OW21547   1.052   1.322  13.587  0.0546 -0.0605  0.1346
 3362SOL    HW121548   1.144   1.338  13.567  0.0486  0.4132  0.4886
 3362SOL    HW221549   1.028   1.405  13.629 -1.3224 -1.5806  2.3509
 3363SOL     OW21550   4.321   1.639   5.761  0.2714 -0.0647  0.2858
 3363SOL    HW121551   4.237   1.635   5.714  0.1301  1.1827  0.4389
 3363SOL    HW221552   4.317   1.562   5.818  1.4264 -0.8290 -0.6503
 3364SOL     OW21553   1.081   1.631   9.299 -0.1206  0.3996 -0.0361
 3364SOL    HW121554   1.172   1.654   9.277  0.7271 -2.3347  0.6766
 3364SOL    HW221555   1.074   1.658   9.390 -0.3517  1.0134 -0.2378
 3365SOL     OW21556   0.434   2.951  16.348  0.1368  0.1228 -0.3545
 3365SOL    HW121557   0.357   2.954  16.405 -0.4335 -1.0971 -1.0468
 3365SOL    HW221558   0.427   2.862  16.314 -0.3949  0.4339 -1.0677
 3366SOL     OW21559   2.807   0.348   0.449  0.4891  0.6157  0.6258
 3366SOL    HW121560   2.786   0.286   0.380  1.9219  0.4898  0.2998
 3366SOL    HW221561   2.875   0.408   0.417  1.8048 -1.0733  0.2632
 3367SOL     OW21562   0.339   4.080   4.136  0.6013  0.1045 -0.2663
 3367SOL    HW121563   0.371   3.991   4.122  0.6044 -0.0372  0.6367
 3367SOL    HW221564   0.387   4.137   4.075 -1.4756  2.7017  0.4918
 3368SOL     OW21565   2.868   0.773   7.277  0.0558  0.4739 -0.0169
 3368SOL    HW121566   2.803   0.826   7.231  2.4539  2.4375 -1.0956
 3368SOL    HW221567   2.819   0.704   7.322 -1.0165  1.0449 -0.3121
 3369SOL     OW21568   2.169   0.483   4.679  0.2574  1.1171 -0.3385
 3369SOL    HW121569   2.223   0.419   4.632  1.1834  1.1513  0.6838
 3369SOL    HW221570   2.217   0.489   4.762 -0.0615  2.1206 -0.2388
 3370SOL     OW21571   3.882   1.627   5.319 -0.2207 -0.0976  0.4716
 3370SOL    HW121572   3.793   1.612   5.288 -0.7957  1.2275  1.5045
 3370SOL    HW221573   3.914   1.669   5.239  4.1048  0.4356  2.4479
 3371SOL     OW21574   4.077   2.315   6.007  0.0579  0.4586 -0.4835
 3371SOL    HW121575   4.084   2.278   6.095 -0.5397  0.9417 -0.2309
 3371SOL    HW221576   4.163   2.296   5.971  0.4882  0.8125  0.3638
 3372SOL     OW21577   2.949   4.576   8.208 -0.0997 -0.3134  0.3414
 3372SOL    HW121578   3.008   4.501   8.202  3.0612  2.0694  1.6729
 3372SOL    HW221579   2.979   4.623   8.130  3.4780 -0.6500  1.5261
 3373SOL     OW21580   4.172   3.263   8.791 -0.0798  0.4038 -0.1447
 3373SOL    HW121581   4.168   3.347   8.837  0.4064  0.1672  0.3291
 3373SOL    HW221582   4.241   3.271   8.724 -1.6033 -0.4891 -1.8327
 3374SOL     OW21583   1.774   0.283   5.251  0.1398  0.3438  0.7343
 3374SOL    HW121584   1.757   0.209   5.310 -0.9466 -0.2695 -0.3652
 3374SOL    HW221585   1.806   0.248   5.168 -2.5789 -0.7355  0.1377
 3375SOL     OW21586   1.045   2.049   5.442  0.1164 -0.3469  0.4356
 3375SOL    HW121587   0.991   2.126   5.425  0.8590 -0.3023 -1.6923
 3375SOL    HW221588   0.997   1.982   5.394  0.0060 -0.0887  0.1871
 3376SOL     OW21589   0.192   4.187   4.992 -0.1104  0.3189 -0.0532
 3376SOL    HW121590   0.224   4.162   4.906  0.3092  1.2813 -0.1806
 3376SOL    HW221591   0.099   4.209   4.979 -0.0804  0.9539  0.7697
 3377SOL     OW21592   2.948   0.549   8.624  0.2599 -0.5581 -0.1847
 3377SOL    HW121593   2.900   0.504   8.694  0.4931  3.8575  2.8631
 3377SOL    HW221594   3.037   0.552   8.661 -0.5376  1.1658  1.6193
 3378SOL     OW21595   3.084   2.862  11.076 -0.0488  0.0745 -0.7927
 3378SOL    HW121596   3.179   2.853  11.080  0.0621  1.9004  0.8841
 3378SOL    HW221597   3.060   2.777  11.112  1.3526 -0.1365 -0.3395
 3379SOL     OW21598   3.572   4.283  12.525 -0.2054 -0.2832  0.2018
 3379SOL    HW121599   3.558   4.271  12.619  0.7597 -0.0742  0.3725
 3379SOL    HW221600   3.520   4.363  12.513  0.2240  0.3506  2.4335
 3380SOL     OW21601   2.192   2.000   4.528 -0.2621  0.7829  0.3908
 3380SOL    HW121602   2.204   2.076   4.584  0.1016  1.3138 -0.4112
 3380SOL    HW221603   2.119   2.029   4.474 -0.1718 -1.4362 -0.9623
 3381SOL     OW21604   1.078   2.146   2.740  0.4497 -0.1098  0.2984
 3381SOL    HW121605   1.086   2.117   2.831 -0.7632  4.1921  1.7806
 3381SOL    HW221606   1.025   2.225   2.746 -1.4374 -1.2383 -1.5146
 3382SOL     OW21607   2.001   0.989   7.178 -0.3891 -0.1812 -0.2816
 3382SOL    HW121608   1.908   0.964   7.172 -0.0197 -0.9510 -2.6212
 3382SOL    HW221609   1.994   1.066   7.234  1.8232 -0.2911  0.1452
 3383SOL     OW21610   3.339   4.370   8.532 -0.2175  0.5264 -0.1387
 3383SOL    HW121611   3.368   4.363   8.623  2.6816 -2.2431 -1.2888
 3383SOL    HW221612   3.421   4.353   8.487  0.3432  2.5819  0.0738
 3384SOL     OW21613   0.128   3.372  11.602  0.0239  0.3482 -0.5002
 3384SOL    HW121614   0.188   3.306  11.639 -0.6360 -0.5883 -1.1015
 3384SOL    HW221615   0.184   3.449  11.612 -0.8567  1.3056 -2.8812
 3385SOL     OW21616   3.605   1.773   6.932 -0.6423 -0.3927 -0.3938
 3385SOL    HW121617   3.536   1.836   6.954  0.7260  1.4111 -1.2175
 3385SOL    HW221618   3.655   1.797   7.010  1.1952 -0.4097 -1.5813
 3386SOL     OW21619   0.169   0.816  17.564  0.0952  0.4893  0.3730
 3386SOL    HW121620   0.083   0.790  17.531 -0.3537  1.9046  0.4105
 3386SOL    HW221621   0.174   0.772  17.649 -0.2247  0.7019  0.5023
 3387SOL     OW21622   3.752   0.518   0.169 -0.1672 -0.0013  0.7776
 3387SOL    HW121623   3.723   0.586   0.229  2.3759  1.6745  0.0843
 3387SOL    HW221624   3.676   0.460   0.171  0.8352 -1.3538 -0.2003
 3388SOL     OW21625   0.077   3.551   7.358  0.1430  0.1040  0.2563
 3388SOL    HW121626   0.089   3.640   7.326 -2.1148 -0.5220 -2.3558
 3388SOL    HW221627   0.070   3.512   7.271  0.4466  1.1986 -0.2565
 3389SOL     OW21628   4.010   1.618  17.633  0.7962  0.4327  0.1115
 3389SOL    HW121629   4.022   1.539  17.687 -0.3494  0.3383  0.2265
 3389SOL    HW221630   3.927   1.592  17.593  0.8409 -0.5903  0.6740
 3390SOL     OW21631   1.090   0.672   8.544  0.5145 -0.2395 -0.1984
 3390SOL    HW121632   1.066   0.660   8.452  1.6049 -3.5523 -0.0595
 3390SOL    HW221633   1.015   0.723   8.573  0.4822 -1.1016  1.2488
 3391SOL     OW21634   0.772   2.217  13.170 -0.0170 -0.3593  0.3413
 3391SOL    HW121635   0.820   2.137  13.190  0.1907 -0.5653 -0.9659
 3391SOL    HW221636   0.789   2.266  13.251 -0.6367 -0.4066  0.5018
 3392SOL     OW21637   4.142   0.852   4.398 -0.2855 -0.2040 -0.3104
 3392SOL    HW121638   4.158   0.864   4.491 -2.2323 -0.3376  0.0364
 3392SOL    HW221639   4.065   0.796   4.393 -0.3213 -0.1247 -0.6487
 3393SOL     OW21640   0.755   0.871   8.222  0.0386 -0.7229  0.4722
 3393SOL    HW121641   0.668   0.904   8.242  0.3579  0.3940  0.0436
 3393SOL    HW221642   0.802   0.929   8.282 -0.3989  0.6773 -0.5224
 3394SOL     OW21643   3.160   1.318   4.114  0.2263  0.4413  0.3935
 3394SOL    HW121644   3.245   1.276   4.123  0.9702  1.2866 -2.8830
 3394SOL    HW221645   3.114   1.283   4.191  0.1039  1.1530  0.6506
 3395SOL     OW21646   2.912   1.364   5.445  0.3970  0.4350  0.5037
 3395SOL    HW121647   2.910   1.270   5.463  1.4758  0.4151  0.5343
 3395SOL    HW221648   2.863   1.389   5.523  0.0202  1.1405  0.0378
 3396SOL     OW21649   0.035   0.173  10.965  0.1285 -0.5805  0.3819
 3396SOL    HW121650   0.120   0.160  11.008 -0.7261  0.4317  2.3563
 3396SOL    HW221651   0.033   0.121  10.885 -2.6888  0.4829 -0.2189
 3397SOL     OW21652   0.665   2.517   6.552 -0.3723  0.9635  0.8694
 3397SOL    HW121653   0.670   2.424   6.529 -1.0255  1.1852 -0.1630
 3397SOL    HW221654   0.639   2.558   6.469  0.6428  0.9102  0.5337
 3398SOL     OW21655   1.117   1.474   8.846  0.0047  0.5447  0.4238
 3398SOL    HW121656   1.058   1.526   8.792  1.3069  1.9069  0.3268
 3398SOL    HW221657   1.191   1.535   8.844  0.4374 -0.0049 -0.1770
 3399SOL     OW21658   2.029   2.184   1.034  0.2518  0.2079  0.3989
 3399SOL    HW121659   1.968   2.203   1.105  1.0306  0.6986  0.9196
 3399SOL    HW221660   2.069   2.101   1.061  0.3351  0.2691  0.4597
 3400SOL     OW21661   3.278   2.983  13.040  0.0016 -0.3170 -0.0162
 3400SOL    HW121662   3.370   2.957  13.050 -0.0636  0.9319  3.9263
 3400SOL    HW221663   3.273   3.005  12.947  0.3693 -1.5065 -0.3139
 3401SOL     OW21664   3.898   1.867   2.046 -0.0532  0.4941 -0.7240
 3401SOL    HW121665   3.924   1.805   1.978  2.2526  0.0815  0.5561
 3401SOL    HW221666   3.844   1.933   2.002  0.2786 -1.1579 -3.6062
 3402SOL     OW21667   1.682   0.781  15.730 -0.6242 -0.2599 -0.5612
 3402SOL    HW121668   1.711   0.744  15.814 -0.4242 -1.5931 -1.2020
 3402SOL    HW221669   1.648   0.867  15.754 -1.5897 -0.6812 -0.4388
 3403SOL     OW21670   0.160   2.733  11.786 -0.0938 -0.1954 -0.2588
 3403SOL    HW121671   0.216   2.757  11.859  0.5194 -0.7023 -0.5609
 3403SOL    HW221672   0.211   2.688  11.718 -1.4725  1.3865 -2.3220
 3404SOL     OW21673   1.919   4.275   4.184 -0.1206 -0.4423  0.5567
 3404SOL    HW121674   1.944   4.226   4.262 -1.4095 -1.7928  0.0960
 3404SOL    HW221675   1.886   4.204   4.130 -1.5163  0.0442  0.7619
 3405SOL     OW21676   3.865   4.192   2.651 -0.4312 -0.1561 -0.2254
 3405SOL    HW121677   3.823   4.116   2.691 -0.2900 -0.3238 -0.3932
 3405SOL    HW221678   3.875   4.168   2.558  0.2397  0.8117 -0.4020
 3406SOL     OW21679   2.256   3.244   3.133  0.1618  0.4676 -0.4951
 3406SOL    HW121680   2.321   3.314   3.132  0.4991  0.1786  2.2137
 3406SOL    HW221681   2.190   3.280   3.073  0.3138  1.3730 -0.1176
 3407SOL     OW21682   3.781   0.454   4.973 -0.8565 -0.1855  0.4074
 3407SOL    HW121683   3.697   0.416   4.999 -0.2052 -1.8749  0.0415
 3407SOL    HW221684   3.778   0.437   4.879 -0.6240  1.9778  0.0181
 3408SOL     OW21685   2.335   4.586   6.325  0.5126  0.3445  0.0862
 3408SOL    HW121686   2.251   4.602   6.284  0.4403  2.9857  1.3089
 3408SOL    HW221687   2.350   4.670   6.368 -2.0574 -0.2911  2.2273
 3409SOL     OW21688   1.543   4.477  10.963  0.0960  0.7496  0.4816
 3409SOL    HW121689   1.465   4.531  10.973  0.8123  2.0502 -0.8426
 3409SOL    HW221690   1.515   4.400  10.913 -0.2883  1.3777 -0.2734
 3410SOL     OW21691   0.792   1.734   3.921  0.3776 -0.0908  0.4838
 3410SOL    HW121692   0.738   1.659   3.897 -0.7994  0.6167  0.9433
 3410SOL    HW221693   0.733   1.802   3.953 -1.2713 -1.4929  0.4211
 3411SOL     OW21694   0.725   3.521  13.666  0.1691 -0.0127  0.3980
 3411SOL    HW121695   0.656   3.470  13.623  0.2148  2.6120 -2.7517
 3411SOL    HW221696   0.759   3.560  13.586 -0.5379 -2.4811 -1.0855
 3412SOL     OW21697   2.610   4.309   2.190 -0.1295  0.0286  0.1296
 3412SOL    HW121698   2.646   4.350   2.269 -2.2727  0.9148  0.6620
 3412SOL    HW221699   2.693   4.290   2.146  0.1336  1.2182  0.0945
 3413SOL     OW21700   3.358   2.833   4.324 -0.1797  0.1154 -0.0707
 3413SOL    HW121701   3.269   2.813   4.354  0.2704 -0.8696  0.5907
 3413SOL    HW221702   3.403   2.813   4.405 -1.2213 -0.2489  0.4223
 3414SOL     OW21703   2.112   3.127  12.466  0.7216  0.0213  0.6338
 3414SOL    HW121704   2.122   3.048  12.519 -1.8232  0.6095  2.0084
 3414SOL    HW221705   2.173   3.108  12.395  0.0667 -0.1888  0.1247
 3415SOL     OW21706   2.349   2.673   1.649 -0.3099  0.4527  0.0052
 3415SOL    HW121707   2.334   2.609   1.580 -1.8911  3.0681 -2.0529
 3415SOL    HW221708   2.368   2.754   1.602 -1.1941  0.5656 -0.1414
 3416SOL     OW21709   0.461   4.357   8.355 -0.1502 -0.3752 -0.1636
 3416SOL    HW121710   0.501   4.274   8.330 -2.3257 -0.7204 -2.5767
 3416SOL    HW221711   0.374   4.336   8.321  0.6694 -1.0354 -1.8945
 3417SOL     OW21712   2.805   0.602   8.097 -0.1614  0.5468 -0.3406
 3417SOL    HW121713   2.727   0.553   8.071  0.1815 -0.8415  1.2549
 3417SOL    HW221714   2.831   0.576   8.185  0.4678  1.0836 -0.3673
 3418SOL     OW21715   2.433   3.513   2.796  0.7979 -0.8609  0.1551
 3418SOL    HW121716   2.384   3.505   2.715 -0.7136  0.0259  0.9718
 3418SOL    HW221717   2.365   3.505   2.864 -0.5313 -2.2647 -1.3468
 3419SOL     OW21718   3.404   3.505   8.882 -0.1427 -0.6520 -0.5787
 3419SOL    HW121719   3.478   3.525   8.940  0.1121 -0.7542 -0.8667
 3419SOL    HW221720   3.452   3.458   8.814  0.3876 -2.9743  1.3673
 3420SOL     OW21721   3.335   2.987   7.106 -0.2104 -0.1733  0.2161
 3420SOL    HW121722   3.320   2.892   7.107 -0.5145 -0.1040  1.8080
 3420SOL    HW221723   3.416   2.982   7.054 -0.5826  1.3692 -0.5087
 3421SOL     OW21724   0.435   4.531  14.013  0.2475 -0.3488 -0.0021
 3421SOL    HW121725   0.441   4.493  14.101 -1.0490  0.3604  0.3957
 3421SOL    HW221726   0.363   4.477  13.980 -1.3671  1.1649  1.0937
 3422SOL     OW21727   3.271   0.825   5.460 -0.2528 -0.4445  0.4497
 3422SOL    HW121728   3.338   0.771   5.418  0.2718 -0.0680  0.7943
 3422SOL    HW221729   3.198   0.798   5.405  0.2656  2.4660 -1.6945
 3423SOL     OW21730   2.785   0.052   6.563  0.2929  0.2642  0.5344
 3423SOL    HW121731   2.807   0.096   6.481 -3.5796 -1.1576 -1.2365
 3423SOL    HW221732   2.718   0.110   6.599 -0.0286 -0.0429  0.4281
 3424SOL     OW21733   1.238   2.955   5.010 -0.1263  0.4382 -0.9402
 3424SOL    HW121734   1.205   2.938   4.921  2.0044 -6.6258 -0.3640
 3424SOL    HW221735   1.262   3.047   5.005  1.3308  0.0208 -1.8021
 3425SOL     OW21736   2.065   4.570  14.080  0.1897  0.3543 -0.3338
 3425SOL    HW121737   2.018   4.494  14.045  1.4308 -0.3911 -0.3703
 3425SOL    HW221738   2.153   4.550  14.049  0.1168 -0.8397  0.2447
 3426SOL     OW21739   2.313   0.924  12.130 -0.1300 -0.4074 -0.0032
 3426SOL    HW121740   2.362   0.912  12.049  0.3825 -0.6963  0.3536
 3426SOL    HW221741   2.349   0.864  12.196  1.1361 -0.5944 -0.8761
 3427SOL     OW21742   0.503   4.551   8.134 -0.0677  0.2514  0.3456
 3427SOL    HW121743   0.477   4.478   8.191  0.8320 -1.4241 -1.3917
 3427SOL    HW221744   0.562   4.604   8.187  1.0497  0.0825 -0.7210
 3428SOL     OW21745   0.310   0.471   4.814  0.0243  0.0696  0.2976
 3428SOL    HW121746   0.233   0.525   4.800 -1.3601 -1.7416  0.9530
 3428SOL    HW221747   0.385   0.531   4.820  0.2191 -0.0530 -0.7905
 3429SOL     OW21748   2.339   2.215   2.976  0.1667 -0.1579  0.4975
 3429SOL    HW121749   2.373   2.174   2.897 -1.6484 -0.6773 -0.0359
 3429SOL    HW221750   2.248   2.184   2.985 -0.2903  1.0834  0.1026
 3430SOL     OW21751   1.760   3.900   6.286  0.0323 -1.0214 -0.3866
 3430SOL    HW121752   1.785   3.809   6.305 -0.7818 -0.5016  3.1072
 3430SOL    HW221753   1.848   3.930   6.261 -1.1650  2.4616 -0.3913
 3431SOL     OW21754   0.626   2.025   2.650 -0.2326 -0.3261 -0.0815
 3431SOL    HW121755   0.691   1.962   2.619 -0.5322 -0.8438  0.3525
 3431SOL    HW221756   0.681   2.103   2.647 -1.2800  0.3988 -0.6027
 3432SOL     OW21757   0.787   0.120   6.815 -0.5437  1.1468 -0.1410
 3432SOL    HW121758   0.792   0.044   6.757  3.6307  0.2693  1.3645
 3432SOL    HW221759   0.859   0.105   6.876  0.4891  2.5026 -1.0093
 3433SOL     OW21760   0.652   0.269   1.724 -0.2174 -0.1473  0.4527
 3433SOL    HW121761   0.711   0.194   1.710  1.3745  1.0452  0.8230
 3433SOL    HW221762   0.703   0.333   1.674 -0.5817 -0.3124 -0.1379
 3434SOL     OW21763   0.743   0.975  14.737  0.1853 -0.1889  0.2511
 3434SOL    HW121764   0.776   0.891  14.707 -0.3658 -0.1744 -0.3996
 3434SOL    HW221765   0.811   1.039  14.716  1.2923 -0.8975  1.7150
 3435SOL     OW21766   0.611   1.177   4.109 -0.3037 -0.0582  0.5114
 3435SOL    HW121767   0.675   1.209   4.045 -1.8275  1.3585 -0.3138
 3435SOL    HW221768   0.588   1.253   4.163  0.4417  0.4275  0.1383
 3436SOL     OW21769   0.745   0.054   0.170 -0.3613  0.0424 -0.1702
 3436SOL    HW121770   0.839   0.057   0.156  0.0986 -0.2243  2.9939
 3436SOL    HW221771   0.732   4.684   0.151 -1.6678  0.6676 -2.3852
 3437SOL     OW21772   3.162   0.451   3.670 -0.6285  0.3603 -0.0946
 3437SOL    HW121773   3.100   0.494   3.611  0.8611  1.4511 -0.8442
 3437SOL    HW221774   3.109   0.376   3.699  0.5247 -0.1400  0.7393
 3438SOL     OW21775   1.146   2.129  10.627 -0.3781  0.2970  0.1958
 3438SOL    HW121776   1.166   2.185  10.702 -0.7584 -1.1776  1.4096
 3438SOL    HW221777   1.090   2.179  10.568  1.6404  0.6295 -1.4180
 3439SOL     OW21778   3.227   1.328   7.709 -0.2477 -0.1097  0.1337
 3439SOL    HW121779   3.193   1.249   7.751  0.8370 -1.4533 -1.5076
 3439SOL    HW221780   3.271   1.289   7.633 -1.3926  2.2380 -1.7215
 3440SOL     OW21781   0.266   3.118   0.063  0.0999 -0.6021  0.1730
 3440SOL    HW121782   0.204   3.169   0.011 -0.3672  0.7069  1.9927
 3440SOL    HW221783   0.271   3.178   0.138 -0.7471 -0.5739  0.2082
 3441SOL     OW21784   3.092   0.657  13.951 -0.6552 -0.2231  0.5197
 3441SOL    HW121785   3.106   0.744  13.915  0.7495 -0.3188  0.8416
 3441SOL    HW221786   3.131   0.667  14.037 -0.5167  0.7025  0.3412
 3442SOL     OW21787   1.586   2.467   6.046 -0.1862  0.5001 -0.4833
 3442SOL    HW121788   1.624   2.390   6.003 -3.6591 -2.3978  1.6357
 3442SOL    HW221789   1.564   2.530   5.977 -0.6152  0.2494 -0.5764
 3443SOL     OW21790   3.379   0.010   2.451 -0.1302 -1.1943 -0.5224
 3443SOL    HW121791   3.456   0.004   2.507 -0.0996  0.8951 -0.3369
 3443SOL    HW221792   3.357   0.102   2.468 -1.3270 -1.9105  1.6997
 3444SOL     OW21793   0.931   4.062   1.211 -0.1220 -0.1135  1.0263
 3444SOL    HW121794   0.988   4.005   1.160  0.5193  1.1673  0.3462
 3444SOL    HW221795   0.927   4.011   1.293 -1.9326 -1.3212  0.1991
 3445SOL     OW21796   0.271   0.499  10.268 -0.1702 -0.4903 -0.2525
 3445SOL    HW121797   0.214   0.569  10.235 -0.7840 -1.0811 -0.4261
 3445SOL    HW221798   0.236   0.495  10.357  2.4519 -1.4965  0.7389
 3446SOL     OW21799   0.260   1.820   8.073 -0.1678 -0.1752 -1.0824
 3446SOL    HW121800   0.166   1.803   8.076 -0.3463  0.7294 -1.6893
 3446SOL    HW221801   0.259   1.913   8.097 -0.4850 -0.0430 -1.6156
 3447SOL     OW21802   2.637   1.604   0.608 -0.0661 -0.1046 -0.4173
 3447SOL    HW121803   2.650   1.678   0.667 -0.3995 -0.9076  0.6737
 3447SOL    HW221804   2.551   1.620   0.569  0.2641  0.1922 -1.0163
 3448SOL     OW21805   2.121   2.906  12.634  0.1285  0.4293  0.0264
 3448SOL    HW121806   2.187   2.881  12.698  0.6315  0.8536 -0.3245
 3448SOL    HW221807   2.057   2.942  12.696  0.5056 -0.9691  1.2259
 3449SOL     OW21808   3.138   2.878   5.049 -0.1083 -0.0912  0.2390
 3449SOL    HW121809   3.220   2.844   5.083 -0.8457 -1.2204  0.8634
 3449SOL    HW221810   3.137   2.970   5.077 -3.7087  0.1720 -0.6469
 3450SOL     OW21811   2.290   3.213   9.092 -0.2473 -0.1631 -0.0799
 3450SOL    HW121812   2.254   3.127   9.114  0.4307  0.1990  2.4704
 3450SOL    HW221813   2.324   3.245   9.176 -2.7110  0.8890  0.5172
 3451SOL     OW21814   4.085   1.044   2.159  0.0686 -1.0043 -0.1639
 3451SOL    HW121815   4.116   1.133   2.144 -0.3942 -1.2731 -2.7897
 3451SOL    HW221816   3.991   1.063   2.149  0.0040 -2.1588 -1.8432
 3452SOL     OW21817   1.788   4.462   1.738 -0.0886 -0.1343 -0.1472
 3452SOL    HW121818   1.847   4.524   1.781  1.4596 -1.5118 -0.2670
 3452SOL    HW221819   1.849   4.392   1.712 -0.0761  0.4275 -1.6447
 3453SOL     OW21820   1.193   0.700   7.703 -0.1812  0.1389 -0.3395
 3453SOL    HW121821   1.275   0.744   7.683 -1.3280  2.4297 -0.0052
 3453SOL    HW221822   1.198   0.711   7.798  1.4377 -0.1644 -0.3881
 3454SOL     OW21823   2.028   4.436   2.251  0.3738 -0.0713  0.1228
 3454SOL    HW121824   2.047   4.342   2.243 -0.3119 -0.1391 -0.6190
 3454SOL    HW221825   1.965   4.451   2.181  0.1051  1.3149  0.6810
 3455SOL     OW21826   1.523   0.238   5.864 -0.2591  0.4918 -0.3472
 3455SOL    HW121827   1.516   0.331   5.844 -2.5272  0.6268  1.0403
 3455SOL    HW221828   1.482   0.243   5.951  2.0879  0.4158  0.7659
 3456SOL     OW21829   4.229   1.465  10.112  0.1991 -0.3376 -0.3746
 3456SOL    HW121830   4.195   1.395  10.168 -1.6831 -0.0869 -1.1914
 3456SOL    HW221831   4.184   1.462  10.027  1.7052 -0.8668 -1.1623
 3457SOL     OW21832   3.948   4.524   4.750  0.1784  0.3923  0.2238
 3457SOL    HW121833   3.900   4.502   4.831  3.0065  0.7143  1.9812
 3457SOL    HW221834   3.883   4.506   4.683  0.2663  0.2631  0.1742
 3458SOL     OW21835   0.136   4.466   2.522 -0.0888 -0.4155  0.1325
 3458SOL    HW121836   0.065   4.432   2.577 -1.7439  1.0576 -1.0620
 3458SOL    HW221837   0.159   4.543   2.573 -1.7194  0.4147 -0.3838
 3459SOL     OW21838   2.623   0.563   2.551  0.3081 -0.4117  0.3912
 3459SOL    HW121839   2.684   0.505   2.598  0.7592 -0.1360  0.1472
 3459SOL    HW221840   2.552   0.499   2.556 -0.1371  0.0311 -0.3636
 3460SOL     OW21841   3.476   3.530  15.184 -0.3543  0.2329 -0.4657
 3460SOL    HW121842   3.514   3.609  15.222  1.7257 -0.5008 -0.9697
 3460SOL    HW221843   3.555   3.491  15.146 -0.4439  0.5700 -1.0034
 3461SOL     OW21844   3.280   1.053   3.662  0.3729 -0.1064 -1.0759
 3461SOL    HW121845   3.319   1.079   3.745 -2.7237  0.6121  0.1494
 3461SOL    HW221846   3.190   1.035   3.691  0.0808  2.6411 -0.2128
 3462SOL     OW21847   3.392   0.433   7.616 -0.3026  0.0672  0.2992
 3462SOL    HW121848   3.410   0.505   7.555  0.7696 -0.5331 -0.1074
 3462SOL    HW221849   3.322   0.462   7.674 -2.1692 -2.7642 -0.5281
 3463SOL     OW21850   0.626   0.014  14.829  0.6336  0.4348  0.3292
 3463SOL    HW121851   0.564   0.079  14.796  0.0068 -0.7815 -0.9143
 3463SOL    HW221852   0.709   0.060  14.835  0.0716  1.4038  0.6506
 3464SOL     OW21853   2.377   3.552   2.130 -0.2483  0.2893 -0.4086
 3464SOL    HW121854   2.392   3.476   2.187  0.5610 -1.2974 -2.7510
 3464SOL    HW221855   2.453   3.603   2.156 -0.2609  0.3011 -0.3950
 3465SOL     OW21856   0.404   2.908  17.425 -0.2503 -0.2373 -0.1087
 3465SOL    HW121857   0.377   2.888  17.515 -2.2012  1.7593 -0.2200
 3465SOL    HW221858   0.363   2.835  17.379  1.8904 -0.5786 -1.4292
 3466SOL     OW21859   2.697   1.371   9.021 -0.2040 -0.1298  0.4907
 3466SOL    HW121860   2.728   1.341   9.107 -0.6400 -0.8624  0.3883
 3466SOL    HW221861   2.688   1.286   8.978  1.1776  0.3490 -0.7453
 3467SOL     OW21862   3.427   1.813   6.393  0.0277  0.1401 -0.2885
 3467SOL    HW121863   3.438   1.819   6.298 -0.3192  0.2066 -0.3238
 3467SOL    HW221864   3.430   1.903   6.426 -1.0788 -0.3738  1.1744
 3468SOL     OW21865   3.425   0.188   8.269 -0.6368 -0.8489 -0.1530
 3468SOL    HW121866   3.435   0.266   8.324 -1.1067  0.2289 -1.6100
 3468SOL    HW221867   3.445   0.123   8.336  1.3998  1.1684  1.2022
 3469SOL     OW21868   3.469   3.091   3.236  0.4530  0.0868  0.1231
 3469SOL    HW121869   3.440   3.016   3.185  2.4291 -0.2350 -0.5031
 3469SOL    HW221870   3.500   3.145   3.163 -1.0412 -0.2982 -0.8006
 3470SOL     OW21871   0.622   2.851   5.299  0.1514  0.5401  0.2901
 3470SOL    HW121872   0.542   2.799   5.294  0.0501  0.8005 -0.7016
 3470SOL    HW221873   0.625   2.898   5.216 -0.8345  0.0555 -0.0213
 3471SOL     OW21874   0.391   0.835   1.430  0.3824 -0.3526  0.2108
 3471SOL    HW121875   0.477   0.829   1.473  0.0591  1.7149  1.1417
 3471SOL    HW221876   0.345   0.880   1.501  1.6122 -0.0359  0.8125
 3472SOL     OW21877   3.903   4.125   0.300 -0.0663 -0.0805 -0.6099
 3472SOL    HW121878   3.913   4.157   0.389 -1.3803  0.2201 -0.5687
 3472SOL    HW221879   3.993   4.139   0.269  0.3491 -1.9988 -0.2624
 3473SOL     OW21880   2.669   2.755   2.753 -0.5734 -0.2876 -0.3587
 3473SOL    HW121881   2.641   2.781   2.665 -0.6131 -1.0236 -0.5620
 3473SOL    HW221882   2.586   2.749   2.800 -0.4036 -1.3692 -0.1890
 3474SOL     OW21883   1.977   3.346  12.101  0.4165 -0.5451  0.0779
 3474SOL    HW121884   1.947   3.351  12.010 -0.8574  1.6310  0.6381
 3474SOL    HW221885   2.024   3.429  12.100 -1.2944  0.4267  0.0769
 3475SOL     OW21886   0.383   2.457   2.170 -0.1348  0.3657 -0.2073
 3475SOL    HW121887   0.307   2.512   2.191 -0.4782  0.4635 -1.6963
 3475SOL    HW221888   0.442   2.532   2.174  0.7726 -0.5010  2.4683
 3476SOL     OW21889   1.325   3.865   7.865 -0.6973 -0.1336  0.4981
 3476SOL    HW121890   1.352   3.896   7.778  0.3021 -1.4953  0.3172
 3476SOL    HW221891   1.408   3.847   7.908 -0.1865  2.6063  0.6515
 3477SOL     OW21892   1.411   2.832   3.403  0.2333  0.6787  0.1490
 3477SOL    HW121893   1.345   2.878   3.351 -1.7719 -0.6177  1.5544
 3477SOL    HW221894   1.360   2.751   3.400 -0.0372  0.8136  1.1123
 3478SOL     OW21895   0.521   1.418   3.457 -0.3941 -0.2473 -0.1347
 3478SOL    HW121896   0.540   1.343   3.513  0.2567 -0.2726 -0.3888
 3478SOL    HW221897   0.612   1.445   3.449 -0.5517  0.0749 -0.9036
 3479SOL     OW21898   3.169   3.271   7.541 -0.7119  0.3163  0.4216
 3479SOL    HW121899   3.264   3.260   7.540 -0.7124  0.3362  0.1888
 3479SOL    HW221900   3.148   3.217   7.465  0.8583  0.3653 -0.0416
 3480SOL     OW21901   0.683   2.133   9.903 -0.3199 -0.3277 -0.0615
 3480SOL    HW121902   0.590   2.135   9.881 -0.0833  0.0564 -1.0060
 3480SOL    HW221903   0.675   2.063   9.969  1.5311 -1.2165 -0.7748
 3481SOL     OW21904   0.619   0.522   7.654 -0.8653  0.4133  0.5131
 3481SOL    HW121905   0.654   0.510   7.566 -0.9293 -1.1642  0.7032
 3481SOL    HW221906   0.582   0.436   7.677  1.3772 -0.7614 -0.1880
 3482SOL     OW21907   1.372   3.177   6.413  0.3631  0.2771  0.3839
 3482SOL    HW121908   1.313   3.105   6.434 -2.7587  2.5794 -0.5293
 3482SOL    HW221909   1.344   3.188   6.322  1.8812  2.0399  0.1323
 3483SOL     OW21910   4.187   2.679   4.388  0.1607 -0.3304 -0.5513
 3483SOL    HW121911   4.165   2.682   4.295 -3.0322  2.2066  0.2958
 3483SOL    HW221912   4.149   2.598   4.421  1.7968 -0.1896  1.6508
 3484SOL     OW21913   1.449   4.671   9.304  0.1252  0.0147 -0.4399
 3484SOL    HW121914   1.541   4.693   9.287 -0.0465  0.4086 -0.8388
 3484SOL    HW221915   1.472   4.615   9.379  0.0384 -0.4682 -0.7760
 3485SOL     OW21916   3.109   3.245   7.127  0.0197  0.3055 -0.2461
 3485SOL    HW121917   3.082   3.212   7.042  1.8335  1.4893 -1.2792
 3485SOL    HW221918   3.035   3.299   7.154 -0.4746  0.0286 -1.0627
 3486SOL     OW21919   0.531   2.670   4.339 -0.1364 -0.2740  0.3985
 3486SOL    HW121920   0.605   2.730   4.347 -0.3032 -0.0953  0.5977
 3486SOL    HW221921   0.464   2.728   4.304 -0.6268  0.0874  1.9446
 3487SOL     OW21922   1.637   0.544   2.265 -0.1865  0.2913  0.5023
 3487SOL    HW121923   1.682   0.549   2.349 -0.6822 -2.7056  0.9523
 3487SOL    HW221924   1.626   0.636   2.242 -1.3765  0.5149  1.9488
 3488SOL     OW21925   4.409   2.026  15.878  0.6438 -0.6288  0.2129
 3488SOL    HW121926   4.451   2.111  15.888 -0.5456  0.0568 -0.5876
 3488SOL    HW221927   4.457   1.982  15.948  1.7286  0.9483  0.4530
 3489SOL     OW21928   0.597   0.003   0.864  0.3544  0.0365 -0.5095
 3489SOL    HW121929   0.649   4.722   0.944  0.9782  0.3611 -0.9012
 3489SOL    HW221930   0.648   0.060   0.807  2.6732  0.0213  1.5672
 3490SOL     OW21931   1.205   1.652   7.562  0.2640 -0.6189 -0.2546
 3490SOL    HW121932   1.143   1.725   7.566  0.2529 -0.5867 -1.0128
 3490SOL    HW221933   1.190   1.626   7.471  0.0191  2.1071 -1.0023
 3491SOL     OW21934   0.071   0.114   1.152  0.5228 -0.2248 -0.4795
 3491SOL    HW121935   0.071   0.125   1.247 -1.7295 -0.4129 -0.4666
 3491SOL    HW221936   4.711   0.156   1.131  0.7385  0.9228  1.0045
 3492SOL     OW21937   0.524   1.308   4.918 -0.7074  0.0150 -0.1301
 3492SOL    HW121938   0.565   1.298   5.005 -1.8222 -1.6004  0.2079
 3492SOL    HW221939   0.454   1.245   4.931 -0.4876  0.2629  2.3438
 3493SOL     OW21940   3.755   3.962   2.753 -0.1961 -0.3210  0.2059
 3493SOL    HW121941   3.691   3.934   2.687 -2.1636  1.5955  1.3120
 3493SOL    HW221942   3.767   3.885   2.808 -0.7706 -0.6209 -0.0898
 3494SOL     OW21943   3.499   2.993  10.169 -0.5585 -0.5215  0.3595
 3494SOL    HW121944   3.562   2.995  10.096  0.6693  1.6700  1.4842
 3494SOL    HW221945   3.528   3.057  10.234 -0.9794  0.2291 -0.1872
 3495SOL     OW21946   4.136   2.950  17.326 -0.3437  0.6395  0.1940
 3495SOL    HW121947   4.098   2.866  17.302  1.4443  0.1292 -0.8561
 3495SOL    HW221948   4.119   2.997  17.244  0.1433 -0.2206 -0.4003
 3496SOL     OW21949   3.596   0.398   7.801 -0.6137 -0.0517 -0.0323
 3496SOL    HW121950   3.663   0.462   7.778  0.2598 -0.9722 -0.0715
 3496SOL    HW221951   3.532   0.422   7.734  1.2049  1.1763 -1.3475
 3497SOL     OW21952   2.944   1.809   0.337  0.6217 -0.2189 -0.2621
 3497SOL    HW121953   2.954   1.737   0.399 -0.3720  0.9043  1.2044
 3497SOL    HW221954   2.963   1.758   0.259  1.6353  0.2130 -0.3013
 3498SOL     OW21955   0.881   1.898   5.873 -0.3097  0.0290  0.3820
 3498SOL    HW121956   0.949   1.891   5.939  0.8149  0.9252 -0.6765
 3498SOL    HW221957   0.894   1.824   5.814 -0.6038  0.6246 -0.4431
 3499SOL     OW21958   1.969   2.337   6.187 -0.1005 -0.1939  0.7185
 3499SOL    HW121959   2.005   2.348   6.275 -1.3167  0.1247  1.1895
 3499SOL    HW221960   2.043   2.287   6.153  0.6157  0.8132  0.7819
 3500SOL     OW21961   2.504   1.534   3.083  0.2785 -0.2772 -0.0037
 3500SOL    HW121962   2.486   1.565   3.172 -0.8820  0.4856 -0.4992
 3500SOL    HW221963   2.545   1.448   3.089  1.0724  0.1059 -0.0280
 3501SOL     OW21964   3.255   4.720  14.838 -0.5060 -0.3388  0.0749
 3501SOL    HW121965   3.256   4.625  14.829  1.0455 -0.1460 -1.8063
 3501SOL    HW221966   3.295   0.007  14.924 -0.6776  2.0277 -0.1047
 3502SOL     OW21967   1.533   3.768   7.231 -0.0567  0.0728  0.6693
 3502SOL    HW121968   1.619   3.774   7.274  0.6403 -2.1343 -0.3559
 3502SOL    HW221969   1.486   3.709   7.290 -1.6826 -1.0872 -1.8111
 3503SOL     OW21970   3.610   4.302   8.160 -0.7362  0.2114  0.6835
 3503SOL    HW121971   3.556   4.274   8.234 -2.9310  0.4576 -0.8385
 3503SOL    HW221972   3.553   4.277   8.088  0.8512  1.7748 -1.1116
 3504SOL     OW21973   2.980   2.858  16.467  0.0285  0.0576  0.2705
 3504SOL    HW121974   2.931   2.923  16.417  1.6920  0.3007 -1.0747
 3504SOL    HW221975   2.999   2.915  16.541  1.4960 -0.6036  0.3962
 3505SOL     OW21976   2.950   2.053   6.240  0.0253  0.4218  0.1955
 3505SOL    HW121977   2.870   2.080   6.194  0.4347  0.4860 -0.4781
 3505SOL    HW221978   2.937   1.958   6.241  3.0417 -0.0035 -2.3663
 3506SOL     OW21979   3.033   2.086   5.963  0.1287 -0.2868 -0.7846
 3506SOL    HW121980   3.022   2.095   6.058  0.7134 -0.7702 -0.6693
 3506SOL    HW221981   2.948   2.117   5.931 -0.4605 -1.0889  0.0083
 3507SOL     OW21982   0.393   3.226   6.766 -0.0944 -0.2201  0.0780
 3507SOL    HW121983   0.422   3.317   6.755 -2.3406  0.6117  0.9991
 3507SOL    HW221984   0.455   3.181   6.709 -1.3343 -0.3938 -1.1336
 3508SOL     OW21985   2.543   4.205   4.088  0.3391  0.1225  0.5393
 3508SOL    HW121986   2.461   4.249   4.110 -0.1265 -0.2001 -0.5274
 3508SOL    HW221987   2.594   4.280   4.059 -0.4390  1.4146  2.5767
 3509SOL     OW21988   3.743   3.310   9.209  0.1415 -0.2925 -0.8428
 3509SOL    HW121989   3.707   3.324   9.297  2.4731  1.5149 -0.1699
 3509SOL    HW221990   3.814   3.250   9.228 -0.0351 -1.1936 -3.0987
 3510SOL     OW21991   4.264   3.476  15.094 -0.4097 -0.4048  0.3951
 3510SOL    HW121992   4.225   3.394  15.125 -2.3196 -0.2448 -1.6101
 3510SOL    HW221993   4.229   3.479  15.005  2.2368  0.9550 -0.5960
 3511SOL     OW21994   4.683   3.665   6.971 -0.1588 -0.1847  0.3276
 3511SOL    HW121995   4.600   3.657   6.923  0.6813 -1.5824 -0.8924
 3511SOL    HW221996   0.019   3.706   6.908  0.0816  1.9800  1.9664
 3512SOL     OW21997   0.401   0.943   7.576  0.3946  0.4650  0.6383
 3512SOL    HW121998   0.417   0.957   7.483  0.6189  1.0638  0.7664
 3512SOL    HW221999   0.393   0.847   7.571  0.4263  0.5594 -1.1067
 3513SOL     OW22000   1.736   2.975   6.182 -0.1388  0.5765 -0.5389
 3513SOL    HW122001   1.779   2.930   6.109 -0.4768 -0.6126 -0.0034
 3513SOL    HW222002   1.703   3.048   6.129  0.2308  0.6461 -0.6806
 3514SOL     OW22003   4.248   4.520   3.965 -0.4809 -0.5842  0.0450
 3514SOL    HW122004   4.280   4.586   3.904 -0.5936 -1.7480 -1.2725
 3514SOL    HW222005   4.204   4.571   4.033  1.7635  0.6064  0.6185
 3515SOL     OW22006   1.032   0.421   3.097 -0.2051  0.1305  0.1104
 3515SOL    HW122007   1.013   0.440   3.189  0.4009 -0.4403  0.3583
 3515SOL    HW222008   0.957   0.460   3.052  0.7921  2.3068  0.3044
 3516SOL     OW22009   1.312   2.228   9.623 -0.3269 -0.5962  0.4606
 3516SOL    HW122010   1.370   2.166   9.669  0.6274  0.7733  1.1178
 3516SOL    HW222011   1.273   2.270   9.700 -1.4184  0.6401 -0.7829
 3517SOL     OW22012   2.222   2.230   4.655 -0.6604 -0.0140 -0.0774
 3517SOL    HW122013   2.262   2.317   4.661 -1.1095  0.2269 -0.5811
 3517SOL    HW222014   2.178   2.227   4.741 -0.6676  1.1173 -0.0369
 3518SOL     OW22015   1.860   0.042  16.186  0.4731  0.0928  0.3308
 3518SOL    HW122016   1.810   4.698  16.140  0.8967 -0.3888  0.5766
 3518SOL    HW222017   1.832   0.120  16.138 -0.6633 -1.5965 -1.7240
 3519SOL     OW22018   1.174   4.241   7.825 -0.2583  0.2440 -0.1751
 3519SOL    HW122019   1.152   4.235   7.732 -3.3479 -2.0680  0.7308
 3519SOL    HW222020   1.141   4.155   7.849  1.4497  0.0009  1.3027
 3520SOL     OW22021   0.160   0.608  13.862  0.4072  0.0668 -0.0916
 3520SOL    HW122022   0.239   0.621  13.915 -2.2393  1.2333  3.5228
 3520SOL    HW222023   0.178   0.664  13.786 -1.0197  0.2458 -0.2993
 3521SOL     OW22024   3.055   0.262  12.065 -0.1751 -0.2442  0.1352
 3521SOL    HW122025   3.080   0.339  12.014  0.7373 -0.4076  0.3340
 3521SOL    HW222026   3.127   0.199  12.064 -0.8800 -1.0287 -1.4446
 3522SOL     OW22027   3.576   4.591   5.225  0.2459  0.1982  0.4444
 3522SOL    HW122028   3.534   4.519   5.177  0.7612 -0.8220  1.5204
 3522SOL    HW222029   3.598   4.652   5.154 -1.0818  1.4736  1.1391
 3523SOL     OW22030   3.450   3.005  13.835 -0.1637 -0.2747  0.3591
 3523SOL    HW122031   3.456   3.094  13.800  0.3013  0.7147  3.0040
 3523SOL    HW222032   3.398   2.966  13.764 -1.7930 -1.0198  1.9738
 3524SOL     OW22033   3.331   3.931   8.987  0.6187  0.5796 -0.1440
 3524SOL    HW122034   3.320   3.870   8.914  0.9257 -0.3185  0.5727
 3524SOL    HW222035   3.255   3.908   9.041 -0.7370 -0.9782 -2.7029
 3525SOL     OW22036   2.063   3.160   8.760 -0.5991  0.3192  0.0335
 3525SOL    HW122037   2.060   3.187   8.852 -0.0470  2.0761 -0.4764
 3525SOL    HW222038   2.148   3.191   8.729 -0.1327 -1.6301 -0.6369
 3526SOL     OW22039   0.929   2.848   6.605 -0.3323 -0.0736  0.7898
 3526SOL    HW122040   0.898   2.771   6.652  0.4408 -1.6501 -1.2499
 3526SOL    HW222041   0.928   2.910   6.678 -0.0199 -0.0653  0.7857
 3527SOL     OW22042   0.930   3.287   3.066  0.0855 -0.4519 -0.4265
 3527SOL    HW122043   1.010   3.251   3.028 -1.0188 -2.6819 -0.6360
 3527SOL    HW222044   0.886   3.210   3.103  1.1891 -0.0085  1.7991
 3528SOL     OW22045   2.518   2.197  12.840  0.0470 -0.1516  0.4998
 3528SOL    HW122046   2.584   2.177  12.773  0.6581 -1.4039  1.4870
 3528SOL    HW222047   2.559   2.161  12.918  0.2025 -0.5433  0.2394
 3529SOL     OW22048   2.503   2.623   3.917 -0.6434 -0.3658 -0.3312
 3529SOL    HW122049   2.568   2.647   3.850 -0.2582  0.1929  0.2386
 3529SOL    HW222050   2.438   2.690   3.896 -0.3655 -0.0902 -0.3141
 3530SOL     OW22051   3.837   4.076   2.408 -0.4459 -0.4798 -0.4854
 3530SOL    HW122052   3.774   4.007   2.431  0.1241 -0.8590 -0.0621
 3530SOL    HW222053   3.871   4.044   2.324 -0.0073 -2.0053  0.2803
 3531SOL     OW22054   0.937   2.149   3.612 -0.3940 -0.0198 -0.0554
 3531SOL    HW122055   0.907   2.218   3.553 -0.8821 -0.3881 -0.2386
 3531SOL    HW222056   0.892   2.165   3.695 -0.1921 -0.7773  0.1993
 3532SOL     OW22057   3.249   2.026   9.517  0.1835 -0.0462 -0.1541
 3532SOL    HW122058   3.170   2.078   9.529 -0.1243 -0.8658  1.3759
 3532SOL    HW222059   3.278   2.054   9.431 -3.0652 -1.5492 -1.7254
 3533SOL     OW22060   0.259   3.176   9.460 -0.0117  0.5428 -0.0235
 3533SOL    HW122061   0.190   3.122   9.421  1.6484 -0.8512 -1.0105
 3533SOL    HW222062   0.292   3.224   9.384 -2.2651  0.6798 -0.9233
 3534SOL     OW22063   0.873   1.736   8.723 -0.0773 -0.5039  0.6482
 3534SOL    HW122064   0.950   1.779   8.759 -1.7170  1.9674  1.2562
 3534SOL    HW222065   0.832   1.701   8.803 -0.1710 -2.4469 -0.2528
 3535SOL     OW22066   3.900   1.484   8.973 -0.1292 -0.0768 -0.0802
 3535SOL    HW122067   3.900   1.398   8.930 -2.5196  0.7202 -1.6610
 3535SOL    HW222068   3.807   1.507   8.976  0.4590  2.0958  1.0093
 3536SOL     OW22069   3.935   2.819   9.830  0.0134 -0.8366 -0.1871
 3536SOL    HW122070   3.930   2.724   9.832  1.7105 -0.9233 -0.3313
 3536SOL    HW222071   3.960   2.839   9.740  0.0428  1.1295  0.2496
 3537SOL     OW22072   4.678   3.858   2.483 -0.2364  0.1997  0.3605
 3537SOL    HW122073   4.631   3.779   2.511  2.1940 -0.6705  1.9674
 3537SOL    HW222074   4.608   3.900   2.433  0.4889 -0.3066 -1.0814
 3538SOL     OW22075   0.473   4.327   4.640  0.5635  0.3094  0.3835
 3538SOL    HW122076   0.538   4.257   4.633 -2.3374 -2.3728  0.2642
 3538SOL    HW222077   0.439   4.313   4.551  1.2595  1.7450 -0.0988
 3539SOL     OW22078   2.040   4.504   3.873  0.1300  0.6678  0.3183
 3539SOL    HW122079   1.992   4.524   3.953  0.0565  2.5343 -0.1770
 3539SOL    HW222080   1.975   4.449   3.829  1.2784 -1.8946  1.8587
 3540SOL     OW22081   1.547   2.687   7.569 -0.2511 -0.6292 -0.0542
 3540SOL    HW122082   1.509   2.677   7.657  1.2256  1.7530  0.8638
 3540SOL    HW222083   1.582   2.601   7.548 -0.0670 -0.2930 -1.1019
 3541SOL     OW22084   1.020   0.219  14.537  0.3859 -0.3534 -0.0106
 3541SOL    HW122085   0.962   0.286  14.574 -1.2781 -0.1898 -2.8829
 3541SOL    HW222086   1.107   0.258  14.545  0.6921 -0.6777 -1.8398
 3542SOL     OW22087   3.114   0.785   5.229  0.1801 -0.4989 -0.5688
 3542SOL    HW122088   3.103   0.741   5.145  2.5931 -1.8187 -0.1944
 3542SOL    HW222089   3.067   0.861   5.195 -0.7335 -0.5395  0.5713
 3543SOL     OW22090   2.577   0.427   9.867 -0.1268 -1.0180  0.1794
 3543SOL    HW122091   2.604   0.396   9.781  0.9821  1.2224 -0.2724
 3543SOL    HW222092   2.667   0.439   9.899 -1.0794  0.5562  2.2988
 3544SOL     OW22093   4.544   2.349  14.592  0.3562 -0.3811 -0.0516
 3544SOL    HW122094   4.454   2.315  14.598 -0.6298  1.7139 -2.5675
 3544SOL    HW222095   4.558   2.371  14.684  0.5823 -2.7066  0.4542
 3545SOL     OW22096   3.022   2.361   1.916  0.2421  0.6071  0.4407
 3545SOL    HW122097   2.955   2.378   1.851 -1.2795 -2.3836  1.2332
 3545SOL    HW222098   3.054   2.447   1.943  2.1587 -0.5890  2.0170
 3546SOL     OW22099   3.849   0.692  14.098  0.2986 -0.0722  0.0881
 3546SOL    HW122100   3.871   0.701  14.006 -1.2134 -0.9556 -0.3425
 3546SOL    HW222101   3.786   0.620  14.096 -1.2994  1.4113 -2.8566
 3547SOL     OW22102   0.318   3.141   4.613 -0.0322  0.0541  0.1690
 3547SOL    HW122103   0.235   3.179   4.584 -1.6237 -2.5124  1.4134
 3547SOL    HW222104   0.308   3.049   4.589  1.1513  0.0907 -0.4864
 3548SOL     OW22105   1.255   0.724   9.791  0.4761  0.1747  0.0774
 3548SOL    HW122106   1.280   0.702   9.702  0.3759  1.2004 -0.2079
 3548SOL    HW222107   1.202   0.801   9.771 -0.9318 -0.4283  1.4873
 3549SOL     OW22108   4.599   2.769   5.091  0.0012  0.5040 -0.0291
 3549SOL    HW122109   4.543   2.693   5.108 -1.4305  1.1638 -1.9048
 3549SOL    HW222110   4.616   2.807   5.177 -0.3616 -4.1192  2.1109
 3550SOL     OW22111   1.304   0.355   3.990 -0.1582 -0.1329 -0.1846
 3550SOL    HW122112   1.363   0.323   4.058  1.3678 -0.1294 -1.4963
 3550SOL    HW222113   1.335   0.445   3.979  1.0679 -0.3528  1.5564
 3551SOL     OW22114   3.786   2.887   3.494  0.6410 -0.0888  0.4761
 3551SOL    HW122115   3.775   2.890   3.589  0.1688 -1.9106  0.4701
 3551SOL    HW222116   3.703   2.850   3.464  1.6249 -1.1206 -1.0071
 3552SOL     OW22117   3.161   3.958   2.355  0.0608 -0.0714  0.1282
 3552SOL    HW122118   3.157   4.035   2.412  2.2906  0.7733 -0.8475
 3552SOL    HW222119   3.153   3.996   2.268  0.1343 -0.7806 -0.1862
 3553SOL     OW22120   1.782   3.994   7.807 -0.0511  0.4180  0.0478
 3553SOL    HW122121   1.875   3.976   7.822  0.5926  1.9482 -2.2058
 3553SOL    HW222122   1.774   4.034   7.721  0.7032 -1.4292 -0.8984
 3554SOL     OW22123   1.827   4.422   2.038 -0.5090 -0.0039 -0.7505
 3554SOL    HW122124   1.860   4.340   2.001  3.7396  1.2065  0.3864
 3554SOL    HW222125   1.858   4.488   1.976  1.2619  0.6015  0.7660
 3555SOL     OW22126   0.441   1.677   3.991  0.0689  0.1067 -0.1842
 3555SOL    HW122127   0.473   1.765   3.972 -0.1183  0.3640  0.6860
 3555SOL    HW222128   0.480   1.625   3.922 -0.7555  1.5309 -1.7199
 3556SOL     OW22129   4.020   4.098   4.316 -0.1519  0.5086 -0.4150
 3556SOL    HW122130   3.968   4.112   4.395  0.6911  2.1851 -0.1592
 3556SOL    HW222131   4.080   4.170   4.294 -0.4927  0.4028 -1.6936
 3557SOL     OW22132   0.508   3.585   8.419 -0.0588  0.0736 -0.1391
 3557SOL    HW122133   0.496   3.509   8.362  2.3540 -0.3148 -0.1178
 3557SOL    HW222134   0.418   3.605   8.447 -0.2617  1.3591 -1.7170
 3558SOL     OW22135   0.896   2.891   8.691 -0.0244  0.1301  0.1486
 3558SOL    HW122136   0.906   2.910   8.598 -0.5868 -2.6176 -0.4627
 3558SOL    HW222137   0.975   2.923   8.735  0.2170  1.2820 -1.1589
 3559SOL     OW22138   2.682   2.069   4.312  0.1495 -0.2972  0.0852
 3559SOL    HW122139   2.677   2.127   4.236  1.1724 -0.6293 -0.2388
 3559SOL    HW222140   2.588   2.071   4.328 -0.2706 -3.2603 -1.9720
 3560SOL     OW22141   4.624   4.698   6.892 -0.1039 -0.1599  0.1737
 3560SOL    HW122142   4.621   4.612   6.850 -1.5918  0.1452 -0.3530
 3560SOL    HW222143   4.627   4.689   6.987 -2.7025  1.7221  0.4169
 3561SOL     OW22144   1.030   2.711   5.559  1.0449  0.0591  0.1225
 3561SOL    HW122145   1.002   2.802   5.568  0.2868 -0.2598  0.9925
 3561SOL    HW222146   0.994   2.695   5.472  2.0972 -0.9020 -0.1397
 3562SOL     OW22147   3.857   0.841   0.676  0.1787 -0.3653 -0.6995
 3562SOL    HW122148   3.796   0.907   0.708  2.8635  1.0973  1.3678
 3562SOL    HW222149   3.876   0.874   0.588  0.9129 -0.9516 -0.7638
 3563SOL     OW22150   1.108   0.224   0.625 -0.4333  0.6105 -0.0051
 3563SOL    HW122151   1.081   0.160   0.560  1.8219 -0.8610  0.5075
 3563SOL    HW222152   1.054   0.203   0.701  0.2201  1.7048  0.7603
 3564SOL     OW22153   4.054   0.027   7.557 -0.3710 -0.4250  0.5532
 3564SOL    HW122154   4.078   0.083   7.632 -1.3335  0.6258  0.0833
 3564SOL    HW222155   3.986   4.692   7.590 -0.4753 -1.7022 -1.9168
 3565SOL     OW22156   0.939   3.795   6.527  0.0174  0.0557  0.3579
 3565SOL    HW122157   0.997   3.721   6.515 -0.8296 -0.6822  0.8486
 3565SOL    HW222158   0.997   3.858   6.571 -0.2059  0.2968  0.3131
 3566SOL     OW22159   0.186   0.240  16.520  0.5333  0.5494 -0.3944
 3566SOL    HW122160   0.259   0.231  16.458  0.9049 -1.7677  0.4089
 3566SOL    HW222161   0.167   0.334  16.519 -0.1229  0.3924 -2.5496
 3567SOL     OW22162   0.484   0.063   1.929  0.5377  0.2215 -0.2081
 3567SOL    HW122163   0.429   0.110   1.992  1.2884  0.9357 -0.0813
 3567SOL    HW222164   0.564   0.117   1.930  1.1080 -0.6384  0.9861
 3568SOL     OW22165   2.660   0.883   1.795 -0.3337 -0.1356  0.3295
 3568SOL    HW122166   2.726   0.823   1.828 -1.6082 -1.8952 -0.2889
 3568SOL    HW222167   2.711   0.910   1.719 -1.6778  2.5539  0.3752
 3569SOL     OW22168   1.164   1.918   1.959 -0.9958 -0.3229 -0.1865
 3569SOL    HW122169   1.098   1.910   1.890 -0.6732  0.1402 -0.5467
 3569SOL    HW222170   1.174   1.827   1.987  1.1754 -0.7449 -2.3027
 3570SOL     OW22171   1.840   0.773   6.046 -0.0803 -0.6446  0.0062
 3570SOL    HW122172   1.871   0.859   6.074 -0.6646  0.1105 -1.6747
 3570SOL    HW222173   1.910   0.711   6.065  0.8563  0.5304  0.3251
 3571SOL     OW22174   4.715   1.839   8.140  0.1659 -0.0042  0.0128
 3571SOL    HW122175   4.632   1.814   8.180  1.3267  0.9803  2.9881
 3571SOL    HW222176   4.699   1.932   8.126 -2.4881 -0.3205  0.9686
 3572SOL     OW22177   2.035   0.590   6.410  0.2219 -0.1226  0.3696
 3572SOL    HW122178   2.073   0.675   6.389  0.3868 -0.7460 -1.8837
 3572SOL    HW222179   1.942   0.614   6.412 -0.0743 -1.1921 -0.7227
 3573SOL     OW22180   0.898   1.900   2.610  0.4453  0.7291 -0.6861
 3573SOL    HW122181   0.971   1.961   2.622  0.5024  0.5973 -0.3614
 3573SOL    HW222182   0.897   1.877   2.518  0.3175 -0.5566 -0.3668
 3574SOL     OW22183   1.319   1.658   8.869 -0.2776  0.3455  0.1209
 3574SOL    HW122184   1.343   1.619   8.953  0.3210  1.2663  0.3807
 3574SOL    HW222185   1.399   1.652   8.817 -0.0092 -3.0965  0.9735
 3575SOL     OW22186   1.996   0.394   3.628  0.3787  0.9421 -0.0582
 3575SOL    HW122187   1.964   0.305   3.614 -1.5692  1.7386 -0.6236
 3575SOL    HW222188   1.993   0.407   3.723 -0.0350  0.2299  0.0290
 3576SOL     OW22189   2.912   0.867  11.696  0.0588 -0.2206  0.0316
 3576SOL    HW122190   2.826   0.861  11.736 -0.4100 -1.2980 -1.1431
 3576SOL    HW222191   2.935   0.775  11.705  1.9758  0.1474 -1.0521
 3577SOL     OW22192   3.538   4.075   4.047 -0.0761  0.1844  0.2491
 3577SOL    HW122193   3.596   4.108   3.978  1.0770 -0.0289  1.1115
 3577SOL    HW222194   3.448   4.081   4.015  0.0456  0.2627 -0.0701
 3578SOL     OW22195   1.787   4.587   2.822  0.7483  0.1964 -0.3470
 3578SOL    HW122196   1.809   4.680   2.818  0.7425  0.1334 -1.9381
 3578SOL    HW222197   1.847   4.556   2.889 -0.6543 -0.8611  0.4161
 3579SOL     OW22198   1.775   2.234   4.257  0.3600 -0.7722  0.0301
 3579SOL    HW122199   1.740   2.317   4.291  2.6204  0.5648 -0.8758
 3579SOL    HW222200   1.737   2.238   4.170  1.1103  0.1250 -0.2532
 3580SOL     OW22201   4.709   0.814   1.308  0.1540  0.4256 -0.1199
 3580SOL    HW122202   4.654   0.780   1.237  0.9268  0.6488 -0.8368
 3580SOL    HW222203   0.066   0.842   1.263 -0.9735  1.4924 -1.4961
 3581SOL     OW22204   4.376   0.750   7.458 -0.0618 -0.4069 -0.2261
 3581SOL    HW122205   4.297   0.784   7.500 -0.5344  1.5996 -2.7400
 3581SOL    HW222206   4.352   0.695   7.384  0.9815 -1.6847  0.3891
 3582SOL     OW22207   0.731   2.918   8.169  0.1569  1.2188 -0.0213
 3582SOL    HW122208   0.693   2.908   8.082  0.3800  2.1583 -0.2368
 3582SOL    HW222209   0.673   2.982   8.210 -3.7101 -3.0146  1.0756
 3583SOL     OW22210   0.731   1.981   5.337  0.1893  0.0245  0.1857
 3583SOL    HW122211   0.701   2.007   5.424  0.3441  2.1724 -0.3985
 3583SOL    HW222212   0.677   1.905   5.314 -0.9948  0.7961  0.4465
 3584SOL     OW22213   2.012   0.576   9.066 -0.3414 -0.4487  0.3754
 3584SOL    HW122214   2.079   0.637   9.036 -0.2443  0.2171  2.0115
 3584SOL    HW222215   1.971   0.638   9.125 -0.8147 -0.4616  0.0593
 3585SOL     OW22216   1.883   0.868   0.785 -0.3161 -0.2176  1.1026
 3585SOL    HW122217   1.824   0.830   0.721  0.9796 -2.0185  0.9782
 3585SOL    HW222218   1.850   0.831   0.867 -1.5198 -1.3427  0.1040
 3586SOL     OW22219   4.659   1.286   8.301  0.0094 -0.0714  0.2488
 3586SOL    HW122220   4.717   1.319   8.368 -1.0991  0.6853  0.8244
 3586SOL    HW222221   4.610   1.227   8.358  0.7782 -0.0919  0.8818
 3587SOL     OW22222   2.342   1.361   8.033 -0.5722  0.4283 -0.3449
 3587SOL    HW122223   2.409   1.349   7.966 -0.3206 -0.5652  0.0784
 3587SOL    HW222224   2.340   1.455   8.045 -0.6571  0.4479 -0.5012
 3588SOL     OW22225   2.343   4.311   4.726  0.5983 -0.3366  0.1011
 3588SOL    HW122226   2.269   4.322   4.666  0.2807  0.8766  0.7133
 3588SOL    HW222227   2.337   4.217   4.739  1.3391 -0.3096  0.6563
 3589SOL     OW22228   1.201   2.289   1.530  0.1880 -0.4528 -0.4683
 3589SOL    HW122229   1.176   2.316   1.442 -0.6243  0.5766  0.0750
 3589SOL    HW222230   1.143   2.337   1.589  2.2840  1.5482  0.0030
 3590SOL     OW22231   0.597   1.155  12.729  0.7155  0.4066  0.3369
 3590SOL    HW122232   0.584   1.070  12.686  1.1887 -0.0088  1.0080
 3590SOL    HW222233   0.639   1.210  12.663 -0.3727  0.5972 -0.1926
 3591SOL     OW22234   3.044   3.532   4.045  0.0809 -0.2142  0.0491
 3591SOL    HW122235   3.014   3.448   4.010  1.7548 -1.7718  2.4139
 3591SOL    HW222236   3.136   3.524   4.018 -0.7244  0.0420 -2.7669
 3592SOL     OW22237   2.805   2.342   9.752  0.1167  0.1901  0.1999
 3592SOL    HW122238   2.769   2.334   9.664 -0.7735 -1.3142  0.7049
 3592SOL    HW222239   2.809   2.250   9.777  0.0833  0.6743  2.0260
 3593SOL     OW22240   3.865   1.397   4.015 -0.5608  0.1073 -0.3982
 3593SOL    HW122241   3.924   1.439   3.952 -0.3925  0.7998  0.2277
 3593SOL    HW222242   3.844   1.469   4.074  2.6453  2.2858 -1.8952
 3594SOL     OW22243   4.504   4.551  12.014 -0.1483  0.4565 -0.1395
 3594SOL    HW122244   4.477   4.641  11.995 -2.7991 -0.3678 -0.2928
 3594SOL    HW222245   4.589   4.571  12.052 -0.6649  0.1968  1.1324
 3595SOL     OW22246   2.813   0.953   9.514 -0.2695 -0.2794 -0.5851
 3595SOL    HW122247   2.814   1.025   9.450  1.0233  1.1160  1.0067
 3595SOL    HW222248   2.845   0.997   9.592 -0.2606  0.5558 -1.0570
 3596SOL     OW22249   1.140   0.163   5.669 -1.1144 -0.1171  0.0087
 3596SOL    HW122250   1.082   0.224   5.623  0.2618 -0.1384 -1.7358
 3596SOL    HW222251   1.193   0.219   5.727  0.4650 -1.3788 -0.2040
 3597SOL     OW22252   4.154   1.455   1.075  0.3631  0.0782  0.3795
 3597SOL    HW122253   4.146   1.423   0.985  0.8172  0.4866  0.1997
 3597SOL    HW222254   4.249   1.457   1.081  0.4836 -0.2056 -1.4231
 3598SOL     OW22255   1.217   0.175   7.021 -0.0947  0.1455  0.0537
 3598SOL    HW122256   1.255   0.174   7.109  0.0088  1.2219  0.0190
 3598SOL    HW222257   1.278   0.232   6.975 -0.1963  0.7765  0.7003
 3599SOL     OW22258   0.131   2.169   2.009  0.4037 -0.1777 -0.1738
 3599SOL    HW122259   0.099   2.095   2.060  0.8043  0.0597  0.4206
 3599SOL    HW222260   0.065   2.193   1.944 -0.2560 -0.1175  0.5248
 3600SOL     OW22261   2.744   2.477   6.974  0.3149 -0.1399  0.1020
 3600SOL    HW122262   2.752   2.516   7.061 -2.3052  1.3556 -0.3323
 3600SOL    HW222263   2.721   2.388   7.001  1.1774 -0.8892 -1.6072
 3601SOL     OW22264   2.475   0.348   5.220 -0.2130 -0.1358 -0.3124
 3601SOL    HW122265   2.521   0.432   5.218 -1.5076  0.5760 -0.5946
 3601SOL    HW222266   2.480   0.324   5.127 -2.3014 -0.9416 -0.2192
 3602SOL     OW22267   2.363   1.923   0.560 -0.7931  0.2518  0.2412
 3602SOL    HW122268   2.457   1.923   0.544 -0.3154  2.2689  3.0785
 3602SOL    HW222269   2.351   1.829   0.546  0.6938  0.0074  0.6700
 3603SOL     OW22270   1.848   2.147   9.295  0.2923  0.1891  0.4323
 3603SOL    HW122271   1.775   2.126   9.352 -0.6574  1.0237 -0.4719
 3603SOL    HW222272   1.807   2.211   9.237  1.3467  0.8047  0.3599
 3604SOL     OW22273   2.148   1.847   3.756 -0.0144  0.6672  0.7445
 3604SOL    HW122274   2.199   1.777   3.796 -0.4371 -0.8655 -1.3765
 3604SOL    HW222275   2.208   1.903   3.706 -2.1553  3.3256  1.1323
 3605SOL     OW22276   1.924   2.600  16.037  0.1192  0.4666  0.2059
 3605SOL    HW122277   1.993   2.600  16.102 -0.6768 -0.7175  1.0317
 3605SOL    HW222278   1.883   2.520  16.067 -1.3453  0.5115 -1.6565
 3606SOL     OW22279   1.511   0.529   1.697 -0.0580 -0.4416 -0.6093
 3606SOL    HW122280   1.508   0.501   1.789  0.8412 -2.1399 -1.0951
 3606SOL    HW222281   1.430   0.579   1.684  0.4515  1.1753  2.3501
 3607SOL     OW22282   2.825   4.719   6.049  0.3203 -0.2487  0.0296
 3607SOL    HW122283   2.828   0.078   6.000 -0.1533 -0.2647 -0.0238
 3607SOL    HW222284   2.742   4.674   6.033 -1.1693  3.0768 -1.7309
 3608SOL     OW22285   0.655   3.700   2.835  0.5816  0.0031  0.3291
 3608SOL    HW122286   0.577   3.754   2.845  0.3037 -0.5486  1.1523
 3608SOL    HW222287   0.663   3.652   2.918  0.9306  0.6036  0.6427
 3609SOL     OW22288   2.112   4.681   2.547 -0.8193  0.1424 -0.1815
 3609SOL    HW122289   2.154   0.021   2.605  1.4184  0.2048 -1.8908
 3609SOL    HW222290   2.030   0.001   2.522 -1.1501 -0.5324 -0.2533
 3610SOL     OW22291   1.761   3.663   3.115  0.2755 -0.1293  0.3385
 3610SOL    HW122292   1.822   3.604   3.071 -0.6455  0.2274 -1.4116
 3610SOL    HW222293   1.820   3.737   3.130  0.4746  0.3220 -2.6671
 3611SOL     OW22294   3.826   3.618   3.841 -0.0143  0.3684  0.5015
 3611SOL    HW122295   3.896   3.651   3.784  0.3708 -0.5736  0.4296
 3611SOL    HW222296   3.836   3.642   3.933  0.3400  1.0117  0.2979
 3612SOL     OW22297   3.410   1.146   7.215 -0.1091  0.4915  0.2855
 3612SOL    HW122298   3.445   1.229   7.184 -1.5789  1.7086  1.8620
 3612SOL    HW222299   3.364   1.112   7.138 -0.9283  1.1156  0.4896
 3613SOL     OW22300   0.741   1.911   0.381  0.0132 -0.0883  0.1421
 3613SOL    HW122301   0.664   1.925   0.436 -0.1360  0.2837 -0.1564
 3613SOL    HW222302   0.808   1.910   0.449  1.4682  2.4472 -1.2460
 3614SOL     OW22303   3.754   4.711  10.418  0.1611 -0.1899  0.1901
 3614SOL    HW122304   3.843   4.705  10.450 -0.0250  0.5036  0.8241
 3614SOL    HW222305   3.700   4.673  10.487 -1.0165 -0.7057 -0.9982
 3615SOL     OW22306   2.836   2.467   3.849  0.0642  0.1521  0.0255
 3615SOL    HW122307   2.790   2.551   3.857  0.0777  0.3788 -2.2653
 3615SOL    HW222308   2.865   2.483   3.759 -1.6953  2.3778 -0.1544
 3616SOL     OW22309   2.493   1.916  10.457  0.6021  0.2540 -0.4162
 3616SOL    HW122310   2.583   1.905  10.489  1.4673  0.7359 -2.6810
 3616SOL    HW222311   2.463   1.990  10.510  1.4240 -0.2330  0.7406
 3617SOL     OW22312   4.082   1.294   7.981  0.4679 -0.4904  0.4561
 3617SOL    HW122313   4.067   1.377   7.936  2.3995  1.7125  3.9069
 3617SOL    HW222314   4.069   1.313   8.073 -1.6834 -0.1543  0.0869
 3618SOL     OW22315   3.201   1.424   0.294  0.0561 -0.3774  0.2252
 3618SOL    HW122316   3.129   1.381   0.340  1.4627 -4.5472 -1.5485
 3618SOL    HW222317   3.242   1.468   0.368  1.9881  1.8735 -2.1624
 3619SOL     OW22318   1.703   1.423   2.140  0.1630  0.0023  0.0246
 3619SOL    HW122319   1.701   1.444   2.233 -1.6352  0.6416 -0.1518
 3619SOL    HW222320   1.647   1.494   2.109  0.4298  0.5688  0.8330
 3620SOL     OW22321   4.717   1.477   6.881 -0.9806 -0.1949 -0.0377
 3620SOL    HW122322   0.082   1.464   6.846 -1.3593  0.4560 -1.2235
 3620SOL    HW222323   4.676   1.393   6.859 -1.8472 -0.0064  0.8614
 3621SOL     OW22324   0.533   2.392   7.841 -0.0211 -0.1786  0.0793
 3621SOL    HW122325   0.605   2.338   7.875  1.0777  0.3362 -1.4023
 3621SOL    HW222326   0.533   2.356   7.753 -1.8151  0.9239 -0.3664
 3622SOL     OW22327   1.390   4.586   1.918 -0.0177 -0.5672  0.3019
 3622SOL    HW122328   1.345   4.517   1.968 -2.8384  2.1883  1.5605
 3622SOL    HW222329   1.475   4.592   1.961  1.6729 -1.3574 -2.9994
 3623SOL     OW22330   1.136   1.009   0.810 -0.2850  0.2992  0.3920
 3623SOL    HW122331   1.071   0.939   0.808  0.6779 -0.5413 -1.4977
 3623SOL    HW222332   1.146   1.026   0.717  0.3372  2.8076  0.9289
 3624SOL     OW22333   2.720   4.224  16.435  0.7839  0.4993 -0.1231
 3624SOL    HW122334   2.720   4.320  16.441 -1.5567  0.4178  1.1179
 3624SOL    HW222335   2.783   4.199  16.368 -0.9008 -0.2597 -1.4126
 3625SOL     OW22336   3.280   0.330   6.809 -0.2095  0.1006  0.0783
 3625SOL    HW122337   3.354   0.390   6.805 -1.5152  1.6509 -0.8517
 3625SOL    HW222338   3.327   0.252   6.780  0.9569  0.7308  0.3035
 3626SOL     OW22339   1.776   2.558  14.247 -0.0682  0.1592 -0.3088
 3626SOL    HW122340   1.801   2.649  14.264  2.2773 -0.4357 -0.5026
 3626SOL    HW222341   1.715   2.553  14.320 -0.1400 -0.1746 -0.3925
 3627SOL     OW22342   3.291   4.702   8.374 -0.0898 -0.1824  0.2804
 3627SOL    HW122343   3.334   4.630   8.328  0.4647  0.0666  0.4031
 3627SOL    HW222344   3.212   4.664   8.411 -0.9353  2.3532  1.0383
 3628SOL     OW22345   3.242   0.333   8.053 -0.2862 -0.1875  0.5499
 3628SOL    HW122346   3.284   0.247   8.050  2.2937  1.1590 -3.1189
 3628SOL    HW222347   3.271   0.367   8.138  1.3888  2.7394 -1.1660
 3629SOL     OW22348   2.762   2.161  16.604  0.1994  0.2676 -0.4220
 3629SOL    HW122349   2.767   2.075  16.646 -0.8540  0.1556 -0.5208
 3629SOL    HW222350   2.854   2.164  16.579 -0.2596 -0.8833 -2.2617
 3630SOL     OW22351   4.463   1.640   4.423  0.0156  0.1974 -0.0466
 3630SOL    HW122352   4.555   1.650   4.446  0.3968  1.4981 -2.1563
 3630SOL    HW222353   4.425   1.714   4.470  0.2788 -2.5426  4.4942
 3631SOL     OW22354   1.384   3.394  12.091 -0.5201  0.3626 -0.1534
 3631SOL    HW122355   1.347   3.481  12.075 -2.4058 -0.2260  0.9430
 3631SOL    HW222356   1.308   3.337  12.076  0.0721 -0.2095 -0.9338
 3632SOL     OW22357   2.781   0.504   7.350  0.6293  0.2523 -0.3098
 3632SOL    HW122358   2.770   0.410   7.365 -1.1749  0.7144  1.1125
 3632SOL    HW222359   2.875   0.503   7.368  0.6945 -0.4243 -0.6464
 3633SOL     OW22360   1.928   1.111  13.709 -0.0698 -0.0586  0.9750
 3633SOL    HW122361   1.868   1.041  13.736  0.2631 -0.6756  0.1057
 3633SOL    HW222362   1.970   1.067  13.636 -0.3168  0.9613  0.2127
 3634SOL     OW22363   2.816   0.103   4.573  0.0369 -0.3759 -0.0475
 3634SOL    HW122364   2.744   0.141   4.523 -0.4390  0.2430  1.1184
 3634SOL    HW222365   2.836   0.021   4.527 -0.7304  0.5219 -1.9783
 3635SOL     OW22366   2.269   4.419  10.748 -0.1817 -0.0437 -0.3472
 3635SOL    HW122367   2.292   4.373  10.829 -0.5404  0.8606  0.2700
 3635SOL    HW222368   2.292   4.351  10.685 -2.5837 -0.7842 -0.4435
 3636SOL     OW22369   0.492   4.502   3.857 -0.0948 -0.3775  0.1236
 3636SOL    HW122370   0.507   4.474   3.767  0.8344 -0.3813  0.2743
 3636SOL    HW222371   0.401   4.484   3.879 -0.7692  2.2762 -0.4965
 3637SOL     OW22372   1.087   3.428   4.682 -0.0940 -0.0950  0.1389
 3637SOL    HW122373   1.059   3.339   4.661 -2.2561  0.7566 -0.5826
 3637SOL    HW222374   1.081   3.475   4.599 -0.9918  0.2093  0.3759
 3638SOL     OW22375   4.178   4.088   7.507  0.1705 -0.5193  0.1237
 3638SOL    HW122376   4.251   4.062   7.450 -0.6829 -0.9741 -0.7447
 3638SOL    HW222377   4.214   4.080   7.596  0.7461 -1.2637 -0.1794
 3639SOL     OW22378   1.192   1.190   3.551  0.5969 -0.1713  0.6285
 3639SOL    HW122379   1.141   1.247   3.609 -1.6486  0.6749 -2.2041
 3639SOL    HW222380   1.272   1.223   3.591 -0.4349  2.6481  0.3933
 3640SOL     OW22381   3.641   0.357  15.113 -0.3588  0.3736 -0.0620
 3640SOL    HW122382   3.706   0.372  15.045 -0.7331 -1.4142 -0.8033
 3640SOL    HW222383   3.577   0.422  15.084  1.4814  2.1694 -0.1304
 3641SOL     OW22384   2.567   3.216   2.378  0.1723  0.8651  0.6943
 3641SOL    HW122385   2.512   3.294   2.375 -1.2831 -0.2138 -1.1658
 3641SOL    HW222386   2.635   3.225   2.311  1.5978 -0.1329  1.9881
 3642SOL     OW22387   3.657   0.720  16.585  0.1618 -0.1782 -0.6400
 3642SOL    HW122388   3.729   0.677  16.630  1.2440  3.0265  0.6407
 3642SOL    HW222389   3.607   0.765  16.653  0.2986  0.4132 -0.9294
 3643SOL     OW22390   3.065   2.402   4.504 -0.2126 -0.0376 -0.1515
 3643SOL    HW122391   3.055   2.444   4.590  1.9419 -1.3562  0.7529
 3643SOL    HW222392   2.995   2.336   4.512 -0.1812 -0.3022 -2.1423
 3644SOL     OW22393   1.484   1.189   8.128  0.8482  0.1150 -0.0272
 3644SOL    HW122394   1.508   1.112   8.179 -1.2098  1.0682  2.3925
 3644SOL    HW222395   1.464   1.156   8.041  1.2695 -0.5599  0.1356
 3645SOL     OW22396   1.772   0.907   4.640  0.1831 -0.2498 -0.0258
 3645SOL    HW122397   1.831   0.905   4.565 -0.8891  0.1223 -0.8668
 3645SOL    HW222398   1.703   0.955   4.594  1.1368 -0.3699 -1.5648
 3646SOL     OW22399   1.780   1.646   1.804  0.2798 -0.2566 -0.8115
 3646SOL    HW122400   1.816   1.559   1.823  4.0520  1.2726 -0.8844
 3646SOL    HW222401   1.856   1.696   1.834 -0.8313  1.1169 -0.3293
 3647SOL     OW22402   1.216   0.610   4.712  0.2727 -0.2126 -0.0461
 3647SOL    HW122403   1.132   0.579   4.677 -0.4653  2.8594 -0.9262
 3647SOL    HW222404   1.193   0.587   4.802 -3.3235  3.0005 -0.1341
 3648SOL     OW22405   1.401   2.854   4.461  0.2145  0.0784 -0.0124
 3648SOL    HW122406   1.426   2.766   4.432 -2.0884 -0.2919 -0.8923
 3648SOL    HW222407   1.429   2.908   4.386  3.7914 -3.4572 -1.2349
 3649SOL     OW22408   1.959   4.339  13.964 -0.5661  0.4664  0.1832
 3649SOL    HW122409   1.867   4.314  13.979 -0.5011  0.1105 -0.0259
 3649SOL    HW222410   1.961   4.346  13.869 -0.6530  1.7156  0.2730
 3650SOL     OW22411   0.443   0.497   2.748 -0.6742  0.5339  0.1607
 3650SOL    HW122412   0.419   0.536   2.664  0.7718 -1.4624 -1.1838
 3650SOL    HW222413   0.537   0.518   2.742 -0.7149 -0.2738 -2.8728
 3651SOL     OW22414   0.981   1.872   8.158 -0.1272  0.1489  0.8303
 3651SOL    HW122415   0.975   1.925   8.238 -1.6336 -0.0458  0.8568
 3651SOL    HW222416   1.069   1.888   8.126  0.6367 -2.7009  1.4695
 3652SOL     OW22417   2.688   0.115   2.705 -0.2323  0.2459 -0.4585
 3652SOL    HW122418   2.727   0.051   2.646  0.2735  0.4966 -0.3988
 3652SOL    HW222419   2.647   0.058   2.769  0.5407 -0.0616 -0.2326
 3653SOL     OW22420   4.682   2.301   8.252  0.3762 -0.1850  0.4889
 3653SOL    HW122421   4.691   2.384   8.298 -3.3989  0.9341 -0.7659
 3653SOL    HW222422   0.023   2.247   8.299 -0.3517 -3.1976 -1.9728
 3654SOL     OW22423   3.929   2.328   7.548  0.1142  0.6562  0.5291
 3654SOL    HW122424   3.929   2.403   7.607  2.7485  2.1670 -1.4257
 3654SOL    HW222425   4.022   2.307   7.557  0.3569  1.1626 -0.7267
 3655SOL     OW22426   0.118   1.010   8.504  0.1348  0.1968  0.3759
 3655SOL    HW122427   0.041   1.020   8.561 -2.0525  1.5589 -2.7590
 3655SOL    HW222428   0.188   1.033   8.564  1.9868  0.0049 -1.7217
 3656SOL     OW22429   2.043   3.247   7.973 -0.0479 -0.1608  0.1774
 3656SOL    HW122430   2.092   3.166   7.987 -0.7096 -0.9562 -2.0502
 3656SOL    HW222431   1.957   3.237   8.015  0.4202  2.7346  1.8078
 3657SOL     OW22432   4.567   2.783   3.535 -0.4752 -0.3682  0.2659
 3657SOL    HW122433   4.607   2.847   3.476  0.9490 -0.7927  0.7553
 3657SOL    HW222434   4.523   2.726   3.473  0.0888 -1.3975  0.8037
 3658SOL     OW22435   0.025   3.266   5.055  0.3682 -0.2368  0.0791
 3658SOL    HW122436   4.684   3.226   5.113 -2.0948  0.6136 -2.0423
 3658SOL    HW222437   4.722   3.358   5.056 -0.6461 -0.5264  0.2737
 3659SOL     OW22438   2.626   1.886   5.482 -0.4338  0.4259  0.0238
 3659SOL    HW122439   2.652   1.950   5.416  2.6559 -1.9660 -1.0757
 3659SOL    HW222440   2.533   1.906   5.491 -0.5626 -0.3825  0.5342
 3660SOL     OW22441   0.581   2.938   6.651  0.1667 -0.0717  0.3323
 3660SOL    HW122442   0.560   3.021   6.609  0.2262  1.3801  3.1795
 3660SOL    HW222443   0.673   2.951   6.674  0.1571  0.4427  0.0779
 3661SOL     OW22444   0.247   1.142   7.392  0.2177  0.0897 -0.1255
 3661SOL    HW122445   0.311   1.157   7.461 -1.3456 -0.5572  1.4779
 3661SOL    HW222446   0.243   1.048   7.380 -0.4560  0.0037  0.7022
 3662SOL     OW22447   2.583   4.643   2.148  0.0001  0.1522  0.5256
 3662SOL    HW122448   2.545   0.006   2.133  0.6120  0.5418  1.1753
 3662SOL    HW222449   2.606   4.663   2.239  0.1632  0.4698  0.4127
 3663SOL     OW22450   3.298   1.610   0.455 -0.0373  0.4690 -0.7271
 3663SOL    HW122451   3.363   1.679   0.443 -0.4224  0.5219 -2.5492
 3663SOL    HW222452   3.250   1.639   0.532  0.1314  1.6040 -1.0492
 3664SOL     OW22453   2.379   4.478   2.266  0.2539  0.2314  0.5860
 3664SOL    HW122454   2.415   4.400   2.223  1.1350  1.3200 -0.6792
 3664SOL    HW222455   2.420   4.547   2.213  0.0117 -1.2915 -1.5815
 3665SOL     OW22456   3.847   4.384   6.350  0.7064 -0.0783  0.4719
 3665SOL    HW122457   3.879   4.415   6.435  2.8695  0.3154 -0.4794
 3665SOL    HW222458   3.844   4.469   6.307 -2.0618 -0.8670 -0.8867
 3666SOL     OW22459   3.262   2.737   7.216 -0.3352  0.2332 -0.4222
 3666SOL    HW122460   3.249   2.767   7.306  1.5124 -1.5668  0.4495
 3666SOL    HW222461   3.307   2.655   7.238 -0.5918  0.0397 -0.6183
 3667SOL     OW22462   1.261   3.568   5.835 -0.4098  0.0927 -0.1136
 3667SOL    HW122463   1.326   3.500   5.814  0.1396  1.1562 -1.8270
 3667SOL    HW222464   1.303   3.617   5.906 -0.1974  2.4988 -1.8973
 3668SOL     OW22465   1.673   1.437   9.619 -0.4289 -0.3168  0.2975
 3668SOL    HW122466   1.608   1.372   9.646  1.3792 -3.4872 -3.0511
 3668SOL    HW222467   1.628   1.480   9.546  0.5481  0.0019 -0.1076
 3669SOL     OW22468   1.626   3.354  12.513 -0.0336 -0.5583 -0.3244
 3669SOL    HW122469   1.702   3.322  12.464 -1.0287 -1.2769 -1.4142
 3669SOL    HW222470   1.609   3.277  12.568  0.5598 -0.7994 -0.4798
 3670SOL     OW22471   2.850   3.183   4.776  0.3471  0.0724 -0.3190
 3670SOL    HW122472   2.858   3.190   4.681  0.3625 -1.1225 -0.4103
 3670SOL    HW222473   2.812   3.266   4.803 -1.0707 -0.6163 -0.1646
 3671SOL     OW22474   0.539   0.480  17.619  0.5337 -0.0093  0.2848
 3671SOL    HW122475   0.520   0.391  17.592 -0.0173 -0.3056  1.6254
 3671SOL    HW222476   0.525   0.463   0.018 -1.0625 -0.7621 -0.1033
 3672SOL     OW22477   1.732   0.561   9.361 -0.1094 -0.5080 -0.4240
 3672SOL    HW122478   1.809   0.508   9.380 -1.3938 -1.4321  2.2779
 3672SOL    HW222479   1.687   0.502   9.300 -2.6702 -0.4142  1.3866
 3673SOL     OW22480   0.535   1.436   4.210 -0.0605 -0.2187  0.6369
 3673SOL    HW122481   0.543   1.523   4.250 -0.3224 -0.4284  1.1399
 3673SOL    HW222482   0.444   1.434   4.181  0.5556 -2.1228 -1.1764
 3674SOL     OW22483   1.865   1.791   8.262 -0.2134  0.0671  0.2405
 3674SOL    HW122484   1.867   1.697   8.244 -0.6168 -0.3123  2.1991
 3674SOL    HW222485   1.953   1.824   8.243  0.7162 -2.3252  0.3233
 3675SOL     OW22486   3.746   1.047  13.262  0.4764 -0.2592  0.3429
 3675SOL    HW122487   3.762   0.979  13.327  4.5060 -0.6072 -1.0278
 3675SOL    HW222488   3.681   1.099  13.310  0.4501  0.2275 -0.2192
 3676SOL     OW22489   2.390   3.026   5.584 -0.1129 -0.4228  0.8636
 3676SOL    HW122490   2.371   2.969   5.510  0.1200  0.2472  0.2966
 3676SOL    HW222491   2.353   2.968   5.652 -1.3276 -0.6023  0.0572
 3677SOL     OW22492   2.757   0.209   4.798 -0.1495 -0.1534 -0.4409
 3677SOL    HW122493   2.816   0.279   4.772  1.8442 -0.4070  3.3090
 3677SOL    HW222494   2.779   0.150   4.726  0.3835  0.1718 -0.5405
 3678SOL     OW22495   4.216   3.055  15.430 -0.6390  0.5974  0.1006
 3678SOL    HW122496   4.134   3.095  15.458  0.1156  1.6325  0.8028
 3678SOL    HW222497   4.261   3.125  15.383  0.7137 -0.9787 -0.9448
 3679SOL     OW22498   4.510   0.079   7.650 -0.0903  0.2465  0.3192
 3679SOL    HW122499   4.441   0.063   7.715  1.0876 -0.0295  1.5070
 3679SOL    HW222500   4.467   0.145   7.595 -1.3948  1.4316  2.7697
 3680SOL     OW22501   4.544   3.215   5.244 -0.3488  0.0195  1.0942
 3680SOL    HW122502   4.539   3.149   5.313 -0.4918  0.8606  1.8796
 3680SOL    HW222503   4.455   3.210   5.211 -0.3553 -0.1494  1.1341
 3681SOL     OW22504   0.168   2.057  13.402 -0.4985  0.1235 -0.4300
 3681SOL    HW122505   0.171   2.152  13.417  0.3610 -0.2844  1.9415
 3681SOL    HW222506   0.077   2.049  13.432  0.5171  0.1639  2.7335
 3682SOL     OW22507   1.034   1.228   3.911 -0.1465 -0.1603 -0.1571
 3682SOL    HW122508   1.109   1.279   3.880 -0.0227  0.0888  0.5642
 3682SOL    HW222509   1.074   1.146   3.939 -1.6926  0.5876  4.2914
 3683SOL     OW22510   0.899   0.221  16.394 -0.5657  0.4723  0.4835
 3683SOL    HW122511   0.986   0.244  16.428 -0.3012 -2.4284  1.7060
 3683SOL    HW222512   0.868   0.162  16.462 -0.6597  0.3955  0.3752
 3684SOL     OW22513   0.870   3.124   5.430  0.4072  0.0714 -0.6493
 3684SOL    HW122514   0.843   3.131   5.338  0.1590 -0.0267 -0.5857
 3684SOL    HW222515   0.963   3.144   5.430  0.4879 -0.3127 -0.3356
 3685SOL     OW22516   0.236   0.643   4.122  0.5520  0.1479 -0.0849
 3685SOL    HW122517   0.258   0.640   4.215  0.9751 -0.7190 -0.2075
 3685SOL    HW222518   0.308   0.681   4.072  1.8271 -1.9966  0.1246
 3686SOL     OW22519   3.496   3.804   4.096  0.8158 -0.2758 -0.3665
 3686SOL    HW122520   3.538   3.771   4.016 -2.5672  1.8997 -2.9709
 3686SOL    HW222521   3.542   3.888   4.100  1.3023 -0.5503 -0.1454
 3687SOL     OW22522   3.394   1.018   5.867  0.5370 -0.5526 -0.5735
 3687SOL    HW122523   3.401   0.949   5.933  0.6433  0.4563  0.4637
 3687SOL    HW222524   3.310   0.999   5.824 -1.3031 -0.2410  2.9373
 3688SOL     OW22525   3.490   2.145   7.210  0.1778  0.4897 -0.2742
 3688SOL    HW122526   3.578   2.179   7.197  0.5317  0.4959  2.1634
 3688SOL    HW222527   3.469   2.124   7.119 -0.6497  1.3274 -0.2761
 3689SOL     OW22528   2.286   3.514   1.473  0.4664 -0.3476  0.3591
 3689SOL    HW122529   2.353   3.446   1.462  0.3793 -0.6079  1.4399
 3689SOL    HW222530   2.224   3.465   1.527 -0.2828 -0.4683 -0.5918
 3690SOL     OW22531   0.942   2.718   2.055  0.6034  0.0703  0.2668
 3690SOL    HW122532   0.859   2.752   2.023  0.4021 -0.4130  0.2704
 3690SOL    HW222533   0.912   2.628   2.064  1.3241 -0.1207  0.7652
 3691SOL     OW22534   1.978   2.149   3.652  0.3333 -0.3314  0.2409
 3691SOL    HW122535   1.942   2.091   3.586 -0.1457 -1.7729  1.7573
 3691SOL    HW222536   1.915   2.221   3.649  1.1696  0.4003  0.0811
 3692SOL     OW22537   0.787   1.455   3.320 -0.1243 -0.4527  0.3346
 3692SOL    HW122538   0.784   1.544   3.356  0.1358  0.4222 -1.7985
 3692SOL    HW222539   0.811   1.471   3.229  0.3988  0.5439  0.6450
 3693SOL     OW22540   4.153   4.421  14.100  0.2332  0.3482  0.0812
 3693SOL    HW122541   4.191   4.374  14.175 -2.5648 -0.4812  1.0011
 3693SOL    HW222542   4.221   4.487  14.090 -1.0935  1.4685 -1.5547
 3694SOL     OW22543   3.410   0.823  17.223 -0.0899 -0.0816 -0.6282
 3694SOL    HW122544   3.336   0.800  17.279  1.8360 -0.1156  1.8977
 3694SOL    HW222545   3.403   0.917  17.212 -3.0037 -0.5708 -2.9886
 3695SOL     OW22546   2.106   2.682   5.883  0.7127  0.5440  0.2125
 3695SOL    HW122547   2.038   2.624   5.918 -1.2265  2.2627 -0.6567
 3695SOL    HW222548   2.101   2.653   5.792 -0.3868  0.3815  0.3165
 3696SOL     OW22549   3.427   3.440   4.537  0.0165 -0.0408 -0.2213
 3696SOL    HW122550   3.365   3.502   4.500  0.1560 -0.1147 -0.5810
 3696SOL    HW222551   3.416   3.371   4.472 -1.4740  0.1132 -0.1298
 3697SOL     OW22552   0.072   1.083   3.538  0.0295  0.3852 -0.6741
 3697SOL    HW122553   0.012   1.009   3.544  1.2337 -0.3028  2.7662
 3697SOL    HW222554   0.147   1.048   3.490 -0.1326 -0.6878 -0.1416
 3698SOL     OW22555   4.617   2.633   2.259 -0.0740 -0.3409  0.6794
 3698SOL    HW122556   4.585   2.645   2.348 -0.7501  1.7848  0.1509
 3698SOL    HW222557   4.711   2.649   2.273 -0.0619  0.3550 -0.2145
 3699SOL     OW22558   3.176   4.423   8.127 -0.1422  0.1517 -0.1975
 3699SOL    HW122559   3.266   4.457   8.129 -1.7542  4.3161  0.6936
 3699SOL    HW222560   3.174   4.355   8.195  1.2568 -1.3189 -1.6239
 3700SOL     OW22561   0.069   0.959  12.043  0.1808 -0.0319  0.2865
 3700SOL    HW122562   4.721   1.023  12.039 -0.8835 -1.2206  0.0344
 3700SOL    HW222563   0.021   0.884  12.007  0.6180 -0.4559  0.5799
 3701SOL     OW22564   1.800   1.871  12.270  0.1981  0.3131  0.1129
 3701SOL    HW122565   1.793   1.810  12.344 -2.3113 -0.8416 -1.0784
 3701SOL    HW222566   1.780   1.957  12.308 -0.9463  0.2411 -0.3275
 3702SOL     OW22567   4.243   0.883  16.456  0.1505  0.1627 -0.2951
 3702SOL    HW122568   4.308   0.953  16.451 -0.5477  0.9121  0.9126
 3702SOL    HW222569   4.203   0.897  16.542 -1.4370 -1.0220 -0.8493
 3703SOL     OW22570   3.899   0.651   7.891 -0.4142  0.0262 -0.3003
 3703SOL    HW122571   3.892   0.680   7.982 -0.8361 -0.6827 -0.1061
 3703SOL    HW222572   3.964   0.586   7.917  0.2751  1.2904  1.1858
 3704SOL     OW22573   2.859   2.362   2.608 -0.2540  0.1395  0.5525
 3704SOL    HW122574   2.781   2.353   2.553 -0.6790 -0.1609  1.2081
 3704SOL    HW222575   2.892   2.442   2.568  2.3234 -1.0664  0.2402
 3705SOL     OW22576   1.103   2.712   5.137  0.3316 -0.6146 -0.1301
 3705SOL    HW122577   1.024   2.723   5.191  0.0454 -0.2175 -0.6287
 3705SOL    HW222578   1.147   2.797   5.141  1.1279 -0.9071 -2.5827
 3706SOL     OW22579   1.643   4.520   0.041 -0.4777 -0.2738 -0.5266
 3706SOL    HW122580   1.656   4.471  17.654 -2.0738 -0.1056 -0.8961
 3706SOL    HW222581   1.631   4.444   0.098  0.3951 -1.3495 -1.7612
 3707SOL     OW22582   0.190   1.499   9.081 -0.2744  0.4475  0.2784
 3707SOL    HW122583   0.260   1.520   9.019 -0.6868 -0.9053 -0.6542
 3707SOL    HW222584   0.164   1.587   9.107  0.4636  0.9014 -0.5483
 3708SOL     OW22585   4.229   1.531  13.753 -0.6738 -0.1940 -0.6452
 3708SOL    HW122586   4.185   1.516  13.670  1.4250 -0.9661 -1.6097
 3708SOL    HW222587   4.184   1.476  13.818  2.1576 -3.8566 -1.8159
 3709SOL     OW22588   0.022   0.119  12.501 -0.1806  0.2525 -0.2476
 3709SOL    HW122589   0.031   0.120  12.406  0.7133  0.2437 -0.1684
 3709SOL    HW222590   0.107   0.161  12.514 -1.3540  3.5059 -3.1420
 3710SOL     OW22591   3.406   2.713   7.641 -0.2113 -0.2458  0.2135
 3710SOL    HW122592   3.497   2.686   7.633 -0.8566 -2.2986 -0.3295
 3710SOL    HW222593   3.378   2.630   7.679  0.9956 -0.7816 -0.0869
 3711SOL     OW22594   2.422   3.772   3.131  0.3457 -0.1874 -0.0619
 3711SOL    HW122595   2.476   3.835   3.083  1.8213  0.6239  2.6536
 3711SOL    HW222596   2.469   3.693   3.106  1.5607  0.2710  0.7639
 3712SOL     OW22597   3.075   0.983  17.658  0.4114 -0.1149  0.3035
 3712SOL    HW122598   2.980   0.969  17.662  0.5421 -0.9327  0.5872
 3712SOL    HW222599   3.114   0.940   0.039 -0.5182  1.0727  1.4396
 3713SOL     OW22600   2.486   0.783   4.733 -0.0081  0.2138  0.4456
 3713SOL    HW122601   2.455   0.867   4.768  0.6361  0.7193 -0.1992
 3713SOL    HW222602   2.425   0.724   4.777  1.3228  0.1432  2.2241
 3714SOL     OW22603   1.527   1.072   4.590 -0.0995 -0.5525  0.6223
 3714SOL    HW122604   1.480   1.034   4.664  0.8822 -1.1569  0.9382
 3714SOL    HW222605   1.449   1.100   4.541  0.4640 -0.5486 -0.2845
 3715SOL     OW22606   3.495   1.471  12.063  0.3463  0.6219 -0.2568
 3715SOL    HW122607   3.445   1.533  12.010  0.8359  0.0007 -1.4427
 3715SOL    HW222608   3.421   1.416  12.089 -0.5356  1.2153 -1.4740
 3716SOL     OW22609   3.275   4.025   6.411 -0.0892  0.2836  0.5142
 3716SOL    HW122610   3.196   4.006   6.360  0.5463 -1.6127  0.2361
 3716SOL    HW222611   3.343   4.009   6.346  1.0050  1.3151  1.4010
 3717SOL     OW22612   3.594   0.395   3.609 -0.4534  0.4867  0.4072
 3717SOL    HW122613   3.609   0.328   3.542 -0.8317  0.4474  0.3579
 3717SOL    HW222614   3.540   0.345   3.671  1.4031 -0.7221  1.0390
 3718SOL     OW22615   3.805   2.644   9.425  0.0280  0.0353 -0.1208
 3718SOL    HW122616   3.740   2.589   9.469 -0.9732  0.3515 -1.1818
 3718SOL    HW222617   3.808   2.619   9.332 -3.1860  0.5227 -0.3644
 3719SOL     OW22618   2.730   3.353  10.569  0.1102 -0.6869  0.0014
 3719SOL    HW122619   2.781   3.327  10.493 -2.2417 -2.0315 -1.1004
 3719SOL    HW222620   2.795   3.414  10.604 -0.9490 -0.9762  2.5393
 3720SOL     OW22621   1.600   3.148   7.348 -0.0416  0.2850  0.3224
 3720SOL    HW122622   1.625   3.083   7.413  3.1247  1.0217 -0.1820
 3720SOL    HW222623   1.627   3.104   7.268 -2.7847  1.0948 -1.0593
 3721SOL     OW22624   4.381   2.399   7.108 -0.1463  0.1762 -0.0912
 3721SOL    HW122625   4.440   2.323   7.107  0.9155  1.0355 -2.5341
 3721SOL    HW222626   4.320   2.364   7.172  2.3775  0.6633  2.5703
 3722SOL     OW22627   3.589   1.770  16.016 -0.0589 -0.0193 -0.9507
 3722SOL    HW122628   3.499   1.784  15.985 -1.5674 -0.5458  3.1785
 3722SOL    HW222629   3.577   1.766  16.110 -0.9759  1.4092 -1.0031
 3723SOL     OW22630   2.311   2.057   7.524 -0.3146  0.0053 -0.1528
 3723SOL    HW122631   2.278   2.120   7.587  0.7238  0.4974 -0.0905
 3723SOL    HW222632   2.387   2.026   7.574 -1.7518  0.3328  2.1909
 3724SOL     OW22633   1.823   1.034   9.290 -0.0606  0.3280 -0.7302
 3724SOL    HW122634   1.838   1.029   9.385 -0.8946  3.3010 -0.4042
 3724SOL    HW222635   1.737   1.076   9.292  0.1605  0.7283  0.3807
 3725SOL     OW22636   3.704   4.280   4.732  0.0694  0.2515  0.4867
 3725SOL    HW122637   3.616   4.317   4.735 -0.4524 -0.9631  0.3657
 3725SOL    HW222638   3.737   4.314   4.649 -1.5733 -1.7665 -1.0109
 3726SOL     OW22639   2.366   1.923   5.476 -0.4378 -0.0663  0.0863
 3726SOL    HW122640   2.351   1.846   5.422  0.0393  0.8470 -1.3425
 3726SOL    HW222641   2.314   1.984   5.425  2.2025  2.6424  0.6468
 3727SOL     OW22642   4.707   1.698  12.757  0.4636 -0.2530 -0.2386
 3727SOL    HW122643   4.640   1.647  12.801  0.1129  0.6145  0.2235
 3727SOL    HW222644   0.039   1.730  12.829 -0.1469 -0.4182  0.2995
 3728SOL     OW22645   0.938   3.012   2.868  0.5740  0.2329 -0.2665
 3728SOL    HW122646   0.935   2.997   2.962  2.3852 -1.8391 -0.5363
 3728SOL    HW222647   0.855   2.976   2.836  0.6589  1.0151 -1.3684
 3729SOL     OW22648   3.189   1.360   4.390  0.0883 -0.4900 -0.1233
 3729SOL    HW122649   3.111   1.340   4.442  0.8126 -3.1145 -0.0363
 3729SOL    HW222650   3.164   1.448   4.363 -2.3624 -0.4066  2.3961
 3730SOL     OW22651   4.432   3.420   4.017  0.1426 -0.6833 -0.5261
 3730SOL    HW122652   4.431   3.476   4.095  0.0705  1.7463 -2.2727
 3730SOL    HW222653   4.520   3.385   4.028  0.2025 -0.2659  0.3269
 3731SOL     OW22654   3.362   3.708   2.666  0.1092 -0.2289 -0.0951
 3731SOL    HW122655   3.341   3.801   2.666  0.8812 -0.0689 -1.5540
 3731SOL    HW222656   3.366   3.699   2.571 -0.6500  1.4538 -0.2906
 3732SOL     OW22657   2.945   1.851   8.654  0.4697  0.4929  0.2721
 3732SOL    HW122658   3.022   1.907   8.657  0.6081  0.2794  0.6916
 3732SOL    HW222659   2.891   1.896   8.720  0.7082  2.2148 -0.7071
 3733SOL     OW22660   2.535   2.315   6.198 -0.0611 -0.0970  0.4518
 3733SOL    HW122661   2.513   2.274   6.114  0.5882  2.0578 -0.7747
 3733SOL    HW222662   2.630   2.324   6.200 -0.0789  0.0932  0.4275
 3734SOL     OW22663   1.203   1.262   2.529  0.4349  0.1802  0.3236
 3734SOL    HW122664   1.112   1.289   2.517  0.4804 -0.9651 -2.5698
 3734SOL    HW222665   1.180   1.202   2.600  1.7142 -0.0875  0.5192
 3735SOL     OW22666   0.734   2.332   2.625 -0.2179 -0.1286  0.5778
 3735SOL    HW122667   0.777   2.283   2.556  0.4816 -0.1521  1.0252
 3735SOL    HW222668   0.693   2.402   2.574  3.1222  1.8124  0.5035
 3736SOL     OW22669   3.006   2.729   5.837  0.4362  0.0793 -0.4830
 3736SOL    HW122670   2.935   2.794   5.839 -1.3757 -1.9566  1.1023
 3736SOL    HW222671   3.042   2.745   5.750 -1.7392 -1.8783 -1.7500
 3737SOL     OW22672   4.030   3.299   4.558  0.5678 -0.1165 -0.5040
 3737SOL    HW122673   4.077   3.254   4.628 -0.1460 -0.8400 -0.4892
 3737SOL    HW222674   4.096   3.290   4.489  1.0749  0.4485 -0.0971
 3738SOL     OW22675   3.433   3.412   8.206 -0.0618 -0.5226 -0.0777
 3738SOL    HW122676   3.375   3.336   8.219  0.1020 -0.5948  0.2383
 3738SOL    HW222677   3.477   3.371   8.132  1.3049  2.3396 -0.8421
 3739SOL     OW22678   1.080   3.891   6.932 -0.0774 -0.1571 -0.6504
 3739SOL    HW122679   1.097   3.976   6.973 -0.3979 -0.0853 -0.6738
 3739SOL    HW222680   0.992   3.913   6.904 -0.4708 -0.4412  0.3701
 3740SOL     OW22681   1.498   0.579   8.193  0.3900 -0.4644 -0.4548
 3740SOL    HW122682   1.437   0.511   8.166  1.5776 -1.7990  0.2026
 3740SOL    HW222683   1.505   0.613   8.104  0.7599  0.1045 -0.2067
 3741SOL     OW22684   0.767   3.396   5.310  0.4256  0.1761 -0.2146
 3741SOL    HW122685   0.840   3.376   5.369  0.1414 -0.6057 -0.1365
 3741SOL    HW222686   0.752   3.320   5.254 -1.2297  0.4897 -0.1716
 3742SOL     OW22687   0.770   1.824  16.472 -0.1792 -0.0248 -0.0329
 3742SOL    HW122688   0.731   1.739  16.453  1.4519 -0.7003 -0.4151
 3742SOL    HW222689   0.856   1.827  16.429  0.3528 -0.8140  0.9702
 3743SOL     OW22690   3.234   1.956   5.375  0.3120  0.0827  0.6203
 3743SOL    HW122691   3.294   1.882   5.389  0.6164  0.4554  1.2933
 3743SOL    HW222692   3.238   1.976   5.281  1.9940  1.6059  1.0188
 3744SOL     OW22693   3.669   3.238   5.406 -0.5472 -0.5013 -0.1958
 3744SOL    HW122694   3.643   3.297   5.477  0.4912 -2.6146  1.9133
 3744SOL    HW222695   3.735   3.183   5.447 -2.3459 -0.9438  2.0587
 3745SOL     OW22696   1.855   1.493  12.323 -0.3708  0.8862 -0.4218
 3745SOL    HW122697   1.787   1.541  12.369 -0.7950 -0.9552  0.8939
 3745SOL    HW222698   1.938   1.541  12.329  0.3997 -0.3068 -1.5525
 3746SOL     OW22699   4.187   3.295  13.581 -0.5110 -0.0834 -0.1259
 3746SOL    HW122700   4.098   3.289  13.615  0.1638 -2.2100  1.2935
 3746SOL    HW222701   4.191   3.369  13.521 -1.8418 -2.4794 -3.1644
 3747SOL     OW22702   4.159   1.386   3.553  0.4280  0.3334 -0.0576
 3747SOL    HW122703   4.069   1.363   3.528 -0.6494  2.8413  1.4840
 3747SOL    HW222704   4.166   1.359   3.644 -1.7564 -0.6584 -0.1767
 3748SOL     OW22705   3.541   3.880   5.390  0.2428 -0.6668  0.0818
 3748SOL    HW122706   3.546   3.974   5.409  0.3241 -0.4099 -1.1669
 3748SOL    HW222707   3.475   3.863   5.456  0.9571 -0.1522  0.9310
 3749SOL     OW22708   2.736   3.487  10.195  0.3201  0.0639 -0.3929
 3749SOL    HW122709   2.790   3.424  10.242  1.6824  1.2046 -0.4231
 3749SOL    HW222710   2.756   3.469  10.103  0.3445 -2.6706  0.1576
 3750SOL     OW22711   3.259   2.398   2.841 -0.1480 -0.9561 -0.0097
 3750SOL    HW122712   3.287   2.433   2.756 -0.2398 -1.1477 -0.1191
 3750SOL    HW222713   3.185   2.341   2.821 -0.1085 -0.5218 -1.4189
 3751SOL     OW22714   0.161   2.313  16.474 -0.1369  0.3237 -0.0398
 3751SOL    HW122715   0.199   2.321  16.387  0.3743  2.1246  0.3430
 3751SOL    HW222716   0.212   2.240  16.510 -0.1850  1.0347  1.4903
 3752SOL     OW22717   0.489   1.802   2.127 -0.5524  0.0945 -0.0554
 3752SOL    HW122718   0.484   1.897   2.129  3.6329  0.3183  0.1476
 3752SOL    HW222719   0.402   1.799   2.087 -0.5799  1.5648 -0.0738
 3753SOL     OW22720   1.701   2.289   5.827  0.2321 -0.2709  0.7903
 3753SOL    HW122721   1.741   2.319   5.745  0.2506 -0.4058  0.7509
 3753SOL    HW222722   1.696   2.195   5.811 -1.3094  0.0687 -0.7728
 3754SOL     OW22723   0.731   1.118   4.351 -0.0697 -0.9315  0.5926
 3754SOL    HW122724   0.822   1.108   4.323 -0.0924 -1.7465  0.8259
 3754SOL    HW222725   0.684   1.115   4.267  0.4554 -0.2366  0.2661
 3755SOL     OW22726   0.770   1.280   3.910 -0.1102  0.0005 -0.0748
 3755SOL    HW122727   0.780   1.225   3.832  1.6341  0.1962  0.0206
 3755SOL    HW222728   0.858   1.265   3.942  0.2574 -0.0489 -1.0927
 3756SOL     OW22729   2.191   3.154   2.402 -0.0122  0.3142 -0.6143
 3756SOL    HW122730   2.178   3.060   2.413  0.0019  0.1169 -2.3265
 3756SOL    HW222731   2.248   3.173   2.476 -0.9304  1.1200 -0.1221
 3757SOL     OW22732   0.612   4.607  10.198  0.0676  0.3300  0.4671
 3757SOL    HW122733   0.608   4.582  10.105  0.8097 -0.3610  0.6167
 3757SOL    HW222734   0.627   4.515  10.219 -0.4353  0.1081 -0.1337
 3758SOL     OW22735   4.526   4.642   9.288 -0.1240 -0.5200  0.1909
 3758SOL    HW122736   4.583   4.585   9.237 -0.2841  1.0643 -1.7646
 3758SOL    HW222737   4.448   4.647   9.231 -1.0078 -3.5102  1.1203
 3759SOL     OW22738   0.923   4.026   8.171 -0.2988 -0.4338 -0.3463
 3759SOL    HW122739   0.993   4.011   8.107 -1.2741 -3.4470 -0.7073
 3759SOL    HW222740   0.969   4.013   8.254 -2.2163 -0.4435  0.7219
 3760SOL     OW22741   1.840   3.830  11.844  0.3615  0.2615  0.4428
 3760SOL    HW122742   1.857   3.882  11.765 -0.7090  0.4676  0.3480
 3760SOL    HW222743   1.928   3.792  11.846 -0.5230 -1.7692  0.9264
 3761SOL     OW22744   0.921   1.306   6.410 -0.5782 -0.1611  0.3989
 3761SOL    HW122745   0.893   1.380   6.463  2.8606 -0.9169  3.2970
 3761SOL    HW222746   0.960   1.344   6.331  0.5810  0.4978  1.2953
 3762SOL     OW22747   2.732   4.032   4.561  0.0390 -0.0567  0.1781
 3762SOL    HW122748   2.651   3.984   4.577 -0.7721  0.4001 -2.5651
 3762SOL    HW222749   2.740   4.076   4.645  1.8011 -1.1611  0.5836
 3763SOL     OW22750   0.345   0.294  16.279  1.0194  0.2682 -0.1591
 3763SOL    HW122751   0.393   0.230  16.227 -0.1521 -0.7751  0.0486
 3763SOL    HW222752   0.270   0.313  16.222  1.2335  0.2901 -0.4327
 3764SOL     OW22753   2.275   0.491  16.734  0.0143  0.3333 -0.0421
 3764SOL    HW122754   2.264   0.570  16.787 -0.2575  1.7841 -2.2475
 3764SOL    HW222755   2.186   0.469  16.708  0.0227  0.7417 -0.4079
 3765SOL     OW22756   3.226   4.309   3.024 -0.8263  0.6084 -0.0129
 3765SOL    HW122757   3.242   4.215   3.033 -0.6908  0.6158 -0.1800
 3765SOL    HW222758   3.130   4.307   3.016 -0.6412 -1.2426 -1.7419
 3766SOL     OW22759   0.142   2.391   2.571  0.1899  0.5617  0.5963
 3766SOL    HW122760   0.091   2.459   2.616 -0.3049 -0.0377  0.9326
 3766SOL    HW222761   0.073   2.358   2.513 -0.7073  1.2101  1.2960
 3767SOL     OW22762   3.496   0.672   2.283  0.2675 -0.1707 -0.2017
 3767SOL    HW122763   3.574   0.689   2.230  0.2110  0.8672  0.0474
 3767SOL    HW222764   3.475   0.587   2.245  2.0831 -0.4956 -0.5043
 3768SOL     OW22765   2.851   3.625   8.422 -0.7598 -0.8679 -0.5157
 3768SOL    HW122766   2.812   3.570   8.491 -1.4123  2.4804  1.7756
 3768SOL    HW222767   2.769   3.669   8.400 -0.8298  0.2387  1.8801
 3769SOL     OW22768   1.598   0.394   9.193 -0.3478 -0.4347  0.1298
 3769SOL    HW122769   1.550   0.311   9.185  2.9963 -2.5089  1.4599
 3769SOL    HW222770   1.581   0.421   9.102  2.0143  1.9236  0.3965
 3770SOL     OW22771   3.746   1.321   9.669  0.5544 -0.1595  0.1522
 3770SOL    HW122772   3.778   1.240   9.628 -0.9083  0.7294 -2.7492
 3770SOL    HW222773   3.701   1.299   9.750  1.6525  0.3541  0.9131
 3771SOL     OW22774   1.776   4.367  15.121 -0.5927  0.3908  0.6407
 3771SOL    HW122775   1.831   4.289  15.133 -0.0904  0.5982 -0.3631
 3771SOL    HW222776   1.763   4.362  15.027 -0.0317 -1.4284  0.6544
 3772SOL     OW22777   2.108   2.082   6.419 -0.2805  0.4249  0.2185
 3772SOL    HW122778   2.167   2.135   6.365 -1.0124  1.6161  0.5770
 3772SOL    HW222779   2.146   2.095   6.507 -1.7436  0.3010  0.8679
 3773SOL     OW22780   3.677   3.385   9.471  0.3590 -0.6541  0.0454
 3773SOL    HW122781   3.642   3.357   9.555  0.6549 -1.6401 -0.1582
 3773SOL    HW222782   3.768   3.357   9.476  0.8231  0.8799  0.2705
 3774SOL     OW22783   0.506   0.324   2.136 -0.2747  0.6040  0.2145
 3774SOL    HW122784   0.575   0.370   2.182  1.7101 -2.0494 -0.0857
 3774SOL    HW222785   0.492   0.249   2.194  1.9972 -0.2644 -0.3624
 3775SOL     OW22786   0.493   4.335   3.315 -0.1673 -0.5609 -0.2510
 3775SOL    HW122787   0.434   4.261   3.322  0.6220 -1.2432 -0.8140
 3775SOL    HW222788   0.571   4.290   3.283  1.4900  2.4397 -0.4995
 3776SOL     OW22789   2.519   4.267  10.133 -0.2131  0.2656 -0.6006
 3776SOL    HW122790   2.523   4.305  10.221 -2.5056 -0.5662 -0.1366
 3776SOL    HW222791   2.452   4.199  10.146  1.2412 -1.1740 -0.5952
 3777SOL     OW22792   1.351   0.892   9.276  0.4382 -0.0993  0.0912
 3777SOL    HW122793   1.365   0.827   9.208  0.4802 -0.8404  0.8143
 3777SOL    HW222794   1.271   0.928   9.237  1.6165  1.2221 -1.1262
 3778SOL     OW22795   1.440   4.429   5.769 -0.2817 -0.0969 -0.4093
 3778SOL    HW122796   1.403   4.509   5.807 -0.2889 -0.1612 -0.2820
 3778SOL    HW222797   1.361   4.380   5.747  0.5153 -1.5923  0.0552
 3779SOL     OW22798   0.069   4.645  13.200  0.6656 -0.4952 -0.0905
 3779SOL    HW122799   0.018   4.564  13.208  0.5560 -0.2691  1.5101
 3779SOL    HW222800   0.113   4.662  13.283  0.6800 -1.9032  0.1906
 3780SOL     OW22801   1.667   0.317   7.903  0.1498  0.3733 -0.0168
 3780SOL    HW122802   1.676   0.376   7.977  0.1229 -0.0164  0.2957
 3780SOL    HW222803   1.573   0.327   7.889 -0.2629 -1.3173  1.5818
 3781SOL     OW22804   4.256   4.212   1.651  0.0711  0.3584 -0.0020
 3781SOL    HW122805   4.280   4.122   1.675  1.7137  0.9963  0.7953
 3781SOL    HW222806   4.168   4.232   1.682 -0.2784 -3.0652  1.2251
 3782SOL     OW22807   2.895   1.606   0.527 -0.0594  0.1131  0.1275
 3782SOL    HW122808   2.832   1.580   0.594 -0.3339 -0.4753 -0.3545
 3782SOL    HW222809   2.961   1.644   0.584  0.8332 -1.1807 -0.0287
 3783SOL     OW22810   0.410   0.029   3.487 -0.4503  0.3005 -0.2061
 3783SOL    HW122811   0.493   0.076   3.488  0.3747 -1.1153 -2.6540
 3783SOL    HW222812   0.353   0.092   3.530 -0.5603 -0.1829  0.3544
 3784SOL     OW22813   3.029   0.301   2.985 -0.6543  0.0790 -0.4773
 3784SOL    HW122814   3.082   0.274   3.059 -0.2704  1.6846 -0.1554
 3784SOL    HW222815   2.941   0.275   3.010 -0.6165  1.2069  0.8125
 3785SOL     OW22816   0.531   0.760   7.862 -0.6569 -0.2300  0.0822
 3785SOL    HW122817   0.590   0.773   7.936 -2.7293  2.4000  1.3000
 3785SOL    HW222818   0.481   0.681   7.881 -1.3829 -0.4156 -2.5842
 3786SOL     OW22819   2.994   3.006   3.597  0.3554  0.2426  0.6619
 3786SOL    HW122820   2.942   3.061   3.656 -0.5695  1.8737 -1.6652
 3786SOL    HW222821   2.933   2.952   3.547 -0.1433  1.0174  0.4321
 3787SOL     OW22822   2.015   0.452   8.600  0.4044 -0.2173 -0.3673
 3787SOL    HW122823   2.110   0.465   8.605  0.4268 -0.2347 -0.7355
 3787SOL    HW222824   2.001   0.390   8.672  0.5989 -2.0276 -1.8817
 3788SOL     OW22825   0.558   2.358   6.918 -0.0390 -0.8256 -0.3898
 3788SOL    HW122826   0.588   2.426   6.859  1.1110  0.7443  2.0072
 3788SOL    HW222827   0.624   2.370   6.987 -0.5858  0.7676 -0.1315
 3789SOL     OW22828   2.647   0.414   5.998 -0.1720 -0.1323 -0.6839
 3789SOL    HW122829   2.646   0.427   6.093  0.5420  1.3994 -0.8928
 3789SOL    HW222830   2.717   0.348   5.999  0.8614  0.9877  0.7822
 3790SOL     OW22831   3.517   2.160   3.693  0.6336  0.2029  0.2877
 3790SOL    HW122832   3.556   2.222   3.632  0.1372  1.1566  0.9331
 3790SOL    HW222833   3.451   2.133   3.630  2.0498  2.9597 -2.3839
 3791SOL     OW22834   3.943   2.196   4.327 -0.1515  0.6665  0.4195
 3791SOL    HW122835   3.867   2.178   4.382  0.5525 -0.8628  0.8835
 3791SOL    HW222836   3.904   2.206   4.240 -0.5993 -1.0927  0.4237
 3792SOL     OW22837   4.170   0.836   2.662 -0.2595  0.1587 -0.3162
 3792SOL    HW122838   4.234   0.894   2.703 -0.7999  1.4897 -1.3585
 3792SOL    HW222839   4.221   0.813   2.584 -0.5134  0.5411 -0.5962
 3793SOL     OW22840   2.405   2.691   2.801 -0.1802 -0.3404  0.1735
 3793SOL    HW122841   2.338   2.758   2.809 -0.1519  0.0117 -2.9001
 3793SOL    HW222842   2.387   2.622   2.866  2.1032 -0.3829  0.7947
 3794SOL     OW22843   0.974   4.066   6.237 -0.4862  0.2365 -0.3676
 3794SOL    HW122844   1.070   4.062   6.234 -0.6352 -2.2266 -1.0172
 3794SOL    HW222845   0.951   4.067   6.145 -1.0617 -1.3433 -0.2274
 3795SOL     OW22846   3.292   1.727   5.517  0.2848  0.5221  0.4740
 3795SOL    HW122847   3.213   1.748   5.567  0.0308 -0.5285  0.5157
 3795SOL    HW222848   3.258   1.647   5.476 -1.1134  1.7181 -0.7212
 3796SOL     OW22849   3.238   0.635   2.561 -0.7324  0.2675  0.0088
 3796SOL    HW122850   3.295   0.566   2.527 -1.1273 -0.0536 -0.0081
 3796SOL    HW222851   3.161   0.635   2.504  0.4077  1.0237 -1.5192
 3797SOL     OW22852   1.459   4.019   5.659 -0.6142 -0.4246 -0.2807
 3797SOL    HW122853   1.451   4.095   5.601  0.6890  1.4052  1.9393
 3797SOL    HW222854   1.552   4.001   5.665 -0.3633  0.7953 -0.5890
 3798SOL     OW22855   2.573   3.671   4.994  0.0264 -0.2441 -0.3486
 3798SOL    HW122856   2.571   3.657   4.899 -0.7632  0.5904 -0.4578
 3798SOL    HW222857   2.491   3.638   5.030  0.0621 -0.7589 -0.7365
 3799SOL     OW22858   2.445   4.073  17.377  0.6818 -0.3832  0.0091
 3799SOL    HW122859   2.405   4.002  17.427  1.2858 -0.8936 -0.2295
 3799SOL    HW222860   2.538   4.061  17.395  0.4259 -1.4495  0.6129
 3800SOL     OW22861   1.726   0.809   1.915  0.0960 -0.9241  0.0844
 3800SOL    HW122862   1.769   0.867   1.851  2.3872 -2.4404  0.2395
 3800SOL    HW222863   1.753   0.724   1.882  0.8058 -0.3552 -0.8097
 3801SOL     OW22864   4.351   2.232  15.290  0.5533 -0.5700  0.3541
 3801SOL    HW122865   4.358   2.327  15.290 -0.7390 -0.4792  0.8202
 3801SOL    HW222866   4.376   2.205  15.379  0.4793 -3.2916 -0.4593
 3802SOL     OW22867   0.182   1.534   7.263 -0.4645 -0.1981 -0.4957
 3802SOL    HW122868   0.171   1.494   7.350 -1.4553 -0.8683 -0.9270
 3802SOL    HW222869   0.150   1.459   7.213  0.2198 -0.7770 -0.0710
 3803SOL     OW22870   2.005   0.177   3.096  0.4042 -0.2494 -0.2339
 3803SOL    HW122871   1.971   0.265   3.079 -1.6698 -1.3374 -1.7613
 3803SOL    HW222872   2.094   0.170   3.062 -0.1170 -2.5431 -1.1323
 3804SOL     OW22873   1.909   1.968   6.045  0.2601 -0.5255  0.0295
 3804SOL    HW122874   1.932   1.906   6.113  0.4657 -1.3771 -0.8136
 3804SOL    HW222875   1.994   1.981   6.004 -0.0869 -0.5212 -0.6920
 3805SOL     OW22876   1.458   0.391  17.037 -0.6528  0.6153  0.1896
 3805SOL    HW122877   1.535   0.426  16.991  1.1495 -3.9376 -0.2678
 3805SOL    HW222878   1.501   0.364  17.118  0.5698 -0.1175 -0.7019
 3806SOL     OW22879   2.201   2.713   9.642  0.1259  0.2828 -0.6660
 3806SOL    HW122880   2.114   2.752   9.638 -0.2414 -0.6677 -2.1303
 3806SOL    HW222881   2.174   2.621   9.641 -0.6591  0.4922  0.9890
 3807SOL     OW22882   1.780   3.152   7.957  0.0739 -0.0937 -0.0841
 3807SOL    HW122883   1.755   3.176   7.867 -0.7011  1.5574  0.5632
 3807SOL    HW222884   1.809   3.063   7.937 -1.1434 -0.7961  1.2597
 3808SOL     OW22885   3.916   3.669  13.942  0.4885  0.1224 -0.2487
 3808SOL    HW122886   3.921   3.615  14.020  0.2601  1.4584  0.6944
 3808SOL    HW222887   3.964   3.617  13.878  1.0807  0.7062 -0.2837
 3809SOL     OW22888   1.091   0.647   4.401  0.8293 -0.4009 -0.0920
 3809SOL    HW122889   1.073   0.624   4.310  1.8619  1.1839 -0.6828
 3809SOL    HW222890   1.042   0.584   4.455  0.1979  0.0287 -0.1573
 3810SOL     OW22891   2.440   3.523   6.301  0.2483 -0.4288  0.7732
 3810SOL    HW122892   2.531   3.530   6.273 -0.1945  1.6763 -0.1441
 3810SOL    HW222893   2.430   3.430   6.322 -1.3370 -0.5101 -0.3512
 3811SOL     OW22894   1.162   1.939  13.372  0.4970 -0.3648 -0.2690
 3811SOL    HW122895   1.206   1.892  13.444  0.7651 -0.3635 -0.4339
 3811SOL    HW222896   1.230   2.002  13.351 -0.0439  0.5313  0.6235
 3812SOL     OW22897   1.401   4.627   2.987  0.3713  0.4602 -0.4579
 3812SOL    HW122898   1.412   4.671   2.903 -0.5378 -1.1078 -1.3875
 3812SOL    HW222899   1.464   4.558   2.968 -1.5012 -1.4604  0.3346
 3813SOL     OW22900   0.337   1.785   3.108 -0.7411 -0.4416  0.0055
 3813SOL    HW122901   0.381   1.708   3.145  1.1972 -0.1261 -1.6134
 3813SOL    HW222902   0.265   1.744   3.060 -1.6501  1.5922 -0.3589
 3814SOL     OW22903   4.184   3.491   7.976 -0.2708 -0.8793 -0.2776
 3814SOL    HW122904   4.274   3.510   7.950 -0.7921  1.5431 -0.2537
 3814SOL    HW222905   4.148   3.496   7.888  0.3561 -1.7237 -0.5843
 3815SOL     OW22906   1.592   0.088   6.449 -0.1339  0.2625  0.1210
 3815SOL    HW122907   1.502   0.102   6.479 -0.5649 -0.8667 -0.6193
 3815SOL    HW222908   1.597   0.162   6.389 -2.8219  0.0650 -0.3670
 3816SOL     OW22909   0.275   3.432   3.891 -0.2505  0.2146  0.0017
 3816SOL    HW122910   0.281   3.528   3.885  2.1126  0.0398 -0.3560
 3816SOL    HW222911   0.328   3.414   3.813  0.3165 -1.0540  0.6951
 3817SOL     OW22912   0.983   2.501   3.010  0.4221 -0.0151 -0.0833
 3817SOL    HW122913   0.992   2.480   2.917  2.4482 -1.2022  0.3893
 3817SOL    HW222914   0.906   2.448   3.032  0.3256 -0.1392 -0.7155
 3818SOL     OW22915   1.476   4.476   9.462 -0.2571  0.5412 -0.5502
 3818SOL    HW122916   1.483   4.483   9.558  1.4558  3.5600 -0.8839
 3818SOL    HW222917   1.497   4.384   9.443  1.5573  0.6103  1.0072
 3819SOL     OW22918   4.508   2.911   3.800  0.2336 -0.1265  0.0646
 3819SOL    HW122919   4.532   2.860   3.723 -1.2787 -1.7936  0.7247
 3819SOL    HW222920   4.524   2.847   3.869  0.5292 -0.3711 -0.2320
 3820SOL     OW22921   0.807   4.030   8.481  0.3741  0.6437 -0.3153
 3820SOL    HW122922   0.791   3.946   8.525 -1.1767  0.9788 -0.2458
 3820SOL    HW222923   0.901   4.022   8.465  0.2061 -2.0324 -0.0372
 3821SOL     OW22924   3.191   3.392   2.086 -0.1299 -0.0494 -0.3798
 3821SOL    HW122925   3.178   3.302   2.118 -0.1303 -0.6729 -2.1297
 3821SOL    HW222926   3.248   3.383   2.010  1.2784 -2.6044  1.0002
 3822SOL     OW22927   2.927   3.633   2.021 -0.7352 -0.3533  0.1104
 3822SOL    HW122928   2.854   3.668   1.970 -0.7713 -0.5226  0.0463
 3822SOL    HW222929   2.906   3.659   2.110  0.6833  0.2191  0.2724
 3823SOL     OW22930   0.291   1.732   7.008 -0.1622 -0.4833  0.3180
 3823SOL    HW122931   0.202   1.696   7.006 -0.1240 -0.5018 -1.8025
 3823SOL    HW222932   0.338   1.662   6.962  0.2557  0.0123 -0.0079
 3824SOL     OW22933   2.665   3.662   2.813  0.1457 -0.0889 -0.1940
 3824SOL    HW122934   2.731   3.596   2.792 -0.1307 -0.7092  0.9076
 3824SOL    HW222935   2.580   3.628   2.787 -0.9357  2.1040  0.4593
 3825SOL     OW22936   1.170   1.564   2.555 -0.0191 -0.2287 -0.0654
 3825SOL    HW122937   1.085   1.608   2.549  0.6487  0.9169 -1.0848
 3825SOL    HW222938   1.142   1.487   2.605 -1.6633  0.1930 -0.3344
 3826SOL     OW22939   0.833   0.069   7.276  0.3187  0.3109 -0.1783
 3826SOL    HW122940   0.885   0.006   7.325  2.6748  1.1817 -1.5981
 3826SOL    HW222941   0.748   0.024   7.274 -0.1002  1.0570  0.5650
 3827SOL     OW22942   4.005   1.943   6.857  0.1694 -0.4158 -0.1654
 3827SOL    HW122943   3.988   2.020   6.802 -1.0849  0.8312  1.9934
 3827SOL    HW222944   4.048   1.967   6.939  0.4243 -0.3122 -0.3291
 3828SOL     OW22945   2.005   2.396   2.013 -0.2245  0.1343  0.1827
 3828SOL    HW122946   2.014   2.315   2.064 -1.6776 -0.9145 -1.2060
 3828SOL    HW222947   2.069   2.450   2.058  0.1823 -1.3080  1.3524
 3829SOL     OW22948   1.609   1.374   4.739 -0.0884  0.3637  0.5808
 3829SOL    HW122949   1.581   1.443   4.679  1.5857 -0.2057 -0.8542
 3829SOL    HW222950   1.539   1.310   4.738  1.2567 -1.0636 -1.1546
 3830SOL     OW22951   2.515   1.492  17.116  0.1357  0.0215 -0.2399
 3830SOL    HW122952   2.497   1.455  17.030 -1.9460  1.1420 -0.2728
 3830SOL    HW222953   2.610   1.500  17.128 -0.0475  0.9237  0.6945
 3831SOL     OW22954   1.337   1.781  10.483 -0.3596  0.1109 -0.1042
 3831SOL    HW122955   1.368   1.694  10.506  1.2301  1.4866  2.9242
 3831SOL    HW222956   1.404   1.830  10.531  0.5831  1.2252 -2.5689
 3832SOL     OW22957   2.777   2.793   0.010  0.5032  0.3487  0.0170
 3832SOL    HW122958   2.719   2.845  17.649  1.4621  0.8985 -0.4749
 3832SOL    HW222959   2.750   2.833   0.092  1.0371  2.2883 -0.7543
 3833SOL     OW22960   0.789   0.035   5.926 -0.2583 -0.5048 -0.2444
 3833SOL    HW122961   0.820   4.712   6.004  0.4108 -0.0788 -0.2592
 3833SOL    HW222962   0.715   0.088   5.956 -0.6215  0.3590 -2.6595
 3834SOL     OW22963   4.526   3.543  14.721  0.2981  0.1805 -0.2646
 3834SOL    HW122964   4.576   3.608  14.770 -0.4507  0.0853  0.6268
 3834SOL    HW222965   4.560   3.460  14.754 -1.2648 -0.3583  0.0197
 3835SOL     OW22966   3.847   1.177   3.563 -0.2323 -0.4938 -0.4219
 3835SOL    HW122967   3.770   1.224   3.597 -0.4679 -1.3761  0.2522
 3835SOL    HW222968   3.852   1.099   3.618  1.1516  0.6472  1.0589
 3836SOL     OW22969   4.648   2.357  16.172  0.6260 -0.0406  0.1218
 3836SOL    HW122970   4.719   2.317  16.122  0.4575  0.9613 -0.9086
 3836SOL    HW222971   4.578   2.343  16.108  1.4799  3.9797 -1.7205
 3837SOL     OW22972   2.612   0.864  10.553 -0.8925 -0.2766  0.1303
 3837SOL    HW122973   2.598   0.770  10.557 -2.4916  0.0225  1.5967
 3837SOL    HW222974   2.677   0.866  10.483 -1.7448 -1.9845 -0.7032
 3838SOL     OW22975   0.471   1.578   6.853 -0.0111  0.1769 -0.1056
 3838SOL    HW122976   0.534   1.523   6.808 -1.1229  0.2570 -1.7358
 3838SOL    HW222977   0.484   1.543   6.941  0.5538 -0.2352 -0.3611
 3839SOL     OW22978   2.631   0.690   3.205  0.3848  0.4304 -0.0718
 3839SOL    HW122979   2.589   0.642   3.134 -0.0778 -0.3592  0.7358
 3839SOL    HW222980   2.633   0.624   3.274 -0.9802 -2.6598 -2.9876
 3840SOL     OW22981   3.969   3.612   8.095 -0.2376 -0.4050 -0.1003
 3840SOL    HW122982   4.005   3.692   8.134  0.0435 -0.8109  0.4817
 3840SOL    HW222983   4.044   3.566   8.058 -1.0213 -0.2121 -1.9168
 3841SOL     OW22984   4.673   1.966   1.750 -0.2216 -0.0718 -0.4547
 3841SOL    HW122985   4.612   1.900   1.716 -1.2786  0.7902 -0.2474
 3841SOL    HW222986   4.719   1.906   1.809 -1.8768 -2.3583 -1.4928
 3842SOL     OW22987   0.852   2.606   7.399 -0.7809  0.7376 -0.8549
 3842SOL    HW122988   0.930   2.594   7.345  0.1720  2.0448  0.2369
 3842SOL    HW222989   0.834   2.516   7.427 -0.3802  1.4132  1.5784
 3843SOL     OW22990   3.690   0.818   6.329  0.4808 -0.5950  0.8370
 3843SOL    HW122991   3.776   0.834   6.369  0.9451 -3.7374  1.0987
 3843SOL    HW222992   3.636   0.880   6.378  0.7434  0.4083 -0.1475
 3844SOL     OW22993   3.175   0.548   4.216  0.6100 -0.3586 -0.4534
 3844SOL    HW122994   3.123   0.571   4.293 -0.4567  1.2194 -1.6406
 3844SOL    HW222995   3.117   0.570   4.143 -1.0246 -1.0110  0.6533
 3845SOL     OW22996   0.457   3.513   7.721 -0.4239 -0.2555  0.3428
 3845SOL    HW122997   0.525   3.471   7.669  1.6253  1.8504  1.3208
 3845SOL    HW222998   0.474   3.606   7.708  1.7507 -0.7153 -0.0389
 3846SOL     OW22999   3.522   1.107   2.155  0.0093  0.4481  0.7723
 3846SOL    HW123000   3.460   1.071   2.092 -0.4710  1.1743  0.8339
 3846SOL    HW223001   3.463   1.098   2.231 -0.8743 -0.6144 -0.0329
 3847SOL     OW23002   3.628   0.045   3.836  0.0600 -0.3094  0.1481
 3847SOL    HW123003   3.667   0.125   3.870 -0.5923 -0.2626  0.7933
 3847SOL    HW223004   3.629   4.722   3.920  3.2842 -1.7938 -0.6857
 3848SOL     OW23005   2.114   1.255   9.817  0.6435 -0.0843 -0.3320
 3848SOL    HW123006   2.123   1.162   9.835 -1.6141 -0.4950 -1.3092
 3848SOL    HW223007   2.045   1.278   9.879  0.0412  0.2767 -1.1280
 3849SOL     OW23008   0.251   2.231  17.197 -0.7738  0.3867 -0.6215
 3849SOL    HW123009   0.325   2.226  17.258 -1.5922  0.5567  0.3902
 3849SOL    HW223010   0.181   2.190  17.248  0.2697  0.4384  0.8373
 3850SOL     OW23011   1.233   1.185   4.831 -0.1559 -0.0447 -0.7595
 3850SOL    HW123012   1.224   1.276   4.803  1.0086 -0.2204 -1.7147
 3850SOL    HW223013   1.154   1.134   4.814  2.2419 -3.9714 -0.1422
 3851SOL     OW23014   2.768   1.813   4.263  0.0556  0.0053  0.1816
 3851SOL    HW123015   2.796   1.790   4.352  0.3225  0.3679  0.1905
 3851SOL    HW223016   2.719   1.893   4.284 -0.5646 -0.3541  0.1009
 3852SOL     OW23017   3.293   3.642   0.183  0.1233 -0.0118 -0.0753
 3852SOL    HW123018   3.266   3.733   0.193  0.8039 -0.0361  1.8748
 3852SOL    HW223019   3.353   3.640   0.257  1.3456 -2.4543 -1.1316
 3853SOL     OW23020   4.265   2.802   7.761 -0.1060 -0.0098 -0.0900
 3853SOL    HW123021   4.317   2.742   7.709  0.1763  1.0138 -0.9848
 3853SOL    HW223022   4.320   2.880   7.757 -0.5462  0.3739  1.2429
 3854SOL     OW23023   1.615   2.298   4.031 -0.0087 -0.7445 -0.2431
 3854SOL    HW123024   1.543   2.360   4.039  0.8322  0.4182 -1.7619
 3854SOL    HW223025   1.570   2.224   3.990 -0.5107 -0.5229 -0.0998
 3855SOL     OW23026   2.353   1.142   3.605 -0.0310 -0.0482 -0.9110
 3855SOL    HW123027   2.425   1.079   3.618 -0.4887 -0.2902  0.4250
 3855SOL    HW223028   2.293   1.094   3.662  0.9165 -2.9780 -2.3731
 3856SOL     OW23029   0.140   3.956   0.427  0.0029 -0.1849  0.6866
 3856SOL    HW123030   0.095   4.016   0.486 -0.6564  2.1578 -2.2163
 3856SOL    HW223031   0.231   3.975   0.450  0.2914 -0.2803 -0.3676
 3857SOL     OW23032   0.121   1.329   2.843  0.0410  0.0760  0.7346
 3857SOL    HW123033   0.198   1.381   2.820 -1.7984  0.8483 -3.5108
 3857SOL    HW223034   0.050   1.392   2.836 -0.4118 -0.6310 -1.0565
 3858SOL     OW23035   2.736   0.738   7.623  0.7644 -0.1679  0.1303
 3858SOL    HW123036   2.806   0.672   7.624 -0.4292 -1.4072  2.3319
 3858SOL    HW223037   2.668   0.697   7.677  0.8499 -0.8101 -0.2555
 3859SOL     OW23038   1.523   3.502   7.762  0.0766 -0.2598  0.4299
 3859SOL    HW123039   1.526   3.462   7.849 -0.6225 -1.9318 -0.3153
 3859SOL    HW223040   1.614   3.530   7.768 -1.1379  3.8576 -0.3475
 3860SOL     OW23041   1.365   0.465  17.592 -0.0537 -0.3520 -0.1246
 3860SOL    HW123042   1.303   0.396  17.568  0.1492 -0.9372  1.0514
 3860SOL    HW223043   1.304   0.539  17.604 -1.9094 -2.0009  0.7714
 3861SOL     OW23044   1.234   4.546   8.658 -0.1665 -0.4572  0.2698
 3861SOL    HW123045   1.328   4.558   8.664  0.1071 -1.3703 -2.2034
 3861SOL    HW223046   1.205   4.619   8.605  0.8590  0.0348  0.3942
 3862SOL     OW23047   3.009   4.120   9.456  0.1839 -0.6899 -0.1697
 3862SOL    HW123048   2.982   4.061   9.527  0.1310 -0.5809 -0.0981
 3862SOL    HW223049   2.931   4.121   9.401 -1.4475 -0.9651  2.1244
 3863SOL     OW23050   2.889   3.271   4.174  0.2824  0.0823 -0.1606
 3863SOL    HW123051   2.920   3.254   4.263  2.0820 -0.7373 -0.9548
 3863SOL    HW223052   2.808   3.317   4.198 -0.0031  0.3177 -1.5926
 3864SOL     OW23053   2.671   3.062   7.910 -0.2443 -0.0950 -0.2030
 3864SOL    HW123054   2.752   3.016   7.888 -1.5817 -1.7779 -1.5585
 3864SOL    HW223055   2.709   3.147   7.932 -0.5327  0.5749 -2.1935
 3865SOL     OW23056   0.212   4.192   0.005 -0.8092 -0.2919 -0.1956
 3865SOL    HW123057   0.231   4.258   0.071 -1.5981  0.1815 -0.4375
 3865SOL    HW223058   0.227   4.112   0.056  1.2540 -0.8931 -1.7884
 3866SOL     OW23059   3.432   4.514   8.170  0.2783  0.1941 -0.1415
 3866SOL    HW123060   3.484   4.591   8.147 -0.9983  0.1198 -3.2100
 3866SOL    HW223061   3.480   4.452   8.116  1.9799 -0.2966  1.9324
 3867SOL     OW23062   3.352   2.052   3.527  0.5577  0.3519 -0.4342
 3867SOL    HW123063   3.352   1.957   3.523  1.5828  0.4249 -1.8223
 3867SOL    HW223064   3.276   2.067   3.471  1.3721  0.6769 -1.4309
 3868SOL     OW23065   2.807   1.129   6.102 -0.6093  0.0422  0.0350
 3868SOL    HW123066   2.901   1.144   6.107 -0.6958  1.2339 -1.7424
 3868SOL    HW223067   2.805   1.059   6.167  0.0766  0.0699  0.0868
 3869SOL     OW23068   4.462   4.093   2.671 -0.1095  0.4784 -0.0255
 3869SOL    HW123069   4.514   4.116   2.595 -0.6475  2.0575  0.0762
 3869SOL    HW223070   4.505   4.015   2.706  0.6214  1.1933  0.6825
 3870SOL     OW23071   3.482   0.436   5.827 -0.2319  0.5784  0.7091
 3870SOL    HW123072   3.532   0.509   5.864 -2.5765  1.4095  2.2148
 3870SOL    HW223073   3.547   0.377   5.789  0.9521  2.1016  0.3856
 3871SOL     OW23074   0.853   4.288   0.045  0.0694  0.2928 -0.1725
 3871SOL    HW123075   0.923   4.346   0.074 -0.9519  1.6608 -0.4066
 3871SOL    HW223076   0.901   4.274  17.658 -3.1890  1.5785 -2.3167
 3872SOL     OW23077   0.708   1.701   0.018 -0.3078 -0.0783 -0.1847
 3872SOL    HW123078   0.658   1.775  17.679 -0.5775 -0.4163 -0.5287
 3872SOL    HW223079   0.795   1.716  17.677 -0.4008 -0.1644 -0.4552
 3873SOL     OW23080   2.531   1.332   1.995  0.2962 -0.8314 -0.3030
 3873SOL    HW123081   2.516   1.427   2.003 -0.1286 -0.9291  0.0903
 3873SOL    HW223082   2.563   1.311   2.082 -0.3540  0.2879  0.2093
 3874SOL     OW23083   3.489   0.021   6.199  0.1438 -0.5652  0.0952
 3874SOL    HW123084   3.440   4.670   6.164  1.0559 -1.7488  1.3533
 3874SOL    HW223085   3.574   0.003   6.160  0.7989  2.3502  0.1438
 3875SOL     OW23086   0.052   3.299   1.505 -0.4223 -0.4818 -0.0044
 3875SOL    HW123087   0.054   3.208   1.474 -1.4392 -0.9211  1.2433
 3875SOL    HW223088   0.083   3.339   1.424  0.8701  0.0845  0.7514
 3876SOL     OW23089   2.001   3.160  11.632  0.3285  0.1579  0.5277
 3876SOL    HW123090   2.011   3.138  11.539  0.0230 -0.8978  0.7455
 3876SOL    HW223091   2.044   3.243  11.649 -0.3181  0.3061  1.4139
 3877SOL     OW23092   1.722   0.591   0.233  0.0909 -0.3572 -0.3093
 3877SOL    HW123093   1.679   0.554   0.310  2.1504  2.4996  2.1946
 3877SOL    HW223094   1.736   0.511   0.182  2.5418 -0.8825  1.2366
 3878SOL     OW23095   4.466   4.169   0.402  0.4466 -0.0775 -0.2192
 3878SOL    HW123096   4.404   4.131   0.464  1.1939 -1.9171 -0.6138
 3878SOL    HW223097   4.539   4.199   0.457 -1.7514  0.8623  2.2002
 3879SOL     OW23098   4.014   2.424   2.422  0.7851 -0.1211  0.5069
 3879SOL    HW123099   4.070   2.415   2.344  2.3390  0.3922  1.5476
 3879SOL    HW223100   4.060   2.490   2.473  1.0492 -0.8674  1.2347
 3880SOL     OW23101   0.352   1.574  12.628  0.1198 -0.0058  0.4027
 3880SOL    HW123102   0.282   1.634  12.600  0.7921  0.7749  0.3960
 3880SOL    HW223103   0.344   1.506  12.560 -0.6421 -1.7930  2.2869
 3881SOL     OW23104   0.102   2.649  15.890  0.1265  0.2139 -0.3293
 3881SOL    HW123105   0.110   2.736  15.928 -2.7068  0.3860 -0.1078
 3881SOL    HW223106   0.096   2.675  15.798  0.9733  0.4789 -0.3067
 3882SOL     OW23107   0.891   0.300   5.990  0.0864  0.1029  0.2381
 3882SOL    HW123108   0.962   0.237   5.980 -0.0511  0.0889 -0.6720
 3882SOL    HW223109   0.946   0.372   6.023  0.9407 -0.4047 -0.0720
 3883SOL     OW23110   2.916   2.015  10.672  0.7160  0.3946  0.5959
 3883SOL    HW123111   2.988   2.035  10.613  2.2294 -1.6569  1.7105
 3883SOL    HW223112   2.863   1.950  10.625 -3.3271  1.0142  4.3710
 3884SOL     OW23113   1.861   2.497   1.779  0.0256 -0.1024 -0.5349
 3884SOL    HW123114   1.833   2.585   1.803 -2.1256 -0.8868 -0.1038
 3884SOL    HW223115   1.895   2.467   1.863 -0.2646  0.4000 -0.2395
 3885SOL     OW23116   3.054   0.427   5.209  0.3859  0.0395  0.1814
 3885SOL    HW123117   3.066   0.508   5.260 -2.6455  0.6430 -0.0409
 3885SOL    HW223118   3.048   0.364   5.281 -2.7376  0.6774  0.5122
 3886SOL     OW23119   0.317   2.446   3.114 -0.6563  0.1118 -0.3227
 3886SOL    HW123120   0.233   2.478   3.145 -0.9443  1.0151 -2.0481
 3886SOL    HW223121   0.294   2.353   3.114  0.5242 -0.1848  0.8240
 3887SOL     OW23122   0.427   3.636  16.800  0.0808  0.6786  0.3976
 3887SOL    HW123123   0.387   3.720  16.779  1.6971  0.8742 -1.9478
 3887SOL    HW223124   0.378   3.581  16.739  0.6906  0.9688 -0.3565
 3888SOL     OW23125   3.523   4.558  15.128 -0.9478  0.0052 -0.0677
 3888SOL    HW123126   3.527   4.653  15.117  2.7380 -0.1099  0.3009
 3888SOL    HW223127   3.447   4.550  15.187 -1.4256  0.2713 -0.6480
 3889SOL     OW23128   2.262   4.119   3.337  0.3491  0.4955  0.3219
 3889SOL    HW123129   2.348   4.080   3.356 -0.9171 -0.3521  4.4219
 3889SOL    HW223130   2.285   4.130   3.245 -0.9954  0.1913 -0.0429
 3890SOL     OW23131   2.807   3.475  12.936  0.0773  0.3864  0.3235
 3890SOL    HW123132   2.855   3.539  12.988  0.9013 -0.5271  0.6764
 3890SOL    HW223133   2.722   3.455  12.975  0.2967  0.4825  0.8510
 3891SOL     OW23134   3.070   2.269   3.180 -0.1779  0.3454 -0.7287
 3891SOL    HW123135   3.043   2.207   3.249 -2.3939  3.0790  0.8445
 3891SOL    HW223136   3.064   2.207   3.107 -2.0480 -0.0800 -0.2025
 3892SOL     OW23137   1.780   1.330  12.101 -0.2039 -0.3150 -0.2118
 3892SOL    HW123138   1.699   1.381  12.112  0.1638  0.0664  0.7169
 3892SOL    HW223139   1.832   1.378  12.166  2.1743 -0.8843 -1.6858
 3893SOL     OW23140   1.318   1.231   5.553  0.2782  0.4255  0.6079
 3893SOL    HW123141   1.403   1.221   5.509 -0.9425 -2.4466 -1.0623
 3893SOL    HW223142   1.283   1.291   5.488 -0.4631 -1.9201 -1.1658
 3894SOL     OW23143   0.411   1.810   5.022 -0.4288 -0.7226 -0.0343
 3894SOL    HW123144   0.462   1.871   4.968 -2.1521  0.7995  0.0562
 3894SOL    HW223145   0.335   1.792   4.967  0.0367 -0.5214 -0.7423
 3895SOL     OW23146   0.352   0.149   4.483 -0.0966  0.0696  0.2849
 3895SOL    HW123147   0.331   0.107   4.400  0.5815  0.7385 -0.2268
 3895SOL    HW223148   0.446   0.135   4.488 -0.1676 -0.2117  0.8464
 3896SOL     OW23149   4.000   0.435   3.651  0.3455  0.8430 -0.0800
 3896SOL    HW123150   4.077   0.378   3.645  1.8135  2.6864  1.3598
 3896SOL    HW223151   4.045   0.516   3.675  1.4089 -0.1404  1.2987
 3897SOL     OW23152   0.772   3.429   4.343  0.0329 -1.2002 -0.0620
 3897SOL    HW123153   0.785   3.336   4.327  1.2970 -0.7832 -1.4611
 3897SOL    HW223154   0.855   3.465   4.311 -0.2354  0.7238  1.3409
 3898SOL     OW23155   2.422   1.191  12.113  0.5590 -0.3724 -0.2127
 3898SOL    HW123156   2.360   1.126  12.145 -0.2001 -0.0093 -0.9577
 3898SOL    HW223157   2.505   1.146  12.129  0.3004 -1.0974 -0.9436
 3899SOL     OW23158   4.150   0.718   4.107 -0.2928 -0.2122 -0.0570
 3899SOL    HW123159   4.175   0.802   4.145  2.9499 -1.4300  0.4416
 3899SOL    HW223160   4.068   0.703   4.155 -0.7327 -0.9532 -1.0395
 3900SOL     OW23161   2.844   1.825   4.841  0.2050 -0.5863  0.5296
 3900SOL    HW123162   2.753   1.798   4.851  0.0881 -0.2003  0.5255
 3900SOL    HW223163   2.864   1.882   4.915 -0.0561  1.0513 -0.6567
 3901SOL     OW23164   3.913   1.687   6.814  0.5902 -0.1999  0.0763
 3901SOL    HW123165   3.875   1.698   6.901  1.4935  0.3586  0.3896
 3901SOL    HW223166   3.973   1.760   6.803  0.1757  0.2378  0.7218
 3902SOL     OW23167   4.320   2.120   3.020 -0.1788  0.3517 -0.8124
 3902SOL    HW123168   4.380   2.152   2.952 -1.7995  1.6684 -1.6358
 3902SOL    HW223169   4.291   2.031   3.001 -1.1458 -0.1452  3.1215
 3903SOL     OW23170   1.063   2.280  17.360 -0.5818 -0.3717  0.1438
 3903SOL    HW123171   1.078   2.265  17.267  0.0955 -0.0780  0.2063
 3903SOL    HW223172   1.034   2.371  17.363  0.2458 -0.1214  0.4297
 3904SOL     OW23173   4.388   0.807  17.125 -0.4929  0.1712 -0.3107
 3904SOL    HW123174   4.350   0.888  17.089 -1.2543 -0.6733 -1.4021
 3904SOL    HW223175   4.482   0.811  17.107 -0.7185 -0.7422 -1.6895
 3905SOL     OW23176   3.306   3.680  13.065 -0.1378  0.4213 -0.2859
 3905SOL    HW123177   3.271   3.683  12.977 -1.5081  0.4320  0.2648
 3905SOL    HW223178   3.230   3.704  13.117 -0.0857  0.2734 -0.1384
 3906SOL     OW23179   4.581   0.343   1.839  0.0748 -0.2389 -0.0323
 3906SOL    HW123180   4.669   0.360   1.806  0.4976 -2.1128  0.1562
 3906SOL    HW223181   4.543   0.301   1.762 -1.5993 -1.0597  1.2298
 3907SOL     OW23182   3.463   1.886  13.188 -0.9828 -0.6990 -0.2476
 3907SOL    HW123183   3.374   1.894  13.223 -0.0512 -0.1625  1.9726
 3907SOL    HW223184   3.455   1.803  13.140 -0.3208 -0.6423 -0.4637
 3908SOL     OW23185   3.613   4.477   3.551 -0.0738  0.4019 -0.3730
 3908SOL    HW123186   3.677   4.504   3.616 -1.2084  1.4943  0.2807
 3908SOL    HW223187   3.589   4.562   3.515  0.3500  0.7413  0.1427
 3909SOL     OW23188   2.933   1.402   1.871  0.3454 -0.1916 -0.0006
 3909SOL    HW123189   2.936   1.322   1.923 -0.1273 -1.4878 -2.0105
 3909SOL    HW223190   2.936   1.366   1.783  0.0776  1.5397 -0.7304
 3910SOL     OW23191   1.045   1.650   8.356  0.1339 -0.8897  0.1730
 3910SOL    HW123192   1.034   1.702   8.276  0.0694  0.8397  1.3038
 3910SOL    HW223193   0.972   1.593   8.335 -0.1143 -0.2718 -0.6601
 3911SOL     OW23194   3.647   2.555   4.043  0.5016  0.0423  0.1915
 3911SOL    HW123195   3.588   2.529   4.114 -0.2213 -0.5031 -0.6039
 3911SOL    HW223196   3.604   2.501   3.976 -0.1419 -0.8954  1.3518
 3912SOL     OW23197   2.493   0.708  10.885 -0.2156 -0.0617 -0.2505
 3912SOL    HW123198   2.431   0.710  10.812 -0.6014  1.4565  0.1224
 3912SOL    HW223199   2.441   0.760  10.947  0.4310  1.2864 -0.8452
 3913SOL     OW23200   3.103   0.199   4.585  0.1927  0.6383 -0.1245
 3913SOL    HW123201   3.010   0.180   4.572 -0.1835  0.4726  2.9208
 3913SOL    HW223202   3.085   0.282   4.629  0.7152  1.2546 -1.0876
 3914SOL     OW23203   3.140   0.678   3.817  0.5067 -0.2771  0.4056
 3914SOL    HW123204   3.171   0.600   3.771  2.9735  0.8848  0.1058
 3914SOL    HW223205   3.086   0.639   3.886  1.1749  0.3108  1.2551
 3915SOL     OW23206   2.069   3.341  13.611  0.2425  0.1750 -0.3665
 3915SOL    HW123207   1.974   3.326  13.615  0.4424 -0.1792  2.9987
 3915SOL    HW223208   2.098   3.341  13.702 -1.0969 -2.4348  0.0666
 3916SOL     OW23209   4.417   1.013  14.414  0.1194 -0.0834  0.4785
 3916SOL    HW123210   4.471   0.949  14.368 -0.1087 -0.4102  0.6640
 3916SOL    HW223211   4.342   1.019  14.355 -0.4179  1.0572  1.2602
 3917SOL     OW23212   0.889   3.928   3.001  0.0164 -0.2821 -0.1999
 3917SOL    HW123213   0.878   3.976   2.918 -1.6939 -0.3265 -0.0057
 3917SOL    HW223214   0.884   3.998   3.065 -1.4666 -0.9699  0.4497
 3918SOL     OW23215   0.449   1.201  14.578 -0.1636 -0.4526 -0.1620
 3918SOL    HW123216   0.437   1.279  14.632  2.3501 -0.7634  0.8267
 3918SOL    HW223217   0.439   1.132  14.644  0.1899  0.8154  1.2116
 3919SOL     OW23218   0.574   0.184   6.041 -0.0733 -0.6060  0.6408
 3919SOL    HW123219   0.632   0.258   6.025 -0.4933 -0.4687 -0.2706
 3919SOL    HW223220   0.575   0.179   6.137 -1.1470 -3.7105  0.4993
 3920SOL     OW23221   2.995   0.583   2.395  0.0487 -0.5632  0.4371
 3920SOL    HW123222   3.034   0.523   2.331 -0.2181 -1.3624  1.0314
 3920SOL    HW223223   2.913   0.596   2.347  1.1297 -0.3088 -1.3698
 3921SOL     OW23224   0.447   0.152   7.419  0.0697  0.2591  0.1220
 3921SOL    HW123225   0.495   0.199   7.350  0.8416 -0.2996  0.2732
 3921SOL    HW223226   0.491   0.178   7.500  0.3936  0.7101 -0.1928
 3922SOL     OW23227   2.870   0.811   3.148 -0.1106 -0.2067 -0.3481
 3922SOL    HW123228   2.795   0.752   3.138 -0.5235  0.0429  1.1892
 3922SOL    HW223229   2.946   0.754   3.136  1.5554  1.5589  1.7075
 3923SOL     OW23230   2.306   2.067  12.721 -0.2148 -0.3315  0.3659
 3923SOL    HW123231   2.391   2.097  12.754 -0.6243  1.8923 -0.6385
 3923SOL    HW223232   2.325   2.046  12.629 -0.5691 -0.2414  0.2738
 3924SOL     OW23233   0.785   1.474  12.267 -0.0055  0.5329  0.1930
 3924SOL    HW123234   0.853   1.407  12.266  0.2285  0.7519  1.9111
 3924SOL    HW223235   0.714   1.426  12.224  0.1146  0.7160 -0.2170
 3925SOL     OW23236   2.026   3.716   2.695 -0.4237  0.1594  0.5059
 3925SOL    HW123237   2.082   3.638   2.689 -0.0574  0.4516  0.0793
 3925SOL    HW223238   1.938   3.684   2.677  0.1472 -0.4072 -1.3349
 3926SOL     OW23239   3.531   4.626   7.551  0.0388  0.2023  0.3069
 3926SOL    HW123240   3.542   4.612   7.457  1.3492 -1.5657  0.7209
 3926SOL    HW223241   3.496   4.715   7.556 -0.5652  0.1337 -2.7748
 3927SOL     OW23242   4.022   4.465   0.764 -0.3858 -0.2972 -0.3628
 3927SOL    HW123243   4.098   4.409   0.781 -0.2867  0.1425  0.6844
 3927SOL    HW223244   3.973   4.454   0.846 -1.1128  0.7360 -0.6776
 3928SOL     OW23245   3.463   3.520   7.828 -0.3077  0.3740 -0.2011
 3928SOL    HW123246   3.373   3.501   7.857  0.3527 -0.6463  1.2232
 3928SOL    HW223247   3.517   3.500   7.905 -0.9878 -0.6006  0.0229
 3929SOL     OW23248   4.594   4.472   3.687  0.2853 -0.3846  0.4059
 3929SOL    HW123249   4.647   4.419   3.745 -0.9675 -0.9377  1.0480
 3929SOL    HW223250   4.549   4.399   3.644  1.2817 -0.0409 -1.2219
 3930SOL     OW23251   4.711   1.838  16.971 -0.3052  0.4370  0.1239
 3930SOL    HW123252   4.616   1.836  16.960 -0.5388  0.1441  2.2180
 3930SOL    HW223253   0.000   1.803  17.059  0.2512  0.4024  0.0331
 3931SOL     OW23254   1.762   0.701   5.514 -0.7576  0.3043 -0.0055
 3931SOL    HW123255   1.738   0.676   5.604  0.6102 -1.1012 -0.0265
 3931SOL    HW223256   1.723   0.626   5.469  0.8129 -1.5205  1.6520
 3932SOL     OW23257   2.787   4.186  10.786 -0.5894 -0.7953  0.6820
 3932SOL    HW123258   2.767   4.101  10.825 -1.2453 -1.2705 -0.6851
 3932SOL    HW223259   2.860   4.166  10.727 -1.1158 -1.4118  0.2455
 3933SOL     OW23260   3.632   0.815   5.470  0.2882  0.5911  0.3916
 3933SOL    HW123261   3.583   0.872   5.530 -0.8689 -1.2693  1.2215
 3933SOL    HW223262   3.569   0.749   5.445 -0.8521  1.1146  1.8412
 3934SOL     OW23263   2.146   1.052   3.053 -0.3104 -0.1514 -0.2521
 3934SOL    HW123264   2.206   1.126   3.069  1.2199 -1.4676  0.0508
 3934SOL    HW223265   2.215   0.989   3.034 -2.1598 -2.4720  0.8248
 3935SOL     OW23266   2.253   4.613  15.123  0.1908 -0.0891 -0.0713
 3935SOL    HW123267   2.337   4.608  15.077  0.0584 -0.9654 -0.2284
 3935SOL    HW223268   2.212   4.690  15.083 -1.6874  0.1953  2.4033
 3936SOL     OW23269   4.108   2.695   5.922  0.1124 -0.0725 -0.5956
 3936SOL    HW123270   4.156   2.617   5.895 -0.6648 -0.3937 -1.0308
 3936SOL    HW223271   4.155   2.708   6.004 -1.3568 -4.2078  0.8948
 3937SOL     OW23272   4.332   4.003  10.168 -0.0857 -0.6586 -0.3245
 3937SOL    HW123273   4.411   3.978  10.121  0.9619 -0.7325  1.4546
 3937SOL    HW223274   4.270   3.931  10.159  0.0438 -0.6650 -1.1358
 3938SOL     OW23275   2.679   0.112  16.727 -0.1338 -0.8264  0.0469
 3938SOL    HW123276   2.638   0.134  16.643  0.7101 -0.2768 -0.2244
 3938SOL    HW223277   2.622   0.153  16.792  0.4618  0.6624 -0.3495
 3939SOL     OW23278   3.824   3.036   5.552 -0.2530  0.0616 -0.1317
 3939SOL    HW123279   3.917   3.051   5.538 -0.3193  0.1712 -0.4681
 3939SOL    HW223280   3.823   3.041   5.647  0.2870  0.4352 -0.1507
 3940SOL     OW23281   4.486   4.699  16.195  0.7989  0.2970  0.5023
 3940SOL    HW123282   4.497   0.036  16.268 -0.5088  0.8536  0.2383
 3940SOL    HW223283   4.532   0.026  16.127  1.6015 -1.8618 -0.5593
 3941SOL     OW23284   4.014   3.441   6.569 -0.6710 -0.6346 -0.4284
 3941SOL    HW123285   3.957   3.505   6.528 -2.5691 -1.6115  0.6888
 3941SOL    HW223286   4.097   3.465   6.528  0.2146 -1.9073  0.5970
 3942SOL     OW23287   0.811   2.912  16.779 -0.2354  0.2897 -0.0764
 3942SOL    HW123288   0.787   2.844  16.841 -0.4509 -0.6509 -1.1816
 3942SOL    HW223289   0.815   2.856  16.701  1.8605  0.6711 -0.2306
 3943SOL     OW23290   0.137   2.896  15.643 -0.1295 -0.2363  0.1805
 3943SOL    HW123291   0.108   2.982  15.612 -0.2534 -1.0229 -1.8284
 3943SOL    HW223292   0.150   2.846  15.562 -0.0400  2.7292 -1.6239
 3944SOL     OW23293   3.816   0.437   1.771  0.6723  0.0717 -0.2039
 3944SOL    HW123294   3.853   0.364   1.721  2.9090 -1.0079  3.0105
 3944SOL    HW223295   3.793   0.491   1.696 -2.1857  0.9901  1.3282
 3945SOL     OW23296   1.760   0.946   5.738 -0.3834  0.0706 -0.4237
 3945SOL    HW123297   1.798   0.989   5.814 -0.9558  0.5917 -0.4344
 3945SOL    HW223298   1.740   0.857   5.768 -0.9679  0.7994  1.3179
 3946SOL     OW23299   1.698   0.040   0.183  0.2193 -0.4712  0.0672
 3946SOL    HW123300   1.686   4.702   0.110 -0.1380  0.0694 -0.3293
 3946SOL    HW223301   1.712   4.696   0.251  0.1664 -0.6536 -0.1014
 3947SOL     OW23302   3.979   4.335  12.163  0.0799  0.0225 -0.1422
 3947SOL    HW123303   3.983   4.371  12.074  0.8993  0.9586  0.2734
 3947SOL    HW223304   4.071   4.341  12.188 -0.2906  0.6048  1.0862
 3948SOL     OW23305   0.708   0.952   9.879 -0.3902 -0.3108 -0.9419
 3948SOL    HW123306   0.744   1.037   9.904 -3.2945 -0.1180  2.6587
 3948SOL    HW223307   0.748   0.949   9.792  0.7841  3.1996 -0.5332
 3949SOL     OW23308   2.963   2.574   5.071 -0.4508 -0.3965 -0.4459
 3949SOL    HW123309   2.977   2.639   5.140 -1.5784 -1.2347  0.5897
 3949SOL    HW223310   3.004   2.500   5.116 -2.1612 -1.1461 -0.1007
 3950SOL     OW23311   1.636   0.158   3.210  0.2133  0.1565 -0.2013
 3950SOL    HW123312   1.620   0.232   3.269 -0.9601 -0.0242 -0.3025
 3950SOL    HW223313   1.635   0.086   3.272 -0.7440 -0.6830 -1.2057
 3951SOL     OW23314   3.360   3.392   0.125 -0.3300  0.6494  0.4159
 3951SOL    HW123315   3.361   3.369   0.218  1.0484  0.7390  0.4256
 3951SOL    HW223316   3.321   3.479   0.135 -0.3562  0.6718  0.1003
 3952SOL     OW23317   2.674   2.548   6.439 -0.0517 -0.3059  0.1715
 3952SOL    HW123318   2.595   2.601   6.438 -1.1775 -2.0156 -0.7070
 3952SOL    HW223319   2.652   2.491   6.513 -0.6360 -0.3146 -0.0116
 3953SOL     OW23320   2.596   2.233   3.903  0.2854 -0.0338  0.1476
 3953SOL    HW123321   2.577   2.152   3.950 -4.2108  1.3564  0.6586
 3953SOL    HW223322   2.664   2.276   3.954  1.6674 -1.0023 -0.8631
 3954SOL     OW23323   0.180   1.507   2.376 -0.5500 -0.0638  0.1072
 3954SOL    HW123324   0.164   1.413   2.381  0.8151 -0.2156  1.6968
 3954SOL    HW223325   0.094   1.537   2.346 -0.6000 -0.0765  0.2366
 3955SOL     OW23326   0.620   2.614   6.802  0.7845  0.2787  0.1210
 3955SOL    HW123327   0.529   2.631   6.824  0.8860  2.9717 -1.5312
 3955SOL    HW223328   0.624   2.602   6.707 -0.7247 -0.3690  0.1493
 3956SOL     OW23329   1.269   3.090  12.948 -0.2211 -0.3488  0.2143
 3956SOL    HW123330   1.236   3.160  12.891 -1.5123 -1.0088  0.1493
 3956SOL    HW223331   1.204   3.022  12.930  1.2272 -1.6038 -0.2184
 3957SOL     OW23332   0.077   0.278   0.868  0.6968 -0.4966  0.2904
 3957SOL    HW123333   0.037   0.192   0.851 -1.0607  0.2887  0.3694
 3957SOL    HW223334   0.049   0.293   0.958  0.6973 -2.7221  0.6529
 3958SOL     OW23335   2.809   1.207  15.052  0.8259 -0.1805 -0.1687
 3958SOL    HW123336   2.782   1.245  14.968  0.0867 -1.4205 -0.4816
 3958SOL    HW223337   2.783   1.279  15.109  0.2048 -0.7987  0.3207
 3959SOL     OW23338   1.222   1.959   3.815  0.1943  0.1016  0.0127
 3959SOL    HW123339   1.226   1.879   3.868  0.3132  0.3584  0.3939
 3959SOL    HW223340   1.263   1.942   3.731 -0.3432  1.9383 -0.6135
 3960SOL     OW23341   1.671   2.798   5.098  0.2495  0.6912  0.1441
 3960SOL    HW123342   1.683   2.808   5.193  3.6433 -3.7038  0.1847
 3960SOL    HW223343   1.591   2.745   5.102  1.8749 -1.5941  2.1029
 3961SOL     OW23344   3.882   0.134   7.362 -0.3507  0.0065 -0.3722
 3961SOL    HW123345   3.830   0.162   7.437 -0.5319 -1.2754 -0.0254
 3961SOL    HW223346   3.946   0.081   7.410  0.5310 -0.4665 -2.0739
 3962SOL     OW23347   1.007   2.446   2.510 -0.0246  0.1204  0.3143
 3962SOL    HW123348   1.012   2.495   2.428 -1.6473  2.1258  1.3901
 3962SOL    HW223349   1.005   2.353   2.491 -2.8408  0.4299 -0.8160
 3963SOL     OW23350   0.710   4.300   0.804 -0.2192  0.4278  0.4108
 3963SOL    HW123351   0.775   4.274   0.869 -1.7805  0.9851  2.2061
 3963SOL    HW223352   0.633   4.300   0.860  1.9053 -0.5582  3.3310
 3964SOL     OW23353   2.101   0.068   4.547  0.6304 -0.4225 -0.1574
 3964SOL    HW123354   2.163   0.119   4.495  0.6036  1.8301  1.9790
 3964SOL    HW223355   2.019   0.075   4.499  1.5582 -0.8656 -1.7990
 3965SOL     OW23356   0.115   4.629   0.346  0.0413 -0.6812 -0.1411
 3965SOL    HW123357   0.020   4.623   0.333 -0.5931  1.1659  3.5095
 3965SOL    HW223358   0.127   4.719   0.317 -1.7029 -0.0947  0.9485
 3966SOL     OW23359   3.541   3.844  10.644  0.0305  0.2109  0.8664
 3966SOL    HW123360   3.482   3.784  10.689 -1.8829  1.5595  0.1199
 3966SOL    HW223361   3.478   3.916  10.643 -1.2448 -0.9664 -1.5118
 3967SOL     OW23362   0.974   0.103  11.230 -0.6216  0.0864 -0.9526
 3967SOL    HW123363   1.043   0.040  11.210 -0.0323  0.0687  1.1454
 3967SOL    HW223364   0.998   0.180  11.179 -0.4189  0.5462 -0.1559
 3968SOL     OW23365   3.745   1.807  10.455 -0.5056 -0.2865 -0.3476
 3968SOL    HW123366   3.840   1.804  10.460 -0.4636 -2.0751 -2.5035
 3968SOL    HW223367   3.730   1.842  10.367  1.9868  0.7195 -0.3578
 3969SOL     OW23368   0.330   1.875   0.145  0.0497  0.0553  0.3345
 3969SOL    HW123369   0.252   1.871   0.200 -1.3574 -0.0365 -1.6930
 3969SOL    HW223370   0.399   1.882   0.211  0.0916 -3.4009  0.6716
 3970SOL     OW23371   2.566   0.046   8.823  0.1063  0.3615 -0.1048
 3970SOL    HW123372   2.582   0.094   8.904  1.3000 -0.6072  0.2399
 3970SOL    HW223373   2.651   0.002   8.817  0.4124  1.0239 -0.6050
 3971SOL     OW23374   4.204   2.040   6.617  0.2762 -0.0432  0.0021
 3971SOL    HW123375   4.269   2.034   6.687 -2.0099  0.4091  2.1666
 3971SOL    HW223376   4.200   2.135   6.608 -1.7701 -0.2280 -1.0533
 3972SOL     OW23377   2.423   0.351   2.575 -0.0181  0.4951 -0.0148
 3972SOL    HW123378   2.374   0.270   2.570 -0.0582  0.5301 -0.1968
 3972SOL    HW223379   2.437   0.365   2.481  0.3084  2.1395  0.2633
 3973SOL     OW23380   3.512   2.744  15.117  0.4012 -0.0237  0.3451
 3973SOL    HW123381   3.419   2.720  15.110  0.6289 -1.3108  1.9092
 3973SOL    HW223382   3.554   2.659  15.119  0.5115 -0.1066 -4.8623
 3974SOL     OW23383   4.137   0.700  17.402  0.1480 -0.0069 -0.1699
 3974SOL    HW123384   4.114   0.791  17.422  0.5630  0.0655 -0.0192
 3974SOL    HW223385   4.232   0.692  17.413  0.3053 -2.5563 -3.0942
 3975SOL     OW23386   0.246   3.223   2.538  0.2855  0.2242 -0.4044
 3975SOL    HW123387   0.224   3.139   2.577 -2.6182  0.9766 -0.4430
 3975SOL    HW223388   0.216   3.210   2.448 -0.6331  2.0754 -0.3585
 3976SOL     OW23389   1.326   3.316   5.089  0.6731 -0.2364  0.0497
 3976SOL    HW123390   1.324   3.291   4.997  1.4059 -2.0206  0.5282
 3976SOL    HW223391   1.381   3.245   5.122 -1.9959 -1.7263  1.3298
 3977SOL     OW23392   1.641   2.621  13.288  0.0202 -0.1691 -0.2954
 3977SOL    HW123393   1.586   2.620  13.366 -1.5470  1.9444 -1.3576
 3977SOL    HW223394   1.671   2.712  13.293  0.0755 -0.1415 -1.0207
 3978SOL     OW23395   0.983   2.416   8.955  0.2778 -0.2168 -0.3711
 3978SOL    HW123396   1.023   2.334   8.983 -0.7383 -0.5030  0.2118
 3978SOL    HW223397   1.062   2.470   8.957 -0.3254  0.6222  0.4959
 3979SOL     OW23398   3.198   4.584   7.875  0.0086 -0.2257 -0.0940
 3979SOL    HW123399   3.217   4.675   7.895 -3.0661  0.4779 -0.3323
 3979SOL    HW223400   3.204   4.539   7.959  1.3766  0.7274  0.3098
 3980SOL     OW23401   2.320   4.024   4.736 -0.0291  0.4723  0.4354
 3980SOL    HW123402   2.404   3.994   4.771 -0.3608  0.1760  0.9778
 3980SOL    HW223403   2.334   4.008   4.643 -0.7645 -1.5055  0.6531
 3981SOL     OW23404   3.922   0.196   1.677 -0.2754  0.3519  0.0323
 3981SOL    HW123405   3.880   0.144   1.609 -2.9703  1.2392  1.0418
 3981SOL    HW223406   3.881   0.154   1.752  0.4265  0.2465  0.3581
 3982SOL     OW23407   0.124   4.528  16.194 -0.3072 -0.2080  0.5984
 3982SOL    HW123408   0.115   4.583  16.273  0.6637 -0.6151  0.9948
 3982SOL    HW223409   0.069   4.563  16.124  1.3174 -1.2623 -1.1889
 3983SOL     OW23410   4.054   1.947   2.580  0.3418 -0.6148  0.2357
 3983SOL    HW123411   4.138   1.902   2.588 -0.5346 -2.5770 -1.3815
 3983SOL    HW223412   4.057   1.949   2.484  2.1807 -0.9620  0.2863
 3984SOL     OW23413   0.647   2.938   1.048 -0.5851  0.2799  0.5582
 3984SOL    HW123414   0.553   2.955   1.042 -0.7659 -0.9312 -0.1029
 3984SOL    HW223415   0.664   2.867   0.985 -0.4816 -0.6391  1.6199
 3985SOL     OW23416   2.223   4.329   4.449  0.2888 -0.2547  0.5827
 3985SOL    HW123417   2.173   4.256   4.412  0.2314  0.5425 -0.9230
 3985SOL    HW223418   2.154   4.383   4.487 -0.9523 -1.7341  0.4498
 3986SOL     OW23419   3.595   3.662   5.682 -0.2829 -0.7329  0.0868
 3986SOL    HW123420   3.618   3.682   5.773  0.2510 -1.6665  0.1630
 3986SOL    HW223421   3.668   3.699   5.633 -0.0176 -1.1798  0.1393
 3987SOL     OW23422   2.992   1.943   2.402 -0.1012  0.6303 -0.8357
 3987SOL    HW123423   2.973   1.863   2.352  1.6119 -1.3016  1.6204
 3987SOL    HW223424   2.943   2.014   2.359  0.7104  2.5060  1.3771
 3988SOL     OW23425   0.258   4.632  12.232 -0.4255  0.2240  0.7955
 3988SOL    HW123426   0.338   4.595  12.194 -1.5543  1.1568 -2.5581
 3988SOL    HW223427   0.285   4.634  12.324 -1.1547  0.2670  1.0079
 3989SOL     OW23428   2.375   3.615   5.282 -0.0448  0.3640 -0.2425
 3989SOL    HW123429   2.352   3.564   5.359 -0.8480  1.5241  0.2899
 3989SOL    HW223430   2.362   3.709   5.299 -0.9620  0.1984 -0.0831
 3990SOL     OW23431   4.418   0.583   5.582  0.9379  0.4031  0.5159
 3990SOL    HW123432   4.351   0.644   5.614 -1.8656 -2.5335  0.2129
 3990SOL    HW223433   4.382   0.500   5.613  1.7676  0.8315  2.6170
 3991SOL     OW23434   3.339   0.272   6.147  0.3043 -0.4421 -0.3877
 3991SOL    HW123435   3.397   0.202   6.177  0.5152 -0.3143 -0.5049
 3991SOL    HW223436   3.358   0.358   6.184 -0.8513 -0.7505  0.9244
 3992SOL     OW23437   3.088   0.624   3.228  0.3251  0.0395  0.4750
 3992SOL    HW123438   3.032   0.582   3.293 -0.1303 -1.1862 -0.7211
 3992SOL    HW223439   3.057   0.613   3.138  0.2037  0.4888  0.4594
 3993SOL     OW23440   2.371   3.649   7.756 -0.4082  0.0954  0.3939
 3993SOL    HW123441   2.329   3.731   7.730 -2.0992 -0.2556  1.9590
 3993SOL    HW223442   2.383   3.668   7.849  1.8330 -1.5602  0.4379
 3994SOL     OW23443   2.307   3.380   3.853 -0.2499  0.3458 -0.0096
 3994SOL    HW123444   2.218   3.414   3.851 -0.3077 -0.0185 -3.8616
 3994SOL    HW223445   2.322   3.382   3.758  0.4367  1.7236  0.1255
 3995SOL     OW23446   3.876   2.161  11.048  0.3451 -0.1436 -0.0495
 3995SOL    HW123447   3.957   2.163  11.099 -0.1507  0.5711  0.7046
 3995SOL    HW223448   3.815   2.135  11.117  1.1914 -0.0755  0.7325
 3996SOL     OW23449   0.588   3.875   4.368 -0.3522  0.1419  0.3181
 3996SOL    HW123450   0.663   3.827   4.403 -1.2785 -2.3899 -1.1908
 3996SOL    HW223451   0.626   3.943   4.312  0.9341 -1.0989 -0.2788
 3997SOL     OW23452   0.627   1.931  16.193 -0.1588 -0.1006  0.3767
 3997SOL    HW123453   0.703   1.897  16.240 -0.5826 -1.4652  0.0714
 3997SOL    HW223454   0.680   1.968  16.122 -0.9532 -1.2385 -0.8182
 3998SOL     OW23455   1.904   3.797  16.166 -0.4116 -0.5657  0.1742
 3998SOL    HW123456   1.866   3.713  16.193 -1.8374  0.1665  0.4133
 3998SOL    HW223457   1.994   3.793  16.198 -0.2952 -0.5868 -0.1483
 3999SOL     OW23458   3.609   2.484  14.604  0.1376 -0.2299  0.3668
 3999SOL    HW123459   3.601   2.508  14.696  0.3791  1.6294 -0.0987
 3999SOL    HW223460   3.515   2.474  14.586  0.0612  3.2454 -1.0654
 4000SOL     OW23461   4.000   1.245   6.946  0.6173 -0.1522 -0.0231
 4000SOL    HW123462   3.906   1.263   6.946  0.6866  0.1932 -0.1001
 4000SOL    HW223463   4.009   1.150   6.959 -0.4501 -0.3063 -0.3509
 4001SOL     OW23464   0.089   1.482   4.961 -0.4360  0.0440  0.3202
 4001SOL    HW123465   0.133   1.402   4.990 -0.0335 -0.0372 -0.4996
 4001SOL    HW223466   0.146   1.491   4.885  1.0250  0.4126  1.4724
 4002SOL     OW23467   3.766   3.612   6.515 -0.1551 -0.9467  0.3131
 4002SOL    HW123468   3.703   3.681   6.494 -0.5245 -1.8328 -1.4875
 4002SOL    HW223469   3.713   3.533   6.509  1.0438 -1.7152 -0.2622
 4003SOL     OW23470   3.908   2.416   0.707 -0.1749 -0.2911  0.2540
 4003SOL    HW123471   3.873   2.447   0.623 -0.6845 -1.7962 -0.0865
 4003SOL    HW223472   3.935   2.502   0.739  1.9193 -0.3237 -1.3994
 4004SOL     OW23473   3.756   0.030   1.114  0.5513  0.0128  1.1283
 4004SOL    HW123474   3.685   0.067   1.060 -0.6215 -0.9645  2.0247
 4004SOL    HW223475   3.727   0.070   1.196 -0.4187  0.2143  0.6930
 4005SOL     OW23476   1.989   1.919  12.587 -0.3482  0.1536 -0.4074
 4005SOL    HW123477   1.965   1.998  12.540 -1.8784  0.1152  0.3452
 4005SOL    HW223478   2.021   1.862  12.516  0.1444 -1.1954  0.8940
 4006SOL     OW23479   3.358   1.412   4.774 -0.0937 -0.2899 -0.2021
 4006SOL    HW123480   3.391   1.391   4.861  0.5430 -0.5949 -0.5230
 4006SOL    HW223481   3.304   1.488   4.797  0.3137 -0.1438  0.2793
 4007SOL     OW23482   0.481   2.075   7.520  0.7092  0.3200 -0.4774
 4007SOL    HW123483   0.469   2.077   7.425  2.0539  1.7881 -0.6272
 4007SOL    HW223484   0.398   2.031   7.537  0.5112  0.9682  0.2454
 4008SOL     OW23485   0.751   3.673   5.212  0.7460 -0.0192  0.3860
 4008SOL    HW123486   0.658   3.686   5.228  1.1333  1.5737  1.3261
 4008SOL    HW223487   0.766   3.605   5.279 -0.4538 -0.4527  0.2080
 4009SOL     OW23488   2.876   4.386  10.969  0.4183 -0.3426 -0.0491
 4009SOL    HW123489   2.904   4.468  10.928 -1.4884  0.7216  0.7855
 4009SOL    HW223490   2.845   4.332  10.896 -1.4456 -0.6179  0.9471
 4010SOL     OW23491   1.629   2.807   8.004  0.4867  0.1729  0.3325
 4010SOL    HW123492   1.587   2.758   7.933  1.3448  0.9166 -0.7035
 4010SOL    HW223493   1.597   2.768   8.084 -1.9128  0.1824 -0.6323
 4011SOL     OW23494   2.628   1.894   0.487  0.6644  0.1611  0.0891
 4011SOL    HW123495   2.720   1.904   0.512  0.0263  0.7525  2.1730
 4011SOL    HW223496   2.626   1.808   0.443 -2.5891  0.1503  0.2970
 4012SOL     OW23497   0.049   2.601   4.172 -0.2190 -0.4345  0.4073
 4012SOL    HW123498   0.139   2.590   4.203 -0.3203 -2.1454  0.1075
 4012SOL    HW223499   0.034   2.508   4.155 -0.7387 -0.4280  0.8167
 4013SOL     OW23500   4.055   2.926   6.380  0.0923 -0.3279 -0.1913
 4013SOL    HW123501   3.976   2.929   6.327  0.7363 -0.9671 -1.1765
 4013SOL    HW223502   4.021   2.970   6.458 -0.2488  0.8784 -1.0229
 4014SOL     OW23503   1.494   3.812  14.523 -0.1053 -0.9259 -0.1593
 4014SOL    HW123504   1.582   3.827  14.488  0.7281 -1.5270  1.6307
 4014SOL    HW223505   1.490   3.872  14.597  0.8983  1.2040 -1.8368
 4015SOL     OW23506   0.421   3.819   8.133 -0.0237 -0.2519 -0.2208
 4015SOL    HW123507   0.419   3.905   8.092  1.8485 -0.6970 -1.2531
 4015SOL    HW223508   0.491   3.837   8.196 -0.9161  1.0699  0.3842
 4016SOL     OW23509   3.396   0.533  17.524  0.3003 -0.7714 -0.7720
 4016SOL    HW123510   3.302   0.525  17.543 -0.1041  1.8738 -1.7163
 4016SOL    HW223511   3.431   0.450  17.555  2.2652  0.2368 -0.3284
 4017SOL     OW23512   0.649   1.057   7.707 -0.2883 -0.3749  0.2524
 4017SOL    HW123513   0.702   1.123   7.750 -1.2353  1.9208 -2.0825
 4017SOL    HW223514   0.704   0.981   7.726  0.4570  0.3630  1.0347
 4018SOL     OW23515   2.460   3.016   6.560 -0.3405  0.3830 -0.3193
 4018SOL    HW123516   2.550   3.001   6.587 -0.8800  0.5223  1.5411
 4018SOL    HW223517   2.443   2.944   6.500 -1.7132  0.0470  0.4738
 4019SOL     OW23518   0.715   0.900   2.384  0.3278  0.2623 -0.5465
 4019SOL    HW123519   0.639   0.959   2.385 -0.0879 -0.2310 -2.7098
 4019SOL    HW223520   0.684   0.839   2.317  0.6069  0.0644 -0.4945
 4020SOL     OW23521   1.411   2.895   6.274 -0.0840 -0.0460 -0.0629
 4020SOL    HW123522   1.346   2.837   6.315 -2.1648  3.0604  1.0294
 4020SOL    HW223523   1.452   2.919   6.357 -1.8115  2.3097  0.0947
 4021SOL     OW23524   1.891   1.241   2.852 -0.2077 -0.0656 -0.2948
 4021SOL    HW123525   1.964   1.210   2.798  0.7463  1.1441  0.2912
 4021SOL    HW223526   1.843   1.162   2.875  1.2673 -1.0101 -0.4538
 4022SOL     OW23527   1.126   0.785   2.966 -0.2018  0.1608 -0.0037
 4022SOL    HW123528   1.189   0.856   2.956 -0.2057  0.3429  1.2617
 4022SOL    HW223529   1.108   0.771   2.873  1.2461 -1.0550 -0.1000
 4023SOL     OW23530   0.163   2.165  12.720 -0.0036 -0.4266 -0.7296
 4023SOL    HW123531   0.191   2.202  12.636  2.6307 -1.7173 -0.4332
 4023SOL    HW223532   0.122   2.082  12.693 -1.2698 -0.4347  1.2476
 4024SOL     OW23533   3.102   3.939  13.780  0.0953 -0.5806 -0.2882
 4024SOL    HW123534   3.191   3.949  13.747 -0.0711 -1.8568 -1.1384
 4024SOL    HW223535   3.109   3.851  13.817 -0.7857  0.4134  2.3056
 4025SOL     OW23536   1.022   3.920   3.639  0.2666  0.5031  0.1391
 4025SOL    HW123537   1.056   3.831   3.629 -0.5523  0.1952  0.0980
 4025SOL    HW223538   0.958   3.910   3.710  0.2679 -0.1550  0.0525
 4026SOL     OW23539   4.032   1.166   1.827 -0.0052 -0.0703  0.3956
 4026SOL    HW123540   4.011   1.186   1.735 -0.1371  1.1150  0.6811
 4026SOL    HW223541   3.955   1.197   1.875 -0.4617 -0.2066 -0.2503
 4027SOL     OW23542   0.095   1.536   0.066 -0.0288  0.5126  0.6835
 4027SOL    HW123543   0.077   1.491   0.149  1.3069 -0.4259  0.4647
 4027SOL    HW223544   0.055   1.622   0.076 -1.4122  0.2573 -2.8071
 4028SOL     OW23545   2.714   2.612   9.819  0.2838 -0.1188 -0.2718
 4028SOL    HW123546   2.777   2.662   9.768  0.7536  0.9998  1.3860
 4028SOL    HW223547   2.764   2.531   9.830  0.3235 -0.1899 -1.0200
 4029SOL     OW23548   2.804   1.073   1.537  0.0462  0.1272 -0.1932
 4029SOL    HW123549   2.727   1.097   1.487 -2.2407 -2.7265  1.9189
 4029SOL    HW223550   2.829   1.165   1.542  0.2105 -0.0588  2.3609
 4030SOL     OW23551   4.012   2.813   9.253 -0.7733  0.4307 -0.2103
 4030SOL    HW123552   3.929   2.856   9.232 -0.3949  0.5542 -1.4040
 4030SOL    HW223553   4.004   2.718   9.256 -0.4201  0.4169  0.3275
 4031SOL     OW23554   2.827   3.264   3.040 -0.3633  0.2700 -0.0995
 4031SOL    HW123555   2.742   3.282   3.000 -0.4050 -0.4019 -0.3123
 4031SOL    HW223556   2.792   3.205   3.106  0.7637 -2.2349 -1.7147
 4032SOL     OW23557   3.394   1.535   1.354 -0.4242  0.4746 -0.1293
 4032SOL    HW123558   3.414   1.495   1.439  2.6964  0.6502 -0.8059
 4032SOL    HW223559   3.300   1.518   1.362 -0.2869 -0.7365 -1.1747
 4033SOL     OW23560   0.795   2.789   6.368  0.1349  0.5362  0.3847
 4033SOL    HW123561   0.812   2.872   6.324 -1.2133  0.5381 -0.1262
 4033SOL    HW223562   0.818   2.811   6.458  2.6457 -1.5176  0.2345
 4034SOL     OW23563   1.541   4.383   0.258 -0.3231 -0.1041 -0.2029
 4034SOL    HW123564   1.491   4.462   0.279 -1.0508 -0.0660 -2.0512
 4034SOL    HW223565   1.475   4.319   0.283  0.7896 -1.1377  0.0953
 4035SOL     OW23566   3.631   4.647   6.738 -0.1994  0.0691  0.5829
 4035SOL    HW123567   3.620   4.585   6.666  1.8546  0.4732 -0.0792
 4035SOL    HW223568   3.608   4.587   6.809 -0.4945  0.8605  1.1461
 4036SOL     OW23569   1.766   0.873   3.735 -0.4893 -0.5062 -0.5739
 4036SOL    HW123570   1.771   0.811   3.662 -1.0165  1.2017 -2.0745
 4036SOL    HW223571   1.733   0.945   3.681  0.5245 -0.8493 -1.6515
 4037SOL     OW23572   1.696   2.744   4.695  0.1014  0.2128 -0.1004
 4037SOL    HW123573   1.763   2.767   4.631 -0.5837 -0.8205 -1.1928
 4037SOL    HW223574   1.711   2.820   4.751 -1.1747  0.8155 -0.5682
 4038SOL     OW23575   1.930   2.854   7.628 -0.1361 -0.1300  0.4654
 4038SOL    HW123576   1.842   2.892   7.626 -0.6396 -1.5137 -2.8277
 4038SOL    HW223577   1.929   2.839   7.723 -0.0342 -0.7116  0.3725
 4039SOL     OW23578   0.815   3.049   1.228 -0.3383  0.0565  0.0447
 4039SOL    HW123579   0.753   3.015   1.164 -1.2209  0.5583  0.6222
 4039SOL    HW223580   0.793   3.142   1.217 -0.1526  0.5453  3.5827
 4040SOL     OW23581   4.258   2.309   6.638 -0.0709  0.2550 -0.0178
 4040SOL    HW123582   4.335   2.365   6.650 -0.5688  1.0799 -0.7013
 4040SOL    HW223583   4.218   2.316   6.725 -0.0517  1.9318 -0.1483
 4041SOL     OW23584   2.394   3.453   2.397 -0.4779 -0.2235 -0.7606
 4041SOL    HW123585   2.414   3.542   2.423  0.0695 -1.2014  2.1773
 4041SOL    HW223586   2.325   3.434   2.461  1.5994  0.3715  1.6301
 4042SOL     OW23587   1.740   2.663   6.731 -0.3757  0.3790  0.3680
 4042SOL    HW123588   1.807   2.626   6.674  0.7806 -0.3393  2.1851
 4042SOL    HW223589   1.759   2.757   6.727 -1.0725  0.4355 -1.8137
 4043SOL     OW23590   1.204   2.010   9.753  0.5471  0.7179  0.6417
 4043SOL    HW123591   1.255   1.977   9.826  2.7889  1.5277 -0.5616
 4043SOL    HW223592   1.122   1.972   9.784  0.0710  2.5770  1.6218
 4044SOL     OW23593   3.483   4.295   6.362 -0.3778 -0.3134  0.0148
 4044SOL    HW123594   3.495   4.200   6.365 -0.1619 -0.1965  2.6428
 4044SOL    HW223595   3.507   4.312   6.271 -1.2263 -1.3294 -0.4091
 4045SOL     OW23596   4.332   2.420   1.948  0.5333 -0.2338 -0.0665
 4045SOL    HW123597   4.404   2.478   1.972  1.3179 -1.4055  0.4071
 4045SOL    HW223598   4.296   2.459   1.868  2.5964 -0.1465 -0.9487
 4046SOL     OW23599   4.293   1.957   8.003 -0.5338 -0.4927  0.3967
 4046SOL    HW123600   4.367   1.967   8.063 -0.7098  0.3636  0.4605
 4046SOL    HW223601   4.222   1.977   8.064 -0.8994  0.9524 -0.5046
 4047SOL     OW23602   3.727   2.834   2.724  0.0246 -0.9436 -0.0462
 4047SOL    HW123603   3.748   2.863   2.812  0.1489 -2.4455  0.4272
 4047SOL    HW223604   3.737   2.739   2.719 -0.2873 -0.9241 -1.0781
 4048SOL     OW23605   2.805   3.166   6.013  0.2483 -0.6765 -0.3751
 4048SOL    HW123606   2.808   3.103   6.085 -0.7891 -1.8518 -1.3676
 4048SOL    HW223607   2.897   3.160   5.985  0.6726 -1.9687  1.2773
 4049SOL     OW23608   4.640   1.561   3.231 -0.1350  0.1252  0.6285
 4049SOL    HW123609   4.586   1.640   3.226  2.0149  1.4817 -1.1778
 4049SOL    HW223610   4.717   1.587   3.282 -0.1323  3.6123 -1.1101
 4050SOL     OW23611   0.297   2.271   2.750 -0.1299  0.2089 -0.0855
 4050SOL    HW123612   0.252   2.321   2.819 -1.1877 -0.3298 -0.3770
 4050SOL    HW223613   0.254   2.301   2.670 -0.3772  0.1660  0.0311
 4051SOL     OW23614   0.694   2.038  14.298  0.4137 -0.2476 -0.5581
 4051SOL    HW123615   0.691   1.987  14.217 -1.1013 -0.7394 -0.2028
 4051SOL    HW223616   0.641   1.976  14.349  0.4566  1.6939  1.8477
 4052SOL     OW23617   4.581   0.246   1.424  0.1525  0.2660  0.1596
 4052SOL    HW123618   4.545   0.209   1.504  0.8949  2.0616  1.3089
 4052SOL    HW223619   4.582   0.341   1.436 -1.5771  0.2421  0.4424
 4053SOL     OW23620   2.059   2.714   8.993  0.0148  0.2447 -0.6466
 4053SOL    HW123621   2.044   2.636   8.941 -0.9757 -2.1290  3.1849
 4053SOL    HW223622   2.013   2.780   8.940 -1.3513 -0.0575  0.1719
 4054SOL     OW23623   2.519   4.615   8.601  0.0506  0.4130 -0.3450
 4054SOL    HW123624   2.572   4.536   8.608  1.2806  1.3534  0.9475
 4054SOL    HW223625   2.535   4.663   8.683  1.0629 -0.2206 -0.1802
 4055SOL     OW23626   0.346   2.735  10.495 -0.4389  0.0107 -0.2329
 4055SOL    HW123627   0.282   2.736  10.567 -0.8099 -0.2191 -0.5622
 4055SOL    HW223628   0.414   2.790  10.534 -0.3301 -0.1286 -0.2255
 4056SOL     OW23629   1.939   4.441   2.576 -0.0550 -0.4742  0.0195
 4056SOL    HW123630   1.953   4.433   2.482  1.6886 -0.7688  0.3189
 4056SOL    HW223631   1.996   4.516   2.592 -0.6680 -0.2413  1.1555
 4057SOL     OW23632   3.764   4.190  12.093  0.0292 -0.1980 -0.7075
 4057SOL    HW123633   3.736   4.146  12.173  2.5747  0.0111  0.3002
 4057SOL    HW223634   3.842   4.239  12.117  0.4017 -1.3015  0.3241
 4058SOL     OW23635   2.506   4.032   2.193 -0.4524 -0.0264 -0.3186
 4058SOL    HW123636   2.433   4.034   2.254 -0.3272  0.5944 -0.1871
 4058SOL    HW223637   2.523   4.126   2.185  2.1068 -0.4016  0.7810
 4059SOL     OW23638   0.692   4.523  10.959  0.1698  0.1462 -0.4002
 4059SOL    HW123639   0.635   4.544  11.034  1.2783 -1.9176  1.0384
 4059SOL    HW223640   0.656   4.442  10.922  1.9625  0.5425 -2.9881
 4060SOL     OW23641   3.123   2.723   5.591  0.2611 -0.5008 -0.5453
 4060SOL    HW123642   3.207   2.768   5.579  0.5647 -1.3391 -1.6242
 4060SOL    HW223643   3.150   2.638   5.555  0.7852 -0.6899  0.2911
 4061SOL     OW23644   2.946   3.384  12.132  0.0573 -0.6637  1.1593
 4061SOL    HW123645   2.996   3.458  12.168  1.3197 -1.4001  0.9275
 4061SOL    HW223646   2.953   3.325  12.207  0.3129  1.2694  2.6802
 4062SOL     OW23647   0.359   0.359  13.169 -0.4912 -0.8069 -0.2163
 4062SOL    HW123648   0.266   0.357  13.190 -0.2404 -0.1779  0.9511
 4062SOL    HW223649   0.383   0.444  13.205  0.6691 -1.6126  0.9134
 4063SOL     OW23650   1.812   1.899   1.084 -0.2186  0.1273  0.0723
 4063SOL    HW123651   1.754   1.827   1.060  1.0638 -1.2021  0.9059
 4063SOL    HW223652   1.768   1.962   1.026 -1.2079 -0.2356  0.4322
 4064SOL     OW23653   1.495   0.551  17.344 -0.0114 -0.5454  0.3409
 4064SOL    HW123654   1.490   0.572  17.437  3.0065 -1.4224  0.7271
 4064SOL    HW223655   1.407   0.564  17.309  0.5200  1.1480 -0.3885
 4065SOL     OW23656   0.085   4.679  11.170 -0.6723 -0.1237 -1.0726
 4065SOL    HW123657   0.068   0.047  11.191 -1.3060  0.0862 -2.5081
 4065SOL    HW223658   0.035   4.666  11.089  0.8124 -3.8808 -1.3808
 4066SOL     OW23659   3.797   0.294   7.551 -0.5517 -0.0687  0.2024
 4066SOL    HW123660   3.789   0.385   7.581 -1.5985 -0.2761  0.5482
 4066SOL    HW223661   3.706   0.266   7.554  0.3243 -2.8958 -0.2071
 4067SOL     OW23662   2.521   3.723   3.739 -0.1856 -0.0656  0.6074
 4067SOL    HW123663   2.429   3.748   3.732 -0.7439 -1.7444  2.1662
 4067SOL    HW223664   2.560   3.801   3.780 -0.5906  0.3093  0.2837
 4068SOL     OW23665   0.880   3.142   1.690  0.3956  0.2375 -0.1074
 4068SOL    HW123666   0.821   3.162   1.762  1.3057  0.1513  0.6579
 4068SOL    HW223667   0.894   3.050   1.709 -0.7564  0.1680  0.4146
 4069SOL     OW23668   2.911   1.490   6.417 -0.7951 -0.2925 -0.0020
 4069SOL    HW123669   2.972   1.440   6.362 -1.5039  0.9959 -1.9704
 4069SOL    HW223670   2.945   1.579   6.409 -1.4065 -0.0463  0.0663
 4070SOL     OW23671   1.383   3.693   6.056  0.1956 -0.0932  0.3058
 4070SOL    HW123672   1.430   3.710   6.138 -0.7169  0.2894  0.7464
 4070SOL    HW223673   1.467   3.677   6.012  1.5809  0.4023  2.7348
 4071SOL     OW23674   3.516   0.802  16.815 -0.1210  0.6541  0.6015
 4071SOL    HW123675   3.427   0.819  16.845 -0.0229  0.6586  0.8956
 4071SOL    HW223676   3.554   0.762  16.894 -0.7585 -0.7394  0.2022
 4072SOL     OW23677   4.375   0.426   5.080  0.0266  0.7765  0.5585
 4072SOL    HW123678   4.371   0.333   5.058 -0.3961  0.7718  0.6649
 4072SOL    HW223679   4.357   0.422   5.173 -2.4980  2.8781  0.1660
 4073SOL     OW23680   0.549   3.552   6.121  0.6855 -0.7297  0.4497
 4073SOL    HW123681   0.481   3.507   6.071  0.3997  0.0633  0.1202
 4073SOL    HW223682   0.627   3.510   6.083  0.3250  0.5392 -1.6842
 4074SOL     OW23683   1.725   3.390   5.833 -0.6545  0.2886  0.0616
 4074SOL    HW123684   1.681   3.470   5.859 -2.7503 -0.8708  0.0423
 4074SOL    HW223685   1.721   3.398   5.737  1.1634 -1.1230 -0.1447
 4075SOL     OW23686   0.550   2.647   6.104  0.2128  0.1447 -0.4389
 4075SOL    HW123687   0.571   2.699   6.027 -0.0843 -0.1483 -0.7169
 4075SOL    HW223688   0.637   2.637   6.144 -0.5253 -0.2625  1.0875
 4076SOL     OW23689   0.095   2.992   4.303 -0.2333 -0.3581  0.2591
 4076SOL    HW123690   0.008   3.028   4.285 -0.2259  0.3602  1.7139
 4076SOL    HW223691   0.142   3.071   4.329  1.5429 -1.2873 -0.1453
 4077SOL     OW23692   0.677   0.350   6.941  0.6689  0.2097  0.6905
 4077SOL    HW123693   0.717   0.276   6.896 -0.5799 -1.0960  1.7059
 4077SOL    HW223694   0.756   0.388   6.982  0.5073  1.2783  0.0082
 4078SOL     OW23695   2.132   1.183   8.003  0.5561 -0.0209 -0.5163
 4078SOL    HW123696   2.195   1.250   8.027  3.2752 -3.1153  1.0272
 4078SOL    HW223697   2.069   1.179   8.074 -0.5459  2.6662 -1.3562
 4079SOL     OW23698   0.456   0.868   4.363 -0.0665 -0.5492  0.1476
 4079SOL    HW123699   0.369   0.895   4.392 -1.1736 -2.8525 -1.0360
 4079SOL    HW223700   0.437   0.885   4.270  0.7807 -3.5585 -0.5990
 4080SOL     OW23701   4.266   0.511   1.507 -0.1082  0.1505  0.4146
 4080SOL    HW123702   4.288   0.564   1.583 -3.0588  0.3393  1.1204
 4080SOL    HW223703   4.274   0.423   1.544  3.2677  1.0472  1.8632
 4081SOL     OW23704   3.732   0.235   0.357 -0.2524  1.0472 -0.2353
 4081SOL    HW123705   3.741   0.249   0.451 -1.0161 -1.2533  0.1589
 4081SOL    HW223706   3.650   0.283   0.343 -0.6977  0.2506 -0.3080
 4082SOL     OW23707   4.366   3.347   8.606 -0.7978 -0.7036  0.0652
 4082SOL    HW123708   4.307   3.322   8.535 -2.0105  1.8875  0.1693
 4082SOL    HW223709   4.395   3.433   8.576 -1.0883 -0.1403  1.4460
 4083SOL     OW23710   3.847   3.156  11.435 -0.5132 -0.4107  0.6372
 4083SOL    HW123711   3.808   3.094  11.496  0.7442 -0.8485  1.0035
 4083SOL    HW223712   3.794   3.231  11.462  1.1608  1.1690 -0.4685
 4084SOL     OW23713   4.066   2.193   1.946  0.3548 -0.0115 -0.0099
 4084SOL    HW123714   4.034   2.272   1.990 -0.7333 -0.1697 -0.5177
 4084SOL    HW223715   4.006   2.199   1.872 -0.9486 -0.2700  1.0186
 4085SOL     OW23716   3.656   2.135   1.623  0.1601  0.7495 -0.1228
 4085SOL    HW123717   3.616   2.199   1.564 -0.8580  0.2964  0.0630
 4085SOL    HW223718   3.579   2.111   1.675 -0.1087 -0.6385 -1.1497
 4086SOL     OW23719   3.711   2.536   8.682 -0.4346  0.2824  0.1224
 4086SOL    HW123720   3.669   2.607   8.633  0.0883  2.1073  2.2950
 4086SOL    HW223721   3.800   2.571   8.680 -0.9229  1.3643 -3.0392
 4087SOL     OW23722   1.434   4.655   0.604 -0.2605 -0.3071  0.0012
 4087SOL    HW123723   1.470   0.015   0.633 -0.5994  0.7957 -2.7853
 4087SOL    HW223724   1.505   4.592   0.597  0.4785  0.6929 -1.4988
 4088SOL     OW23725   1.294   3.256  15.012 -0.1203  0.1221 -0.2867
 4088SOL    HW123726   1.369   3.305  14.979  1.5610 -3.6591 -2.0761
 4088SOL    HW223727   1.249   3.237  14.930 -0.3252  0.7358 -0.3172
 4089SOL     OW23728   2.270   0.930   8.640 -0.3461  0.4247  0.6181
 4089SOL    HW123729   2.189   0.883   8.655 -0.4814  0.0801 -1.2599
 4089SOL    HW223730   2.224   1.013   8.629 -0.5282  0.1955 -0.3363
 4090SOL     OW23731   1.666   0.277  14.272  0.2344  0.0375  0.0143
 4090SOL    HW123732   1.684   0.345  14.207 -2.0898  0.4867 -0.1557
 4090SOL    HW223733   1.715   0.201  14.243 -1.7469 -0.4966 -1.9506
 4091SOL     OW23734   2.793   3.042  11.939 -0.2677 -0.0082  0.0897
 4091SOL    HW123735   2.768   3.089  11.859  4.1974  0.3092 -1.1681
 4091SOL    HW223736   2.741   3.087  12.006 -1.8518 -1.5671 -0.1089
 4092SOL     OW23737   2.946   2.645  15.577  0.3060 -0.3912  0.2702
 4092SOL    HW123738   2.930   2.736  15.601  2.1728  0.8336 -3.1243
 4092SOL    HW223739   3.007   2.655  15.503  0.0260  0.4987  0.1607
 4093SOL     OW23740   1.349   0.217   1.643  0.1113  0.1961  0.0811
 4093SOL    HW123741   1.298   0.137   1.629  1.3472 -0.5352 -0.2179
 4093SOL    HW223742   1.361   0.214   1.738 -2.0882  0.1068  0.3685
 4094SOL     OW23743   1.201   1.929   9.316  0.3121 -0.2246  0.1341
 4094SOL    HW123744   1.135   1.893   9.375 -0.1183 -0.7698 -0.6797
 4094SOL    HW223745   1.275   1.872   9.336 -1.0336 -1.3039  2.0861
 4095SOL     OW23746   2.822   1.890   6.754 -0.6211  0.1051 -0.1850
 4095SOL    HW123747   2.803   1.797   6.746  0.0567 -0.0982  0.6254
 4095SOL    HW223748   2.894   1.892   6.817 -1.8270 -2.5136  1.2506
 4096SOL     OW23749   2.564   3.452   5.919 -0.4764  1.0173  0.6426
 4096SOL    HW123750   2.589   3.470   6.009  0.0977  0.4464  0.5952
 4096SOL    HW223751   2.645   3.418   5.880  0.5255  3.0302  0.9872
 4097SOL     OW23752   4.329   0.591   7.214  0.7587 -0.0911  0.2235
 4097SOL    HW123753   4.397   0.569   7.151 -0.0046 -0.5440 -0.4503
 4097SOL    HW223754   4.309   0.505   7.252  1.5328 -0.0192  0.7979
 4098SOL     OW23755   4.090   3.181   3.742 -0.1896  0.1857 -0.2608
 4098SOL    HW123756   4.013   3.204   3.794  1.4208  1.7725  1.3863
 4098SOL    HW223757   4.135   3.113   3.791  0.9671  0.9779 -0.2312
 4099SOL     OW23758   1.115   1.150   6.541  0.1514 -0.0936 -0.4049
 4099SOL    HW123759   1.170   1.213   6.588 -0.2241 -0.3440  0.3631
 4099SOL    HW223760   1.065   1.208   6.484 -1.8638 -0.7949  0.6833
 4100SOL     OW23761   3.017   3.840   2.753  0.5355 -0.6797 -0.0499
 4100SOL    HW123762   2.986   3.778   2.819 -1.6032  1.0045  0.5266
 4100SOL    HW223763   3.001   3.791   2.671 -3.1327  1.0095 -0.3700
 4101SOL     OW23764   2.352   2.874   5.290 -0.0142  0.3788 -0.3799
 4101SOL    HW123765   2.403   2.949   5.258  0.8313  0.3958  0.9998
 4101SOL    HW223766   2.276   2.866   5.232 -0.1725  0.3518 -0.1664
 4102SOL     OW23767   2.392   1.995   4.754  0.0342 -0.8103  0.7037
 4102SOL    HW123768   2.304   1.976   4.721 -0.0891 -0.0494  0.5880
 4102SOL    HW223769   2.377   2.051   4.830 -0.3661 -2.0642  1.5487
 4103SOL     OW23770   2.576   0.204  12.282 -0.6382  0.1799 -0.0156
 4103SOL    HW123771   2.500   0.261  12.292 -0.0264  1.0121 -0.0571
 4103SOL    HW223772   2.614   0.204  12.371  0.0032  1.9543 -0.2767
 4104SOL     OW23773   2.016   2.960   8.532 -0.0897 -0.3755  0.0019
 4104SOL    HW123774   1.932   2.919   8.555  0.6692 -1.1065  1.5032
 4104SOL    HW223775   2.011   3.038   8.587 -0.3512 -1.0530  0.9413
 4105SOL     OW23776   3.367   0.158   0.265  0.1869 -0.0450  0.1490
 4105SOL    HW123777   3.409   0.097   0.204  1.3395  1.1762 -0.2697
 4105SOL    HW223778   3.279   0.156   0.227  1.1558 -1.2743 -1.9971
 4106SOL     OW23779   2.812   0.895   0.029 -0.0756 -0.1764  0.7629
 4106SOL    HW123780   2.841   0.805   0.042  2.1159  0.5863  1.3445
 4106SOL    HW223781   2.776   0.901  17.636  2.2976  1.0681 -0.1360
 4107SOL     OW23782   0.913   3.565   3.385 -0.2495 -0.1017 -0.1017
 4107SOL    HW123783   0.875   3.642   3.342 -1.0269 -0.1199  0.5627
 4107SOL    HW223784   0.962   3.527   3.311 -1.4875 -2.3553  0.2487
 4108SOL     OW23785   0.972   2.478   6.032  0.0018  0.0359  0.5116
 4108SOL    HW123786   1.047   2.490   6.090 -1.1480 -0.1528  2.0196
 4108SOL    HW223787   0.904   2.508   6.092 -1.4833  1.1604 -1.7418
 4109SOL     OW23788   0.595   2.614   2.263  0.3925  0.6550  1.1913
 4109SOL    HW123789   0.673   2.564   2.236 -1.6442 -1.7427 -0.2468
 4109SOL    HW223790   0.640   2.698   2.259 -0.6819  1.2385  1.4754
 4110SOL     OW23791   4.155   0.965  16.726 -0.3740  0.5231  0.1931
 4110SOL    HW123792   4.115   0.895  16.778 -0.9011 -0.3976 -1.4565
 4110SOL    HW223793   4.242   0.967  16.766 -0.5983  1.9190  0.6355
 4111SOL     OW23794   2.023   3.058   6.731  0.2300  0.3731  0.2403
 4111SOL    HW123795   2.043   3.090   6.643 -2.6203 -0.8702 -0.8590
 4111SOL    HW223796   2.097   2.998   6.739 -0.1215  0.0287  0.9359
 4112SOL     OW23797   1.426   2.009   1.937 -0.1192 -0.3757 -0.2678
 4112SOL    HW123798   1.488   1.991   2.008 -1.8251 -0.4225  1.2249
 4112SOL    HW223799   1.343   1.966   1.957 -0.2772 -0.3344 -0.8330
 4113SOL     OW23800   3.633   0.131   2.574 -0.2179 -0.1158 -0.2290
 4113SOL    HW123801   3.642   0.214   2.527 -0.8174 -0.1966 -0.4785
 4113SOL    HW223802   3.623   0.167   2.662  1.2069  0.7096 -0.4019
 4114SOL     OW23803   3.599   3.331  11.897  0.4196  0.1488  1.1664
 4114SOL    HW123804   3.666   3.399  11.907 -1.6062  1.9911  2.2978
 4114SOL    HW223805   3.530   3.378  11.850 -1.5661 -2.5926  1.3354
 4115SOL     OW23806   2.688   0.095   8.060  0.0385  0.1045 -0.4173
 4115SOL    HW123807   2.635   0.028   8.103  0.7398  1.5519  2.7317
 4115SOL    HW223808   2.675   0.160   8.129 -2.0795  0.2524 -0.9806
 4116SOL     OW23809   1.967   2.926  10.127  0.7432 -0.0796 -0.5478
 4116SOL    HW123810   2.052   2.888  10.106 -0.0190 -1.1338 -1.7394
 4116SOL    HW223811   1.922   2.945  10.044 -0.8396  0.1467  0.3701
 4117SOL     OW23812   4.346   4.455   0.629  0.5876  0.8018 -0.6484
 4117SOL    HW123813   4.298   4.403   0.693 -1.5622  1.7620 -1.4943
 4117SOL    HW223814   4.338   4.545   0.659 -1.1379 -0.4418  2.5942
 4118SOL     OW23815   4.190   1.382   2.778  0.1524  0.0531  0.3083
 4118SOL    HW123816   4.136   1.364   2.855 -0.2428  0.4285  0.1157
 4118SOL    HW223817   4.123   1.435   2.736  0.5017  0.0513 -0.2431
 4119SOL     OW23818   0.735   3.702   7.130 -0.2360  0.5536 -0.2996
 4119SOL    HW123819   0.755   3.610   7.115 -2.8752 -0.1867  0.7191
 4119SOL    HW223820   0.701   3.726   7.044  0.8845 -0.3856 -0.9994
 4120SOL     OW23821   1.532   3.585   4.828  0.2464 -0.4327 -0.1430
 4120SOL    HW123822   1.514   3.543   4.912  1.4880 -1.8691 -0.5934
 4120SOL    HW223823   1.560   3.671   4.860 -2.7145 -0.0484  1.4601
 4121SOL     OW23824   3.840   1.960   4.619  0.2074 -0.2299  0.2428
 4121SOL    HW123825   3.818   2.052   4.605  0.3082 -0.4358 -1.2882
 4121SOL    HW223826   3.759   1.928   4.659 -0.5186 -0.7978 -1.6631
 4122SOL     OW23827   1.437   3.177   2.475 -0.0563  0.3475 -0.5370
 4122SOL    HW123828   1.495   3.209   2.406  2.2285 -2.1710  0.2271
 4122SOL    HW223829   1.421   3.093   2.432  0.6869 -0.7769  1.4216
 4123SOL     OW23830   3.196   2.822   9.660 -0.3989  0.0565 -0.7223
 4123SOL    HW123831   3.292   2.821   9.668 -0.7345 -2.2312  2.9203
 4123SOL    HW223832   3.191   2.794   9.568 -0.8076  0.9301 -0.9652
 4124SOL     OW23833   3.894   4.043   5.969  0.1748  0.7075  0.2703
 4124SOL    HW123834   3.905   3.956   6.007 -0.7504 -0.5291 -2.2918
 4124SOL    HW223835   3.857   4.090   6.043  0.4787  1.1696  0.1321
 4125SOL     OW23836   4.485   3.800   8.537  0.4412  0.3141  0.2435
 4125SOL    HW123837   4.479   3.861   8.464 -0.5860  0.4310  0.4266
 4125SOL    HW223838   4.414   3.836   8.590  0.8038  3.5063 -1.4633
 4126SOL     OW23839   4.080   1.958   3.209  0.0440 -0.8861  0.0781
 4126SOL    HW123840   4.010   1.897   3.188 -0.0815 -1.5001  2.2623
 4126SOL    HW223841   4.156   1.899   3.209  0.6662 -0.0977  1.0957
 4127SOL     OW23842   1.879   3.301   8.586  0.2358 -0.7550 -0.0441
 4127SOL    HW123843   1.926   3.244   8.646  1.9619 -2.2047 -2.7622
 4127SOL    HW223844   1.805   3.244   8.568 -0.6238  0.6054 -0.8040
 4128SOL     OW23845   1.680   4.703  17.434 -0.6171  0.4917 -0.1747
 4128SOL    HW123846   1.601   4.717  17.486 -0.6228  1.7371 -0.5094
 4128SOL    HW223847   1.746   4.699  17.502 -0.1004  0.5296 -0.6728
 4129SOL     OW23848   0.121   1.967   5.686 -0.5754  0.4148 -0.1575
 4129SOL    HW123849   0.075   1.958   5.602 -0.1428  1.0412 -0.4573
 4129SOL    HW223850   0.125   1.876   5.715 -0.8335  0.1902 -0.8062
 4130SOL     OW23851   0.596   2.028   4.942  1.2155 -0.2203  0.4744
 4130SOL    HW123852   0.666   1.978   4.901 -1.0644 -2.1790 -1.0115
 4130SOL    HW223853   0.645   2.081   5.006 -1.9348  1.7740  1.2521
 4131SOL     OW23854   0.334   3.064   8.417  0.2542  0.3477 -0.3122
 4131SOL    HW123855   0.337   3.027   8.506 -1.4095 -3.7740 -1.9770
 4131SOL    HW223856   0.420   3.106   8.427 -1.0962  2.9427  0.2048
 4132SOL     OW23857   3.459   2.431   6.960 -0.2248 -0.4988  0.2216
 4132SOL    HW123858   3.433   2.443   6.869 -1.0085 -0.5554  0.4341
 4132SOL    HW223859   3.535   2.375   6.949  0.0866  0.4957 -2.5822
 4133SOL     OW23860   0.024   3.943   7.942  0.2437  0.1052  0.7285
 4133SOL    HW123861   0.090   3.903   7.885 -1.3303  0.2798 -1.2127
 4133SOL    HW223862   0.059   4.027   7.972  0.5091 -0.1538  1.1524
 4134SOL     OW23863   4.207   3.256   8.079 -0.0183  0.1695  0.0067
 4134SOL    HW123864   4.198   3.226   7.988 -2.5474  0.4338  0.1605
 4134SOL    HW223865   4.213   3.351   8.067 -1.7592  0.1377 -1.1821
 4135SOL     OW23866   0.891   3.824   3.326  0.8494  0.2888 -0.0544
 4135SOL    HW123867   0.929   3.908   3.301  0.0423  0.2415 -1.4580
 4135SOL    HW223868   0.801   3.852   3.345  1.0383  2.0777 -1.8383
 4136SOL     OW23869   3.422   2.258   5.956 -0.2511 -0.2411 -0.0322
 4136SOL    HW123870   3.483   2.205   5.906  1.4704  1.1088  0.6451
 4136SOL    HW223871   3.438   2.341   5.911  0.6244 -0.3606  0.0544
 4137SOL     OW23872   4.635   0.586   0.643  0.4757 -0.0540 -0.0526
 4137SOL    HW123873   4.576   0.660   0.660  1.8203  0.9307  0.3569
 4137SOL    HW223874   4.582   0.513   0.672  0.2464  0.1041 -0.0750
 4138SOL     OW23875   2.245   2.825   8.016 -0.0159 -0.3696 -0.3302
 4138SOL    HW123876   2.279   2.902   8.062 -0.7802 -0.9294  1.1755
 4138SOL    HW223877   2.308   2.755   8.030  0.7828  0.3762 -0.2549
 4139SOL     OW23878   0.572   3.911   5.924  0.1533  0.0686  0.1628
 4139SOL    HW123879   0.581   3.840   5.988  0.2706 -0.8897 -0.9224
 4139SOL    HW223880   0.645   3.970   5.939  0.8462 -1.2218  1.8609
 4140SOL     OW23881   1.026   0.287   7.551 -0.3046  0.2804  0.2765
 4140SOL    HW123882   0.963   0.329   7.493  0.9117  1.1387 -0.4165
 4140SOL    HW223883   1.056   0.356   7.609 -1.5013  0.8543  0.2250
 4141SOL     OW23884   0.226   0.873   7.828 -0.2360 -0.4022 -0.2310
 4141SOL    HW123885   0.146   0.910   7.790  0.0439  1.5096  1.0420
 4141SOL    HW223886   0.211   0.865   7.922 -1.3724 -1.1346 -0.4673
 4142SOL     OW23887   4.021   0.814   5.769  0.2602 -0.1919  0.1088
 4142SOL    HW123888   4.095   0.873   5.786  1.4276 -0.7770 -2.9314
 4142SOL    HW223889   3.969   0.816   5.849  0.9965  0.8379  0.5758
 4143SOL     OW23890   3.736   3.319   5.827  0.7677  0.4600 -0.1821
 4143SOL    HW123891   3.770   3.378   5.895 -0.6160  0.0511  0.8468
 4143SOL    HW223892   3.781   3.235   5.836  1.1723  0.6005 -0.8443
 4144SOL     OW23893   3.097   1.042  11.630  0.3183  0.2625 -0.1067
 4144SOL    HW123894   3.030   0.974  11.638  1.3722 -0.8981 -1.0731
 4144SOL    HW223895   3.056   1.111  11.682  0.7808  2.1500 -2.2210
 4145SOL     OW23896   1.826   1.013   9.555  0.2498 -0.0980 -0.4447
 4145SOL    HW123897   1.744   1.030   9.600  1.3548  0.0030  1.5079
 4145SOL    HW223898   1.823   0.918   9.566 -0.0391 -0.0429 -0.0760
 4146SOL     OW23899   1.583   3.512  17.571  0.3139  0.2008  0.2316
 4146SOL    HW123900   1.537   3.440  17.614  0.9180 -0.2174  0.1801
 4146SOL    HW223901   1.632   3.455  17.512 -1.5954 -0.3738 -0.7647
 4147SOL     OW23902   0.436   4.590   5.764  0.2232 -0.4795 -0.0102
 4147SOL    HW123903   0.474   4.506   5.788 -0.4423 -0.6180  0.5515
 4147SOL    HW223904   0.394   4.620   5.845  1.3543  2.0920 -0.3845
 4148SOL     OW23905   2.172   0.084  10.126 -0.4274  0.4439  0.4963
 4148SOL    HW123906   2.262   0.054  10.110 -0.5982  0.7752 -1.0426
 4148SOL    HW223907   2.148   0.016  10.189 -0.3315 -0.4758 -0.4820
 4149SOL     OW23908   2.875   4.405   4.662 -0.3990  0.0799 -0.1098
 4149SOL    HW123909   2.912   4.466   4.598  2.1199 -0.3455  0.9431
 4149SOL    HW223910   2.787   4.440   4.678  0.3250  2.3729 -1.0818
 4150SOL     OW23911   3.233   3.020   1.905  0.2393 -0.2012 -0.4216
 4150SOL    HW123912   3.292   2.994   1.835 -0.2032 -2.2050 -0.0538
 4150SOL    HW223913   3.268   3.099   1.945  1.8053 -0.9372 -0.3279
 4151SOL     OW23914   0.580   4.713  17.608  0.1765 -0.6895  0.3187
 4151SOL    HW123915   0.673   4.701  17.626  0.3371  0.7156  0.4585
 4151SOL    HW223916   0.536   4.634  17.639 -0.3755 -0.1851  0.8266
 4152SOL     OW23917   4.005   1.445  14.233 -0.1187  0.0479  0.2263
 4152SOL    HW123918   4.038   1.429  14.144  1.9058  1.2320  0.7678
 4152SOL    HW223919   4.053   1.382  14.287  0.1792 -0.9346 -1.1652
 4153SOL     OW23920   2.713   0.067   5.456  0.3653 -0.3504  1.0119
 4153SOL    HW123921   2.670   0.034   5.377 -1.2494  0.3873  1.5726
 4153SOL    HW223922   2.683   4.722   5.516  1.2618 -0.2387  1.5831
 4154SOL     OW23923   2.790   3.450   3.450 -0.4783  0.5277  0.3950
 4154SOL    HW123924   2.849   3.470   3.523  2.4957 -2.2149 -1.2443
 4154SOL    HW223925   2.717   3.509   3.468  0.4727  1.8959 -0.2788
 4155SOL     OW23926   2.046   0.458   9.356  0.1700 -0.1914  0.0849
 4155SOL    HW123927   2.074   0.466   9.265 -0.0514 -1.7598 -0.1357
 4155SOL    HW223928   2.095   0.525   9.404 -1.1072  0.7826  0.0218
 4156SOL     OW23929   4.165   0.629   3.258 -0.3516  0.4971 -0.5858
 4156SOL    HW123930   4.227   0.608   3.328 -0.6731 -0.0243 -0.4539
 4156SOL    HW223931   4.191   0.720   3.242 -0.3194  0.5401 -0.2957
 4157SOL     OW23932   0.628   2.646   7.731  0.2944 -0.0350  0.2118
 4157SOL    HW123933   0.673   2.561   7.725  0.7036  0.1420  0.8676
 4157SOL    HW223934   0.539   2.615   7.750  0.6555 -0.6908  0.8137
 4158SOL     OW23935   3.552   2.819   9.233 -0.5496  0.3881 -0.3485
 4158SOL    HW123936   3.550   2.881   9.307 -2.0610 -0.8030  0.6099
 4158SOL    HW223937   3.601   2.874   9.172  1.0436 -0.8398 -0.1652
 4159SOL     OW23938   4.505   1.497  12.809 -0.2352  0.7492 -0.5422
 4159SOL    HW123939   4.502   1.476  12.902 -0.8975 -1.9954 -1.1699
 4159SOL    HW223940   4.442   1.569  12.803  1.4897  2.3187  0.5497
 4160SOL     OW23941   2.927   2.876   4.871  0.1603 -0.2116  0.0486
 4160SOL    HW123942   3.007   2.873   4.923  0.2162  2.5222  0.0881
 4160SOL    HW223943   2.869   2.925   4.928 -1.0773 -0.5261 -0.9274
 4161SOL     OW23944   2.570   1.518  13.409  0.0028 -0.0715 -0.3135
 4161SOL    HW123945   2.630   1.459  13.363  0.5950  0.2135  0.0984
 4161SOL    HW223946   2.611   1.548  13.490  1.3240 -1.9998 -0.2638
 4162SOL     OW23947   4.544   2.995  11.710  0.1054  0.5196 -0.5440
 4162SOL    HW123948   4.576   3.054  11.642 -1.3965  0.9196 -0.9194
 4162SOL    HW223949   4.452   2.987  11.685 -0.2154 -2.2594  1.5883
 4163SOL     OW23950   2.276   0.237   0.400 -0.2688 -0.6691 -0.3783
 4163SOL    HW123951   2.282   0.152   0.356 -1.3878 -0.6331 -0.5916
 4163SOL    HW223952   2.368   0.263   0.404 -1.3407  3.0113  0.1628
 4164SOL     OW23953   0.885   4.708  14.508 -0.1914  0.4002 -0.4024
 4164SOL    HW123954   0.939   0.061  14.489  0.2204 -0.3737 -2.2550
 4164SOL    HW223955   0.811   4.722  14.450 -1.5200  1.5697  1.5503
 4165SOL     OW23956   3.967   0.499  17.389  0.1604  0.2170 -0.1340
 4165SOL    HW123957   4.036   0.564  17.381  0.6206 -0.0827  1.4878
 4165SOL    HW223958   3.953   0.504  17.483 -1.0081 -1.1916 -0.2262
 4166SOL     OW23959   1.981   2.153   7.914 -0.7414  0.3551 -0.1332
 4166SOL    HW123960   1.998   2.138   7.821 -2.5796 -1.6637 -0.1396
 4166SOL    HW223961   1.974   2.248   7.909 -1.1211  0.4911  3.1309
 4167SOL     OW23962   1.765   1.807  13.543 -0.5255 -0.6218  0.5511
 4167SOL    HW123963   1.846   1.813  13.493 -1.2371  4.0796 -0.0808
 4167SOL    HW223964   1.772   1.869  13.616 -3.8010 -1.4928  1.6232
 4168SOL     OW23965   1.438   1.866   5.079  0.1735 -0.1464  0.6045
 4168SOL    HW123966   1.409   1.871   5.170  1.6704  1.5461  1.0055
 4168SOL    HW223967   1.503   1.797   5.093  0.4816 -0.0650 -0.4350
 4169SOL     OW23968   3.457   1.810   5.723  0.1372 -0.0902 -0.0047
 4169SOL    HW123969   3.377   1.824   5.775 -0.8462 -0.2741 -1.4698
 4169SOL    HW223970   3.410   1.779   5.646 -0.4957 -1.8290  1.0764
 4170SOL     OW23971   1.806   2.057   3.457  0.6424 -0.2618 -0.2229
 4170SOL    HW123972   1.809   2.152   3.452  0.9354 -0.0781  3.4615
 4170SOL    HW223973   1.712   2.047   3.438  0.1357  2.5469  0.8123
 4171SOL     OW23974   1.933   0.116  16.572  0.5523 -0.2307  0.6867
 4171SOL    HW123975   1.983   0.059  16.514  2.0397  1.0157  0.7666
 4171SOL    HW223976   1.912   0.057  16.644 -2.1702  0.3140  0.3496
 4172SOL     OW23977   4.357   3.932   4.312 -0.4436 -0.1617 -0.5537
 4172SOL    HW123978   4.368   3.886   4.395  1.5748  2.2372  0.4886
 4172SOL    HW223979   4.430   3.893   4.263 -1.0182 -2.6606  0.5978
 4173SOL     OW23980   1.553   0.356   0.729  0.5305 -0.0894  0.0464
 4173SOL    HW123981   1.483   0.320   0.675  2.1340  0.2071 -2.2285
 4173SOL    HW223982   1.508   0.366   0.813  0.7676  1.4205 -0.0082
 4174SOL     OW23983   0.554   2.529   2.555 -0.5343  0.0704 -0.1270
 4174SOL    HW123984   0.562   2.562   2.466 -0.9010 -1.1918 -0.6348
 4174SOL    HW223985   0.522   2.606   2.602  1.1821  0.1779  0.8566
 4175SOL     OW23986   0.276   4.379   1.142  0.0462 -0.1584 -0.3814
 4175SOL    HW123987   0.270   4.449   1.207 -2.1960  0.4556 -1.2512
 4175SOL    HW223988   0.286   4.304   1.201  0.5037  1.1531  1.1940
 4176SOL     OW23989   1.783   1.681   2.633 -0.3064  0.0983  0.0311
 4176SOL    HW123990   1.778   1.681   2.537  2.4249 -1.9739 -0.0958
 4176SOL    HW223991   1.792   1.587   2.646  0.4687 -0.0354 -1.5110
 4177SOL     OW23992   4.360   3.265  15.297 -0.6112  0.4063 -0.3663
 4177SOL    HW123993   4.403   3.211  15.230 -2.3602  0.7850 -1.7923
 4177SOL    HW223994   4.405   3.350  15.291  0.3671  0.0259  1.4886
 4178SOL     OW23995   1.658   3.465   2.453 -0.2084  0.0281 -0.2620
 4178SOL    HW123996   1.644   3.389   2.396  0.9427 -0.6115  0.3152
 4178SOL    HW223997   1.668   3.532   2.385 -2.5386 -0.8849 -1.4902
 4179SOL     OW23998   2.253   4.352  15.625  0.3337  0.4054  0.2140
 4179SOL    HW123999   2.323   4.363  15.561 -1.1307 -3.2110 -2.0013
 4179SOL    HW224000   2.193   4.422  15.599 -0.4314  0.2903  1.6412
 4180SOL     OW24001   1.822   4.187  15.404  0.1913 -0.2213 -0.3977
 4180SOL    HW124002   1.858   4.175  15.316  1.0762 -0.2972 -0.0201
 4180SOL    HW224003   1.884   4.136  15.455  0.7699  0.5138 -0.3689
 4181SOL     OW24004   0.214   2.586   1.816  0.3652  0.4811  0.0751
 4181SOL    HW124005   0.272   2.512   1.798 -1.7563 -1.0675 -0.2813
 4181SOL    HW224006   0.130   2.546   1.836  0.1431  1.5076  1.1982
 4182SOL     OW24007   2.034   0.729   8.612 -0.2636 -0.1311  0.6414
 4182SOL    HW124008   1.991   0.645   8.629  1.7296 -1.4150 -0.6977
 4182SOL    HW224009   2.102   0.702   8.550  0.1794 -2.3942  2.0989
 4183SOL     OW24010   3.888   2.620   4.964  0.0831  0.2441 -0.1134
 4183SOL    HW124011   3.801   2.582   4.960 -0.5619  1.7966 -0.7181
 4183SOL    HW224012   3.875   2.698   5.018 -1.0825 -1.3498  1.9062
 4184SOL     OW24013   0.005   1.643   3.809  0.2603 -0.5698  0.2947
 4184SOL    HW124014   4.701   1.615   3.896 -2.3610 -0.7565 -0.5792
 4184SOL    HW224015   4.646   1.682   3.780 -1.6511 -3.2765  2.1705
 4185SOL     OW24016   0.912   0.800   2.087 -0.2443 -0.4538 -0.2625
 4185SOL    HW124017   0.961   0.720   2.110  2.7252  1.6138  0.6141
 4185SOL    HW224018   0.982   0.862   2.067 -3.4045  3.0185 -0.4517
 4186SOL     OW24019   1.674   0.123   4.900 -0.6532 -0.8005 -0.0802
 4186SOL    HW124020   1.604   0.169   4.946  0.4568  0.9817 -0.1582
 4186SOL    HW224021   1.624   0.052   4.859  0.4868 -1.8860  0.4135
 4187SOL     OW24022   0.249   2.013   0.911 -0.4927 -0.0195 -0.1439
 4187SOL    HW124023   0.266   1.934   0.860  2.0702  1.8795 -2.2340
 4187SOL    HW224024   0.158   2.035   0.890 -1.2686 -2.3695  0.8397
 4188SOL     OW24025   0.719   0.966   9.522  0.0229  0.2137 -0.1306
 4188SOL    HW124026   0.758   1.045   9.484  1.2265 -0.5554 -0.5029
 4188SOL    HW224027   0.797   0.929   9.564  0.5604  0.8115 -0.6029
 4189SOL     OW24028   3.961   1.588   4.206  0.3698 -0.7801 -0.1132
 4189SOL    HW124029   3.940   1.594   4.299 -0.9270 -0.1052 -0.4565
 4189SOL    HW224030   3.983   1.680   4.186  2.3063 -0.8487  1.7020
 4190SOL     OW24031   2.992   3.792   0.300 -0.2980 -0.3588  0.5510
 4190SOL    HW124032   3.038   3.808   0.218 -0.7256  0.4040  0.4578
 4190SOL    HW224033   2.941   3.716   0.273 -1.0644 -0.1592  1.4427
 4191SOL     OW24034   1.631   4.436   7.424 -0.2216 -0.5978 -0.4282
 4191SOL    HW124035   1.643   4.424   7.518  1.0577 -0.3816 -0.5568
 4191SOL    HW224036   1.706   4.389   7.387 -0.5173  0.0952 -1.8895
 4192SOL     OW24037   2.621   3.215   3.221 -0.3307  0.2479 -0.3389
 4192SOL    HW124038   2.552   3.156   3.253 -0.0501 -1.0285 -2.0457
 4192SOL    HW224039   2.683   3.210   3.294  1.4399  0.8593 -1.7999
 4193SOL     OW24040   0.257   3.887   5.506  0.1545 -0.1051  0.3796
 4193SOL    HW124041   0.168   3.862   5.530  0.5935 -0.0260  2.0736
 4193SOL    HW224042   0.297   3.879   5.593  1.1906 -0.1847 -0.1003
 4194SOL     OW24043   3.499   4.158   2.542 -0.1536  0.3802 -0.0923
 4194SOL    HW124044   3.516   4.200   2.458 -0.4519  3.8675  1.5910
 4194SOL    HW224045   3.485   4.233   2.600 -1.0755 -0.7926  1.2257
 4195SOL     OW24046   1.286   0.297  12.901 -0.1959 -0.4737  0.5585
 4195SOL    HW124047   1.357   0.311  12.839  0.9412 -1.8019  1.5625
 4195SOL    HW224048   1.319   0.215  12.937  4.0002  1.7300  1.7256
 4196SOL     OW24049   2.012   3.762   5.763  0.6941 -0.5199 -0.1887
 4196SOL    HW124050   2.036   3.747   5.672 -1.2020  0.8822 -0.9273
 4196SOL    HW224051   2.100   3.759   5.802 -0.0054 -0.4188  1.3617
 4197SOL     OW24052   4.026   2.926  12.250  0.2158 -0.0388  0.4616
 4197SOL    HW124053   4.085   2.977  12.193  0.8105 -2.0644 -0.7171
 4197SOL    HW224054   4.024   2.969  12.335 -2.8036 -2.5920  1.6683
 4198SOL     OW24055   1.930   2.162   7.384  0.1671  0.0387 -0.1755
 4198SOL    HW124056   1.939   2.217   7.306 -2.8294 -0.1958 -0.6757
 4198SOL    HW224057   1.862   2.102   7.351  0.0950  0.1055 -0.1488
 4199SOL     OW24058   1.775   3.525   8.197  0.0429 -0.5340 -0.1749
 4199SOL    HW124059   1.870   3.518   8.187 -0.0243  1.6659 -2.5349
 4199SOL    HW224060   1.769   3.508   8.291 -3.6161 -1.4296 -0.5645
 4200SOL     OW24061   0.806   4.111   2.792  0.8715  0.7271  0.3213
 4200SOL    HW124062   0.811   4.163   2.712  2.5452 -0.9956 -0.7001
 4200SOL    HW224063   0.714   4.113   2.815  0.6383 -1.0348 -0.4323
 4201SOL     OW24064   4.455   3.902   1.665  0.5962 -0.2925 -0.0144
 4201SOL    HW124065   4.493   3.817   1.641  0.0779  0.5681 -3.8682
 4201SOL    HW224066   4.518   3.963   1.628  2.1604 -1.5963  0.4976
 4202SOL     OW24067   0.714   2.098  15.986 -0.6666  0.0624  0.1296
 4202SOL    HW124068   0.770   2.176  15.986 -2.1556  1.1460  1.7487
 4202SOL    HW224069   0.667   2.104  15.903  0.9974  0.7327 -0.7664
 4203SOL     OW24070   3.497   2.507   4.289 -0.2246 -1.1599  0.0462
 4203SOL    HW124071   3.412   2.521   4.331 -0.5642 -0.2422 -0.9586
 4203SOL    HW224072   3.555   2.509   4.366 -1.7266 -0.1367  1.1436
 4204SOL     OW24073   3.961   1.112  13.030  0.6008  0.3430  0.0087
 4204SOL    HW124074   3.964   1.016  13.025  1.2473  0.2832  1.6051
 4204SOL    HW224075   4.021   1.134  12.958  1.1331  1.2141  0.7181
 4205SOL     OW24076   0.530   0.706   6.500 -0.0328  0.0857 -0.3772
 4205SOL    HW124077   0.519   0.673   6.411  0.0658 -0.7126 -0.0943
 4205SOL    HW224078   0.590   0.778   6.481 -0.9495  0.5440 -1.4696
 4206SOL     OW24079   2.839   3.466   2.684 -0.1011 -0.5011 -0.2625
 4206SOL    HW124080   2.929   3.497   2.687 -0.3731  0.4532 -1.7861
 4206SOL    HW224081   2.824   3.466   2.590 -0.0143 -3.9791 -0.2773
 4207SOL     OW24082   0.355   0.758   8.969 -0.4713 -0.1345 -0.0242
 4207SOL    HW124083   0.278   0.814   8.958 -0.2595  0.2741  0.5815
 4207SOL    HW224084   0.309   0.675   8.972  0.0033 -0.4615 -1.7456
 4208SOL     OW24085   3.345   0.157   3.948  0.1546 -0.4675 -0.0312
 4208SOL    HW124086   3.436   0.186   3.954  0.1194  0.1497 -2.3126
 4208SOL    HW224087   3.333   0.107   4.029  0.2246  0.1643  0.3724
 4209SOL     OW24088   3.313   3.218  10.024 -0.2632 -0.2914 -0.2289
 4209SOL    HW124089   3.362   3.178   9.951  1.2929 -2.6207  2.0787
 4209SOL    HW224090   3.383   3.250  10.080 -0.1042 -1.2239  0.1059
 4210SOL     OW24091   1.467   3.116   5.532  0.1290 -0.5739  0.0031
 4210SOL    HW124092   1.505   3.051   5.591 -0.7119 -0.7638  0.3253
 4210SOL    HW224093   1.535   3.181   5.514  1.9592 -2.4580  0.1623
 4211SOL     OW24094   1.015   0.029  15.729  0.5968  0.0751  0.2776
 4211SOL    HW124095   0.994   4.708  15.812  1.5718 -1.3360 -0.2147
 4211SOL    HW224096   1.061   4.681  15.685  1.6590  1.3820 -0.7203
 4212SOL     OW24097   2.796   1.969   5.670 -0.6620 -0.0033 -0.0613
 4212SOL    HW124098   2.745   1.956   5.590 -1.1128  2.7268 -0.2391
 4212SOL    HW224099   2.765   1.889   5.713 -2.7127  1.2359  0.7775
 4213SOL     OW24100   2.966   0.300   2.230  0.5859 -0.2789  0.5728
 4213SOL    HW124101   2.945   0.237   2.299  0.5125  0.7652  1.5056
 4213SOL    HW224102   2.890   0.358   2.237 -0.7802 -2.4314  3.7632
 4214SOL     OW24103   2.622   0.435   8.554  0.1526  0.6017 -0.2885
 4214SOL    HW124104   2.547   0.377   8.569  0.1654  0.6068 -0.2025
 4214SOL    HW224105   2.686   0.392   8.611 -0.9882 -0.1114  0.4641
 4215SOL     OW24106   2.883   0.798  11.402  0.0488  0.0616  0.1315
 4215SOL    HW124107   2.815   0.736  11.376 -1.2879  1.0385  1.2319
 4215SOL    HW224108   2.849   0.824  11.488 -1.3645  0.0629 -0.4354
 4216SOL     OW24109   1.588   1.524  14.947 -0.4681 -0.3433 -0.4321
 4216SOL    HW124110   1.660   1.529  15.010 -1.5469  0.3523  0.7547
 4216SOL    HW224111   1.579   1.432  14.922  2.0101  0.3571 -3.9223
 4217SOL     OW24112   3.827   1.177   6.373  0.0034 -0.7566 -0.1686
 4217SOL    HW124113   3.901   1.218   6.418  0.4398  0.5187 -2.0333
 4217SOL    HW224114   3.772   1.165   6.450  1.0584  3.1882  1.1852
 4218SOL     OW24115   2.186   1.572   6.723  0.0886  0.9975  0.1395
 4218SOL    HW124116   2.213   1.619   6.801 -1.1531  0.5292  0.8605
 4218SOL    HW224117   2.247   1.613   6.661 -0.5465  1.2628 -0.3129
 4219SOL     OW24118   2.118   4.672   5.565  0.0341 -0.2783 -0.6846
 4219SOL    HW124119   2.095   4.598   5.622 -0.4673 -0.3684 -1.0108
 4219SOL    HW224120   2.206   4.693   5.597  0.3818 -0.9855 -1.1743
 4220SOL     OW24121   4.321   2.850  13.048  0.3541  0.0455 -0.2849
 4220SOL    HW124122   4.326   2.924  12.988 -0.9430  1.8253  1.8206
 4220SOL    HW224123   4.285   2.780  12.993 -0.9321 -1.3421  2.3369
 4221SOL     OW24124   2.686   4.343   5.748 -0.4518 -0.4293 -0.7551
 4221SOL    HW124125   2.611   4.381   5.701  0.0867  3.8804  1.8874
 4221SOL    HW224126   2.643   4.305   5.824 -1.5567  1.3464 -0.4795
 4222SOL     OW24127   0.237   1.509   8.097 -0.0534  0.2069 -0.0762
 4222SOL    HW124128   0.177   1.497   8.024  1.3564 -2.8985 -0.6987
 4222SOL    HW224129   0.264   1.601   8.092  1.8220 -0.2900  0.8768
 4223SOL     OW24130   2.014   1.843   6.252 -0.5669 -0.3478 -0.0118
 4223SOL    HW124131   2.009   1.908   6.323  1.2048 -0.1257 -0.0958
 4223SOL    HW224132   2.109   1.833   6.250 -0.3057  1.3671  2.6695
 4224SOL     OW24133   3.395   1.530   2.251 -0.0410  0.2422 -0.4087
 4224SOL    HW124134   3.433   1.452   2.291  1.2306  0.9640 -0.2079
 4224SOL    HW224135   3.317   1.486   2.216  0.3048 -1.5501  1.0594
 4225SOL     OW24136   3.557   1.405   7.058 -0.2326  0.0892 -0.0003
 4225SOL    HW124137   3.566   1.440   7.147 -1.6641  2.1918 -0.6735
 4225SOL    HW224138   3.568   1.476   6.994  1.5368  1.5054  1.8764
 4226SOL     OW24139   4.563   4.529   0.924  0.3550 -0.0330  0.1375
 4226SOL    HW124140   4.643   4.476   0.929  2.0537  2.6641  1.5619
 4226SOL    HW224141   4.500   4.469   0.964 -0.9547 -0.0291 -1.9296
 4227SOL     OW24142   3.476   0.674   3.769 -0.0392  0.0683  0.3377
 4227SOL    HW124143   3.426   0.730   3.828  0.4737  0.3948  0.4645
 4227SOL    HW224144   3.456   0.584   3.797  0.0755  0.4882  1.7876
 4228SOL     OW24145   3.934   3.934  10.737  0.2276 -0.6394  0.7409
 4228SOL    HW124146   3.898   3.855  10.698 -0.0710  0.2239 -0.7209
 4228SOL    HW224147   4.028   3.916  10.739  0.4505  0.4050 -0.3184
 4229SOL     OW24148   1.824   3.560  16.270 -0.2767 -0.0222 -0.0217
 4229SOL    HW124149   1.782   3.599  16.346 -0.7047 -0.2000 -0.1662
 4229SOL    HW224150   1.895   3.508  16.308  0.3541 -0.5436 -1.9241
 4230SOL     OW24151   1.683   3.093   7.087 -0.2291 -0.7908 -0.1871
 4230SOL    HW124152   1.700   2.999   7.079 -0.8636 -1.0100  1.0673
 4230SOL    HW224153   1.757   3.126   7.036  1.1492 -1.6508  1.2456
 4231SOL     OW24154   1.737   2.789   5.368 -0.6966 -0.1444  0.6506
 4231SOL    HW124155   1.751   2.802   5.462  0.1406  0.9874  0.3660
 4231SOL    HW224156   1.728   2.694   5.365 -0.0379 -0.2400  1.6245
 4232SOL     OW24157   3.483   3.138   7.501 -0.0302 -0.1137  0.7481
 4232SOL    HW124158   3.485   3.163   7.409  1.7431 -0.8357  0.5817
 4232SOL    HW224159   3.488   3.224   7.542  0.1134  0.3490 -0.2408
 4233SOL     OW24160   0.794   4.013   1.683 -0.1443 -0.6179  0.5397
 4233SOL    HW124161   0.771   4.070   1.756 -1.3720 -0.8709  0.3614
 4233SOL    HW224162   0.744   4.052   1.611 -0.9717 -0.5657  1.1330
 4234SOL     OW24163   2.826   2.548  17.584  0.0995 -0.4769 -0.0819
 4234SOL    HW124164   2.785   2.487  17.645 -0.9026 -0.0388 -0.3276
 4234SOL    HW224165   2.813   2.631  17.628 -0.2064 -1.3043  1.3781
 4235SOL     OW24166   3.755   3.745   3.312  0.0837  0.4997  0.2882
 4235SOL    HW124167   3.729   3.670   3.259 -0.5597  1.2924 -0.5261
 4235SOL    HW224168   3.828   3.777   3.259 -0.7102 -0.4455 -1.4104
 4236SOL     OW24169   1.274   3.633  12.097  0.1317 -0.8624  0.1115
 4236SOL    HW124170   1.313   3.720  12.099 -0.6856 -0.5348  1.2758
 4236SOL    HW224171   1.223   3.633  12.178  0.3499  3.0835  0.2187
 4237SOL     OW24172   1.709   2.268  13.075 -0.3467 -0.2279  0.0507
 4237SOL    HW124173   1.791   2.218  13.077 -0.6934 -0.6535  4.4374
 4237SOL    HW224174   1.669   2.233  13.155 -0.0767  2.3090  1.3133
 4238SOL     OW24175   3.524   3.370   2.322  0.1372 -0.1895  0.5645
 4238SOL    HW124176   3.488   3.446   2.276  2.7335  1.1207  0.7082
 4238SOL    HW224177   3.540   3.316   2.244 -0.5931  0.8493 -0.3185
 4239SOL     OW24178   2.048   0.035   7.140  0.2487  0.2573  0.4973
 4239SOL    HW124179   2.016   0.087   7.066  1.3660  2.5120  1.5866
 4239SOL    HW224180   2.005   4.675   7.122 -1.9774  1.5349 -0.0883
 4240SOL     OW24181   0.933   3.342   6.278 -0.2247  0.2429  0.5633
 4240SOL    HW124182   1.018   3.350   6.234 -0.0395 -0.3329  0.8200
 4240SOL    HW224183   0.961   3.339   6.369  3.4679 -0.1773 -0.6001
 4241SOL     OW24184   4.104   2.783  13.652 -0.2081 -0.2153  0.0512
 4241SOL    HW124185   4.108   2.747  13.564  1.9807 -0.6190  0.3250
 4241SOL    HW224186   4.185   2.753  13.694 -1.5345 -2.9971  0.6848
 4242SOL     OW24187   0.522   1.880  17.631 -0.2106 -0.0527  0.2072
 4242SOL    HW124188   0.529   1.963  17.584  0.8222 -0.1574  0.1790
 4242SOL    HW224189   0.449   1.897  17.691  0.5648 -1.8215  1.6713
 4243SOL     OW24190   2.283   0.365   9.534  0.0510 -0.6596 -0.3526
 4243SOL    HW124191   2.205   0.420   9.522  0.9452  1.3772  3.2320
 4243SOL    HW224192   2.262   0.347   9.626 -0.6128  0.3137 -0.3124
 4244SOL     OW24193   4.479   0.490   2.265 -0.1241  0.5228  0.2318
 4244SOL    HW124194   4.535   0.568   2.270 -0.4285  0.7769 -0.2823
 4244SOL    HW224195   4.494   0.450   2.350  2.2422 -0.1011 -0.4871
 4245SOL     OW24196   0.210   0.248  12.311  0.1708 -0.1642 -0.2291
 4245SOL    HW124197   0.281   0.239  12.375  0.8350  0.1969 -0.9131
 4245SOL    HW224198   0.249   0.231  12.225 -2.7438 -1.0061 -1.3846
 4246SOL     OW24199   3.117   4.676   2.887 -0.2306 -0.1215 -0.0924
 4246SOL    HW124200   3.187   4.630   2.841 -1.4488  0.6994 -2.7438
 4246SOL    HW224201   3.139   0.045   2.871  1.1186 -0.2417  0.9961
 4247SOL     OW24202   1.793   4.114  13.686  0.2305  0.0719 -0.2981
 4247SOL    HW124203   1.886   4.117  13.709  0.2035  2.4346 -0.5205
 4247SOL    HW224204   1.749   4.153  13.762 -0.4270  0.0292 -0.6541
 4248SOL     OW24205   4.495   1.812   6.556 -0.6767  0.0993  0.0261
 4248SOL    HW124206   4.487   1.760   6.636 -2.9292  1.3892  0.6299
 4248SOL    HW224207   4.590   1.807   6.553 -0.6727 -0.9206  1.8302
 4249SOL     OW24208   4.301   0.840   2.016 -0.3539 -0.0247  0.0454
 4249SOL    HW124209   4.212   0.827   2.050  0.4339 -1.9525  1.3546
 4249SOL    HW224210   4.291   0.922   1.968  1.6813 -0.5223 -1.2018
 4250SOL     OW24211   0.872   0.815   9.687  0.4849  0.4165  0.1893
 4250SOL    HW124212   0.932   0.835   9.758  1.2035 -0.4727 -0.1663
 4250SOL    HW224213   0.898   0.723   9.686  0.7186  0.5015 -1.1785
 4251SOL     OW24214   0.867   2.999   7.811 -0.5610  0.0822  0.4132
 4251SOL    HW124215   0.882   3.069   7.874 -0.6544  3.1029 -2.8986
 4251SOL    HW224216   0.868   3.043   7.726 -3.9026  1.2689  0.9687
 4252SOL     OW24217   3.654   4.429  12.118  0.4584  0.0193 -0.2213
 4252SOL    HW124218   3.717   4.437  12.189 -0.8994 -0.7602  1.0750
 4252SOL    HW224219   3.671   4.340  12.088  2.9055  0.1302  0.8806
 4253SOL     OW24220   1.903   2.429   8.125  0.7256 -0.0698 -0.2154
 4253SOL    HW124221   1.914   2.510   8.174  3.2485 -0.7470  0.3096
 4253SOL    HW224222   1.809   2.415   8.140  1.1507 -1.0309  1.6184
 4254SOL     OW24223   2.528   4.134   4.344 -0.2215 -0.0223  0.0166
 4254SOL    HW124224   2.550   4.142   4.251  0.3973  0.9075  0.2373
 4254SOL    HW224225   2.610   4.121   4.392  0.8386  2.4396 -1.0763
 4255SOL     OW24226   0.357   3.933   6.875 -0.5504 -0.3866 -0.1375
 4255SOL    HW124227   0.377   3.889   6.958  0.2121 -0.6818 -0.4802
 4255SOL    HW224228   0.351   4.022   6.909 -1.3503 -0.4832 -0.0268
 4256SOL     OW24229   1.367   2.416   7.392  0.6605  0.0650  0.0471
 4256SOL    HW124230   1.461   2.413   7.409  0.6585  0.9087  0.2197
 4256SOL    HW224231   1.354   2.362   7.314  0.9188 -0.2154  0.1977
 4257SOL     OW24232   0.440   4.208   7.360  0.3670  0.3951 -0.7022
 4257SOL    HW124233   0.483   4.291   7.379 -0.7346  0.8705 -0.2564
 4257SOL    HW224234   0.492   4.172   7.288  1.5159 -0.7618  0.7261
 4258SOL     OW24235   1.490   4.019  14.048  0.0881 -0.0029 -0.5562
 4258SOL    HW124236   1.464   3.927  14.044 -0.0336  0.1058 -2.5040
 4258SOL    HW224237   1.567   4.005  14.103  0.6695 -0.9703 -1.6166
 4259SOL     OW24238   4.237   4.130  16.327 -0.0178 -0.2357 -0.2456
 4259SOL    HW124239   4.146   4.102  16.332 -0.5840  1.2889 -2.1418
 4259SOL    HW224240   4.283   4.046  16.324 -0.8962 -0.6850 -1.0661
 4260SOL     OW24241   2.317   3.767   4.073  0.3325  0.7541 -0.1597
 4260SOL    HW124242   2.365   3.745   4.153 -2.3892  0.2682  1.3310
 4260SOL    HW224243   2.365   3.838   4.032 -0.4777  0.8350 -0.9522
 4261SOL     OW24244   0.621   2.183   1.885  0.1869 -0.4554 -0.5927
 4261SOL    HW124245   0.551   2.153   1.944 -0.7026  2.2317 -0.2822
 4261SOL    HW224246   0.684   2.123   1.925  0.0317 -0.5987 -0.5652
 4262SOL     OW24247   3.444   1.032   2.801  0.5353 -0.4463  0.2193
 4262SOL    HW124248   3.350   1.048   2.793  0.8981  2.0635  0.9993
 4262SOL    HW224249   3.426   0.940   2.824  1.5404 -1.3640 -2.7095
 4263SOL     OW24250   4.439   0.064   0.833 -0.2767  0.2226  0.4462
 4263SOL    HW124251   4.385   0.015   0.896 -1.9337 -1.0765 -1.9971
 4263SOL    HW224252   4.508   0.003   0.809 -0.8816 -0.4831  0.5002
 4264SOL     OW24253   4.079   1.608   5.971  0.4406 -0.3148  0.4315
 4264SOL    HW124254   4.032   1.539   6.018  1.9373  0.7328  3.4234
 4264SOL    HW224255   4.167   1.571   5.971 -0.4826 -2.5047  0.4624
 4265SOL     OW24256   3.174   3.113   5.172 -0.5037 -0.0047 -0.5480
 4265SOL    HW124257   3.235   3.173   5.215  0.9619 -1.4276 -0.6460
 4265SOL    HW224258   3.173   3.162   5.090  1.1243  1.1277  0.0988
 4266SOL     OW24259   3.519   3.421  11.181 -0.0214 -0.2421 -0.0508
 4266SOL    HW124260   3.494   3.501  11.134 -1.6911  0.1674  1.5105
 4266SOL    HW224261   3.509   3.462  11.267 -0.0262 -0.0868 -0.1258
 4267SOL     OW24262   2.078   3.593  12.099 -0.2196 -0.1960  0.2115
 4267SOL    HW124263   2.056   3.636  12.182 -0.3710 -1.6746  0.9324
 4267SOL    HW224264   2.078   3.671  12.043  1.1880 -0.7743 -0.6189
 4268SOL     OW24265   2.906   2.968   7.813 -0.4344  0.3410  1.0542
 4268SOL    HW124266   2.987   3.009   7.843 -0.0254  1.3506 -1.4507
 4268SOL    HW224267   2.946   2.932   7.735 -1.2855 -2.3866  1.8744
 4269SOL     OW24268   2.602   3.996   9.729 -0.2108  0.2743  0.1922
 4269SOL    HW124269   2.525   3.971   9.678  1.4146 -1.1780 -1.5631
 4269SOL    HW224270   2.666   3.942   9.682  0.4249  0.9134  0.3281
 4270SOL     OW24271   4.094   1.762  14.010 -0.2004  0.2605  0.0938
 4270SOL    HW124272   4.056   1.688  13.962  1.0089 -1.5339  1.8690
 4270SOL    HW224273   4.189   1.749  13.999 -0.0812  0.2963  1.0948
 4271SOL     OW24274   2.497   4.364   7.984 -0.1172 -0.0625  0.0963
 4271SOL    HW124275   2.521   4.338   8.072 -1.7386  1.0107  0.8608
 4271SOL    HW224276   2.576   4.390   7.936 -0.3963  0.6038 -0.0065
 4272SOL     OW24277   3.189   3.148   8.618  0.3349 -0.3562 -0.2195
 4272SOL    HW124278   3.253   3.201   8.571  0.2668  0.0550  0.1472
 4272SOL    HW224279   3.196   3.180   8.708 -1.5887 -3.1152  0.9236
 4273SOL     OW24280   3.959   1.973  11.975 -0.2013 -0.1021 -0.0603
 4273SOL    HW124281   3.992   2.057  11.942 -0.0047 -0.4691 -0.7989
 4273SOL    HW224282   3.865   1.988  11.981  0.0137  0.4854  1.7162
 4274SOL     OW24283   1.514   3.598   3.025 -0.3406 -0.1315 -0.0302
 4274SOL    HW124284   1.599   3.622   3.062 -1.0096 -1.1003  2.1506
 4274SOL    HW224285   1.458   3.626   3.097 -0.2206  0.8051 -0.3084
 4275SOL     OW24286   2.147   2.177   5.763 -0.5872 -0.3368 -0.2673
 4275SOL    HW124287   2.101   2.208   5.685 -1.4187  0.0934  0.3935
 4275SOL    HW224288   2.140   2.083   5.749 -1.0771 -0.2871 -0.3485
 4276SOL     OW24289   1.963   2.855   9.648  0.1241 -0.3712  0.3661
 4276SOL    HW124290   2.011   2.891   9.574  1.7301 -2.5384  0.3569
 4276SOL    HW224291   1.885   2.911   9.644 -0.5343 -1.3304 -0.5055
 4277SOL     OW24292   2.550   3.260   9.545 -0.1046 -0.2826  1.1111
 4277SOL    HW124293   2.585   3.306   9.622  2.7986 -1.2329  0.3516
 4277SOL    HW224294   2.557   3.169   9.574 -2.2251 -0.4973  0.9197
 4278SOL     OW24295   0.879   1.759   2.878 -0.0176  0.3764  0.7788
 4278SOL    HW124296   0.932   1.779   2.800  0.9378  0.3301  1.4105
 4278SOL    HW224297   0.799   1.725   2.840  0.3974  2.5014 -2.0039
 4279SOL     OW24298   3.392   2.380   1.713 -0.2416 -0.4303 -0.2031
 4279SOL    HW124299   3.459   2.403   1.648 -0.7183  1.2646 -0.0682
 4279SOL    HW224300   3.358   2.465   1.740  1.5274  0.1238  0.2767
 4280SOL     OW24301   1.408   3.100   7.029 -0.1924  0.2450 -0.3352
 4280SOL    HW124302   1.395   3.025   7.087  0.0737  1.5544  1.4126
 4280SOL    HW224303   1.492   3.136   7.054 -1.1245  0.9604  1.7149
 4281SOL     OW24304   3.435   2.146   4.608 -0.1907 -0.2353  0.1275
 4281SOL    HW124305   3.380   2.082   4.562 -3.0994  2.4359 -0.0968
 4281SOL    HW224306   3.392   2.229   4.585 -0.6669 -1.1072 -2.1284
 4282SOL     OW24307   1.591   3.428   6.236 -0.4056 -0.2406 -0.1195
 4282SOL    HW124308   1.642   3.408   6.315 -1.7943 -1.7037  0.4108
 4282SOL    HW224309   1.639   3.504   6.203 -1.2580  0.8572  1.1620
 4283SOL     OW24310   3.029   3.893   3.054 -0.1240  0.0006 -0.1276
 4283SOL    HW124311   3.021   3.892   3.149 -1.5174 -1.1430 -0.2492
 4283SOL    HW224312   3.016   3.802   3.026 -3.2588  1.1455 -2.5107
 4284SOL     OW24313   2.009   4.717   5.250 -0.1437  0.2023 -0.0317
 4284SOL    HW124314   2.090   0.035   5.221 -0.2795 -0.2109 -1.0089
 4284SOL    HW224315   2.046   4.661   5.319  0.1428  0.9891  0.4554
 4285SOL     OW24316   4.518   4.222   4.598 -0.7719  0.3982  0.0126
 4285SOL    HW124317   4.529   4.287   4.529  0.5656 -0.1257 -0.2809
 4285SOL    HW224318   4.423   4.218   4.607 -0.4886 -2.0801  2.0438
 4286SOL     OW24319   3.903   1.085  14.098  0.3344  0.3790  0.5640
 4286SOL    HW124320   3.875   1.041  14.018  0.2267  0.0890  0.7629
 4286SOL    HW224321   3.996   1.090  14.073 -0.0747 -0.4662 -1.1188
 4287SOL     OW24322   0.484   3.055  13.911 -1.0148 -0.3209  0.3462
 4287SOL    HW124323   0.449   3.055  14.000  1.1570 -0.4820  1.2088
 4287SOL    HW224324   0.562   3.000  13.926 -2.0566 -1.4452  1.6446
 4288SOL     OW24325   0.769   2.707   4.681  0.6244 -0.2365  0.0595
 4288SOL    HW124326   0.805   2.629   4.723  1.1374 -0.8725 -1.5563
 4288SOL    HW224327   0.694   2.663   4.642  1.9352 -1.5617 -1.0090
 4289SOL     OW24328   0.269   1.829   0.686  0.3865  0.2405 -0.5816
 4289SOL    HW124329   0.239   1.872   0.606 -0.4985 -0.2088 -0.4948
 4289SOL    HW224330   0.204   1.759   0.694  0.0530  0.8354  1.6413
 4290SOL     OW24331   1.250   4.310   6.360  0.0917  0.1971  0.8641
 4290SOL    HW124332   1.331   4.275   6.398 -0.7176 -0.1656  2.2325
 4290SOL    HW224333   1.224   4.383   6.415  2.2502  1.9611 -0.4383
 4291SOL     OW24334   2.361   4.203   3.716 -0.1932 -0.5428  0.3992
 4291SOL    HW124335   2.449   4.227   3.688 -1.8082  2.9164 -1.6178
 4291SOL    HW224336   2.309   4.283   3.713 -0.9658 -1.0625  0.0630
 4292SOL     OW24337   0.188   2.033   4.665  0.1988 -0.2565 -0.6357
 4292SOL    HW124338   0.225   2.077   4.741 -0.3789 -0.3430 -0.3031
 4292SOL    HW224339   0.247   2.055   4.593 -0.6569  1.3157 -0.8591
 4293SOL     OW24340   1.009   1.382  14.421  0.1202  0.0081 -0.0868
 4293SOL    HW124341   1.030   1.475  14.419  0.9579 -0.1913 -0.5794
 4293SOL    HW224342   1.097   1.348  14.403  0.4029  0.5698  0.2365
 4294SOL     OW24343   4.641   2.197   6.438 -0.8195  0.3779 -0.3155
 4294SOL    HW124344   4.704   2.249   6.389  2.0561 -1.9546  0.9354
 4294SOL    HW224345   4.670   2.110   6.412 -0.6393  0.6795 -1.1401
 4295SOL     OW24346   2.086   1.930   5.629 -0.2900  0.1035  0.5681
 4295SOL    HW124347   2.072   1.841   5.599  1.2598 -0.1768  0.6562
 4295SOL    HW224348   2.030   1.978   5.569  0.2537 -0.4469 -0.3723
 4296SOL     OW24349   0.976   4.583  15.938  0.1828  1.1349 -0.2844
 4296SOL    HW124350   0.984   4.493  15.907 -0.0905  1.3076 -0.8431
 4296SOL    HW224351   0.894   4.583  15.987  0.8885 -0.4590  0.9061
 4297SOL     OW24352   2.078   1.802   8.486 -0.7912 -0.2680 -0.1925
 4297SOL    HW124353   2.031   1.794   8.569 -1.7730  0.8651 -0.6478
 4297SOL    HW224354   2.123   1.886   8.491 -3.1417  0.9314  0.1773
 4298SOL     OW24355   4.289   4.679   7.134 -0.2006  0.1651  0.3263
 4298SOL    HW124356   4.304   4.640   7.221  0.5244 -1.4485 -0.5110
 4298SOL    HW224357   4.195   4.695   7.131 -0.4004 -1.7272 -2.7344
 4299SOL     OW24358   3.859   1.196   8.604  0.2527  0.3350  0.2816
 4299SOL    HW124359   3.800   1.131   8.566  0.6292 -0.8640  1.7540
 4299SOL    HW224360   3.820   1.275   8.566 -1.0289 -0.1785  0.5077
 4300SOL     OW24361   4.410   4.050   1.881 -0.1391  0.2245  0.1968
 4300SOL    HW124362   4.502   4.049   1.909  0.0805 -0.6325 -0.5332
 4300SOL    HW224363   4.407   3.990   1.807 -0.6427  1.5688 -0.8694
 4301SOL     OW24364   0.381   3.334   4.145  0.4357  0.3825 -0.5607
 4301SOL    HW124365   0.346   3.367   4.062  3.8705  2.3159 -1.2675
 4301SOL    HW224366   0.417   3.415   4.182 -1.5405  0.5341  1.0342
 4302SOL     OW24367   3.927   0.316  12.528 -0.3551 -0.2585 -0.1836
 4302SOL    HW124368   3.870   0.390  12.509 -1.3963 -1.2534 -0.9670
 4302SOL    HW224369   3.999   0.363  12.569  0.0957 -0.5744 -0.6158
 4303SOL     OW24370   3.163   1.597  12.830 -0.0842 -0.5546 -0.8124
 4303SOL    HW124371   3.121   1.511  12.827  1.5968 -1.4266  0.3876
 4303SOL    HW224372   3.131   1.636  12.749 -0.2072 -0.9443 -0.9508
 4304SOL     OW24373   1.503   4.162  15.893  0.4027  0.1402 -0.0408
 4304SOL    HW124374   1.461   4.130  15.814  1.0250 -1.1147  0.1412
 4304SOL    HW224375   1.538   4.249  15.871 -0.1159 -0.1924 -2.2096
 4305SOL     OW24376   3.487   3.058  14.795  0.0793 -0.2125  0.1442
 4305SOL    HW124377   3.565   3.072  14.848  0.3232  1.1045 -0.5576
 4305SOL    HW224378   3.484   3.129  14.730  0.9267 -3.9948 -4.0327
 4306SOL     OW24379   1.119   3.383   9.858  0.4399  0.1793 -0.0612
 4306SOL    HW124380   1.133   3.468   9.898 -0.3775  0.3927 -0.2202
 4306SOL    HW224381   1.101   3.396   9.765 -0.4731  0.3681  0.1474
 4307SOL     OW24382   3.062   3.542  15.256  1.0262 -0.5477  0.3882
 4307SOL    HW124383   3.026   3.570  15.172  0.8608 -2.0392 -0.0478
 4307SOL    HW224384   2.987   3.532  15.314  1.5742  1.3076  1.4187
 4308SOL     OW24385   4.427   1.815   8.934  0.5202  0.7098  0.6007
 4308SOL    HW124386   4.428   1.885   8.998  0.4350  2.3223 -1.1591
 4308SOL    HW224387   4.332   1.812   8.924  0.4378  0.6486  1.4329
 4309SOL     OW24388   2.820   3.239   8.048 -0.1126  0.5290 -0.2148
 4309SOL    HW124389   2.876   3.167   8.077 -0.8124  0.6848  1.5638
 4309SOL    HW224390   2.877   3.315   8.043  0.6706  0.0139  0.8425
 4310SOL     OW24391   2.351   4.367   3.436  0.2589  0.2921  0.3110
 4310SOL    HW124392   2.281   4.408   3.486 -0.9267 -2.3988  0.8871
 4310SOL    HW224393   2.315   4.278   3.434  0.4027  0.2107  1.6528
 4311SOL     OW24394   1.365   2.143   5.790  0.4968  0.6390 -0.3900
 4311SOL    HW124395   1.309   2.192   5.851  0.3304  1.0810 -0.8968
 4311SOL    HW224396   1.297   2.080   5.767  0.7258 -0.5826  2.3658
 4312SOL     OW24397   0.692   3.970   3.820  0.4371  0.3088 -0.2446
 4312SOL    HW124398   0.692   4.004   3.730  0.0025 -1.8213 -1.0409
 4312SOL    HW224399   0.641   4.032   3.872  0.4226  0.8446 -0.8936
 4313SOL     OW24400   2.083   4.001   1.802  0.0560  0.4442  0.2828
 4313SOL    HW124401   2.038   3.953   1.732 -0.2608  0.4872  0.4571
 4313SOL    HW224402   2.081   3.931   1.867  2.3794 -0.9826 -1.1613
 4314SOL     OW24403   3.386   0.370   3.766 -0.8692 -0.6137 -0.4258
 4314SOL    HW124404   3.307   0.381   3.714 -0.5247 -1.7878 -1.1882
 4314SOL    HW224405   3.353   0.316   3.837  1.9884 -0.9960  0.6427
 4315SOL     OW24406   2.474   2.459   8.407  0.3429 -0.8737  0.3816
 4315SOL    HW124407   2.451   2.522   8.475  1.3901 -2.2199  1.9896
 4315SOL    HW224408   2.501   2.511   8.331 -0.7800  0.2146  0.7401
 4316SOL     OW24409   3.221   1.900   5.899 -0.5099 -0.2569 -0.9483
 4316SOL    HW124410   3.176   1.944   5.827  1.4974 -0.2552 -2.1967
 4316SOL    HW224411   3.174   1.946   5.969  3.2890 -1.9384  2.6808
 4317SOL     OW24412   0.727   0.704   7.011 -0.0473  0.1381 -0.3507
 4317SOL    HW124413   0.769   0.645   7.074 -2.3569 -0.3754  0.6862
 4317SOL    HW224414   0.806   0.752   6.984 -1.2873  3.0393  1.2152
 4318SOL     OW24415   0.863   3.701   8.949 -0.4379  0.1249  0.0886
 4318SOL    HW124416   0.847   3.779   9.002  0.8498  0.6082 -0.2265
 4318SOL    HW224417   0.914   3.738   8.878  1.8596 -0.8680  1.1908
 4319SOL     OW24418   1.961   4.633   1.872 -0.1933 -0.2476  0.3308
 4319SOL    HW124419   1.960   0.005   1.884  1.1983 -0.2122  0.1352
 4319SOL    HW224420   2.025   4.610   1.939 -2.0480  0.8121  2.4744
 4320SOL     OW24421   2.414   1.643  14.190  0.0766 -0.1985 -0.0931
 4320SOL    HW124422   2.321   1.663  14.204  0.1989 -0.4925  1.1531
 4320SOL    HW224423   2.420   1.548  14.203  2.2765  0.0994  1.1546
 4321SOL     OW24424   3.824   3.668   6.837  0.3031  0.6788  0.1034
 4321SOL    HW124425   3.835   3.664   6.742  2.6665  0.1753  0.3986
 4321SOL    HW224426   3.809   3.760   6.860  1.3001  0.5597  1.2077
 4322SOL     OW24427   0.126   1.307   0.250 -0.6396 -0.3643  0.1241
 4322SOL    HW124428   0.045   1.295   0.300 -1.5532 -0.3436 -1.3619
 4322SOL    HW224429   0.127   1.222   0.207  1.3686 -0.4168  0.2453
 4323SOL     OW24430   0.859   3.077  17.323 -0.3500  0.3589 -0.0869
 4323SOL    HW124431   0.773   3.093  17.284  0.3633  1.0345 -1.3757
 4323SOL    HW224432   0.892   3.167  17.331  0.5781 -0.0978  1.1657
 4324SOL     OW24433   0.153   4.302   2.886 -0.3908  0.1329 -0.0937
 4324SOL    HW124434   0.196   4.217   2.890  1.7065  1.1677 -0.9050
 4324SOL    HW224435   0.085   4.280   2.821 -0.0312 -0.8265 -0.1523
 4325SOL     OW24436   4.099   3.071   9.696  0.8237 -0.0303 -0.1435
 4325SOL    HW124437   4.046   2.999   9.663  1.4721  0.2613 -1.7877
 4325SOL    HW224438   4.061   3.092   9.782  0.8616 -0.9891  0.1066
 4326SOL     OW24439   1.378   3.794   1.778  0.2737  0.0597  0.1814
 4326SOL    HW124440   1.374   3.779   1.873  3.7595 -2.4947 -0.0906
 4326SOL    HW224441   1.319   3.863   1.748 -1.7243 -1.2617  0.9997
 4327SOL     OW24442   1.414   4.271   7.080  0.0484  0.0369  0.2069
 4327SOL    HW124443   1.392   4.312   7.163  3.2150  0.2461  0.9412
 4327SOL    HW224444   1.498   4.314   7.062 -0.1127  0.2009 -0.1702
 4328SOL     OW24445   3.293   0.063   8.080 -0.2915 -0.0057 -0.1173
 4328SOL    HW124446   3.376   0.079   8.036  0.1127  0.2571  0.7492
 4328SOL    HW224447   3.311   0.065   8.174 -0.8108 -0.2330 -0.0082
 4329SOL     OW24448   1.715   2.854  12.655 -0.2123  0.1421 -0.1183
 4329SOL    HW124449   1.694   2.778  12.601 -0.1888  1.3980 -1.9162
 4329SOL    HW224450   1.645   2.864  12.719 -1.4055 -2.7033 -1.0142
 4330SOL     OW24451   1.266   3.494   2.754 -0.1351  0.1846  0.3741
 4330SOL    HW124452   1.241   3.423   2.695 -0.8693 -2.4277  3.7606
 4330SOL    HW224453   1.329   3.446   2.808  0.7985  1.7768  0.6800
 4331SOL     OW24454   2.259   1.651   4.975  0.1566  0.2397 -0.0212
 4331SOL    HW124455   2.188   1.624   4.916 -0.7869  0.5374  0.9901
 4331SOL    HW224456   2.317   1.575   4.966  1.5546  1.1580  1.3176
 4332SOL     OW24457   1.056   3.379   1.634  0.2410 -0.1765 -0.0626
 4332SOL    HW124458   0.993   3.311   1.657  0.2872 -0.7722 -1.7017
 4332SOL    HW224459   1.123   3.326   1.591  1.2371  0.0690  1.1722
 4333SOL     OW24460   2.887   1.948  11.743 -0.3323 -0.1525 -0.5592
 4333SOL    HW124461   2.933   1.941  11.827 -0.7852  1.9331 -0.1523
 4333SOL    HW224462   2.904   2.040  11.726  3.0895 -0.5562  0.6485
 4334SOL     OW24463   0.426   2.502   9.537  0.4296 -0.3857 -0.0943
 4334SOL    HW124464   0.343   2.549   9.542  1.1598  0.7023  1.6494
 4334SOL    HW224465   0.481   2.547   9.472 -1.1754 -0.2780 -1.3745
 4335SOL     OW24466   2.284   3.540   5.650 -0.7201 -0.3150  0.3470
 4335SOL    HW124467   2.320   3.606   5.710 -2.1173  2.3110 -1.7331
 4335SOL    HW224468   2.222   3.592   5.600 -0.6256  0.2648  0.8295
 4336SOL     OW24469   0.763   3.273   5.668 -0.3497  0.4708 -0.7088
 4336SOL    HW124470   0.784   3.220   5.591 -0.8670  1.3059 -1.4373
 4336SOL    HW224471   0.832   3.336   5.688 -1.3225  1.5818 -0.8411
 4337SOL     OW24472   2.076   1.145   1.701 -0.0699  0.2508 -0.0688
 4337SOL    HW124473   2.092   1.170   1.610  0.5815  0.0260 -0.0130
 4337SOL    HW224474   2.133   1.204   1.749  0.9134 -1.6016  1.0145
 4338SOL     OW24475   3.136   2.088   4.888 -0.2273 -0.2481  0.1189
 4338SOL    HW124476   3.137   2.181   4.867  1.2936 -0.3739 -0.3887
 4338SOL    HW224477   3.054   2.081   4.936 -0.0760 -0.6995  0.3175
 4339SOL     OW24478   4.040   1.984  14.668  0.1000 -0.4316  0.1742
 4339SOL    HW124479   4.068   1.896  14.692  0.2402 -0.3502  0.3094
 4339SOL    HW224480   4.044   1.983  14.573 -1.4504  0.4868  0.0932
 4340SOL     OW24481   4.126   2.010   4.263 -0.9642  0.1070  0.1320
 4340SOL    HW124482   4.080   2.089   4.294  0.4237  1.2465 -0.7226
 4340SOL    HW224483   4.067   1.962   4.205 -1.2657  0.1292  0.4187
 4341SOL     OW24484   3.217   3.037   0.792  0.4021 -0.2114 -0.8332
 4341SOL    HW124485   3.170   3.061   0.712 -0.3983  0.4144 -0.1779
 4341SOL    HW224486   3.176   3.096   0.855 -1.1788 -2.1551 -0.0315
 4342SOL     OW24487   2.588   3.641  15.222 -0.3085 -0.8621 -0.0235
 4342SOL    HW124488   2.521   3.640  15.154 -2.5250  0.1289  2.1594
 4342SOL    HW224489   2.644   3.698  15.169 -0.9874 -0.6572 -0.5222
 4343SOL     OW24490   1.776   2.861   2.419  0.1499  0.1306  0.8080
 4343SOL    HW124491   1.792   2.920   2.345  0.0651 -0.9373 -0.0480
 4343SOL    HW224492   1.864   2.865   2.457 -0.2687  1.5591  1.6430
 4344SOL     OW24493   4.471   3.229   4.459  0.2882 -0.2232 -0.3934
 4344SOL    HW124494   4.548   3.284   4.441  1.4875 -1.9425 -0.5186
 4344SOL    HW224495   4.476   3.239   4.554 -0.0140 -0.1544 -0.3854
 4345SOL     OW24496   4.664   0.210   6.775  0.1395  0.7587 -0.0898
 4345SOL    HW124497   4.662   0.138   6.839 -2.3669  1.2401  0.4010
 4345SOL    HW224498   4.641   0.156   6.700 -1.2713  1.4289 -0.1418
 4346SOL     OW24499   1.023   2.368   7.888  0.1588  0.7814  0.2052
 4346SOL    HW124500   1.005   2.370   7.795 -0.5474  1.6279  0.3616
 4346SOL    HW224501   1.043   2.275   7.890  0.8562  0.9454  1.0668
 4347SOL     OW24502   3.460   0.834  15.024  0.5885  0.2229 -0.5402
 4347SOL    HW124503   3.473   0.807  14.933  2.7889  1.0483 -0.4659
 4347SOL    HW224504   3.391   0.779  15.061  0.1067  0.6207 -0.8494
 4348SOL     OW24505   4.681   4.437   2.719  0.5165 -0.4625  0.4219
 4348SOL    HW124506   0.009   4.458   2.797 -1.2278  0.1920  1.4014
 4348SOL    HW224507   4.594   4.430   2.759 -0.4713 -0.1631 -1.6779
 4349SOL     OW24508   1.214   0.550   5.299 -0.0084  0.0656  0.6017
 4349SOL    HW124509   1.200   0.547   5.394  1.5675 -0.9571  0.8020
 4349SOL    HW224510   1.178   0.465   5.274 -0.8923  1.1667 -1.8551
 4350SOL     OW24511   3.005   2.168   9.502  0.2242  0.2015  0.7149
 4350SOL    HW124512   3.013   2.263   9.495 -0.5578  0.1401 -1.0544
 4350SOL    HW224513   2.923   2.166   9.551 -0.5631  0.9859 -0.5637
 4351SOL     OW24514   4.013   1.284   6.553 -0.0741 -0.1768  0.5553
 4351SOL    HW124515   3.987   1.363   6.601 -0.9679 -0.3919  0.4293
 4351SOL    HW224516   4.100   1.270   6.592 -0.4049 -1.7710  0.6977
 4352SOL     OW24517   1.898   2.080   8.799  0.2982  0.4962  0.3863
 4352SOL    HW124518   1.811   2.060   8.831 -0.7272 -0.6077 -3.0693
 4352SOL    HW224519   1.877   2.115   8.712  1.1900  2.7689  1.1018
 4353SOL     OW24520   3.807   1.404   2.761  0.6981  0.2133  0.9719
 4353SOL    HW124521   3.841   1.335   2.704  0.7354  0.1642  1.0540
 4353SOL    HW224522   3.825   1.378   2.851  1.2667  0.7116  1.0012
 4354SOL     OW24523   2.749   2.192   7.096  0.2581 -0.1296  0.0054
 4354SOL    HW124524   2.839   2.198   7.065  0.2783  1.7354  0.3816
 4354SOL    HW224525   2.750   2.116   7.154 -3.3343 -0.1764  0.0113
 4355SOL     OW24526   2.119   0.852   1.177 -0.2175 -0.3023  0.4464
 4355SOL    HW124527   2.086   0.884   1.261 -0.6896  0.2170  0.0614
 4355SOL    HW224528   2.210   0.879   1.187 -0.5434  1.4098 -1.3633
 4356SOL     OW24529   0.510   0.724   0.063 -0.0385 -0.6545 -0.5653
 4356SOL    HW124530   0.581   0.706   0.124 -0.5859 -3.3048 -0.7285
 4356SOL    HW224531   0.546   0.677  17.682  2.6949  0.1069  0.2859
 4357SOL     OW24532   3.324   0.430   5.100  0.2877 -0.3565 -0.4254
 4357SOL    HW124533   3.267   0.383   5.161  0.0270  1.4504  0.7293
 4357SOL    HW224534   3.271   0.431   5.021  1.0159 -0.3585 -0.9207
 4358SOL     OW24535   3.817   1.415   7.835  0.0576 -0.5832  0.2899
 4358SOL    HW124536   3.825   1.505   7.803 -0.7257  0.4781  3.0803
 4358SOL    HW224537   3.860   1.372   7.761 -1.5140  1.6243 -1.9158
 4359SOL     OW24538   2.034   2.126   7.652 -0.0007 -0.7763 -0.1359
 4359SOL    HW124539   2.094   2.197   7.675 -0.7587  0.3391 -1.5849
 4359SOL    HW224540   2.000   2.153   7.566 -1.1397 -0.8823  0.2906
 4360SOL     OW24541   0.099   4.239   2.294 -0.3115 -0.0230  0.1997
 4360SOL    HW124542   0.074   4.301   2.225  0.3095  0.7763  0.6963
 4360SOL    HW224543   0.106   4.294   2.372 -1.0412  1.0553 -0.4977
 4361SOL     OW24544   3.412   4.079  11.157 -0.0316  0.6634 -0.3599
 4361SOL    HW124545   3.380   4.138  11.225 -0.7361 -2.1193  1.7329
 4361SOL    HW224546   3.369   4.096  11.073 -2.0052  3.0015  1.1141
 4362SOL     OW24547   0.690   3.368   6.687  0.2566 -0.1426  0.3410
 4362SOL    HW124548   0.727   3.375   6.599 -0.3876  1.3111  0.1852
 4362SOL    HW224549   0.604   3.406   6.673  0.4631  1.7631  4.1679
 4363SOL     OW24550   2.036   0.334   5.295  0.2361 -0.7890  0.2388
 4363SOL    HW124551   1.948   0.348   5.260  0.1014 -2.0572  0.0654
 4363SOL    HW224552   2.017   0.288   5.376  1.1538  1.2479  1.6200
 4364SOL     OW24553   0.258   0.210   8.140  0.3047  0.1300 -0.2960
 4364SOL    HW124554   0.319   0.149   8.098 -0.6942 -0.2339 -1.2135
 4364SOL    HW224555   0.196   0.235   8.072  0.0984 -1.1015 -0.5541
 4365SOL     OW24556   3.971   0.454   2.491 -0.2521 -0.3829 -0.2221
 4365SOL    HW124557   3.954   0.527   2.551 -1.2224  1.0293 -2.2179
 4365SOL    HW224558   3.988   0.379   2.548  1.6459  0.6937  0.6149
 4366SOL     OW24559   3.304   0.186   9.159 -0.1472 -0.5799  0.0443
 4366SOL    HW124560   3.385   0.171   9.111  0.1059  1.3986 -0.1440
 4366SOL    HW224561   3.316   0.127   9.233  1.3452 -2.4458 -1.6649
 4367SOL     OW24562   1.023   2.417   9.672  0.4409 -0.1103  0.3577
 4367SOL    HW124563   0.953   2.475   9.701 -0.4000  0.0761 -2.0883
 4367SOL    HW224564   1.095   2.480   9.667  0.4463  0.0672  2.5524
 4368SOL     OW24565   0.286   0.462   5.113 -0.5692 -0.2302  0.3405
 4368SOL    HW124566   0.302   0.486   5.022 -2.4682  0.5053  0.1968
 4368SOL    HW224567   0.312   0.542   5.158 -3.6797  1.4170 -0.7486
 4369SOL     OW24568   1.186   1.446  15.508 -0.3321 -0.2063 -0.2217
 4369SOL    HW124569   1.176   1.540  15.494  1.5945 -0.0728 -0.7366
 4369SOL    HW224570   1.096   1.418  15.525  0.2027 -3.2908 -2.4832
 4370SOL     OW24571   1.931   2.922  12.833 -0.2486  0.0153  0.1698
 4370SOL    HW124572   1.869   2.894  12.766  0.6651  1.3751 -1.2488
 4370SOL    HW224573   1.922   2.855  12.902 -0.3054 -2.1044 -1.8966
 4371SOL     OW24574   2.213   0.220   9.754  0.4326 -0.3096 -0.3115
 4371SOL    HW124575   2.158   0.218   9.832 -1.1581  0.5250 -1.4138
 4371SOL    HW224576   2.272   0.144   9.755 -0.4781 -0.9841  1.5328
 4372SOL     OW24577   1.920   1.829   2.124 -0.1488  0.1513  0.1752
 4372SOL    HW124578   1.979   1.762   2.089  0.6272  1.1261 -0.3867
 4372SOL    HW224579   1.955   1.888   2.057  3.1184  0.0369  1.7861
 4373SOL     OW24580   1.150   1.306  15.880  0.3836 -0.0365 -0.5635
 4373SOL    HW124581   1.090   1.379  15.894  0.8696 -0.0020  1.3077
 4373SOL    HW224582   1.087   1.234  15.884 -0.3735  0.6024 -1.0121
 4374SOL     OW24583   3.280   2.182   2.630  0.0408  0.2933 -0.5543
 4374SOL    HW124584   3.310   2.095   2.656 -1.1758 -0.1767 -0.7207
 4374SOL    HW224585   3.318   2.234   2.701 -1.6196  1.2370 -0.3613
 4375SOL     OW24586   0.220   2.151   7.428  0.4189  0.1278 -0.4070
 4375SOL    HW124587   0.212   2.157   7.333 -2.3048  0.7581 -0.1514
 4375SOL    HW224588   0.261   2.235   7.446 -1.3013  1.0896 -0.9720
 4376SOL     OW24589   0.241   1.303  10.549  0.6606  0.2515 -0.3056
 4376SOL    HW124590   0.315   1.349  10.589  1.9625 -2.1732  0.0363
 4376SOL    HW224591   0.290   1.227  10.518  0.2472 -0.5242  0.9321
 4377SOL     OW24592   0.614   0.218   6.595 -0.1192  0.0648  0.0657
 4377SOL    HW124593   0.567   0.139   6.568  1.4919 -1.3446  1.3515
 4377SOL    HW224594   0.673   0.185   6.662  0.7222 -2.5937 -1.9885
 4378SOL     OW24595   0.733   2.246  11.385 -0.5735 -0.0800 -0.2281
 4378SOL    HW124596   0.702   2.264  11.474  0.6009  0.8576  0.0030
 4378SOL    HW224597   0.785   2.325  11.368 -0.9056 -0.2161 -1.8440
 4379SOL     OW24598   0.362   3.548   6.991  0.5231  0.0274  0.3182
 4379SOL    HW124599   0.271   3.531   7.015 -0.1155 -0.5423 -2.4608
 4379SOL    HW224600   0.369   3.642   7.003  0.1891  0.1591 -0.5225
 4380SOL     OW24601   2.228   3.624   1.179 -0.2668 -0.4927  0.0775
 4380SOL    HW124602   2.321   3.645   1.190 -0.5384  0.7967 -0.0240
 4380SOL    HW224603   2.192   3.671   1.255 -0.0058 -1.6251  0.9053
 4381SOL     OW24604   0.248   1.520   3.753 -0.1721  0.1608 -0.3251
 4381SOL    HW124605   0.284   1.575   3.682  2.1526 -0.9236 -0.0094
 4381SOL    HW224606   0.163   1.562   3.761  0.1992  0.3885  2.3724
 4382SOL     OW24607   3.985   1.682  16.907 -0.1303  0.0223  0.3477
 4382SOL    HW124608   3.970   1.651  16.996  0.0419  1.0417  0.7200
 4382SOL    HW224609   3.943   1.612  16.855  0.8458 -1.5164  1.6346
 4383SOL     OW24610   4.712   1.609   7.533  0.0401 -0.7437  0.5609
 4383SOL    HW124611   4.715   1.645   7.444 -0.5111 -0.0382  0.8229
 4383SOL    HW224612   4.701   1.696   7.573  0.0925  0.8214 -2.7909
 4384SOL     OW24613   3.437   4.207  13.073 -0.5878 -0.4046 -0.3709
 4384SOL    HW124614   3.520   4.214  13.119 -0.8758  1.1997 -0.1196
 4384SOL    HW224615   3.366   4.211  13.137  0.6543  0.9752  0.9227
 4385SOL     OW24616   3.287   4.034   9.353  0.3894 -0.0146  0.2138
 4385SOL    HW124617   3.215   4.086   9.390  0.9617  0.8904  0.0497
 4385SOL    HW224618   3.242   3.976   9.291  1.1044  1.2170 -1.4650
 4386SOL     OW24619   3.892   3.189   9.923  0.2831  0.3064 -0.3673
 4386SOL    HW124620   3.934   3.276   9.920  1.0580 -0.0761 -0.6066
 4386SOL    HW224621   3.816   3.226   9.968 -1.1019 -0.8351 -1.8046
 4387SOL     OW24622   2.251   4.139   7.719 -0.1042 -0.0998 -0.4724
 4387SOL    HW124623   2.340   4.111   7.702  1.4095  1.6450  4.4267
 4387SOL    HW224624   2.263   4.234   7.713 -2.7050  0.2529 -0.0499
 4388SOL     OW24625   2.239   0.737  13.028  0.1587  0.7830 -0.1041
 4388SOL    HW124626   2.229   0.642  13.040  2.8836  0.4031 -0.8673
 4388SOL    HW224627   2.159   0.763  12.983  0.0608  2.0950  0.8118
 4389SOL     OW24628   4.081   0.175   8.009  0.1484  0.4346  0.4121
 4389SOL    HW124629   4.020   0.121   8.059  2.8913 -1.8727  1.3490
 4389SOL    HW224630   4.141   0.186   8.083  0.2236  1.5032  0.1855
 4390SOL     OW24631   3.304   0.270   4.389 -0.5474 -0.3562  0.2011
 4390SOL    HW124632   3.278   0.333   4.322 -1.2951 -0.5269  0.3346
 4390SOL    HW224633   3.227   0.238   4.434 -1.1029 -0.8847 -1.1174
 4391SOL     OW24634   3.166   4.562   2.542 -0.8840 -0.7804 -0.2726
 4391SOL    HW124635   3.191   4.487   2.489  2.1650  0.1807 -0.2194
 4391SOL    HW224636   3.250   4.603   2.562 -0.9492 -0.9298  0.3057
 4392SOL     OW24637   0.550   1.698   9.099 -0.4618  0.1177 -0.4928
 4392SOL    HW124638   0.463   1.677   9.065 -0.0435 -0.2589 -1.3527
 4392SOL    HW224639   0.579   1.775   9.049  0.3420 -0.6484 -1.2219
 4393SOL     OW24640   3.579   1.047   5.630 -0.2483  0.8346 -0.3192
 4393SOL    HW124641   3.516   1.110   5.665  0.6115  1.4113  0.1780
 4393SOL    HW224642   3.579   0.974   5.693 -0.5799  0.1834 -1.0768
 4394SOL     OW24643   3.805   0.114   1.903  0.2286 -0.2809 -0.2375
 4394SOL    HW124644   3.768   0.174   1.967 -1.3565 -0.6379 -0.8254
 4394SOL    HW224645   3.719   0.092   1.867  0.3970 -0.7405 -0.3601
 4395SOL     OW24646   4.153   0.594  12.421  0.2188  0.1140  0.6137
 4395SOL    HW124647   4.192   0.662  12.477 -1.2996  1.6461 -0.1671
 4395SOL    HW224648   4.217   0.528  12.446  0.4705  0.0011 -0.3594
 4396SOL     OW24649   4.041   4.587  17.386  0.3068 -0.0842 -0.3086
 4396SOL    HW124650   4.046   4.626  17.473 -0.2185  1.4496 -0.9771
 4396SOL    HW224651   3.961   4.627  17.352 -0.2605  1.2016  2.5212
 4397SOL     OW24652   2.606   4.227   8.852 -0.4161 -0.0464 -0.2895
 4397SOL    HW124653   2.530   4.180   8.820 -0.2265 -1.3990  1.2655
 4397SOL    HW224654   2.612   4.279   8.772  1.0554 -0.8785 -0.7151
 4398SOL     OW24655   4.338   0.493   5.336 -0.4276 -0.0145  0.1725
 4398SOL    HW124656   4.302   0.408   5.360 -0.1668 -0.7155 -1.8768
 4398SOL    HW224657   4.360   0.531   5.421 -1.2731  1.2421 -0.1640
 4399SOL     OW24658   0.288   2.289   1.624 -0.4054 -0.1039 -0.5924
 4399SOL    HW124659   0.374   2.249   1.623 -0.9682 -1.3226  0.4052
 4399SOL    HW224660   0.258   2.294   1.715 -0.0992 -0.1101 -0.4916
 4400SOL     OW24661   3.004   0.276   9.101 -0.6658  0.1401 -0.4593
 4400SOL    HW124662   2.918   0.265   9.142 -0.9065  0.7512 -0.8108
 4400SOL    HW224663   3.054   0.325   9.167 -0.6487  0.5074 -0.7476
 4401SOL     OW24664   3.720   2.306   9.374 -0.2775 -0.3281 -0.1737
 4401SOL    HW124665   3.733   2.238   9.440 -2.2540  0.4230  0.9691
 4401SOL    HW224666   3.794   2.285   9.316 -0.2798 -0.7147 -0.0368
 4402SOL     OW24667   2.663   3.237   3.971 -0.1726  0.5753 -0.1672
 4402SOL    HW124668   2.646   3.330   3.985  4.1743  1.4499 -0.5226
 4402SOL    HW224669   2.612   3.201   4.043  1.6805 -0.5769  0.5841
 4403SOL     OW24670   2.491   4.200   9.202 -0.0772 -0.5959 -0.3094
 4403SOL    HW124671   2.436   4.144   9.147 -1.3140 -1.7687  2.1392
 4403SOL    HW224672   2.435   4.273   9.226  1.9898  0.9376 -0.1729
 4404SOL     OW24673   1.895   2.481   7.346 -0.0778 -0.6712 -0.1181
 4404SOL    HW124674   1.940   2.519   7.421 -1.6604 -0.7202  0.8734
 4404SOL    HW224675   1.972   2.459   7.293  0.6681  2.6004 -0.3486
 4405SOL     OW24676   2.147   0.073  14.944 -0.5360  0.0809  0.0235
 4405SOL    HW124677   2.072   0.069  14.884 -0.9581 -0.0658  0.5637
 4405SOL    HW224678   2.139   0.160  14.983 -1.5083 -0.5867  1.2806
 4406SOL     OW24679   1.021   1.793   5.300  0.4996 -0.1470 -0.3114
 4406SOL    HW124680   1.032   1.772   5.208 -2.2968 -1.5264 -0.3331
 4406SOL    HW224681   0.929   1.775   5.317  0.5355  2.6966  2.8915
 4407SOL     OW24682   2.616   1.245   4.777  0.1083  0.3534  0.3991
 4407SOL    HW124683   2.682   1.302   4.817 -1.1773  0.7913  1.8784
 4407SOL    HW224684   2.607   1.280   4.689  0.8912 -0.0394  0.1576
 4408SOL     OW24685   4.720   0.671   0.393 -0.2609 -0.1759 -0.7214
 4408SOL    HW124686   0.045   0.591   0.371  2.0215  0.7201  1.0804
 4408SOL    HW224687   4.669   0.640   0.468  2.3918  0.0820  1.1823
 4409SOL     OW24688   1.685   3.947  16.313  0.0167  0.0759 -0.2163
 4409SOL    HW124689   1.748   3.928  16.244  1.3380 -1.9369  1.5743
 4409SOL    HW224690   1.745   3.984  16.378  1.0560  0.4977 -1.4226
 4410SOL     OW24691   3.262   2.982   5.793  0.3538 -0.3805 -0.1270
 4410SOL    HW124692   3.300   3.055   5.744 -1.9737  1.8347  1.3857
 4410SOL    HW224693   3.337   2.948   5.842 -1.3586 -0.8811  2.1713
 4411SOL     OW24694   1.102   2.335   6.981 -0.2004 -0.2049  0.1125
 4411SOL    HW124695   1.097   2.421   7.022  1.3493  0.3063 -0.7594
 4411SOL    HW224696   1.185   2.295   7.006 -0.4148 -0.9373 -0.3470
 4412SOL     OW24697   2.727   4.083   9.162 -0.2800 -0.4284 -0.4251
 4412SOL    HW124698   2.769   4.095   9.077  1.8353  1.5645  0.8881
 4412SOL    HW224699   2.643   4.129   9.158 -0.9235 -1.4465  1.4957
 4413SOL     OW24700   3.970   1.670  15.755  0.5395 -1.0076 -0.1680
 4413SOL    HW124701   3.965   1.728  15.679 -1.0662 -0.8885  0.0321
 4413SOL    HW224702   3.877   1.658  15.773  0.3041  0.1128 -0.6072
 4414SOL     OW24703   3.222   0.727  16.622  0.2731 -0.2651  0.0071
 4414SOL    HW124704   3.251   0.637  16.608 -1.5101 -0.5693 -1.5928
 4414SOL    HW224705   3.155   0.707  16.687  0.1101  0.5495  0.0940
 4415SOL     OW24706   3.909   2.434   2.014  0.1929 -0.2098 -0.1654
 4415SOL    HW124707   3.840   2.497   2.035  1.6676  1.1576  0.6653
 4415SOL    HW224708   3.859   2.362   1.976  0.3115 -0.1941 -0.3517
 4416SOL     OW24709   0.998   2.852   2.362  0.2656  0.1899 -0.2775
 4416SOL    HW124710   1.057   2.799   2.308 -0.7592  0.7056 -1.9154
 4416SOL    HW224711   0.967   2.785   2.422  0.2491  2.3266  2.0758
 4417SOL     OW24712   3.107   1.691  10.935 -0.1210 -0.0742 -0.1364
 4417SOL    HW124713   3.187   1.690  10.987  0.7324 -0.7023 -1.4898
 4417SOL    HW224714   3.070   1.603  10.947  0.7009 -0.2804  0.9030
 4418SOL     OW24715   2.670   3.770  12.426 -0.2352  0.1285 -0.0454
 4418SOL    HW124716   2.759   3.803  12.415  0.0961 -0.4290  0.9325
 4418SOL    HW224717   2.685   3.675  12.419  0.9825  0.3825 -0.8998
 4419SOL     OW24718   2.003   4.376   6.433 -0.1850  0.2525 -0.1160
 4419SOL    HW124719   1.977   4.465   6.410 -1.3112  0.0773  0.5185
 4419SOL    HW224720   1.916   4.337   6.439  0.2819 -1.2485 -2.7438
 4420SOL     OW24721   3.928   3.484   9.678 -0.2722 -0.2217  0.0641
 4420SOL    HW124722   3.843   3.524   9.659 -0.8707 -1.2941  0.4938
 4420SOL    HW224723   3.917   3.395   9.643 -4.0746 -0.6348  2.3096
 4421SOL     OW24724   0.456   3.518  13.521 -0.2664 -0.2228  0.5765
 4421SOL    HW124725   0.371   3.473  13.517 -0.2360  0.0144 -2.9829
 4421SOL    HW224726   0.452   3.552  13.610 -1.8326 -0.4059  0.5758
 4422SOL     OW24727   3.453   3.608   2.188 -0.2201  0.6466  0.5799
 4422SOL    HW124728   3.535   3.623   2.140 -0.0233  0.2465  0.7913
 4422SOL    HW224729   3.384   3.636   2.128 -0.5198 -1.6210 -0.1389
 4423SOL     OW24730   0.682   4.026  12.759  0.0431  0.5044 -0.4397
 4423SOL    HW124731   0.695   4.015  12.665 -1.4102  0.9717 -0.6905
 4423SOL    HW224732   0.658   3.938  12.787 -2.7257  1.6902  0.9376
 4424SOL     OW24733   4.228   3.415   3.299 -0.5097 -0.0615 -0.2365
 4424SOL    HW124734   4.308   3.434   3.349  0.9860 -0.2221 -2.5378
 4424SOL    HW224735   4.182   3.366   3.367  1.9758 -0.7071  0.9909
 4425SOL     OW24736   1.046   4.205   6.705  0.4422  0.2961 -0.6727
 4425SOL    HW124737   1.013   4.219   6.617 -0.4199  0.5320 -0.3074
 4425SOL    HW224738   1.060   4.297   6.726  0.3937 -0.2863  2.0032
 4426SOL     OW24739   0.316   1.741  17.184 -0.2025  0.2703  0.2394
 4426SOL    HW124740   0.297   1.651  17.158  0.5727 -0.3260  1.8063
 4426SOL    HW224741   0.394   1.732  17.237  0.7973  1.0089 -1.0990
 4427SOL     OW24742   2.479   2.997  10.278 -0.4570 -0.4348 -0.2285
 4427SOL    HW124743   2.562   2.951  10.288 -0.6921 -0.9784 -0.7820
 4427SOL    HW224744   2.505   3.088  10.289 -0.9868 -0.2982 -0.1055
 4428SOL     OW24745   4.640   0.165   5.527  0.8806 -0.3043 -0.8555
 4428SOL    HW124746   4.650   0.241   5.585  1.5004 -0.1499 -1.1683
 4428SOL    HW224747   0.002   0.122   5.526  1.9306  1.7824 -0.7971
 4429SOL     OW24748   2.485   4.006   7.632 -0.3973 -0.2063  0.6252
 4429SOL    HW124749   2.496   3.916   7.600 -0.3264 -0.0911  0.3186
 4429SOL    HW224750   2.477   4.039   7.542  1.9690 -0.9181  0.1664
 4430SOL     OW24751   2.641   3.599   8.013  0.0419 -0.3794  0.1423
 4430SOL    HW124752   2.569   3.661   8.020  1.3820  1.2882 -0.9322
 4430SOL    HW224753   2.725   3.643   8.024 -0.2750  0.2909 -0.1386
 4431SOL     OW24754   3.883   0.652  10.457  0.1120 -0.2940  0.1077
 4431SOL    HW124755   3.942   0.664  10.383 -0.4977 -1.3390 -0.5470
 4431SOL    HW224756   3.863   0.559  10.451 -1.9572  0.2830 -1.7563
 4432SOL     OW24757   2.833   3.122   5.214 -0.0191  0.3804  0.3534
 4432SOL    HW124758   2.848   3.047   5.273 -0.4592  0.5845  0.7258
 4432SOL    HW224759   2.901   3.184   5.243  0.3800  0.1129 -0.0115
 4433SOL     OW24760   1.415   3.639   6.975  0.1153  0.0332  0.1224
 4433SOL    HW124761   1.341   3.680   7.019 -0.0174  0.5861 -0.6201
 4433SOL    HW224762   1.481   3.640   7.044  0.1733  2.6294  0.0062
 4434SOL     OW24763   0.817   3.915   5.358 -0.6574  0.1380  0.3505
 4434SOL    HW124764   0.756   3.851   5.322  2.0340 -1.8817 -0.7096
 4434SOL    HW224765   0.798   3.992   5.304  1.2320  0.0875 -0.4078
 4435SOL     OW24766   0.907   0.455   6.576 -0.3462 -0.1894 -0.3053
 4435SOL    HW124767   0.873   0.538   6.543 -0.4222  1.0603  2.8830
 4435SOL    HW224768   0.918   0.472   6.670  3.0765 -2.2500 -0.2972
 4436SOL     OW24769   3.271   0.747   9.267  0.3874  0.6072  0.0982
 4436SOL    HW124770   3.326   0.668   9.266  1.2779  1.2319  0.0572
 4436SOL    HW224771   3.291   0.787   9.351  2.1342  1.5751 -0.7658
 4437SOL     OW24772   0.076   3.217   8.400 -0.4518 -0.1664  0.0732
 4437SOL    HW124773   0.171   3.212   8.407 -0.5332 -3.4725 -1.1996
 4437SOL    HW224774   0.067   3.297   8.452  1.6378  0.2360 -0.1962
 4438SOL     OW24775   2.294   1.702   5.344 -0.3316  0.4905  0.1747
 4438SOL    HW124776   2.282   1.613   5.311 -0.0335 -0.1632  1.8709
 4438SOL    HW224777   2.269   1.761   5.272  1.3821  1.9777  0.8022
 4439SOL     OW24778   3.871   2.152   3.723 -0.0566 -0.4714 -0.4710
 4439SOL    HW124779   3.881   2.121   3.632  0.9821  1.0092 -0.8614
 4439SOL    HW224780   3.799   2.094   3.748 -0.1381 -0.1811 -0.0442
 4440SOL     OW24781   1.481   1.991   5.568 -0.5573 -0.4215 -0.5106
 4440SOL    HW124782   1.407   1.941   5.534  0.7988 -0.4254 -3.4103
 4440SOL    HW224783   1.428   2.052   5.620 -0.0828 -0.3614 -0.0949
 4441SOL     OW24784   0.472   2.422  13.396  0.5006  0.2653 -0.5245
 4441SOL    HW124785   0.507   2.339  13.430 -0.7182  0.5733  1.4962
 4441SOL    HW224786   0.521   2.431  13.314  1.3269 -0.1344 -0.0743
 4442SOL     OW24787   3.344   0.411   2.415  0.1837  0.1900 -0.2998
 4442SOL    HW124788   3.295   0.337   2.450  1.0191 -0.6779 -0.9626
 4442SOL    HW224789   3.375   0.382   2.330 -1.3650  0.7715 -1.0506
 4443SOL     OW24790   3.649   2.550  14.898 -0.5903 -0.4585 -0.6682
 4443SOL    HW124791   3.730   2.594  14.924 -2.7049  2.1438  1.5123
 4443SOL    HW224792   3.612   2.630  14.859  1.4112  0.3833 -0.8612
 4444SOL     OW24793   2.266   2.875   5.784  0.2591  0.1672 -0.1484
 4444SOL    HW124794   2.217   2.937   5.837  0.9694  0.3776  0.2674
 4444SOL    HW224795   2.241   2.789   5.818 -0.6198 -0.1843 -1.6844
 4445SOL     OW24796   2.396   3.192  15.523  0.1750  0.2170  0.0671
 4445SOL    HW124797   2.302   3.198  15.507  0.0309  1.6911  1.3781
 4445SOL    HW224798   2.416   3.101  15.503 -1.6891 -0.0743 -0.4245
 4446SOL     OW24799   2.556   1.645  16.378  0.5205 -0.2084  0.0575
 4446SOL    HW124800   2.566   1.734  16.344  1.2615  0.1225  1.1189
 4446SOL    HW224801   2.628   1.603  16.332  0.6406 -0.1810  0.2175
 4447SOL     OW24802   0.128   3.953   2.116 -0.2980  0.2041  0.0456
 4447SOL    HW124803   0.058   3.888   2.106 -1.7899  2.1004 -1.6863
 4447SOL    HW224804   0.152   3.947   2.208  1.3379 -0.1030 -0.3993
 4448SOL     OW24805   1.491   4.623   7.019  0.1157 -0.1949 -0.5278
 4448SOL    HW124806   1.542   4.665   7.088 -0.0252 -1.2102  0.1894
 4448SOL    HW224807   1.559   4.591   6.960  1.2585  0.6841  0.2981
 4449SOL     OW24808   0.988   1.497   4.642 -0.2545 -0.1862 -0.2416
 4449SOL    HW124809   0.975   1.432   4.711 -1.6028 -0.9381 -1.1977
 4449SOL    HW224810   0.918   1.485   4.578 -0.3216 -0.6545 -0.0780
 4450SOL     OW24811   4.109   4.672  15.375  0.5694 -0.6469 -0.0307
 4450SOL    HW124812   4.184   4.619  15.402  1.9635  0.1691 -2.3616
 4450SOL    HW224813   4.042   4.650  15.439  0.5637 -3.0921 -0.8904
 4451SOL     OW24814   1.451   0.598   7.144 -0.2222  0.4041 -0.1672
 4451SOL    HW124815   1.486   0.660   7.080  0.3996 -0.4162 -0.6277
 4451SOL    HW224816   1.510   0.526   7.121 -0.1321  0.8269 -1.2664
 4452SOL     OW24817   3.561   1.398   8.232  0.6765  0.4496  0.0013
 4452SOL    HW124818   3.487   1.430   8.180  1.8390 -1.5360 -2.9034
 4452SOL    HW224819   3.633   1.441   8.185 -1.4429  1.0212 -2.7741
 4453SOL     OW24820   0.325   2.609   8.681 -0.0512  0.3108  0.4133
 4453SOL    HW124821   0.379   2.601   8.760  0.0325 -1.8231  0.1344
 4453SOL    HW224822   0.254   2.661   8.718  1.4919  1.2977  1.9762
 4454SOL     OW24823   2.533   3.454   6.670  0.4366 -0.2254 -0.5118
 4454SOL    HW124824   2.558   3.526   6.612 -0.7290 -0.8062 -1.7377
 4454SOL    HW224825   2.484   3.513   6.728 -1.0006 -1.7547 -0.1649
 4455SOL     OW24826   1.565   4.448  12.016  0.4511  0.4239 -0.4696
 4455SOL    HW124827   1.653   4.421  12.041  0.7032  2.4717  0.9006
 4455SOL    HW224828   1.529   4.471  12.102  1.3952 -1.3049  0.3709
 4456SOL     OW24829   2.748   0.165   0.248  0.8868  0.0682  0.0048
 4456SOL    HW124830   2.726   0.124   0.164  2.3084  1.0075 -0.8384
 4456SOL    HW224831   2.765   0.253   0.214  3.1477  0.1210  1.2780
 4457SOL     OW24832   0.567   0.972   3.808  0.3994  0.2223 -0.0264
 4457SOL    HW124833   0.534   0.883   3.824 -0.3299 -0.0637 -2.9737
 4457SOL    HW224834   0.626   0.984   3.882  1.0371  0.7041 -0.6118
 4458SOL     OW24835   4.619   2.257  16.494 -0.0804  0.1011 -0.0662
 4458SOL    HW124836   4.607   2.201  16.418  0.5381 -0.7978  0.4987
 4458SOL    HW224837   4.708   2.289  16.484 -0.6220  1.5666 -0.1331
 4459SOL     OW24838   4.561   3.611   2.578 -0.3940 -0.1157  0.4226
 4459SOL    HW124839   4.604   3.550   2.637 -0.7339 -2.6859 -1.9633
 4459SOL    HW224840   4.468   3.590   2.581  0.0101 -1.5723  2.1418
 4460SOL     OW24841   4.537   2.514  14.897  0.3991 -0.4449 -0.4742
 4460SOL    HW124842   4.478   2.474  14.961 -0.6669  1.4451 -0.2859
 4460SOL    HW224843   4.478   2.587  14.879  2.6640  2.0302  2.1638
 4461SOL     OW24844   1.462   1.691  14.486  0.1913  0.6340 -0.0593
 4461SOL    HW124845   1.463   1.660  14.577 -2.9737  1.4796  0.2965
 4461SOL    HW224846   1.554   1.697  14.464  1.2297  1.2180  4.3245
 4462SOL     OW24847   1.160   2.648   2.213 -0.2904 -0.5484  0.4647
 4462SOL    HW124848   1.231   2.653   2.148  0.0962 -2.2346  0.7479
 4462SOL    HW224849   1.096   2.663   2.143 -0.1903 -0.5493  0.3717
 4463SOL     OW24850   2.459   3.047   3.423 -0.1732 -0.3749  0.2802
 4463SOL    HW124851   2.424   3.104   3.492  3.0795  0.9843  0.7764
 4463SOL    HW224852   2.538   3.007   3.457 -1.0541  0.4227  3.3081
 4464SOL     OW24853   3.212   1.338   5.555 -0.1581  0.5371 -0.2831
 4464SOL    HW124854   3.198   1.404   5.488 -1.0888  1.9151  1.2748
 4464SOL    HW224855   3.221   1.262   5.497 -1.2495  0.0471  0.1945
 4465SOL     OW24856   3.860   3.649  15.727 -0.1258  0.3463  0.1900
 4465SOL    HW124857   3.866   3.640  15.631 -0.4681 -3.7791  0.5597
 4465SOL    HW224858   3.788   3.712  15.737 -1.7159 -1.1365 -1.7596
 4466SOL     OW24859   4.529   3.879  14.695 -0.1779 -0.2513 -0.1934
 4466SOL    HW124860   4.551   3.969  14.718 -0.8526  0.0890 -0.8754
 4466SOL    HW224861   4.448   3.863  14.744  1.3582 -1.4335  1.9266
 4467SOL     OW24862   0.524   0.984   8.334  0.1266 -0.1432 -0.0638
 4467SOL    HW124863   0.558   0.989   8.423  2.9131 -0.2262 -1.1286
 4467SOL    HW224864   0.475   1.067   8.333 -0.0835 -0.2581  1.0163
 4468SOL     OW24865   0.712   3.781   8.627  0.2144 -0.2006 -0.3707
 4468SOL    HW124866   0.716   3.689   8.653  2.1550  0.3249  1.1863
 4468SOL    HW224867   0.618   3.797   8.637  0.3057  0.2572 -0.2434
 4469SOL     OW24868   4.423   2.246   3.252 -0.0092 -0.2105 -0.3612
 4469SOL    HW124869   4.431   2.185   3.179 -0.2779 -2.1311  1.1950
 4469SOL    HW224870   4.329   2.237   3.267 -0.6996  3.5156 -2.6445
 4470SOL     OW24871   1.103   3.817  11.303  0.2762 -0.0106 -0.4381
 4470SOL    HW124872   1.026   3.848  11.256 -0.9854 -2.4697 -0.0062
 4470SOL    HW224873   1.158   3.895  11.292 -0.1857  0.7339  2.3783
 4471SOL     OW24874   2.858   3.709   6.178  0.3408 -0.1701  0.4837
 4471SOL    HW124875   2.827   3.785   6.129  0.4385  0.9107  2.1398
 4471SOL    HW224876   2.892   3.662   6.101 -0.4942  1.9103 -1.1537
 4472SOL     OW24877   2.248   2.802   3.049  0.0898 -0.5067 -0.0439
 4472SOL    HW124878   2.299   2.875   3.086  1.1030 -1.2427  0.0351
 4472SOL    HW224879   2.269   2.728   3.105 -1.7065  0.6085  2.1019
 4473SOL     OW24880   3.169   1.059   2.820  0.0855  0.0782 -0.1714
 4473SOL    HW124881   3.109   1.103   2.879 -0.3008 -0.0975 -0.4314
 4473SOL    HW224882   3.128   0.974   2.805 -1.3455  0.3060  2.4590
 4474SOL     OW24883   2.444   1.585   2.045  0.4252  0.1245  0.4077
 4474SOL    HW124884   2.367   1.530   2.060  0.8649 -0.6295 -0.1299
 4474SOL    HW224885   2.407   1.640   1.976  2.2077 -0.1884 -0.7915
 4475SOL     OW24886   2.741   3.051  16.784 -0.2013  0.8964  0.5114
 4475SOL    HW124887   2.664   3.013  16.743  0.9258  0.3408 -1.0923
 4475SOL    HW224888   2.791   2.974  16.810 -0.5534  0.2328 -0.7474
 4476SOL     OW24889   4.589   4.117   2.433  0.0551  0.4048  0.1761
 4476SOL    HW124890   4.662   4.141   2.377 -0.5832 -2.5296 -1.9069
 4476SOL    HW224891   4.515   4.157   2.387 -1.0759 -2.0144 -0.1278
 4477SOL     OW24892   4.708   0.668   3.460 -0.1560  0.6096  0.3433
 4477SOL    HW124893   4.681   0.658   3.368  4.1207 -1.6528 -0.6860
 4477SOL    HW224894   0.077   0.645   3.459  0.3051  2.4860 -2.9334
 4478SOL     OW24895   3.392   2.380   8.846  0.5683 -0.0682  0.1049
 4478SOL    HW124896   3.488   2.379   8.846  0.5813  1.6130  0.5648
 4478SOL    HW224897   3.384   2.334   8.929 -0.0488 -0.3260 -0.0950
 4479SOL     OW24898   2.650   0.696   3.703 -0.9243  0.7778  0.9564
 4479SOL    HW124899   2.597   0.626   3.742  1.0171 -0.2258  1.7994
 4479SOL    HW224900   2.642   0.755   3.778  0.5713  1.3910  0.6131
 4480SOL     OW24901   3.777   2.992  11.622 -0.0879 -0.1302 -0.5116
 4480SOL    HW124902   3.685   3.003  11.597  0.1328  0.3582 -1.1027
 4480SOL    HW224903   3.798   2.899  11.610  0.0055 -0.2172  0.3621
 4481SOL     OW24904   3.416   1.484   3.132 -0.2115  0.4658  0.7001
 4481SOL    HW124905   3.488   1.540   3.102 -1.2206  0.1977 -2.2012
 4481SOL    HW224906   3.376   1.459   3.048  0.4768  1.8429 -0.0363
 4482SOL     OW24907   1.045   0.428   8.116  0.1260 -0.3446 -0.0719
 4482SOL    HW124908   0.979   0.368   8.081  0.2159  0.7473 -2.1482
 4482SOL    HW224909   1.130   0.405   8.079  0.0065  0.5521 -0.9202
 4483SOL     OW24910   1.790   3.669   3.976  0.6573  0.2863 -0.1745
 4483SOL    HW124911   1.736   3.739   3.940 -0.1852  0.1663  0.8357
 4483SOL    HW224912   1.724   3.600   3.966 -0.5069  1.1039  1.6973
 4484SOL     OW24913   4.053   2.871  11.558 -0.5018  0.3505  0.1393
 4484SOL    HW124914   4.052   2.892  11.465  0.1533  0.6932  0.2138
 4484SOL    HW224915   4.042   2.777  11.572 -0.5685  0.6414  2.0550
 4485SOL     OW24916   4.136   0.159   2.984 -0.2887  0.3159  0.6858
 4485SOL    HW124917   4.170   0.234   3.033 -1.4996  0.3651  1.4490
 4485SOL    HW224918   4.046   0.152   3.017 -0.6790  3.2015  0.2109
 4486SOL     OW24919   0.766   0.794   7.653 -0.8391 -0.5860  0.3009
 4486SOL    HW124920   0.694   0.731   7.649 -0.1763 -1.1851 -1.7668
 4486SOL    HW224921   0.823   0.750   7.716  1.2938  2.3518  0.4106
 4487SOL     OW24922   4.569   4.529   0.291 -0.2502 -0.1184  0.3394
 4487SOL    HW124923   4.498   4.552   0.231  0.6703  3.5679  0.6726
 4487SOL    HW224924   4.543   4.438   0.309 -1.1812  0.5689  2.4169
 4488SOL     OW24925   1.990   0.353  15.843 -0.1672 -0.6155 -0.4108
 4488SOL    HW124926   1.952   0.387  15.925  2.4453  0.8824  0.1773
 4488SOL    HW224927   1.934   0.276  15.840 -0.7041 -0.2307 -0.2883
 4489SOL     OW24928   3.226   0.348  13.522  0.8836 -0.3560 -1.1542
 4489SOL    HW124929   3.207   0.285  13.453 -0.9680 -0.3083 -0.6924
 4489SOL    HW224930   3.310   0.314  13.554  0.8143  0.6422  0.0808
 4490SOL     OW24931   0.971   1.579   5.829  0.2346 -0.2126 -0.4567
 4490SOL    HW124932   0.903   1.537   5.777  0.7899 -0.7020 -0.7798
 4490SOL    HW224933   1.026   1.603   5.755 -0.2838  0.9818 -0.4557
 4491SOL     OW24934   0.256   1.759   7.377 -0.4643  0.4431 -0.1749
 4491SOL    HW124935   0.229   1.674   7.343  1.1553  0.6080 -1.8537
 4491SOL    HW224936   0.321   1.727   7.439 -1.2704 -1.8518 -0.5119
 4492SOL     OW24937   4.552   1.879  16.087  0.2835 -0.0212 -0.3146
 4492SOL    HW124938   4.539   1.787  16.063  2.3412 -0.7443  1.2576
 4492SOL    HW224939   4.533   1.883  16.181 -0.6961  2.0699 -0.6056
 4493SOL     OW24940   1.976   4.069   8.814 -0.0876 -0.3524  0.4748
 4493SOL    HW124941   1.893   4.113   8.795 -0.0382  0.7044  2.7675
 4493SOL    HW224942   1.998   4.029   8.730  0.2534 -1.2879  1.0102
 4494SOL     OW24943   4.522   1.066   6.390  0.3666  0.3705  0.2698
 4494SOL    HW124944   4.517   0.970   6.388 -4.9890  0.6224  1.4415
 4494SOL    HW224945   4.571   1.076   6.472 -0.5102  1.1696  0.6920
 4495SOL     OW24946   3.580   0.700   0.307  0.2012 -0.5671 -0.0248
 4495SOL    HW124947   3.532   0.707   0.224 -2.6390 -2.2382  1.4817
 4495SOL    HW224948   3.563   0.786   0.345  2.1061 -0.7834  1.3100
 4496SOL     OW24949   1.760   1.450   3.054  0.0319 -0.1015  0.4845
 4496SOL    HW124950   1.834   1.443   3.114 -0.0154 -0.1884  0.5319
 4496SOL    HW224951   1.727   1.360   3.048  3.0125 -1.1519 -0.3966
 4497SOL     OW24952   0.405   3.363   4.916  0.2674 -0.3446  0.4376
 4497SOL    HW124953   0.446   3.342   5.000 -2.8546  0.6580  2.1995
 4497SOL    HW224954   0.331   3.302   4.916  1.0699 -1.3323  0.0494
 4498SOL     OW24955   2.504   3.491   5.499  0.3730  0.5354  0.1476
 4498SOL    HW124956   2.542   3.579   5.498  0.9312  0.2976  0.5770
 4498SOL    HW224957   2.427   3.497   5.555  1.0207 -1.3250  1.2469
 4499SOL     OW24958   4.227   1.293   7.618  0.0792 -0.2468  0.1250
 4499SOL    HW124959   4.246   1.249   7.535 -1.2810 -1.1627  0.2932
 4499SOL    HW224960   4.315   1.318   7.644 -0.5363  4.1462 -1.9810
 4500SOL     OW24961   0.164   0.757   1.921 -0.6956 -0.1841 -0.4378
 4500SOL    HW124962   0.258   0.738   1.923 -0.8446 -0.9245 -0.2916
 4500SOL    HW224963   0.129   0.680   1.967 -1.7958  0.7087  0.1994
 4501SOL     OW24964   2.841   3.958   1.854 -0.5176  0.6098  0.0143
 4501SOL    HW124965   2.886   4.008   1.922 -0.0926 -1.0010  0.9222
 4501SOL    HW224966   2.922   3.935   1.810 -0.7541 -0.0169 -0.0976
 4502SOL     OW24967   0.037   1.280   8.986  0.0361  0.3245 -0.3591
 4502SOL    HW124968   0.061   1.289   8.894  0.2966 -0.3129 -0.3520
 4502SOL    HW224969   0.096   1.353   9.006 -0.1761  0.5938 -0.7000
 4503SOL     OW24970   3.133   2.898   6.546  0.3186  0.3045  0.1021
 4503SOL    HW124971   3.085   2.941   6.617 -1.4951  0.6982 -1.3596
 4503SOL    HW224972   3.079   2.924   6.472  0.1612  0.2389  0.1926
 4504SOL     OW24973   0.694   3.267   3.935 -0.0556  0.7818  0.8992
 4504SOL    HW124974   0.756   3.198   3.911 -0.2453  0.6932  0.6590
 4504SOL    HW224975   0.661   3.230   4.016 -0.7211 -0.0411  0.2618
 4505SOL     OW24976   0.622   3.886  15.289  0.1073 -0.5464 -0.2422
 4505SOL    HW124977   0.593   3.949  15.355 -1.4455 -2.0105  0.4707
 4505SOL    HW224978   0.538   3.844  15.269 -0.5547 -0.3307  2.0083
 4506SOL     OW24979   2.108   3.258   5.795  0.1661 -0.3844 -0.0597
 4506SOL    HW124980   2.192   3.259   5.842 -0.7061  1.3350  1.4440
 4506SOL    HW224981   2.139   3.237   5.707  1.0764  0.5137  0.0468
 4507SOL     OW24982   1.900   2.507  13.203  0.2609 -0.6092  0.4005
 4507SOL    HW124983   1.948   2.574  13.153 -1.6011  0.4283 -0.0378
 4507SOL    HW224984   1.822   2.554  13.235 -0.4919 -2.0967  0.7250
 4508SOL     OW24985   3.396   2.256   9.390  0.8856  0.7259 -0.4834
 4508SOL    HW124986   3.444   2.338   9.379  1.4052  0.4791 -0.0877
 4508SOL    HW224987   3.470   2.196   9.376 -2.1474 -2.8011 -1.5651
 4509SOL     OW24988   4.029   0.831  13.014 -1.0792  0.0523 -0.0017
 4509SOL    HW124989   4.106   0.838  12.957 -0.9612  1.9175  0.3709
 4509SOL    HW224990   4.073   0.801  13.093  0.7232  2.4842 -0.0616
 4510SOL     OW24991   3.853   3.336  17.141  0.0312 -0.2696  0.0742
 4510SOL    HW124992   3.841   3.280  17.218  1.2817  0.3885  0.7546
 4510SOL    HW224993   3.905   3.277  17.085 -0.3092 -0.4573 -0.0438
 4511SOL     OW24994   1.756   4.348  17.529 -0.5269  0.1329 -0.1332
 4511SOL    HW124995   1.812   4.331  17.604 -0.0465  3.5841  0.2975
 4511SOL    HW224996   1.826   4.352  17.464 -0.3797  0.8407  0.0651
 4512SOL     OW24997   0.181   4.187  12.346 -0.3579 -0.3525 -0.3575
 4512SOL    HW124998   0.180   4.179  12.250  2.3706  0.6645 -0.4885
 4512SOL    HW224999   0.222   4.103  12.362  0.8188  0.1038 -0.9771
 4513SOL     OW25000   3.473   4.094   2.894 -0.2629  0.1056 -0.4757
 4513SOL    HW125001   3.537   4.162   2.876 -0.3593  0.5055  0.7135
 4513SOL    HW225002   3.406   4.101   2.826  0.9358 -1.1748 -1.8169
 4514SOL     OW25003   0.534   2.172   7.150  0.0487 -0.2491  0.2321
 4514SOL    HW125004   0.492   2.086   7.157  0.3081 -0.2424  1.7464
 4514SOL    HW225005   0.528   2.176   7.054  0.2107 -2.5360  0.1276
 4515SOL     OW25006   4.396   1.285   2.630 -0.1378  0.1254  0.5112
 4515SOL    HW125007   4.324   1.318   2.684  0.2144 -1.4364  1.9424
 4515SOL    HW225008   4.437   1.366   2.600  1.9125 -0.8449  0.6552
 4516SOL     OW25009   1.914   4.215   5.095  0.7224 -0.2583  0.3025
 4516SOL    HW125010   1.954   4.160   5.027 -1.8127 -1.0881 -0.5113
 4516SOL    HW225011   1.939   4.165   5.172  0.7167 -0.3440  0.2484
 4517SOL     OW25012   3.587   2.910  11.950  0.2008 -0.0566 -0.5254
 4517SOL    HW125013   3.555   2.982  11.894 -1.3009  0.1540  0.6130
 4517SOL    HW225014   3.678   2.939  11.955 -0.3589  1.5713  0.1390
 4518SOL     OW25015   1.042   4.438  11.967 -0.5566  0.3611  0.4331
 4518SOL    HW125016   1.137   4.432  11.962 -0.4949 -0.3875  2.3989
 4518SOL    HW225017   1.028   4.426  12.061  0.6145 -1.2640  0.3837
 4519SOL     OW25018   1.208   4.303   0.919 -0.2248 -0.2012  0.0130
 4519SOL    HW125019   1.168   4.293   0.832 -0.0272  1.0960 -0.2293
 4519SOL    HW225020   1.273   4.372   0.904  0.0753 -0.6178 -0.6361
 4520SOL     OW25021   4.610   3.202   8.183 -0.8373  0.3387  0.0013
 4520SOL    HW125022   4.621   3.297   8.173 -0.6189  0.2337 -0.7808
 4520SOL    HW225023   4.669   3.190   8.257  2.3778 -2.5673 -3.0362
 4521SOL     OW25024   3.615   1.528   7.594 -0.5357 -0.0363 -0.4298
 4521SOL    HW125025   3.660   1.583   7.658  0.8021 -2.5367  0.7971
 4521SOL    HW225026   3.531   1.573   7.587  0.0821  0.8196 -2.3065
 4522SOL     OW25027   3.014   2.060   2.997 -0.1900  0.2774 -0.1798
 4522SOL    HW125028   3.028   2.126   2.930 -2.2502  0.5384 -0.3573
 4522SOL    HW225029   2.995   1.984   2.941 -0.9774 -0.0631  0.5422
 4523SOL     OW25030   0.178   2.134   5.907  0.1903  0.0350 -0.0335
 4523SOL    HW125031   0.178   2.149   5.812  2.1795  1.5693  0.2194
 4523SOL    HW225032   0.165   2.226   5.930  1.0660  0.0572  0.3723
 4524SOL     OW25033   0.814   2.565   6.250  0.3346 -0.0760  0.1364
 4524SOL    HW125034   0.882   2.542   6.313 -0.5465 -3.2249 -0.0239
 4524SOL    HW225035   0.786   2.645   6.294 -0.2208 -0.2642  0.1325
 4525SOL     OW25036   2.092   3.610   3.984 -0.2666 -0.6852  0.5565
 4525SOL    HW125037   2.157   3.679   3.993 -1.5669  0.4359  1.3808
 4525SOL    HW225038   2.011   3.651   4.016 -1.3047 -1.1042 -1.5174
 4526SOL     OW25039   0.035   1.126   1.803 -0.0878  0.2730 -0.6812
 4526SOL    HW125040   0.124   1.111   1.835 -0.0294  1.8114 -0.1150
 4526SOL    HW225041   0.037   1.222   1.798  2.1242  0.3285  1.2409
 4527SOL     OW25042   4.399   1.244   8.486  0.1395  0.6136  0.7627
 4527SOL    HW125043   4.400   1.323   8.540 -0.7868  1.6077 -0.6862
 4527SOL    HW225044   4.305   1.224   8.486  0.7482 -2.2061  0.2658
 4528SOL     OW25045   4.297   3.931   8.056  0.5100 -0.2264 -0.4227
 4528SOL    HW125046   4.370   3.869   8.044  0.9327  0.2773 -0.4427
 4528SOL    HW225047   4.295   3.952   8.149  0.6359 -2.8315  0.1825
 4529SOL     OW25048   2.371   1.699   6.560  0.1772  0.0385  0.4711
 4529SOL    HW125049   2.447   1.648   6.532 -0.2764  0.5134 -1.5842
 4529SOL    HW225050   2.350   1.765   6.495 -0.2042  0.0921  0.6472
 4530SOL     OW25051   0.006   0.031   5.071  0.2100 -0.2261  0.0762
 4530SOL    HW125052   4.666   4.701   5.119 -1.2500  0.8202 -0.6756
 4530SOL    HW225053   4.697   0.121   5.077 -0.0113 -0.2519 -0.7458
 4531SOL     OW25054   1.993   3.790   6.502 -0.2984  0.0430 -0.1670
 4531SOL    HW125055   2.060   3.793   6.570 -0.3123 -1.6805 -0.0796
 4531SOL    HW225056   2.043   3.758   6.427  0.7410  1.8081 -0.2340
 4532SOL     OW25057   0.090   1.183   1.245 -0.1214 -0.7372 -0.0626
 4532SOL    HW125058   0.109   1.217   1.333  2.8866  1.3946 -1.5752
 4532SOL    HW225059   0.141   1.102   1.240  0.0348 -0.7688  2.0337
 4533SOL     OW25060   4.344   2.725  13.742  0.2398 -0.4006  0.1611
 4533SOL    HW125061   4.419   2.667  13.731  1.4422  1.2890 -0.3922
 4533SOL    HW225062   4.356   2.761  13.830  0.1483 -1.3112  0.5523
 4534SOL     OW25063   3.105   3.701   6.392  0.3419 -0.1572  0.0820
 4534SOL    HW125064   3.083   3.639   6.322  0.1596 -0.9467  0.8370
 4534SOL    HW225065   3.095   3.780   6.340  0.3119  0.5835  1.2199
 4535SOL     OW25066   0.711   2.745   9.915  0.0011 -0.4741 -0.1161
 4535SOL    HW125067   0.778   2.679   9.897 -1.1150 -1.5972 -0.1660
 4535SOL    HW225068   0.651   2.711   9.848 -1.8526  2.8709 -0.1459
 4536SOL     OW25069   2.578   0.538  13.730  0.3803 -0.0767 -0.1504
 4536SOL    HW125070   2.653   0.557  13.674  0.7104  1.3275  0.7550
 4536SOL    HW225071   2.583   0.453  13.774  0.7541 -0.0256 -0.0893
 4537SOL     OW25072   3.968   3.899   3.160 -0.2502  0.0256  0.5677
 4537SOL    HW125073   3.960   3.929   3.070  4.1640  0.6565  0.4149
 4537SOL    HW225074   3.957   3.982   3.205 -1.6354  0.1325  0.0346
 4538SOL     OW25075   0.776   3.350  11.739 -0.2787 -0.2384 -0.3277
 4538SOL    HW125076   0.754   3.294  11.664  0.9592 -0.7623 -0.3049
 4538SOL    HW225077   0.839   3.291  11.781  1.0588 -0.5701 -2.7251
 4539SOL     OW25078   0.408   2.183   9.836  0.0182  0.3013 -0.6205
 4539SOL    HW125079   0.372   2.269   9.854  0.4773  0.6845 -1.5536
 4539SOL    HW225080   0.342   2.122   9.803  0.4701 -0.3062 -0.4085
 4540SOL     OW25081   2.417   0.397  17.177 -0.0365  0.2932 -0.4747
 4540SOL    HW125082   2.409   0.321  17.235  3.4287  0.4213  0.1701
 4540SOL    HW225083   2.387   0.475  17.224 -0.2411 -0.3578  0.4626
 4541SOL     OW25084   3.982   0.303  15.938 -0.5227  0.4330 -0.0530
 4541SOL    HW125085   4.012   0.392  15.954 -1.8247  1.1412 -1.4570
 4541SOL    HW225086   3.930   0.317  15.858  0.6359 -0.0657 -0.8900
 4542SOL     OW25087   4.363   0.427  12.485  0.2734 -0.3799 -0.2725
 4542SOL    HW125088   4.422   0.361  12.521  1.0386 -0.6595 -2.0738
 4542SOL    HW225089   4.412   0.444  12.406 -0.4825  0.4257 -0.5702
 4543SOL     OW25090   0.512   1.587  13.217 -0.3194  0.0779 -0.1701
 4543SOL    HW125091   0.542   1.641  13.144 -2.3973 -0.3135 -1.2982
 4543SOL    HW225092   0.494   1.660  13.276  0.2960  1.5418 -1.7917
 4544SOL     OW25093   4.636   3.496   4.788 -0.1949 -0.4420  0.2932
 4544SOL    HW125094   4.561   3.552   4.770  3.1524  3.3460 -1.7793
 4544SOL    HW225095   4.704   3.554   4.822  0.7932 -1.0933 -0.5894
 4545SOL     OW25096   3.985   0.437   0.290  0.0412  0.2376 -0.8356
 4545SOL    HW125097   3.899   0.449   0.249 -2.5196 -1.5176  3.9563
 4545SOL    HW225098   3.973   0.481   0.374  0.2425  0.2088 -0.7929
 4546SOL     OW25099   3.796   2.567   9.161 -0.1720  0.3854 -0.3163
 4546SOL    HW125100   3.851   2.508   9.109  0.2472  1.4483 -1.0770
 4546SOL    HW225101   3.796   2.644   9.103 -0.2890 -1.1191 -2.3227
 4547SOL     OW25102   1.099   1.701   0.931 -0.0018  0.0367  0.1632
 4547SOL    HW125103   1.124   1.611   0.954 -0.3363  0.0661  0.6551
 4547SOL    HW225104   1.018   1.700   0.983  1.3080  0.3542  2.2288
 4548SOL     OW25105   1.350   1.278   9.180 -0.0683  0.1035 -0.3653
 4548SOL    HW125106   1.288   1.287   9.107  1.0226  0.2029 -1.2729
 4548SOL    HW225107   1.289   1.303   9.250 -0.1579 -0.0204 -0.3972
 4549SOL     OW25108   2.263   2.027   9.729 -0.2245  0.7838 -0.3521
 4549SOL    HW125109   2.245   2.000   9.639 -1.5360 -0.7719  0.3806
 4549SOL    HW225110   2.253   1.947   9.780 -0.4291  0.4568 -0.9057
 4550SOL     OW25111   0.609   3.777  16.992  0.1536  0.0129  0.0388
 4550SOL    HW125112   0.538   3.716  16.972  0.5916 -0.9188  1.3570
 4550SOL    HW225113   0.582   3.853  16.941 -0.6548 -0.4621 -0.2464
 4551SOL     OW25114   2.328   4.455   4.966  0.0927 -0.2333  0.5518
 4551SOL    HW125115   2.377   4.423   4.891  0.5234  1.2075  0.2199
 4551SOL    HW225116   2.245   4.485   4.928  0.2794 -2.0486 -1.2720
 4552SOL     OW25117   1.988   3.956  11.638  0.0303  0.0796  0.6688
 4552SOL    HW125118   2.051   3.999  11.580  0.1603  0.3003  0.9672
 4552SOL    HW225119   2.020   3.992  11.722  1.0099 -1.9443  1.1614
 4553SOL     OW25120   3.779   4.387   2.071 -0.1933 -0.7271  0.2464
 4553SOL    HW125121   3.769   4.401   1.977  1.4787  0.3189  0.2207
 4553SOL    HW225122   3.780   4.479   2.096  2.2204 -1.3161  2.3559
 4554SOL     OW25123   3.030   3.301   2.867 -0.3130  0.3005 -0.2796
 4554SOL    HW125124   2.964   3.297   2.936  1.1940  1.8951  1.2500
 4554SOL    HW225125   2.980   3.347   2.800 -0.8542  0.1901  0.0529
 4555SOL     OW25126   3.092   4.252   6.531  0.2551 -0.4850  0.1975
 4555SOL    HW125127   3.182   4.223   6.513 -0.1225 -0.7095 -1.3604
 4555SOL    HW225128   3.076   4.206   6.613 -0.3316  0.4479  0.6165
 4556SOL     OW25129   0.037   3.001  11.365  0.1431  0.5303 -0.0416
 4556SOL    HW125130   4.721   3.046  11.290  1.5559  2.5277  0.3935
 4556SOL    HW225131   0.015   3.066  11.432  2.4700 -0.0407  1.2926
 4557SOL     OW25132   2.402   0.065   1.226  0.2317  0.0572 -0.1783
 4557SOL    HW125133   2.497   0.069   1.234  0.1833 -1.5121  1.0599
 4557SOL    HW225134   2.380   0.065   1.319 -1.3092 -3.2597 -0.5508
 4558SOL     OW25135   0.893   4.542   7.644  0.4698  0.1849 -0.0126
 4558SOL    HW125136   0.858   4.490   7.573 -0.1426  0.2761  0.2241
 4558SOL    HW225137   0.858   4.501   7.723 -0.7090 -1.5603 -1.4674
 4559SOL     OW25138   4.490   1.804   3.698 -0.6527 -0.7161 -0.5598
 4559SOL    HW125139   4.432   1.744   3.651 -0.0805 -1.5456 -0.1902
 4559SOL    HW225140   4.442   1.808   3.780 -0.5662  1.6366 -0.6152
 4560SOL     OW25141   1.162   3.752   7.642  0.0990 -0.0066 -0.0617
 4560SOL    HW125142   1.203   3.816   7.584 -2.2727 -0.0188 -1.7706
 4560SOL    HW225143   1.186   3.677   7.588  1.5250  0.4449 -0.0326
 4561SOL     OW25144   1.307   0.118   2.164 -0.9518 -0.1216  0.2758
 4561SOL    HW125145   1.385   0.113   2.219  1.2877  0.7237 -2.8274
 4561SOL    HW225146   1.264   0.190   2.209 -0.1306  0.1539  0.6190
 4562SOL     OW25147   2.701   2.242   9.510 -0.3115 -0.0413 -0.3931
 4562SOL    HW125148   2.701   2.172   9.445 -0.4401 -0.8851  0.4995
 4562SOL    HW225149   2.647   2.197   9.576  0.1232 -0.4896 -0.3440
 4563SOL     OW25150   4.400   1.392   4.673  0.0211  0.1177  0.4490
 4563SOL    HW125151   4.453   1.469   4.693 -0.2005  0.4667 -0.2996
 4563SOL    HW225152   4.392   1.407   4.579 -0.7531 -0.7972  0.3681
 4564SOL     OW25153   0.747   3.284   8.215  0.1258 -0.1733  0.0255
 4564SOL    HW125154   0.746   3.379   8.205 -1.1166 -0.2529 -0.5290
 4564SOL    HW225155   0.838   3.271   8.243  0.2076  1.1276  0.3690
 4565SOL     OW25156   2.233   1.180  17.064  0.3390 -0.0543 -0.0546
 4565SOL    HW125157   2.164   1.222  17.116  0.2336  0.1753 -0.3792
 4565SOL    HW225158   2.299   1.168  17.132  1.0830 -1.2042 -0.9915
 4566SOL     OW25159   2.034   4.182   2.197 -0.4458  0.1251 -0.0355
 4566SOL    HW125160   2.028   4.087   2.197 -3.9453  0.3259 -1.1282
 4566SOL    HW225161   2.044   4.208   2.105 -2.5552 -0.1102 -0.3432
 4567SOL     OW25162   4.264   3.978   5.453 -0.2506  0.2969 -0.7591
 4567SOL    HW125163   4.308   3.893   5.447 -0.4094  0.1612 -0.0437
 4567SOL    HW225164   4.337   4.040   5.446 -0.4468  0.6142  0.0627
 4568SOL     OW25165   0.808   0.173   0.772  0.4825  0.3834  0.1168
 4568SOL    HW125166   0.739   0.239   0.784 -0.6129 -0.8747  0.7613
 4568SOL    HW225167   0.879   0.209   0.825  0.3487  1.1639 -0.2406
 4569SOL     OW25168   1.388   0.001   4.777 -0.8373 -0.5486 -0.1579
 4569SOL    HW125169   1.430   4.662   4.836  0.1019 -0.0084 -0.2547
 4569SOL    HW225170   1.297   4.711   4.805 -0.3425 -0.1554  1.6746
 4570SOL     OW25171   1.941   0.080  14.034  0.2477 -0.5160  0.4072
 4570SOL    HW125172   1.986   4.720  14.042 -1.2729 -1.3961 -0.1022
 4570SOL    HW225173   1.916   0.098  14.125 -0.9410 -2.6835  0.5047
 4571SOL     OW25174   0.103   0.712   8.727  0.1892  0.5683  0.1592
 4571SOL    HW125175   0.073   0.665   8.805 -0.8585  2.8958  1.1692
 4571SOL    HW225176   0.144   0.786   8.771  1.3674  0.2347 -0.3768
 4572SOL     OW25177   2.101   0.079   2.177 -0.9099 -0.1476 -0.7154
 4572SOL    HW125178   2.145   4.723   2.147 -3.7487 -1.7022 -0.8459
 4572SOL    HW225179   2.147   0.150   2.134  0.6917 -0.7591 -0.0037
 4573SOL     OW25180   3.126   0.003   6.747 -0.6765  0.1686 -0.2031
 4573SOL    HW125181   3.065   4.674   6.695 -1.2342 -0.3273  0.9737
 4573SOL    HW225182   3.209   4.697   6.710 -0.0512  0.3375  1.0612
 4574SOL     OW25183   1.725   2.492   4.553 -0.4578  0.1143  0.4409
 4574SOL    HW125184   1.668   2.569   4.548  0.9216  1.0709 -0.6707
 4574SOL    HW225185   1.747   2.480   4.460  1.1714 -1.3092  1.0141
 4575SOL     OW25186   3.418   1.413  17.367 -0.9871  0.4776 -0.0271
 4575SOL    HW125187   3.358   1.462  17.310 -0.5402  1.6932  0.5544
 4575SOL    HW225188   3.495   1.418  17.310 -0.8731  2.4884  0.3061
 4576SOL     OW25189   4.487   2.484   4.605 -0.0914 -0.3119  0.1514
 4576SOL    HW125190   4.454   2.412   4.552 -1.3611  0.2530  0.1681
 4576SOL    HW225191   4.550   2.523   4.544 -0.3693 -2.5151 -1.5377
 4577SOL     OW25192   1.548   1.137   1.559 -0.1951 -0.1535  0.5537
 4577SOL    HW125193   1.611   1.191   1.511  0.2091 -1.8099 -0.8040
 4577SOL    HW225194   1.605   1.121   1.634  0.8537  0.4534 -0.1111
 4578SOL     OW25195   1.749   0.974   7.432  0.5200  0.1815  0.2664
 4578SOL    HW125196   1.743   0.911   7.360  1.7112 -1.7708  1.8489
 4578SOL    HW225197   1.719   1.054   7.389  1.1633  0.0786 -0.3799
 4579SOL     OW25198   4.309   4.186  15.273  0.1097 -0.5921  0.1434
 4579SOL    HW125199   4.299   4.173  15.179  1.8440  2.5404 -0.4893
 4579SOL    HW225200   4.268   4.107  15.307 -1.6853  0.6981  0.9462
 4580SOL     OW25201   3.397   1.585   6.539  0.0032  0.0261 -0.2051
 4580SOL    HW125202   3.417   1.672   6.503 -0.7768  0.4407  0.3495
 4580SOL    HW225203   3.312   1.564   6.501 -0.5399  0.4151  0.8025
 4581SOL     OW25204   0.384   3.495   9.027 -0.1477 -0.0632  0.0655
 4581SOL    HW125205   0.479   3.509   9.024 -0.6102  2.7321 -2.2299
 4581SOL    HW225206   0.362   3.545   8.948  0.2643  0.4784  0.2907
 4582SOL     OW25207   1.869   0.747  15.527  0.7522  0.1430 -0.0150
 4582SOL    HW125208   1.835   0.761  15.438 -2.3690  0.5373  1.2469
 4582SOL    HW225209   1.786   0.747  15.574  1.2421 -1.9269  0.8776
 4583SOL     OW25210   3.559   0.418  10.932  0.0922 -0.2704 -0.1621
 4583SOL    HW125211   3.507   0.486  10.975 -0.8893 -0.3472 -1.2342
 4583SOL    HW225212   3.592   0.365  11.005  0.9137  1.0202  0.4216
 4584SOL     OW25213   0.102   0.114   2.931  0.3274  0.5894 -0.2861
 4584SOL    HW125214   0.128   0.030   2.893 -0.7474 -0.9747  2.4124
 4584SOL    HW225215   0.187   0.140   2.965  0.8454 -0.8378 -0.4718
 4585SOL     OW25216   4.203   3.269   7.523 -0.2492 -0.3642  0.3985
 4585SOL    HW125217   4.183   3.289   7.615 -0.1178  0.9669  0.1373
 4585SOL    HW225218   4.128   3.213   7.503 -0.0722  0.0070 -1.3233
 4586SOL     OW25219   1.943   3.572   7.126 -0.0841  0.4892  0.6569
 4586SOL    HW125220   1.900   3.544   7.207 -1.1766  0.7512  0.1698
 4586SOL    HW225221   1.983   3.657   7.146  0.7827  0.5169 -1.2228
 4587SOL     OW25222   4.029   1.696   1.875 -0.1892  0.2275  0.3023
 4587SOL    HW125223   4.037   1.741   1.790  0.2879  0.1580  0.3116
 4587SOL    HW225224   4.096   1.627   1.874  0.8425  1.2305 -0.5055
 4588SOL     OW25225   4.293   1.774   2.599 -0.6760 -0.1120 -0.5131
 4588SOL    HW125226   4.325   1.690   2.568  2.0394  0.6374  0.2954
 4588SOL    HW225227   4.351   1.828   2.545  1.0220  0.5726  1.9939
 4589SOL     OW25228   1.915   0.121   3.335 -0.3007  0.0767 -0.0770
 4589SOL    HW125229   1.960   0.159   3.259  2.9230 -0.4033  1.5930
 4589SOL    HW225230   1.840   0.083   3.288  0.0744 -0.1213 -0.5186
 4590SOL     OW25231   1.941   4.069   5.312 -0.2095  0.1661  0.4113
 4590SOL    HW125232   1.980   4.093   5.396 -0.1089  0.3954  0.2958
 4590SOL    HW225233   1.894   3.991   5.343 -1.7141  0.4879 -1.0180
 4591SOL     OW25234   0.059   4.199   8.026  0.1677 -0.1152  0.3965
 4591SOL    HW125235   0.035   4.265   7.960 -0.1076 -2.3078 -1.7100
 4591SOL    HW225236   0.033   4.244   8.106 -0.9536  0.7159 -0.4416
 4592SOL     OW25237   2.177   0.834   7.059 -0.4031 -0.0690 -0.2468
 4592SOL    HW125238   2.160   0.854   6.967  2.6160  3.5774  0.0004
 4592SOL    HW225239   2.112   0.889   7.104 -2.5850 -0.4929 -2.8307
 4593SOL     OW25240   4.062   1.923   7.271  0.1359 -0.6894 -0.0425
 4593SOL    HW125241   4.126   1.939   7.341 -0.3057  2.8393 -0.4416
 4593SOL    HW225242   3.982   1.954   7.314  0.1840 -0.6930  0.0497
 4594SOL     OW25243   4.022   3.579   1.176 -0.3708 -0.3472  0.2185
 4594SOL    HW125244   3.966   3.624   1.240 -0.2447  1.4757 -0.9767
 4594SOL    HW225245   3.956   3.571   1.107  0.7819  1.0289 -1.0276
 4595SOL     OW25246   4.366   1.286   5.026 -0.7144 -0.0677 -0.0995
 4595SOL    HW125247   4.393   1.376   5.044  1.6691 -1.1387  1.6950
 4595SOL    HW225248   4.446   1.240   5.050 -1.1272 -0.7373 -0.0189
 4596SOL     OW25249   2.772   2.580   7.618  0.4135  0.7801 -0.4191
 4596SOL    HW125250   2.748   2.522   7.545  1.5161 -0.0878 -0.1009
 4596SOL    HW225251   2.783   2.667   7.582  0.4542  0.7504 -0.4787
 4597SOL     OW25252   4.310   0.725   1.698  0.4344  0.1885 -0.5455
 4597SOL    HW125253   4.238   0.772   1.740  1.4996  0.6267  0.8053
 4597SOL    HW225254   4.340   0.781   1.627  0.5116  0.8266 -0.0159
 4598SOL     OW25255   1.765   4.249   2.579 -0.0082 -0.1974  0.5935
 4598SOL    HW125256   1.826   4.322   2.578  1.3628 -1.3696 -0.3740
 4598SOL    HW225257   1.825   4.175   2.587  0.2124  0.0325  1.1035
 4599SOL     OW25258   4.291   0.156   4.966  0.1556  0.7096  0.0663
 4599SOL    HW125259   4.306   0.177   4.873 -1.5505  0.9721 -0.1441
 4599SOL    HW225260   4.322   0.066   4.971 -2.8134 -0.2872  0.0170
 4600SOL     OW25261   0.781   1.531   1.901 -0.2183 -0.1004 -0.5406
 4600SOL    HW125262   0.869   1.532   1.865 -1.0733  1.5005 -2.6304
 4600SOL    HW225263   0.739   1.604   1.855  0.6842  1.6243  1.3749
 4601SOL     OW25264   0.145   4.478   6.854 -0.4958  0.2681 -0.1031
 4601SOL    HW125265   0.233   4.441   6.848 -0.3211  0.4994  1.0414
 4601SOL    HW225266   0.133   4.511   6.943  1.4789  0.1505  0.2127
 4602SOL     OW25267   1.659   3.215   3.492  1.0477  0.4785 -0.6250
 4602SOL    HW125268   1.726   3.209   3.560  0.9527 -0.7078 -0.6329
 4602SOL    HW225269   1.692   3.291   3.443  1.0753  0.4600 -0.6349
 4603SOL     OW25270   3.999   3.285   2.101 -0.2218 -0.4556  0.2691
 4603SOL    HW125271   3.933   3.233   2.055  2.0300 -1.0173 -2.2780
 4603SOL    HW225272   4.017   3.251   2.189  1.5192 -2.1157 -0.7498
 4604SOL     OW25273   2.497   1.605   9.082  0.3648  0.5664  0.0601
 4604SOL    HW125274   2.547   1.529   9.051  0.0970  0.7251 -0.7636
 4604SOL    HW225275   2.416   1.604   9.031  1.0688  0.8943 -1.0713
 4605SOL     OW25276   2.665   2.541   8.241 -0.6817 -0.6446 -0.1602
 4605SOL    HW125277   2.704   2.587   8.315  0.2588 -0.8645 -0.5165
 4605SOL    HW225278   2.671   2.448   8.262 -0.6308 -0.5232  0.3780
 4606SOL     OW25279   2.686   1.457   7.342 -0.6347  0.6839 -0.2840
 4606SOL    HW125280   2.688   1.517   7.417 -0.2112 -1.0845  1.0993
 4606SOL    HW225281   2.600   1.420   7.365  0.8572 -1.1904  2.2626
 4607SOL     OW25282   2.250   3.633   9.127 -0.0959  0.5512 -0.2575
 4607SOL    HW125283   2.169   3.620   9.077 -0.6338  0.3470  0.6642
 4607SOL    HW225284   2.311   3.649   9.055 -2.9254  3.8645 -1.9812
 4608SOL     OW25285   2.843   2.748   2.043  0.2515  0.2500  0.1085
 4608SOL    HW125286   2.922   2.742   1.990  0.4695  2.5861  0.1666
 4608SOL    HW225287   2.887   2.760   2.128 -1.2235  1.4728  0.6961
 4609SOL     OW25288   3.938   3.059   5.195 -0.0333 -0.6069 -0.6539
 4609SOL    HW125289   4.001   3.112   5.146 -0.6683  1.4699  0.7708
 4609SOL    HW225290   3.959   3.084   5.286  0.0949 -1.1064 -0.5447
 4610SOL     OW25291   0.863   4.199   6.999 -0.4478 -0.0967  0.4029
 4610SOL    HW125292   0.883   4.197   7.092 -0.9389 -2.6466  0.4686
 4610SOL    HW225293   0.954   4.200   6.968 -0.4363 -3.7864  0.3396
 4611SOL     OW25294   4.627   0.758   2.410  0.1393  0.1156  0.0354
 4611SOL    HW125295   4.559   0.802   2.358 -0.2191 -0.9165 -0.3624
 4611SOL    HW225296   4.638   0.811   2.489 -2.7045 -0.1362  0.6102
 4612SOL     OW25297   4.578   3.117   3.995  0.4098  0.5783  0.6699
 4612SOL    HW125298   4.552   3.037   3.949  2.0125  0.9704 -0.9121
 4612SOL    HW225299   4.547   3.108   4.085  1.2561  0.0302  0.9031
 4613SOL     OW25300   2.906   3.905  17.555  0.0059  0.1161 -0.0355
 4613SOL    HW125301   2.820   3.864  17.556 -0.3240  0.8164  0.1710
 4613SOL    HW225302   2.966   3.830  17.547  0.3158  0.5951 -2.1638
 4614SOL     OW25303   0.071   4.171  15.267  0.1230  0.0410  0.6328
 4614SOL    HW125304   0.109   4.167  15.179  0.1653 -0.0965  0.6569
 4614SOL    HW225305   0.131   4.119  15.320  3.1295  1.5320 -1.3171
 4615SOL     OW25306   2.921   1.068   8.307  0.8493  0.6175  0.4031
 4615SOL    HW125307   2.985   1.032   8.246 -0.7639  0.3067 -1.1278
 4615SOL    HW225308   2.858   0.996   8.311 -1.1121  2.4135  1.6611
 4616SOL     OW25309   3.674   4.484   9.193  0.1599 -0.2901 -0.0144
 4616SOL    HW125310   3.708   4.485   9.282  0.2615  1.4364 -0.0728
 4616SOL    HW225311   3.746   4.530   9.150  0.4464 -0.3600  0.3936
 4617SOL     OW25312   0.643   0.539  13.291  0.0860 -0.5544  0.2953
 4617SOL    HW125313   0.641   0.444  13.289  2.6886 -0.6158 -1.0951
 4617SOL    HW225314   0.738   0.555  13.298  0.1852 -1.1616  0.3174
 4618SOL     OW25315   1.805   3.207   6.804  0.0939 -0.1715 -0.4926
 4618SOL    HW125316   1.756   3.150   6.745  0.7218 -1.3952  0.1662
 4618SOL    HW225317   1.896   3.177   6.796  0.9305  2.1439  0.1427
 4619SOL     OW25318   0.990   2.368   3.341  0.3704  0.1084 -0.2598
 4619SOL    HW125319   0.917   2.309   3.325  0.6006 -0.2581  0.0532
 4619SOL    HW225320   0.951   2.452   3.314 -1.8550 -0.6906  0.4575
 4620SOL     OW25321   1.372   3.353  11.014 -0.2552 -0.2963 -0.5104
 4620SOL    HW125322   1.430   3.425  10.990  0.8304 -0.7605  0.7417
 4620SOL    HW225323   1.430   3.279  10.992 -1.0657 -1.5106  1.4094
 4621SOL     OW25324   1.522   1.511   3.496 -0.2414 -0.6227 -0.4677
 4621SOL    HW125325   1.566   1.525   3.413 -0.1644  0.3430 -0.2613
 4621SOL    HW225326   1.540   1.595   3.539 -0.8231 -1.1687  0.8693
 4622SOL     OW25327   1.753   1.009   2.737 -0.4226 -0.0661 -0.1862
 4622SOL    HW125328   1.804   0.934   2.767 -2.2962 -2.2303 -2.4223
 4622SOL    HW225329   1.768   1.016   2.643  1.3743 -1.0606  0.0323
 4623SOL     OW25330   2.412   0.542   5.749  0.3543  0.1426 -0.2749
 4623SOL    HW125331   2.495   0.583   5.772  0.5494 -0.8368  0.7622
 4623SOL    HW225332   2.438   0.496   5.669  1.3243 -1.2799  0.8481
 4624SOL     OW25333   3.105   3.204   4.917 -0.2339 -0.1418 -0.0238
 4624SOL    HW125334   3.173   3.228   4.855 -1.3778 -1.6561 -1.8378
 4624SOL    HW225335   3.023   3.207   4.868 -0.0402  0.1825 -0.3256
 4625SOL     OW25336   3.205   2.951   1.055 -0.5257 -0.0992 -0.1470
 4625SOL    HW125337   3.241   2.862   1.050 -0.7099 -0.1214 -1.0549
 4625SOL    HW225338   3.250   2.984   0.977 -0.1572  1.1015  0.5765
 4626SOL     OW25339   0.558   1.111   3.585  0.4281  0.5012  0.3205
 4626SOL    HW125340   0.584   1.046   3.650  2.0188 -1.6887 -2.5431
 4626SOL    HW225341   0.535   1.185   3.642  0.5898  0.2922  0.6547
 4627SOL     OW25342   1.135   0.717   9.521 -0.7065  0.5280 -0.3372
 4627SOL    HW125343   1.087   0.672   9.590  0.5273 -1.1856 -0.6093
 4627SOL    HW225344   1.072   0.769   9.470 -0.6798  1.4386  0.5651
 4628SOL     OW25345   4.224   0.766   8.495 -0.6917 -0.1179  0.2562
 4628SOL    HW125346   4.134   0.762   8.527 -0.8954 -1.8597 -0.5293
 4628SOL    HW225347   4.202   0.817   8.418  1.9201 -0.8052 -0.9627
 4629SOL     OW25348   2.363   4.015   9.006  0.7989 -0.4222  0.3302
 4629SOL    HW125349   2.404   4.059   8.932 -2.7519  0.0264 -1.3525
 4629SOL    HW225350   2.289   3.974   8.961  1.2143  0.2142 -0.9362
 4630SOL     OW25351   0.159   0.368   7.219 -0.6614  0.3117 -0.4143
 4630SOL    HW125352   0.094   0.436   7.236 -0.3687  0.5518 -0.2500
 4630SOL    HW225353   0.236   0.417   7.190 -0.7544  1.1442  0.7430
 4631SOL     OW25354   4.170   1.003   8.289  0.3725  0.0163 -0.4578
 4631SOL    HW125355   4.252   1.034   8.249  0.1638 -0.8566 -1.5410
 4631SOL    HW225356   4.108   1.021   8.219 -2.1587  0.5580  1.9166
 4632SOL     OW25357   3.231   4.239   8.294 -0.5555  0.2196  0.2329
 4632SOL    HW125358   3.255   4.275   8.379 -0.8412  0.5024  0.1948
 4632SOL    HW225359   3.284   4.159   8.293  1.6545  1.6658  2.4268
 4633SOL     OW25360   1.094   2.593   6.414 -0.2462 -0.2067  0.0058
 4633SOL    HW125361   1.185   2.622   6.407 -0.9114  2.4089  2.0799
 4633SOL    HW225362   1.057   2.653   6.479 -1.0999  0.5674 -1.1856
 4634SOL     OW25363   1.802   0.963   4.358 -0.5153  0.2249 -0.0772
 4634SOL    HW125364   1.736   0.926   4.298 -4.2467  2.6826  2.4999
 4634SOL    HW225365   1.763   1.050   4.371  1.0784  0.6208  1.8541
 4635SOL     OW25366   3.669   0.539   6.296 -0.1945 -0.1396 -0.1957
 4635SOL    HW125367   3.683   0.561   6.204  0.5215 -0.1241 -0.0842
 4635SOL    HW225368   3.714   0.615   6.334 -1.0483  0.3182 -0.0766
 4636SOL     OW25369   0.308   4.708   0.902 -0.0910  0.2629 -0.0740
 4636SOL    HW125370   0.403   4.717   0.909 -0.0637  0.5093 -0.8043
 4636SOL    HW225371   0.282   4.689   0.992 -2.3990 -0.2070 -0.8185
 4637SOL     OW25372   4.245   4.267   4.627  0.5526 -0.2485 -0.4561
 4637SOL    HW125373   4.248   4.248   4.533  1.8654  1.5676 -0.7890
 4637SOL    HW225374   4.210   4.186   4.663  1.4988  0.5781  2.3505
 4638SOL     OW25375   4.132   3.432  15.375 -0.5574 -0.0414  0.0590
 4638SOL    HW125376   4.194   3.376  15.422 -1.0332 -0.2189  0.4677
 4638SOL    HW225377   4.090   3.367  15.320 -0.3559 -1.2019  1.2774
 4639SOL     OW25378   1.453   0.835   3.748  0.5980  0.0173  0.0146
 4639SOL    HW125379   1.443   0.861   3.656  1.9384  0.0868 -0.1111
 4639SOL    HW225380   1.484   0.919   3.781 -0.9676  0.6588 -0.1555
 4640SOL     OW25381   0.631   0.659   0.288 -0.2993  0.2259 -0.3463
 4640SOL    HW125382   0.687   0.585   0.311  0.3796  1.0833  0.7429
 4640SOL    HW225383   0.552   0.605   0.294  1.9404 -2.9928 -0.0443
 4641SOL     OW25384   4.298   4.624  15.847 -0.0760 -0.3033 -0.2749
 4641SOL    HW125385   4.337   4.577  15.774 -2.3963 -3.1876  0.3229
 4641SOL    HW225386   4.314   4.714  15.820 -0.8772 -0.3278 -0.8217
 4642SOL     OW25387   4.364   0.031   6.875 -0.6234  0.3989 -0.0684
 4642SOL    HW125388   4.326   0.016   6.961 -3.2735 -0.0162 -1.3213
 4642SOL    HW225389   4.456   0.006   6.889  0.5041  2.6597 -3.2877
 4643SOL     OW25390   4.026   3.321   1.208 -0.0398  0.1847  0.2680
 4643SOL    HW125391   3.961   3.333   1.278  1.3446 -0.7105  1.6934
 4643SOL    HW225392   4.047   3.412   1.190 -1.3502  0.8500  1.9985
 4644SOL     OW25393   2.291   0.363   3.144 -0.0470 -0.1631  0.1427
 4644SOL    HW125394   2.364   0.302   3.130 -0.9256 -1.3654  0.8307
 4644SOL    HW225395   2.300   0.371   3.239 -1.0095  0.5255  0.1743
 4645SOL     OW25396   1.381   2.691   4.798 -0.6825  0.2029 -0.2899
 4645SOL    HW125397   1.472   2.716   4.780  0.0672 -1.8358  0.5804
 4645SOL    HW225398   1.338   2.774   4.781  0.3788  0.3472 -2.2311
 4646SOL     OW25399   0.619   1.919  15.589 -0.4778  0.0291 -0.5416
 4646SOL    HW125400   0.579   1.979  15.652  0.1382 -0.9468  0.7687
 4646SOL    HW225401   0.649   1.984  15.526 -0.0561  0.3120 -0.0477
 4647SOL     OW25402   1.851   0.441   1.562 -0.0897  0.5517  0.3197
 4647SOL    HW125403   1.845   0.354   1.604 -1.2455 -0.5497 -2.1526
 4647SOL    HW225404   1.866   0.410   1.473  1.8444  3.1836 -0.2589
 4648SOL     OW25405   1.564   0.969   2.464  0.3664  0.2591 -0.0864
 4648SOL    HW125406   1.483   0.963   2.515  1.3003 -0.4585  1.3171
 4648SOL    HW225407   1.538   1.041   2.407  1.4357  0.3604 -0.4440
 4649SOL     OW25408   0.927   1.461   8.579 -0.4019  0.7768  0.6009
 4649SOL    HW125409   1.021   1.470   8.566  0.2335 -1.8127  3.2658
 4649SOL    HW225410   0.900   1.501   8.497  1.3616  1.9487  0.5920
 4650SOL     OW25411   3.930   4.017  11.588 -0.6043 -0.2384 -0.2782
 4650SOL    HW125412   3.999   4.071  11.626 -1.6950  0.4919  0.6472
 4650SOL    HW225413   3.986   3.959  11.535  1.3915  0.2993  1.2696
 4651SOL     OW25414   2.362   4.241  10.563 -0.4171 -0.1471  0.1384
 4651SOL    HW125415   2.320   4.208  10.483 -0.1069  2.9736 -1.3035
 4651SOL    HW225416   2.445   4.194  10.549 -1.3551 -1.8813  0.3454
 4652SOL     OW25417   2.381   2.012   9.253  0.4263  0.5374  0.2227
 4652SOL    HW125418   2.349   2.101   9.241  0.5213  1.0677  4.1042
 4652SOL    HW225419   2.414   1.993   9.165  0.2076  1.2282 -0.0044
 4653SOL     OW25420   1.642   1.856   1.617  0.4355  0.0881  0.0452
 4653SOL    HW125421   1.694   1.850   1.537 -0.2871  1.4854 -0.5376
 4653SOL    HW225422   1.701   1.814   1.679  0.3730 -0.2900 -0.1527
 4654SOL     OW25423   4.432   3.382   3.487 -0.2892  0.1697 -0.3657
 4654SOL    HW125424   4.395   3.435   3.556 -0.2741 -0.7205  0.3269
 4654SOL    HW225425   4.457   3.310   3.545  1.5554  1.9636  1.0540
 4655SOL     OW25426   0.201   3.256  10.601 -0.5048 -0.3431 -0.4933
 4655SOL    HW125427   0.292   3.270  10.626 -0.9804  1.1661  0.3844
 4655SOL    HW225428   0.174   3.173  10.641  2.2805 -0.1920  1.6787
 4656SOL     OW25429   3.968   3.237  12.236 -0.1719 -0.1323  0.4764
 4656SOL    HW125430   4.030   3.196  12.176  0.0482  0.6107  0.1894
 4656SOL    HW225431   3.940   3.307  12.177 -1.4656 -0.4493  0.7281
 4657SOL     OW25432   1.327   0.342  12.506 -0.2704 -0.6519  0.6389
 4657SOL    HW125433   1.376   0.336  12.589 -0.3049 -1.1002  0.6274
 4657SOL    HW225434   1.278   0.261  12.518  0.4394 -1.0119  1.1588
 4658SOL     OW25435   4.557   1.379   6.614  0.2576  0.0186 -0.3259
 4658SOL    HW125436   4.606   1.306   6.652 -0.7972 -0.9912 -0.8778
 4658SOL    HW225437   4.469   1.359   6.646 -0.4083  0.6727 -1.7701
 4659SOL     OW25438   3.945   0.505  17.658 -0.4306 -0.2403 -0.4387
 4659SOL    HW125439   3.876   0.488   0.028  0.0440 -0.2956  0.0472
 4659SOL    HW225440   3.966   0.592  17.692  0.2474 -1.0642  1.2356
 4660SOL     OW25441   0.802   2.972  17.557  0.5854 -0.4794  0.3020
 4660SOL    HW125442   0.719   3.015  17.580  0.7709  0.5050 -0.8475
 4660SOL    HW225443   0.823   2.990  17.465 -0.7774  0.0004  0.0869
 4661SOL     OW25444   1.711   1.155   2.060  0.9554  0.1237 -0.1102
 4661SOL    HW125445   1.724   1.246   2.087  0.1403 -0.0170  0.7840
 4661SOL    HW225446   1.797   1.113   2.063 -0.1826 -2.1553  1.4370
 4662SOL     OW25447   2.999   4.037   3.535  0.1786 -0.1105 -0.1800
 4662SOL    HW125448   3.026   4.006   3.449  0.0878 -1.8913  0.4351
 4662SOL    HW225449   3.059   3.983   3.586  0.6530  2.0751  1.6008
 4663SOL     OW25450   2.322   1.131   2.231  0.7487 -0.1142  0.5330
 4663SOL    HW125451   2.413   1.127   2.202  0.2092  1.6402 -1.4064
 4663SOL    HW225452   2.275   1.092   2.157  2.1254  0.2764 -0.5480
 4664SOL     OW25453   1.884   1.950   4.699  0.1894  0.3028  0.1801
 4664SOL    HW125454   1.799   1.934   4.741 -0.3813  1.5168 -0.5086
 4664SOL    HW225455   1.859   2.032   4.656 -1.7201 -0.8806 -0.9852
 4665SOL     OW25456   1.045   2.550   0.847  0.1299  0.4408 -0.0927
 4665SOL    HW125457   1.043   2.641   0.879 -1.2384  0.3249  0.1663
 4665SOL    HW225458   0.953   2.525   0.846  0.1445  0.3507  0.8099
 4666SOL     OW25459   1.916   2.877   7.930 -0.2974  0.3213 -0.3030
 4666SOL    HW125460   1.835   2.850   7.974 -0.8648  0.9063 -0.9908
 4666SOL    HW225461   1.967   2.894   8.009  1.5255 -1.0042 -1.1963
 4667SOL     OW25462   2.950   0.923  14.844  0.1970  0.2818 -0.0261
 4667SOL    HW125463   2.957   0.923  14.749 -1.8182 -2.2759 -0.1598
 4667SOL    HW225464   2.862   0.884  14.849  0.3663 -0.0820  0.1134
 4668SOL     OW25465   3.246   0.766   7.996  0.0693  0.3815 -0.3360
 4668SOL    HW125466   3.291   0.757   7.912 -0.4382  1.3652 -0.7076
 4668SOL    HW225467   3.309   0.741   8.065 -0.3957 -0.1915 -0.1168
 4669SOL     OW25468   0.741   0.736  10.055  0.5242  0.5092  0.4906
 4669SOL    HW125469   0.750   0.815  10.002  0.2053 -0.0997 -0.4592
 4669SOL    HW225470   0.646   0.731  10.067  0.3696  0.0937 -0.8939
 4670SOL     OW25471   2.969   2.000   1.885  0.5435  0.0311 -0.1636
 4670SOL    HW125472   3.033   1.952   1.831  0.2314  0.4133 -0.8707
 4670SOL    HW225473   2.898   2.021   1.824  0.8585  0.8568 -0.2369
 4671SOL     OW25474   4.326   2.955   6.452  0.3262 -0.5731  0.3809
 4671SOL    HW125475   4.367   2.870   6.435  1.6431 -0.3003  2.1940
 4671SOL    HW225476   4.247   2.956   6.399  0.9798 -0.7289 -0.5964
 4672SOL     OW25477   2.644   2.424   1.552  0.0414 -0.8636 -0.1743
 4672SOL    HW125478   2.594   2.380   1.484  0.9334 -1.4901 -0.4301
 4672SOL    HW225479   2.620   2.516   1.544  1.3851 -0.6328 -1.6028
 4673SOL     OW25480   0.030   4.203   5.630  0.0024 -0.0105 -0.0844
 4673SOL    HW125481   0.123   4.228   5.629  0.0371 -0.1252  0.7537
 4673SOL    HW225482   0.032   4.124   5.684 -2.6568  0.5643  0.8480
 4674SOL     OW25483   2.635   2.174   0.532 -0.3759 -0.6572 -0.0372
 4674SOL    HW125484   2.608   2.082   0.526  0.2827 -0.8594  0.1175
 4674SOL    HW225485   2.552   2.221   0.532 -0.7471 -1.2933 -1.8581
 4675SOL     OW25486   1.545   0.326   6.271 -0.1104  0.0173 -0.4476
 4675SOL    HW125487   1.485   0.279   6.213 -0.6055  1.1045 -0.8303
 4675SOL    HW225488   1.621   0.330   6.213  2.1495  0.3114  2.5158
 4676SOL     OW25489   2.603   1.997   7.628 -0.2200 -0.1484 -0.2024
 4676SOL    HW125490   2.626   1.943   7.704  1.5083 -0.3315 -0.8632
 4676SOL    HW225491   2.627   2.084   7.660 -0.0146 -0.1853 -0.2575
 4677SOL     OW25492   2.813   0.145   6.301 -0.3310  0.4739  0.0002
 4677SOL    HW125493   2.727   0.150   6.259  0.2298  2.6033 -0.9005
 4677SOL    HW225494   2.852   0.232   6.288  1.4645 -0.2585  0.4260
 4678SOL     OW25495   3.285   1.985   2.957  0.1814 -0.0551  0.2765
 4678SOL    HW125496   3.332   1.991   3.041 -0.1671 -0.1168  0.4730
 4678SOL    HW225497   3.198   2.003   2.992  0.1023 -2.9751  1.5923
 4679SOL     OW25498   2.521   1.443  13.044  0.2381 -0.1917 -0.0829
 4679SOL    HW125499   2.466   1.509  13.000 -0.2492 -0.0683  0.7268
 4679SOL    HW225500   2.606   1.486  13.032  0.3010 -0.2740  0.0762
 4680SOL     OW25501   1.898   3.322  10.937  0.3299 -0.2161 -0.2184
 4680SOL    HW125502   1.821   3.358  10.894 -1.0752  0.0590  2.5182
 4680SOL    HW225503   1.967   3.369  10.890  0.2586  1.7982  1.6895
 4681SOL     OW25504   3.174   0.486   2.185  0.4388 -0.0860 -0.4438
 4681SOL    HW125505   3.156   0.394   2.169  1.2326  0.0485 -2.1289
 4681SOL    HW225506   3.270   0.489   2.179  0.4103  0.5716 -0.6293
 4682SOL     OW25507   3.001   0.395   4.744 -0.0918 -0.0676  0.1182
 4682SOL    HW125508   3.024   0.485   4.721 -0.5491  0.2852  1.0243
 4682SOL    HW225509   3.026   0.386   4.836 -1.3142 -0.0763  0.4512
 4683SOL     OW25510   2.679   0.026   1.316 -0.0675 -0.4247  0.3260
 4683SOL    HW125511   2.677   0.010   1.410 -0.9530 -0.1380  0.3516
 4683SOL    HW225512   2.695   4.660   1.287 -0.8594 -0.0474 -1.3018
 4684SOL     OW25513   4.699   2.542   1.467 -0.2102 -0.2391 -0.2354
 4684SOL    HW125514   4.680   2.604   1.538  3.0752 -0.1546  0.5683
 4684SOL    HW225515   0.037   2.588   1.410 -1.0529  1.3454  0.1225
 4685SOL     OW25516   4.099   1.182   9.194  0.5747  0.5518 -0.2355
 4685SOL    HW125517   4.122   1.097   9.230 -1.9643  0.4185  1.0378
 4685SOL    HW225518   4.099   1.243   9.267 -0.8840  1.1691 -0.7538
 4686SOL     OW25519   1.030   1.394   5.568 -0.3379 -0.4002  0.4767
 4686SOL    HW125520   1.068   1.473   5.529 -1.9047 -0.6776 -1.6462
 4686SOL    HW225521   1.032   1.329   5.498 -0.5286  0.3188 -0.1978
 4687SOL     OW25522   2.041   3.087  12.160  0.1658  0.3943  0.0532
 4687SOL    HW125523   2.015   3.178  12.150 -1.2469  0.4870  4.6705
 4687SOL    HW225524   2.127   3.101  12.199 -0.6864  0.1495  2.0042
 4688SOL     OW25525   2.475   2.646   1.891 -0.0024  0.7869  0.2950
 4688SOL    HW125526   2.495   2.735   1.920 -2.2189  1.4675 -0.2565
 4688SOL    HW225527   2.458   2.666   1.799 -3.3327  2.2424  1.2160
 4689SOL     OW25528   2.509   0.405   5.515 -0.3409 -0.1615  0.1143
 4689SOL    HW125529   2.482   0.401   5.423 -2.6382  0.0552  0.7960
 4689SOL    HW225530   2.568   0.480   5.507  0.2755 -0.4753  1.7528
 4690SOL     OW25531   0.786   1.398   7.297 -0.3280  0.1205  0.3765
 4690SOL    HW125532   0.803   1.490   7.317  0.8109  0.3388 -1.6269
 4690SOL    HW225533   0.854   1.356   7.351 -0.7003 -2.8851 -1.5325
 4691SOL     OW25534   3.844   4.673  17.668  0.1359  0.7759  0.9395
 4691SOL    HW125535   3.805   0.036  17.681  0.1071  0.9762 -0.4525
 4691SOL    HW225536   3.877   4.658   0.061 -1.6119 -0.1242  1.4449
 4692SOL     OW25537   0.053   1.027   0.158  0.1718 -0.1120 -0.2532
 4692SOL    HW125538   0.095   0.941   0.161 -1.2550 -0.8147 -0.6559
 4692SOL    HW225539   4.687   1.009   0.186  0.6928 -0.3833  1.2194
 4693SOL     OW25540   0.810   4.276   3.882 -0.1137  0.3619  0.5860
 4693SOL    HW125541   0.889   4.314   3.844 -1.4965  1.3935 -1.2635
 4693SOL    HW225542   0.751   4.277   3.806  1.7727 -0.8962 -0.9020
 4694SOL     OW25543   2.978   1.799  17.551  0.1152 -0.0225 -0.5450
 4694SOL    HW125544   3.070   1.823  17.539 -0.0528  0.4395 -0.9419
 4694SOL    HW225545   2.953   1.889  17.573  2.2537  0.4107  0.0962
 4695SOL     OW25546   2.327   1.120  15.725 -0.0868  0.5083  0.6332
 4695SOL    HW125547   2.232   1.115  15.733 -0.0972 -0.9673 -0.3181
 4695SOL    HW225548   2.333   1.135  15.631 -1.0767  0.1701  0.5118
 4696SOL     OW25549   0.369   1.822  10.471  0.0599 -0.0854  0.6678
 4696SOL    HW125550   0.422   1.884  10.520  0.3589  0.8058 -0.7820
 4696SOL    HW225551   0.328   1.873  10.401  1.2666  1.9911  1.5083
 4697SOL     OW25552   0.219   4.503  13.487 -0.4666  0.4417  0.3372
 4697SOL    HW125553   0.310   4.475  13.474 -0.2132  0.8698  1.2070
 4697SOL    HW225554   0.172   4.428  13.449  1.0815 -0.3483 -0.0132
 4698SOL     OW25555   2.487   2.921   9.060 -0.5659 -0.1198  0.2131
 4698SOL    HW125556   2.514   3.013   9.062 -0.8224  0.0073 -3.2868
 4698SOL    HW225557   2.549   2.875   9.117  2.4331  1.6449 -1.6233
 4699SOL     OW25558   1.952   4.460   5.695  0.0832  0.4649 -0.3963
 4699SOL    HW125559   1.966   4.434   5.604  0.8661 -0.7043  0.0602
 4699SOL    HW225560   1.857   4.448   5.703  0.1247  1.6814  1.8315
 4700SOL     OW25561   4.515   2.086  12.527 -0.2694  0.1987 -0.1287
 4700SOL    HW125562   4.535   1.996  12.553 -3.5930 -0.4511  0.2255
 4700SOL    HW225563   4.493   2.085  12.434  2.0007  0.2452 -0.6548
 4701SOL     OW25564   2.901   2.002   2.131 -0.3883  0.3973 -0.2730
 4701SOL    HW125565   2.821   1.951   2.144 -2.2645  3.3813 -0.1185
 4701SOL    HW225566   2.907   1.997   2.035  0.7202 -0.1287 -0.1800
 4702SOL     OW25567   4.693   4.490  15.584  0.2052 -0.1374  0.0486
 4702SOL    HW125568   0.010   4.502  15.498  1.8574 -0.4951  0.7746
 4702SOL    HW225569   0.005   4.403  15.604  1.4702  0.5555  0.8548
 4703SOL     OW25570   0.215   0.764   0.130  0.5217  0.9699 -0.1268
 4703SOL    HW125571   0.231   0.774   0.224 -0.2434  0.5071  0.0511
 4703SOL    HW225572   0.298   0.725   0.102 -0.7970 -2.3910  0.6290
 4704SOL     OW25573   2.086   1.253   6.900 -0.0694 -0.0736 -0.3323
 4704SOL    HW125574   2.130   1.282   6.981 -0.0287  0.3015 -0.4907
 4704SOL    HW225575   2.131   1.169   6.902 -0.7719 -0.4202  1.7539
 4705SOL     OW25576   1.668   0.213  11.836 -0.7642  0.4037 -0.4337
 4705SOL    HW125577   1.630   0.236  11.921  1.0464  0.0798  0.4700
 4705SOL    HW225578   1.754   0.251  11.855 -0.7366  0.3837 -0.5188
 4706SOL     OW25579   1.688   1.281   6.041 -0.0619 -0.4701 -0.2390
 4706SOL    HW125580   1.673   1.375   6.049  0.7105 -0.3885  0.2256
 4706SOL    HW225581   1.618   1.259   6.102 -0.2280  0.0900 -0.2227
 4707SOL     OW25582   4.718   3.189   6.234 -0.1074  0.1532  0.5863
 4707SOL    HW125583   4.636   3.233   6.211 -0.8785 -1.8332 -0.4845
 4707SOL    HW225584   0.017   3.152   6.149 -2.1991 -0.8244  0.4692
 4708SOL     OW25585   3.445   4.242   5.733  0.5985  0.1598  0.2329
 4708SOL    HW125586   3.421   4.311   5.795  0.3320 -0.7788  1.1731
 4708SOL    HW225587   3.511   4.201   5.790 -0.7377 -0.3061  1.4281
 4709SOL     OW25588   2.912   1.703   4.009  0.2258 -0.4960  0.3242
 4709SOL    HW125589   2.876   1.719   4.096 -0.5781  0.7656 -0.2307
 4709SOL    HW225590   2.847   1.640   3.978  1.8063 -2.3418  0.7873
 4710SOL     OW25591   0.185   1.664   0.325  0.0734 -0.0286 -0.3455
 4710SOL    HW125592   0.160   1.757   0.328  1.5819  0.3437  1.1458
 4710SOL    HW225593   0.199   1.647   0.232 -1.2823  0.5970 -0.6677
 4711SOL     OW25594   3.217   0.990  10.722 -0.3659 -0.8278  0.5850
 4711SOL    HW125595   3.189   1.055  10.657  1.5752  1.0244  1.5919
 4711SOL    HW225596   3.311   1.004  10.714 -0.6328  0.2373 -0.8016
 4712SOL     OW25597   2.139   4.042   9.565  0.0799 -0.4348  0.1534
 4712SOL    HW125598   2.229   4.049   9.533  0.5317 -1.5785  1.1823
 4712SOL    HW225599   2.125   4.128   9.605  0.1828 -0.0080 -0.7264
 4713SOL     OW25600   0.926   0.203  10.091 -0.3601 -0.1547  0.5127
 4713SOL    HW125601   0.972   0.226  10.172  0.9549 -0.7462 -0.0715
 4713SOL    HW225602   0.883   0.289  10.091  0.4014  0.2215  0.2928
 4714SOL     OW25603   3.591   3.414  17.307  0.4484  0.0525  0.0689
 4714SOL    HW125604   3.558   3.448  17.391 -0.1123 -0.0545 -0.1090
 4714SOL    HW225605   3.682   3.391  17.326  0.7191  0.0461 -1.2947
 4715SOL     OW25606   1.164   0.220   2.656 -0.2700  0.1856  0.2742
 4715SOL    HW125607   1.165   0.155   2.726 -0.8719  0.6614  0.7178
 4715SOL    HW225608   1.163   0.160   2.581 -1.0049 -2.4350  2.3722
 4716SOL     OW25609   3.763   0.038   3.604 -0.3192 -0.0385 -0.7288
 4716SOL    HW125610   3.743   0.045   3.697  0.0643 -1.0504 -0.5636
 4716SOL    HW225611   3.706   0.106   3.569 -1.1395 -1.2738 -1.8282
 4717SOL     OW25612   2.528   1.332   3.714  0.2755  0.4509  0.5890
 4717SOL    HW125613   2.437   1.303   3.710  0.3728 -0.0299  1.9626
 4717SOL    HW225614   2.553   1.320   3.622  1.1705 -0.9256  1.0063
 4718SOL     OW25615   1.951   4.531   4.138  0.0884  0.2333  0.6544
 4718SOL    HW125616   1.935   4.440   4.164  0.5940  0.4686  1.7571
 4718SOL    HW225617   1.875   4.571   4.179 -0.0954  1.0307 -0.4617
 4719SOL     OW25618   4.193   1.742  13.401  0.3714 -0.2459  0.8288
 4719SOL    HW125619   4.123   1.801  13.374  1.1904  0.1580 -0.4359
 4719SOL    HW225620   4.148   1.677  13.454  1.1941  0.5471  2.5026
 4720SOL     OW25621   3.981   1.028   4.806  0.2205  0.6076  0.1631
 4720SOL    HW125622   4.045   1.072   4.862 -1.3185  1.9835  0.8540
 4720SOL    HW225623   4.045   0.975   4.759 -0.5431 -0.6758  0.6039
 4721SOL     OW25624   0.412   1.142   0.057 -0.2743 -0.1613  0.3953
 4721SOL    HW125625   0.326   1.159   0.019  0.2296 -0.9626 -1.1397
 4721SOL    HW225626   0.435   1.072  17.691 -0.4322 -0.2246  0.4086
 4722SOL     OW25627   1.678   1.458   8.653 -0.1843  0.0259  0.5361
 4722SOL    HW125628   1.754   1.508   8.681  0.7451 -1.8016  1.2524
 4722SOL    HW225629   1.658   1.493   8.566 -0.4412 -0.2406  0.4854
 4723SOL     OW25630   4.625   3.049   3.159 -0.0859 -0.0954  0.1269
 4723SOL    HW125631   4.669   3.012   3.235  0.5361 -1.5843 -0.9526
 4723SOL    HW225632   4.558   3.104   3.199  1.8024  1.5270  1.0275
 4724SOL     OW25633   2.019   1.548   1.347  0.2821 -0.7363  0.2048
 4724SOL    HW125634   1.992   1.512   1.262 -0.5063  0.9614 -0.2525
 4724SOL    HW225635   2.111   1.560   1.323  0.1375  1.2072  0.6638
 4725SOL     OW25636   2.099   2.841   6.091  0.2387 -0.4238  0.0584
 4725SOL    HW125637   2.143   2.917   6.054 -0.9084 -1.2031 -2.9189
 4725SOL    HW225638   2.098   2.789   6.011  2.4563 -0.0503 -0.2049
 4726SOL     OW25639   1.852   4.261   7.395 -0.0325 -0.3884  0.5079
 4726SOL    HW125640   1.897   4.184   7.359  0.6818  0.0952  0.3732
 4726SOL    HW225641   1.925   4.311   7.433  1.9148 -1.1045 -2.2445
 4727SOL     OW25642   0.431   3.454   8.190  0.9720 -0.2939  0.1140
 4727SOL    HW125643   0.345   3.480   8.157  0.5809 -2.1567 -0.3167
 4727SOL    HW225644   0.427   3.359   8.177  0.5787 -0.4934  1.6527
 4728SOL     OW25645   2.904   3.968   8.728 -0.5529  0.2922 -0.0190
 4728SOL    HW125646   2.949   3.884   8.732 -1.7689 -0.2498  2.3199
 4728SOL    HW225647   2.943   3.998   8.646  1.1539 -1.0280  0.3146
 4729SOL     OW25648   3.620   3.235   3.028  0.0462  0.4545 -0.3012
 4729SOL    HW125649   3.714   3.224   3.011  0.0345  0.5429 -0.4167
 4729SOL    HW225650   3.633   3.327   3.049 -0.1226  0.2359  0.7868
 4730SOL     OW25651   4.478   0.803   0.640  0.0478 -0.0134  0.3707
 4730SOL    HW125652   4.459   0.877   0.583 -1.2829 -0.2817  0.4548
 4730SOL    HW225653   4.547   0.836   0.697  0.9145  0.7144 -1.0992
 4731SOL     OW25654   4.630   3.451   7.865 -0.3312 -0.0829 -0.0760
 4731SOL    HW125655   4.692   3.516   7.832  1.2075 -1.5254 -0.0370
 4731SOL    HW225656   4.681   3.427   7.942 -0.9728 -2.7343 -0.4788
 4732SOL     OW25657   2.800   3.966   6.442 -0.9727  0.7573 -0.1670
 4732SOL    HW125658   2.743   3.945   6.516 -1.3722  0.9724 -0.4116
 4732SOL    HW225659   2.873   4.006   6.490 -1.0741  1.6194 -0.7281
 4733SOL     OW25660   2.383   0.925   1.191  0.4568  0.1053  0.2943
 4733SOL    HW125661   2.409   0.890   1.277  0.4147  0.2998  0.3878
 4733SOL    HW225662   2.428   0.866   1.132  2.0546  0.5110  1.1218
 4734SOL     OW25663   0.575   2.669  14.177 -0.2392 -0.2033 -0.3929
 4734SOL    HW125664   0.556   2.649  14.085 -0.5310  1.4391 -0.6845
 4734SOL    HW225665   0.639   2.599  14.192 -1.4084 -0.1142  4.7639
 4735SOL     OW25666   3.770   1.386  12.839 -0.5203  0.0916 -0.5130
 4735SOL    HW125667   3.697   1.419  12.788 -0.1639 -0.8033 -1.6091
 4735SOL    HW225668   3.831   1.359  12.770  1.5720  0.4617  1.1787
 4736SOL     OW25669   1.228   2.230   3.254  0.2304  0.1769  0.1334
 4736SOL    HW125670   1.217   2.173   3.329 -2.2261  0.9752  0.3715
 4736SOL    HW225671   1.161   2.294   3.280  0.2289 -1.0183  2.9609
 4737SOL     OW25672   1.973   1.742   8.746 -0.2663 -0.1573  0.2726
 4737SOL    HW125673   1.879   1.749   8.765  0.2129 -0.2085  2.6592
 4737SOL    HW225674   1.975   1.649   8.726 -0.9132 -0.7221  2.8369
 4738SOL     OW25675   3.124   1.838   6.489 -0.2052  0.2560  0.3622
 4738SOL    HW125676   3.115   1.787   6.569  0.5933 -0.4644 -0.0118
 4738SOL    HW225677   3.161   1.922   6.517  0.7054  0.1596 -0.5566
 4739SOL     OW25678   1.753   0.832   8.120  0.2430 -0.4464  0.0312
 4739SOL    HW125679   1.796   0.915   8.141 -0.3194  0.3710 -2.0321
 4739SOL    HW225680   1.819   0.772   8.154  0.0035 -0.4064  0.5578
 4740SOL     OW25681   3.681   0.787   3.458 -0.8261 -0.3716  0.1375
 4740SOL    HW125682   3.658   0.849   3.389  1.3662 -0.1209 -0.3978
 4740SOL    HW225683   3.767   0.759   3.424  0.2536  0.8221  1.9038
 4741SOL     OW25684   0.123   2.114   7.101 -0.1445  0.5887 -0.4725
 4741SOL    HW125685   0.109   2.124   7.006 -0.1015  0.2829 -0.5121
 4741SOL    HW225686   0.201   2.059   7.107  0.1494  1.2778  1.9952
 4742SOL     OW25687   1.450   1.370   0.548  0.6706 -0.4711 -0.3778
 4742SOL    HW125688   1.466   1.428   0.622  2.8199 -0.6238 -0.7200
 4742SOL    HW225689   1.494   1.412   0.474  0.1089 -0.6734 -0.8212
 4743SOL     OW25690   2.285   0.320  11.876  0.5413  0.0427  0.0065
 4743SOL    HW125691   2.362   0.318  11.934 -0.1152 -0.9542  0.8522
 4743SOL    HW225692   2.326   0.363  11.801 -0.0034 -1.0833 -0.9377
 4744SOL     OW25693   0.033   2.375   8.676  0.1239  0.1780 -0.1245
 4744SOL    HW125694   0.067   2.288   8.696  0.1422  0.5822  1.5567
 4744SOL    HW225695   0.082   2.427   8.739  0.2667  0.3847 -0.4024
 4745SOL     OW25696   4.661   1.360   8.005  0.3493  0.4018  0.1007
 4745SOL    HW125697   4.657   1.274   7.963 -1.7855  0.1174  0.8920
 4745SOL    HW225698   4.686   1.331   8.093  1.3962 -1.1646 -0.7091
 4746SOL     OW25699   1.906   2.702   2.978 -0.2125 -0.4012  0.2609
 4746SOL    HW125700   1.922   2.664   3.064  1.4310 -2.1777 -0.8212
 4746SOL    HW225701   1.815   2.683   2.956 -0.2026 -0.5898  0.3814
 4747SOL     OW25702   1.469   2.252   8.526 -0.7605  0.4686  0.0990
 4747SOL    HW125703   1.488   2.321   8.462 -0.1777 -0.0271 -0.2587
 4747SOL    HW225704   1.469   2.288   8.615 -0.1669 -0.8021  0.6084
 4748SOL     OW25705   0.499   3.704  14.985  0.4565  0.7609  0.4543
 4748SOL    HW125706   0.419   3.730  15.029  1.7689  1.0660  2.6944
 4748SOL    HW225707   0.489   3.609  14.986  0.8635  0.7006 -1.1376
 4749SOL     OW25708   3.240   1.624  15.416 -0.3183  0.5483  0.2693
 4749SOL    HW125709   3.170   1.626  15.481  0.2341  2.1878  0.8091
 4749SOL    HW225710   3.260   1.717  15.410  4.0493 -0.2604  2.3649
 4750SOL     OW25711   3.689   1.185   3.885 -0.3883  0.0130  0.3336
 4750SOL    HW125712   3.652   1.243   3.818 -0.0973 -2.6977 -2.1886
 4750SOL    HW225713   3.733   1.250   3.940 -0.9269  0.6218  0.0522
 4751SOL     OW25714   4.305   4.098  12.244  0.1207 -0.2224  0.1244
 4751SOL    HW125715   4.288   4.193  12.244  1.7208  0.0456  2.8739
 4751SOL    HW225716   4.262   4.064  12.322 -0.7229  1.8882  0.5861
 4752SOL     OW25717   1.236   1.926   8.095  0.0671 -0.3527 -0.8280
 4752SOL    HW125718   1.306   1.942   8.158 -2.5289 -0.3899  2.0614
 4752SOL    HW225719   1.247   1.836   8.064 -0.3022 -0.9193  0.7173
 4753SOL     OW25720   2.303   1.751   1.877  0.3064  0.8438  0.1231
 4753SOL    HW125721   2.244   1.824   1.893 -2.2410 -1.5958  1.9046
 4753SOL    HW225722   2.253   1.694   1.819 -0.3960  1.5227  0.0703
 4754SOL     OW25723   1.895   3.055   4.673  0.1386  0.1939  0.6168
 4754SOL    HW125724   1.842   3.010   4.739  0.1146  0.3226  0.6830
 4754SOL    HW225725   1.912   2.987   4.607 -3.2767  1.0324 -1.1286
 4755SOL     OW25726   2.431   2.468   7.618 -0.4281 -0.8868  0.0778
 4755SOL    HW125727   2.425   2.477   7.713 -2.2652 -0.2256 -0.1043
 4755SOL    HW225728   2.520   2.434   7.610 -0.4474 -0.8996 -0.0813
 4756SOL     OW25729   3.228   1.547  17.221  0.1824 -0.5792  0.2947
 4756SOL    HW125730   3.189   1.504  17.145 -0.3141 -0.0665  0.2569
 4756SOL    HW225731   3.148   1.568  17.270  0.1513  1.0491 -0.4570
 4757SOL     OW25732   2.775   0.732   5.250  0.0542  0.3440  0.2089
 4757SOL    HW125733   2.781   0.827   5.260  2.0883  0.2351 -0.0047
 4757SOL    HW225734   2.790   0.732   5.156  1.4322  0.8620  0.4176
 4758SOL     OW25735   2.218   3.513   2.984  0.6245  0.2374  0.0113
 4758SOL    HW125736   2.262   3.560   3.055 -1.6989  0.5534  1.2434
 4758SOL    HW225737   2.126   3.525   3.010  0.2188  1.0330 -1.7550
 4759SOL     OW25738   0.487   2.828   5.753  0.3189  0.6269 -0.2864
 4759SOL    HW125739   0.472   2.770   5.678  0.3391 -0.2982  0.4283
 4759SOL    HW225740   0.401   2.869   5.759  0.0083 -0.2595  1.4260
 4760SOL     OW25741   3.502   0.541  14.926 -0.1901  0.4114  0.0389
 4760SOL    HW125742   3.515   0.620  14.874  0.5997  1.2836  1.5614
 4760SOL    HW225743   3.412   0.517  14.902  0.7415 -2.8511 -0.1512
 4761SOL     OW25744   0.988   0.100   1.222  0.1005  0.0246 -0.9521
 4761SOL    HW125745   1.000   0.124   1.314  0.2850 -1.8901 -0.4845
 4761SOL    HW225746   1.078   0.089   1.191 -0.2842  0.2517 -2.1524
 4762SOL     OW25747   1.617   3.250   2.273  0.4686  0.0297 -0.0286
 4762SOL    HW125748   1.552   3.268   2.205 -0.1729 -0.2003  0.5165
 4762SOL    HW225749   1.674   3.186   2.231  0.6590  0.8445 -1.0018
 4763SOL     OW25750   3.986   2.698  10.634 -0.3239  0.4245 -0.5812
 4763SOL    HW125751   3.895   2.701  10.665 -0.3649  3.5664 -0.9941
 4763SOL    HW225752   4.010   2.607  10.650 -1.2881  0.1234 -0.8345
 4764SOL     OW25753   3.616   1.735  11.798  0.1659 -0.5054 -0.1248
 4764SOL    HW125754   3.532   1.749  11.754  0.7286 -2.0220 -1.6949
 4764SOL    HW225755   3.678   1.736  11.725 -0.4495  0.2105 -0.6447
 4765SOL     OW25756   1.919   3.973   2.492 -0.1402  0.0738  0.0650
 4765SOL    HW125757   1.947   3.884   2.467 -0.6392 -0.1113  0.1789
 4765SOL    HW225758   1.853   4.001   2.429 -0.9311  0.9487  1.3000
 4766SOL     OW25759   0.346   3.270  17.514 -0.6770  0.0729 -0.1653
 4766SOL    HW125760   0.400   3.289  17.438  0.3112  1.0375  0.7882
 4766SOL    HW225761   0.296   3.196  17.479 -1.5999  1.6878 -2.2352
 4767SOL     OW25762   1.932   0.804   0.401  0.8116  0.2938  0.7724
 4767SOL    HW125763   1.955   0.869   0.468 -0.1993 -0.3169  1.7219
 4767SOL    HW225764   1.874   0.854   0.343 -0.8797  0.4249  2.5680
 4768SOL     OW25765   0.998   1.126  13.854 -0.0022 -0.3244  0.0207
 4768SOL    HW125766   0.939   1.196  13.825 -0.0307 -0.2421  0.2810
 4768SOL    HW225767   0.958   1.052  13.809 -1.0294 -0.0406  0.4866
 4769SOL     OW25768   1.853   1.819   2.383  0.0701 -0.4472 -0.2537
 4769SOL    HW125769   1.874   1.826   2.290 -1.4113 -0.7425 -0.6166
 4769SOL    HW225770   1.762   1.847   2.387  0.1599 -0.1659 -0.2126
 4770SOL     OW25771   3.276   3.560   5.631  0.1738  0.4991 -0.9859
 4770SOL    HW125772   3.365   3.532   5.652 -0.7544  0.9954  3.6198
 4770SOL    HW225773   3.293   3.595   5.544  2.0381 -0.0768 -0.8498
 4771SOL     OW25774   0.783   1.414   4.466  0.4547 -0.3567  0.3902
 4771SOL    HW125775   0.712   1.368   4.512 -0.7440  0.2480 -0.8310
 4771SOL    HW225776   0.752   1.504   4.457 -0.9807 -0.8764 -0.0215
 4772SOL     OW25777   1.169   4.310  16.170 -0.4588 -0.3868  0.3447
 4772SOL    HW125778   1.077   4.288  16.151 -1.2236  3.4825 -0.5256
 4772SOL    HW225779   1.173   4.404  16.153 -1.5552 -0.3711  0.1806
 4773SOL     OW25780   3.288   2.055  15.153  0.0752  0.4924  0.6885
 4773SOL    HW125781   3.366   2.004  15.130  1.0508  1.8347  1.0276
 4773SOL    HW225782   3.262   1.996  15.224 -0.8220  0.7872  0.6072
 4774SOL     OW25783   3.781   3.003   8.348 -0.1768  0.5206  0.5093
 4774SOL    HW125784   3.748   2.914   8.340 -3.4387  1.8985 -1.2351
 4774SOL    HW225785   3.862   2.981   8.393  0.0277 -0.0393 -0.1306
 4775SOL     OW25786   2.811   3.808   6.833 -0.3859 -0.1212 -0.2944
 4775SOL    HW125787   2.814   3.715   6.853 -0.2871  0.0110  0.3060
 4775SOL    HW225788   2.865   3.817   6.755  1.1847  0.2601  0.8372
 4776SOL     OW25789   2.794   1.621   6.776 -0.1800  0.0656 -0.5790
 4776SOL    HW125790   2.746   1.569   6.841 -0.9292 -0.4551 -1.5378
 4776SOL    HW225791   2.807   1.559   6.705 -1.2732 -1.4986  0.5856
 4777SOL     OW25792   0.716   2.905  14.005 -0.1730 -0.4951  0.2653
 4777SOL    HW125793   0.806   2.882  14.029  0.3273  0.4821 -0.6886
 4777SOL    HW225794   0.668   2.885  14.086 -0.3798 -3.4062 -0.5442
 4778SOL     OW25795   0.601   4.208   0.162  0.7877  0.3631 -0.4036
 4778SOL    HW125796   0.570   4.119   0.145  0.2038  0.2820  1.0077
 4778SOL    HW225797   0.678   4.221   0.106 -0.3471  0.7137 -1.8634
 4779SOL     OW25798   3.198   2.194   2.150 -0.6438 -0.1144 -0.4221
 4779SOL    HW125799   3.248   2.140   2.211 -1.4179  1.4014  1.5599
 4779SOL    HW225800   3.261   2.266   2.143 -0.6565 -0.0025  0.5885
 4780SOL     OW25801   4.532   1.899   0.777 -0.0014 -0.2834  0.5996
 4780SOL    HW125802   4.498   1.861   0.696 -0.4428 -1.4972  1.3496
 4780SOL    HW225803   4.502   1.989   0.767  1.8842  0.4887  2.0399
 4781SOL     OW25804   1.451   1.525  15.225 -0.2596  0.1725  0.2624
 4781SOL    HW125805   1.440   1.610  15.269  0.5152 -0.3413  1.4497
 4781SOL    HW225806   1.509   1.551  15.154  1.3602 -1.3864  1.0182
 4782SOL     OW25807   0.278   2.712   0.631 -0.3283 -0.1940  0.0630
 4782SOL    HW125808   0.263   2.714   0.537 -0.6516  1.7878  0.1503
 4782SOL    HW225809   0.366   2.678   0.648  0.3261  0.3155 -2.2663
 4783SOL     OW25810   1.283   3.275   4.820  0.0208  0.0267  0.1855
 4783SOL    HW125811   1.306   3.212   4.752 -0.8407  2.0436 -1.9791
 4783SOL    HW225812   1.219   3.335   4.782 -1.5569 -1.8602 -0.1355
 4784SOL     OW25813   3.874   2.896   1.807  0.2282 -0.1223 -0.2320
 4784SOL    HW125814   3.953   2.854   1.773  1.1452  0.2362  1.4528
 4784SOL    HW225815   3.859   2.861   1.895  1.1472  0.5281  0.1913
 4785SOL     OW25816   3.328   1.139   8.157 -0.4822  0.4637  0.0603
 4785SOL    HW125817   3.299   1.221   8.118  0.8086  0.4349 -0.9811
 4785SOL    HW225818   3.420   1.141   8.131 -0.4693  2.8065  0.3700
 4786SOL     OW25819   2.127   0.647   5.762 -0.3610  0.0365  0.5877
 4786SOL    HW125820   2.131   0.571   5.703  2.7497  0.8692 -0.2538
 4786SOL    HW225821   2.220   0.659   5.784 -0.4194 -0.8138  1.3373
 4787SOL     OW25822   2.828   2.062   0.290 -0.7088 -0.4605  1.0224
 4787SOL    HW125823   2.747   2.059   0.239 -0.8682 -1.4645  1.3572
 4787SOL    HW225824   2.862   1.974   0.274 -0.1398  0.2086 -1.5243
 4788SOL     OW25825   0.530   0.370   8.617 -0.2639 -0.0886 -0.5606
 4788SOL    HW125826   0.514   0.285   8.577 -0.0190 -0.3815 -0.0427
 4788SOL    HW225827   0.444   0.402   8.644 -0.2534  0.2666 -0.9499
 4789SOL     OW25828   4.025   3.426   5.148  0.0394  0.9303  0.1681
 4789SOL    HW125829   4.081   3.360   5.107 -2.3405 -1.3328  0.5568
 4789SOL    HW225830   4.001   3.478   5.071 -0.2992  1.2603  0.4949
 4790SOL     OW25831   3.590   1.577   4.182 -0.2183  0.3149 -0.2825
 4790SOL    HW125832   3.668   1.612   4.138  0.0003 -0.0686 -0.1967
 4790SOL    HW225833   3.580   1.638   4.255 -1.0815 -0.6775  0.4340
 4791SOL     OW25834   2.097   1.635   4.411  0.3007  0.4030 -0.3557
 4791SOL    HW125835   2.028   1.601   4.469 -1.2968  4.1160 -0.1026
 4791SOL    HW225836   2.061   1.714   4.371 -0.9380  0.5543  1.0532
 4792SOL     OW25837   2.275   0.769   3.983 -0.1469  0.4047  0.3533
 4792SOL    HW125838   2.232   0.847   3.951  0.8563  0.7498 -0.1593
 4792SOL    HW225839   2.282   0.777   4.078  0.5808 -3.0015  0.5901
 4793SOL     OW25840   4.129   4.244   8.062  0.4509 -0.5732 -0.6022
 4793SOL    HW125841   4.039   4.211   8.059  0.3535 -0.4031  0.4535
 4793SOL    HW225842   4.122   4.285   8.149  1.2147  0.3460 -0.9787
 4794SOL     OW25843   2.504   0.888   7.518  0.2258 -0.1859  0.7045
 4794SOL    HW125844   2.427   0.883   7.576 -0.1313 -2.4494  0.0479
 4794SOL    HW225845   2.542   0.807   7.554  2.2421 -0.3225 -1.8025
 4795SOL     OW25846   2.343   0.225   7.659  0.1552  0.1916 -0.3839
 4795SOL    HW125847   2.305   0.195   7.576  4.4543 -2.1324 -1.5280
 4795SOL    HW225848   2.420   0.271   7.625  0.0614  0.8484  0.3127
 4796SOL     OW25849   3.727   1.460  11.253 -0.2689  0.3458  0.5491
 4796SOL    HW125850   3.754   1.368  11.245  0.2252  0.3857  1.8875
 4796SOL    HW225851   3.633   1.449  11.234 -0.3322  2.3866 -0.2829
 4797SOL     OW25852   0.128   4.441   6.597 -0.3963 -0.3340 -0.1053
 4797SOL    HW125853   0.209   4.483   6.566 -0.8283  0.6126  0.0374
 4797SOL    HW225854   0.131   4.459   6.691  1.5742  1.9308 -0.5936
 4798SOL     OW25855   2.606   3.590   3.075  0.1058  0.0911  0.0199
 4798SOL    HW125856   2.685   3.547   3.108  0.4590 -1.1298 -2.4479
 4798SOL    HW225857   2.637   3.622   2.991  0.0945 -1.7857 -0.6819
 4799SOL     OW25858   3.971   3.609  13.098 -0.2754  0.1800 -0.0594
 4799SOL    HW125859   3.912   3.567  13.160  0.7780 -0.5906  0.4059
 4799SOL    HW225860   4.009   3.676  13.155 -1.6405  1.1184 -0.2680
 4800SOL     OW25861   2.491   3.084   3.793 -0.2763  0.6393  0.1327
 4800SOL    HW125862   2.417   3.139   3.816 -0.3696  0.9285 -0.8449
 4800SOL    HW225863   2.560   3.129   3.842 -0.6013  1.5441 -0.2525
 4801SOL     OW25864   3.578   2.467   5.890  0.1998 -0.2150 -0.6475
 4801SOL    HW125865   3.628   2.455   5.810  3.4464 -0.4071  1.4188
 4801SOL    HW225866   3.652   2.458   5.950  0.7680 -3.7668 -1.9373
 4802SOL     OW25867   0.027   4.650   4.583  1.0014  0.2201  0.3357
 4802SOL    HW125868   4.658   4.633   4.560  1.1109  0.1474 -0.0541
 4802SOL    HW225869   0.015   4.655   4.678  0.0551  0.3963  0.2140
 4803SOL     OW25870   3.485   2.769  10.328  0.1804  0.0111  0.7314
 4803SOL    HW125871   3.517   2.843  10.276 -0.3090 -1.0055 -1.0054
 4803SOL    HW225872   3.396   2.803  10.339 -0.2039 -0.1982 -1.7027
 4804SOL     OW25873   2.071   1.996   6.759 -0.6330  0.1693  0.0099
 4804SOL    HW125874   2.005   1.942   6.802  0.8370 -2.4552 -1.0060
 4804SOL    HW225875   2.113   2.046   6.829  0.4185  0.7400 -1.0355
 4805SOL     OW25876   2.761   1.351   0.180  0.3234  0.5743 -0.6681
 4805SOL    HW125877   2.817   1.360   0.103 -1.4256  0.8555 -1.9079
 4805SOL    HW225878   2.705   1.276   0.162  1.7291 -0.4497 -0.7959
 4806SOL     OW25879   3.757   1.050   7.749  0.6941  0.6117  0.1259
 4806SOL    HW125880   3.845   1.087   7.755  1.6940 -1.3395 -2.9244
 4806SOL    HW225881   3.710   1.117   7.701 -2.4435 -2.0398 -0.5186
 4807SOL     OW25882   2.531   4.672   3.808 -0.4351 -0.5995 -0.0192
 4807SOL    HW125883   2.445   4.649   3.844  0.1970 -1.4773  0.9274
 4807SOL    HW225884   2.521   4.689   3.714  1.6951  0.0838 -0.1052
 4808SOL     OW25885   2.091   0.190   2.711  0.5447  0.4502 -0.1671
 4808SOL    HW125886   2.126   0.257   2.770 -0.2192  0.5935  0.1314
 4808SOL    HW225887   2.043   0.141   2.779  0.1316 -0.8109 -1.3721
 4809SOL     OW25888   4.664   4.197   6.695 -0.0423  0.2265 -0.2103
 4809SOL    HW125889   0.009   4.133   6.673 -0.9707 -0.5972 -0.7451
 4809SOL    HW225890   4.710   4.273   6.661  0.2726  0.7017  1.3080
 4810SOL     OW25891   1.975   2.135   2.506  0.0061 -0.8622  0.3399
 4810SOL    HW125892   2.039   2.193   2.546 -0.2480 -0.8548  0.7312
 4810SOL    HW225893   2.032   2.060   2.492  2.1903  0.9466 -0.4831
 4811SOL     OW25894   1.143   2.302   4.247 -0.4864 -0.4270 -0.2201
 4811SOL    HW125895   1.146   2.246   4.169 -2.4801 -1.6502  0.5885
 4811SOL    HW225896   1.057   2.339   4.227 -0.3220  0.6649  1.1095
 4812SOL     OW25897   0.218   4.238   7.659 -0.0020  0.1277 -0.0851
 4812SOL    HW125898   0.274   4.244   7.581  1.2234  1.3195  0.8952
 4812SOL    HW225899   0.129   4.231   7.623 -0.2689  2.0864  0.2354
 4813SOL     OW25900   3.378   4.366   9.320  0.1788 -0.2577  0.2964
 4813SOL    HW125901   3.390   4.319   9.402 -1.2810 -0.7863  0.2057
 4813SOL    HW225902   3.292   4.403   9.340  0.8383  0.0413  2.5115
 4814SOL     OW25903   2.745   1.220   9.243 -0.4127  0.4688 -0.2931
 4814SOL    HW125904   2.713   1.130   9.232 -2.0453  1.0726 -0.4206
 4814SOL    HW225905   2.668   1.254   9.289 -1.6158  0.9693 -2.6878
 4815SOL     OW25906   3.858   2.060   8.066 -0.1767 -0.5018 -0.4991
 4815SOL    HW125907   3.826   2.148   8.085 -3.5792 -1.5801 -1.2222
 4815SOL    HW225908   3.944   2.069   8.106 -0.6770  3.7168 -0.4247
 4816SOL     OW25909   1.984   3.748   7.524  0.1452  0.3838  0.2543
 4816SOL    HW125910   2.052   3.738   7.591  0.0412 -0.5798  0.2136
 4816SOL    HW225911   2.045   3.757   7.450 -0.5448 -1.5711 -0.5636
 4817SOL     OW25912   3.846   0.932   3.669  1.0015  0.0826  0.1601
 4817SOL    HW125913   3.922   0.891   3.627 -0.1241 -1.4309 -0.3699
 4817SOL    HW225914   3.889   0.921   3.754  0.9402  0.2091  0.2078
 4818SOL     OW25915   3.795   4.391   1.779 -0.3789  0.3373 -0.2082
 4818SOL    HW125916   3.889   4.385   1.763 -0.6226 -1.4735 -0.9052
 4818SOL    HW225917   3.774   4.305   1.743 -0.7065  0.8024 -1.1118
 4819SOL     OW25918   4.522   0.528  12.230  0.0016  0.7381  0.4723
 4819SOL    HW125919   4.576   0.530  12.151  0.4196 -2.1496  0.7115
 4819SOL    HW225920   4.437   0.555  12.197  0.9693  0.0500 -2.5601
 4820SOL     OW25921   2.847   4.441   5.026  0.7511  0.6110 -0.2369
 4820SOL    HW125922   2.883   4.362   4.986 -1.5103 -0.6509  0.2095
 4820SOL    HW225923   2.770   4.405   5.070  1.8894 -1.2160  0.2676
 4821SOL     OW25924   4.614   3.929   7.092  0.3051 -0.0578  0.7659
 4821SOL    HW125925   4.523   3.927   7.065  0.6312  1.0224 -0.3952
 4821SOL    HW225926   4.635   3.836   7.079  0.1498 -0.0496  0.4678
 4822SOL     OW25927   2.355   1.395  15.739 -0.0992  0.2028 -0.0514
 4822SOL    HW125928   2.432   1.383  15.683  0.5712 -0.8175  1.1002
 4822SOL    HW225929   2.327   1.305  15.757 -1.9807  0.8915  0.3596
 4823SOL     OW25930   3.088   1.333   6.309  0.1405  0.2706  0.0385
 4823SOL    HW125931   3.147   1.361   6.240 -0.3478 -2.4323 -1.4871
 4823SOL    HW225932   3.063   1.248   6.273 -1.5168  0.1130  1.5302
 4824SOL     OW25933   3.490   2.198  14.320  0.2209 -0.3438  0.3199
 4824SOL    HW125934   3.557   2.246  14.272 -0.0734 -1.6260 -1.3732
 4824SOL    HW225935   3.439   2.271  14.357 -0.8234 -0.6045 -0.5955
 4825SOL     OW25936   2.155   1.663   7.544  0.5095  0.3451  0.1315
 4825SOL    HW125937   2.200   1.593   7.591 -0.4054 -0.1343  0.2873
 4825SOL    HW225938   2.212   1.740   7.551 -0.7384  1.1816  1.1463
 4826SOL     OW25939   1.266   0.536   9.393  0.0348  0.4864  0.1208
 4826SOL    HW125940   1.224   0.608   9.440 -1.9662  1.2923 -2.9044
 4826SOL    HW225941   1.358   0.559   9.402 -0.1222  1.1404  0.0625
 4827SOL     OW25942   0.763   3.276  17.615 -0.4462  0.2356  0.0849
 4827SOL    HW125943   0.725   3.239  17.535 -1.5417 -0.3887  0.8881
 4827SOL    HW225944   0.689   3.306  17.668 -0.7494  1.8267 -1.2327
 4828SOL     OW25945   1.498   3.396  14.905 -0.5889 -0.1340  0.6026
 4828SOL    HW125946   1.559   3.468  14.890 -1.0817  0.4660  1.4360
 4828SOL    HW225947   1.541   3.339  14.842  1.6300  0.5273  1.5226
 4829SOL     OW25948   2.744   0.866   2.269  0.1216  0.6548 -0.2739
 4829SOL    HW125949   2.836   0.893   2.263 -0.0667  1.4625  0.5103
 4829SOL    HW225950   2.734   0.857   2.363 -0.6778  0.7513 -0.3486
 4830SOL     OW25951   4.338   3.620   2.040  0.4804 -0.3118  0.5443
 4830SOL    HW125952   4.258   3.614   1.989  1.5476  0.4290 -1.1966
 4830SOL    HW225953   4.392   3.553   1.999 -0.4069  2.2479 -4.7143
 4831SOL     OW25954   3.226   0.980   7.065 -0.3434  0.2856  0.1758
 4831SOL    HW125955   3.143   1.022   7.088 -0.7433  0.4862 -1.5949
 4831SOL    HW225956   3.209   0.888   7.081  1.3542  0.0120  0.3560
 4832SOL     OW25957   3.210   0.433   9.200 -0.7539  0.0818 -0.0862
 4832SOL    HW125958   3.250   0.347   9.186  0.1096  0.2132  1.5203
 4832SOL    HW225959   3.282   0.490   9.227 -2.0015  1.7741 -0.3433
 4833SOL     OW25960   0.159   3.267   4.302  0.2329 -0.2690  0.3436
 4833SOL    HW125961   0.238   3.264   4.248  1.2129  1.3981  1.7030
 4833SOL    HW225962   0.196   3.306   4.381 -0.0679 -0.1809  0.4428
 4834SOL     OW25963   3.578   3.887   2.569  0.7926  0.6701 -0.1037
 4834SOL    HW125964   3.537   3.973   2.573 -1.3677 -0.4149  0.9500
 4834SOL    HW225965   3.517   3.846   2.508 -1.6634  2.9132  0.8567
 4835SOL     OW25966   2.333   2.845   6.389 -0.1276 -0.0818  0.4710
 4835SOL    HW125967   2.360   2.851   6.297 -0.0873  2.4850  0.6376
 4835SOL    HW225968   2.238   2.848   6.377 -0.2004 -0.5327  0.9175
 4836SOL     OW25969   2.943   0.849  10.021 -0.5605  0.1818  0.4041
 4836SOL    HW125970   2.957   0.920  10.084 -2.0599  0.5794  0.2971
 4836SOL    HW225971   3.017   0.796  10.050 -0.4691  0.7949  1.2955
 4837SOL     OW25972   1.431   4.483   5.364 -0.0385 -0.3721  0.5903
 4837SOL    HW125973   1.394   4.421   5.427 -1.6827 -2.3792 -2.3444
 4837SOL    HW225974   1.405   4.444   5.280  0.1867  0.6217  0.0475
 4838SOL     OW25975   2.860   1.189  10.665 -0.1199  0.8243  0.7621
 4838SOL    HW125976   2.889   1.249  10.596 -2.6647  1.5872  0.3678
 4838SOL    HW225977   2.913   1.111  10.649 -2.4515 -0.9835  1.7425
 4839SOL     OW25978   3.754   2.508  14.370  0.4664 -0.3284 -0.0905
 4839SOL    HW125979   3.790   2.420  14.380 -0.7264 -0.6472  1.3862
 4839SOL    HW225980   3.688   2.504  14.440 -0.4714  0.9370 -0.8905
 4840SOL     OW25981   1.896   0.182   2.453 -0.2675  0.3713  0.3187
 4840SOL    HW125982   1.929   0.252   2.397  0.8955  0.8501  1.6120
 4840SOL    HW225983   1.839   0.226   2.516 -0.9144  0.8533 -0.6074
 4841SOL     OW25984   2.391   0.041   5.629 -0.4339 -0.7129 -0.3387
 4841SOL    HW125985   2.399   0.077   5.541  3.3601 -2.5700 -0.7915
 4841SOL    HW225986   2.442   0.107   5.675  2.7242 -3.7274  0.5431
 4842SOL     OW25987   3.029   2.738   1.227 -0.1404  0.0712 -0.0276
 4842SOL    HW125988   2.982   2.732   1.144 -0.1936 -1.7352  0.1306
 4842SOL    HW225989   3.007   2.825   1.260  1.5711  1.0508 -1.4485
 4843SOL     OW25990   3.911   1.825   5.095 -0.2130  0.7114 -0.3626
 4843SOL    HW125991   3.992   1.866   5.066 -0.0889  0.3701 -0.5024
 4843SOL    HW225992   3.883   1.793   5.009 -1.1178  0.5728 -0.0177
 4844SOL     OW25993   1.436   3.328   2.076 -0.1336 -0.3134 -0.1957
 4844SOL    HW125994   1.509   3.351   2.018  0.3718 -1.1724  0.0862
 4844SOL    HW225995   1.386   3.275   2.014 -1.1239  0.1369  0.2224
 4845SOL     OW25996   0.659   4.437   5.592 -0.0995  0.0737  0.2426
 4845SOL    HW125997   0.724   4.366   5.596  0.2636  0.5470  2.7704
 4845SOL    HW225998   0.663   4.479   5.506  2.3983 -0.3822  0.1504
 4846SOL     OW25999   1.246   4.578  17.078 -0.9691 -0.0808 -0.3369
 4846SOL    HW126000   1.167   4.589  17.131 -0.0045 -2.7096  1.6345
 4846SOL    HW226001   1.312   4.625  17.128 -0.3689 -1.2285 -0.0695
 4847SOL     OW26002   3.758   1.599  13.116 -0.1195  0.1954  0.2400
 4847SOL    HW126003   3.665   1.575  13.107  0.3613 -2.0614  1.3329
 4847SOL    HW226004   3.799   1.513  13.123  0.0188  0.1904 -0.7077
 4848SOL     OW26005   0.294   2.491   4.298 -0.2699  0.0656 -0.1686
 4848SOL    HW126006   0.377   2.474   4.254  0.0298 -0.7539  0.7088
 4848SOL    HW226007   0.273   2.409   4.344  0.5502 -1.0725 -1.8336
 4849SOL     OW26008   2.553   3.132   1.926  0.7294  0.0408 -0.0775
 4849SOL    HW126009   2.604   3.209   1.949  1.6152 -0.7411  0.5771
 4849SOL    HW226010   2.524   3.165   1.841  0.3920 -0.7150 -0.2547
 4850SOL     OW26011   2.341   1.580   2.348 -0.1042 -0.4478 -0.2786
 4850SOL    HW126012   2.433   1.567   2.327  0.2024 -0.8038  1.3324
 4850SOL    HW226013   2.334   1.547   2.437 -0.2919  0.1581 -0.0705
 4851SOL     OW26014   3.830   0.911   7.367 -0.3935  0.2324  0.4769
 4851SOL    HW126015   3.843   0.909   7.272  0.6225 -0.9141  0.6293
 4851SOL    HW226016   3.761   0.974   7.386 -0.9672 -0.2159 -0.1354
 4852SOL     OW26017   1.079   4.599   3.884  0.3242  0.0185  0.1370
 4852SOL    HW126018   1.010   4.651   3.925 -0.6677 -1.0465 -0.1405
 4852SOL    HW226019   1.152   4.606   3.945  1.9018  0.9601 -1.8615
 4853SOL     OW26020   2.405   3.579   1.771  0.8929 -0.3717 -0.1234
 4853SOL    HW126021   2.382   3.621   1.689  0.6957 -2.0597 -0.9368
 4853SOL    HW226022   2.364   3.630   1.840 -1.5605 -0.1714 -1.7555
 4854SOL     OW26023   0.069   2.758   9.118 -0.3828  0.0111  0.4046
 4854SOL    HW126024   4.701   2.746   9.091 -0.2052  0.9789 -0.6254
 4854SOL    HW226025   0.060   2.701   9.194 -4.5661  4.0904  2.9837
 4855SOL     OW26026   1.365   2.133   9.366 -0.0716 -0.4482 -0.3744
 4855SOL    HW126027   1.311   2.055   9.362  1.7907 -1.7516 -0.1928
 4855SOL    HW226028   1.327   2.171   9.446  1.5235 -0.7712  0.5419
 4856SOL     OW26029   2.121   3.485   1.992  0.0378  0.2746 -0.0262
 4856SOL    HW126030   2.213   3.509   2.000  0.2360 -0.1280 -1.0865
 4856SOL    HW226031   2.112   3.393   2.017  0.7875 -0.0571 -1.0146
 4857SOL     OW26032   4.540   4.174   4.009 -0.4246 -0.0461 -0.2895
 4857SOL    HW126033   4.494   4.101   3.967 -0.4943  0.1532 -0.5604
 4857SOL    HW226034   4.628   4.155   3.978 -0.4407 -1.8940  0.7897
 4858SOL     OW26035   1.599   0.200  15.736  0.4118 -0.5474  0.3123
 4858SOL    HW126036   1.550   0.278  15.709 -1.7526 -1.5976  1.1382
 4858SOL    HW226037   1.623   0.176  15.647  0.8123  1.1484 -0.0390
 4859SOL     OW26038   1.737   3.265   4.732 -0.4302  0.0159 -0.3239
 4859SOL    HW126039   1.656   3.215   4.725 -0.0730 -0.7191  0.6378
 4859SOL    HW226040   1.803   3.201   4.704 -1.3961 -1.5374  0.9032
 4860SOL     OW26041   4.632   0.644   5.221  0.7856 -0.2684 -0.1314
 4860SOL    HW126042   4.585   0.624   5.303 -1.1892  0.6203 -1.0622
 4860SOL    HW226043   4.630   0.560   5.175  1.8521  0.1645 -0.9436
 4861SOL     OW26044   0.330   3.820   1.939  0.5823 -0.0263  0.4316
 4861SOL    HW126045   0.238   3.824   1.965  1.3896  1.0799  3.1091
 4861SOL    HW226046   0.326   3.883   1.867  1.2235  0.9428  1.2513
 4862SOL     OW26047   0.036   1.000   6.228  0.3120 -0.0779  0.8519
 4862SOL    HW126048   0.078   1.086   6.234  1.0819 -0.3198 -1.3702
 4862SOL    HW226049   4.682   1.012   6.283  0.6723 -2.1310  1.7974
 4863SOL     OW26050   4.094   1.542   4.539 -0.1228 -0.3764  0.0619
 4863SOL    HW126051   4.104   1.624   4.491  3.3503 -0.6997  0.2687
 4863SOL    HW226052   4.003   1.525   4.514 -0.0799  0.6172 -0.7714
 4864SOL     OW26053   2.331   0.805   2.609 -0.0409  0.2163 -0.0826
 4864SOL    HW126054   2.327   0.795   2.514 -3.8284 -3.6051  0.4542
 4864SOL    HW226055   2.306   0.717   2.637  2.2246 -0.1645  0.6679
 4865SOL     OW26056   0.939   2.009   9.847 -0.3140 -0.0829  0.0915
 4865SOL    HW126057   0.866   2.071   9.844  0.0423  0.5271  3.5507
 4865SOL    HW226058   0.954   2.005   9.942 -1.0943 -1.7138  0.1453
 4866SOL     OW26059   4.175   2.646   6.978 -0.1090 -0.1021 -0.4345
 4866SOL    HW126060   4.183   2.558   6.940 -1.0172  0.2668 -1.4832
 4866SOL    HW226061   4.231   2.638   7.055 -0.1416 -1.6449 -0.5609
 4867SOL     OW26062   0.390   3.809   7.138 -0.5033  0.1831  0.3045
 4867SOL    HW126063   0.308   3.802   7.186 -0.5556 -1.9923 -0.1168
 4867SOL    HW226064   0.456   3.810   7.208 -1.1914 -0.6724  0.9654
 4868SOL     OW26065   1.162   4.125   7.031 -0.1243  0.8918  0.1182
 4868SOL    HW126066   1.200   4.086   7.110  0.0463  1.1177  0.1479
 4868SOL    HW226067   1.239   4.179   7.016  1.9321 -2.2795 -0.6261
 4869SOL     OW26068   4.213   0.272   3.553  1.2228  0.3298  0.4600
 4869SOL    HW126069   4.228   0.227   3.471  0.7723  2.4539 -0.8075
 4869SOL    HW226070   4.255   0.220   3.621 -0.5502 -1.8554 -0.1215
 4870SOL     OW26071   2.261   3.745   1.928 -0.1072 -0.3794  0.2443
 4870SOL    HW126072   2.176   3.777   1.959 -0.4995  1.1740 -2.4104
 4870SOL    HW226073   2.317   3.729   2.003  0.7912  0.1795 -0.3063
 4871SOL     OW26074   2.339   2.494   3.012  0.3226  0.2720  0.4649
 4871SOL    HW126075   2.363   2.528   3.098  0.6460 -1.1246  0.9301
 4871SOL    HW226076   2.321   2.400   3.021 -2.1679  0.8066  1.2105
 4872SOL     OW26077   4.016   0.433   4.338 -0.2757  0.0043  0.4987
 4872SOL    HW126078   3.983   0.521   4.321 -0.1923 -0.0924 -0.1370
 4872SOL    HW226079   4.089   0.465   4.391  1.0688 -0.2352 -1.2233
 4873SOL     OW26080   2.920   3.753   3.903  0.3834  0.5570 -0.1687
 4873SOL    HW126081   2.933   3.804   3.983 -0.1951  3.6617 -2.0616
 4873SOL    HW226082   2.950   3.670   3.940  0.2597  0.6984  0.2550
 4874SOL     OW26083   0.864   4.014   2.078  0.1520  0.2866 -0.3363
 4874SOL    HW126084   0.901   4.097   2.048 -0.5481  0.7650  0.1410
 4874SOL    HW226085   0.790   3.999   2.020  1.2266 -0.7217 -1.4631
 4875SOL     OW26086   2.466   1.995   5.727  0.0901  0.4952 -0.7017
 4875SOL    HW126087   2.509   1.917   5.761 -0.0796  0.2898 -0.9609
 4875SOL    HW226088   2.413   1.955   5.658  0.9741  0.4655 -1.3552
 4876SOL     OW26089   0.413   3.801   2.778 -0.1285 -0.0289  0.4233
 4876SOL    HW126090   0.325   3.839   2.775 -0.1008  0.0257  0.2722
 4876SOL    HW226091   0.411   3.736   2.708  3.6384 -0.6381  0.9044
 4877SOL     OW26092   3.316   2.539   2.353  0.6168 -1.1240  0.1786
 4877SOL    HW126093   3.329   2.545   2.258 -0.7121  0.8104  0.1141
 4877SOL    HW226094   3.358   2.454   2.367  1.3238 -0.9784 -1.0616
 4878SOL     OW26095   4.064   3.829   4.175 -0.0143  0.2956  0.1502
 4878SOL    HW126096   3.991   3.857   4.119  0.0279 -0.6556 -0.3898
 4878SOL    HW226097   4.072   3.897   4.242  0.2304  1.1789 -0.7872
 4879SOL     OW26098   0.592   2.892   3.918 -0.0284  0.1075 -0.2792
 4879SOL    HW126099   0.538   2.816   3.937  0.1795  0.4355  1.6340
 4879SOL    HW226100   0.534   2.967   3.932 -0.6756 -1.0129  2.9133
 4880SOL     OW26101   0.927   0.616   0.088  0.0676 -0.0714  0.1212
 4880SOL    HW126102   0.872   0.694   0.088  0.9462  0.5600  0.5936
 4880SOL    HW226103   0.968   0.633   0.174 -1.7448  1.0488  0.7496
 4881SOL     OW26104   2.867   1.376   1.582  0.1622  0.1993  0.2887
 4881SOL    HW126105   2.792   1.395   1.638  0.6489 -0.8589  1.2928
 4881SOL    HW226106   2.863   1.430   1.503 -1.7175 -2.1996 -1.2549
 4882SOL     OW26107   3.574   1.624   8.818  0.0011  0.4017  0.4058
 4882SOL    HW126108   3.621   1.563   8.875  1.8378  0.1000 -1.4239
 4882SOL    HW226109   3.550   1.562   8.750  3.0440 -1.0418  0.6464
 4883SOL     OW26110   0.626   1.289   4.645  0.5034  0.3255 -0.0192
 4883SOL    HW126111   0.546   1.306   4.595  1.2746 -1.4480 -1.8924
 4883SOL    HW226112   0.594   1.305   4.733 -1.5876  0.0274 -0.7379
 4884SOL     OW26113   1.510   3.112   5.051  0.4627 -0.1750  0.4175
 4884SOL    HW126114   1.471   3.064   5.125 -1.1577  2.8357  1.4890
 4884SOL    HW226115   1.515   3.039   4.989  2.1795  1.8018 -1.7575
 4885SOL     OW26116   1.297   0.667   9.111  0.1131 -0.4692 -0.1451
 4885SOL    HW126117   1.204   0.657   9.092 -0.0691  0.0818  0.4547
 4885SOL    HW226118   1.332   0.612   9.041 -1.3535  1.0642 -2.0499
 4886SOL     OW26119   2.883   3.156  10.782  0.0529 -0.1506  0.5581
 4886SOL    HW126120   2.877   3.250  10.768  1.7990 -0.3415 -1.5414
 4886SOL    HW226121   2.976   3.144  10.760 -0.0141  0.7040 -0.1939
 4887SOL     OW26122   2.095   4.601   7.780 -0.2599  0.3038 -0.1060
 4887SOL    HW126123   2.055   4.558   7.856 -0.4630 -1.4017 -1.1834
 4887SOL    HW226124   2.175   4.552   7.764 -1.6118 -2.1184  0.5081
 4888SOL     OW26125   1.697   2.456   5.092 -0.5999  0.2377  0.2650
 4888SOL    HW126126   1.752   2.512   5.037 -2.0967  0.0463 -1.3890
 4888SOL    HW226127   1.611   2.495   5.076 -0.5601 -0.0746 -0.6449
 4889SOL     OW26128   0.783   0.385   0.316 -0.0737 -0.1209 -0.5607
 4889SOL    HW126129   0.754   0.317   0.376  0.6337  2.3391  2.5271
 4889SOL    HW226130   0.876   0.361   0.317 -0.3713 -1.3018 -1.1386
 4890SOL     OW26131   0.110   1.003   4.033  0.2261  0.0222 -0.4679
 4890SOL    HW126132   0.108   0.959   3.948 -3.4266 -0.0572 -0.3378
 4890SOL    HW226133   0.051   0.951   4.087 -0.1712  0.1522 -0.7804
 4891SOL     OW26134   3.439   4.472  11.351  0.0375 -0.5687  0.0650
 4891SOL    HW126135   3.456   4.559  11.315 -0.1700  0.1002  1.5821
 4891SOL    HW226136   3.510   4.412  11.324  0.4755 -0.0889  0.1602
 4892SOL     OW26137   3.641   2.738   3.767  0.2222 -0.3731  0.1899
 4892SOL    HW126138   3.594   2.662   3.733  0.9459  0.5236 -2.7641
 4892SOL    HW226139   3.583   2.810   3.741 -0.3099 -0.4531  1.1633
 4893SOL     OW26140   3.935   2.751   2.272 -0.3668  0.1301 -0.9477
 4893SOL    HW126141   3.872   2.682   2.293  0.3931 -0.3753 -0.3663
 4893SOL    HW226142   3.997   2.744   2.344 -1.0440  2.0987 -0.1848
 4894SOL     OW26143   4.547   0.267  15.812  0.2359 -0.5645 -0.1624
 4894SOL    HW126144   4.456   0.253  15.840 -0.4880  1.9382 -1.2584
 4894SOL    HW226145   4.586   0.179  15.809  1.9321  0.2367 -2.0829
 4895SOL     OW26146   2.829   0.576  10.773 -0.0641  0.2303  0.0594
 4895SOL    HW126147   2.901   0.524  10.736  1.4122  0.1397  3.0556
 4895SOL    HW226148   2.854   0.651  10.718  0.2035 -0.3840 -0.6602
 4896SOL     OW26149   1.115   4.506   9.443 -0.0638  0.1181 -0.0677
 4896SOL    HW126150   1.115   4.601   9.432 -1.2093 -0.0953 -1.9205
 4896SOL    HW226151   1.134   4.498   9.536 -0.7360  0.1503  0.0687
 4897SOL     OW26152   1.415   0.037   4.512  0.4245 -0.0720 -0.1935
 4897SOL    HW126153   1.388   0.014   4.601 -1.9354 -0.3332 -0.9702
 4897SOL    HW226154   1.505   0.006   4.508 -0.2297 -1.5153 -3.1118
 4898SOL     OW26155   3.196   1.904   2.148 -0.4153 -0.1111 -0.3252
 4898SOL    HW126156   3.143   1.984   2.145 -1.4502 -0.7906  0.0388
 4898SOL    HW226157   3.129   1.837   2.133  1.6836 -2.2690 -0.0784
 4899SOL     OW26158   0.896   2.545   8.074  0.0613  0.4308 -0.7609
 4899SOL    HW126159   0.882   2.593   7.992  0.7436  0.3047 -0.9455
 4899SOL    HW226160   0.926   2.463   8.035 -2.3201 -1.8034  2.0556
 4900SOL     OW26161   1.542   1.173   6.940  0.1561 -0.5071  0.3210
 4900SOL    HW126162   1.538   1.181   6.845  3.5041  0.6489  0.2886
 4900SOL    HW226163   1.619   1.116   6.941 -0.6217 -1.5745 -0.3602
 4901SOL     OW26164   3.291   2.915  13.610  0.0078 -0.0485 -0.0491
 4901SOL    HW126165   3.312   2.830  13.570  1.7858  1.0692 -1.4794
 4901SOL    HW226166   3.227   2.952  13.551  0.6873 -0.0893 -0.8141
 4902SOL     OW26167   0.932   2.015   1.744 -0.2205 -0.1298  0.4668
 4902SOL    HW126168   0.904   2.092   1.694 -0.5408 -1.0789 -0.7889
 4902SOL    HW226169   1.011   1.995   1.694 -0.7810 -1.2678  0.0577
 4903SOL     OW26170   1.567   4.405   3.998 -0.6629 -0.9544  0.1859
 4903SOL    HW126171   1.554   4.369   3.910 -1.2621  0.5194 -0.3356
 4903SOL    HW226172   1.485   4.379   4.039 -1.6085 -0.2049 -1.2308
 4904SOL     OW26173   1.792   3.181  16.994  0.6526 -0.0835  0.1845
 4904SOL    HW126174   1.838   3.129  17.059  0.7481 -0.8670 -0.5076
 4904SOL    HW226175   1.755   3.249  17.050 -1.6220  0.8608 -2.4196
 4905SOL     OW26176   2.497   3.652  14.538 -0.5841  0.3952  0.3910
 4905SOL    HW126177   2.501   3.746  14.525  0.9581 -0.0515 -2.4568
 4905SOL    HW226178   2.552   3.641  14.615 -1.6272  1.3919  1.2766
 4906SOL     OW26179   4.536   1.687   6.787  0.0068 -0.1905 -0.4781
 4906SOL    HW126180   4.607   1.629   6.814 -2.4588 -2.7759  0.4502
 4906SOL    HW226181   4.466   1.688   6.853 -0.0433 -2.2914 -0.5017
 4907SOL     OW26182   3.976   4.665   3.459  0.4862 -0.3934 -0.0452
 4907SOL    HW126183   3.905   4.683   3.521 -0.3072  1.7290 -1.5359
 4907SOL    HW226184   4.056   4.702   3.493 -0.5458  2.5691 -0.8493
 4908SOL     OW26185   2.170   4.464   3.607 -0.0654 -0.0753 -0.1008
 4908SOL    HW126186   2.151   4.487   3.698  0.2151 -1.5360  0.3194
 4908SOL    HW226187   2.120   4.527   3.555  1.3093  0.5477 -0.6679
 4909SOL     OW26188   4.592   3.481  13.037 -0.2442  0.9958  0.0684
 4909SOL    HW126189   4.652   3.520  13.101 -1.2342  1.5934  0.6267
 4909SOL    HW226190   4.584   3.551  12.973 -0.5023 -0.7380 -1.8025
 4910SOL     OW26191   4.107   1.086  12.793 -0.5143 -0.2500  0.1324
 4910SOL    HW126192   4.128   1.173  12.759  2.7180 -2.0349 -2.5017
 4910SOL    HW226193   4.014   1.078  12.771 -0.7399  1.4977  0.4718
 4911SOL     OW26194   2.171   0.715   8.877  0.2054  0.3385  0.8422
 4911SOL    HW126195   2.247   0.663   8.851  0.0992  1.3086 -1.4182
 4911SOL    HW226196   2.123   0.729   8.796  0.0061 -1.6614  0.6262
 4912SOL     OW26197   1.040   2.883   3.313 -0.3277 -0.5672  0.2602
 4912SOL    HW126198   1.054   2.794   3.282  1.5561 -0.5183  0.9461
 4912SOL    HW226199   1.105   2.929   3.259  1.1865 -1.3676  1.4022
 4913SOL     OW26200   2.320   1.727  10.158  0.6267 -0.9626 -0.8132
 4913SOL    HW126201   2.405   1.726  10.202  0.3775  0.1656 -0.3065
 4913SOL    HW226202   2.297   1.819  10.164 -0.4046 -1.2341 -0.4558
 4914SOL     OW26203   2.003   3.391   7.752  0.2795 -0.0749 -0.6066
 4914SOL    HW126204   2.084   3.350   7.724  0.7014  0.2074  0.2229
 4914SOL    HW226205   2.001   3.341   7.833  0.3845  0.0323 -0.5378
 4915SOL     OW26206   2.688   0.313   2.379 -0.1953 -0.2249  0.5092
 4915SOL    HW126207   2.667   0.371   2.306 -0.1751 -0.8860 -0.0269
 4915SOL    HW226208   2.738   0.370   2.437 -1.7557  1.6662 -0.0314
 4916SOL     OW26209   2.814   4.608   1.990  0.2537 -0.2952  0.1371
 4916SOL    HW126210   2.801   4.688   1.939  1.5995  0.3249  0.7798
 4916SOL    HW226211   2.728   4.614   2.032 -0.5233 -1.4829 -1.3080
 4917SOL     OW26212   0.646   1.168   1.312 -0.0578 -0.1497  0.0769
 4917SOL    HW126213   0.679   1.255   1.339  0.9046 -0.4288 -0.1933
 4917SOL    HW226214   0.554   1.181   1.289 -0.4050 -2.3223  0.3008
 4918SOL     OW26215   4.059   2.214   2.977 -0.2126 -0.2074  0.3242
 4918SOL    HW126216   4.134   2.183   3.028  0.2549  0.5281  0.0690
 4918SOL    HW226217   4.092   2.208   2.888 -1.6221 -2.9695 -0.0431
 4919SOL     OW26218   1.082   2.723   4.403 -0.2729 -0.0341 -0.4250
 4919SOL    HW126219   1.124   2.671   4.472  0.3471 -2.8887 -2.9386
 4919SOL    HW226220   1.136   2.695   4.329 -1.7247  0.0467 -1.5248
 4920SOL     OW26221   4.384   1.927   5.302 -0.0383 -0.2878 -0.2490
 4920SOL    HW126222   4.466   1.921   5.254  0.6531  0.2359  0.8755
 4920SOL    HW226223   4.374   1.836   5.331 -1.3918 -0.2984 -0.7417
 4921SOL     OW26224   0.502   4.048  10.803  0.5471 -0.0697 -0.1527
 4921SOL    HW126225   0.420   4.002  10.788 -0.2122  1.0806  0.4745
 4921SOL    HW226226   0.549   3.976  10.844 -1.0560 -0.7331  0.4810
 4922SOL     OW26227   3.417   2.022   2.302 -0.4128 -0.1328  0.9177
 4922SOL    HW126228   3.389   1.976   2.223  1.0370 -0.0821  0.3697
 4922SOL    HW226229   3.401   1.952   2.365 -3.4134  0.2594  0.5488
 4923SOL     OW26230   2.355   3.815   6.428  0.4897 -0.2184  0.0837
 4923SOL    HW126231   2.317   3.778   6.348  0.6348 -0.2990  0.0524
 4923SOL    HW226232   2.287   3.879   6.449 -0.2799 -0.3659 -1.9538
 4924SOL     OW26233   1.574   3.391  10.137 -0.1702 -0.3064 -0.0507
 4924SOL    HW126234   1.531   3.460  10.086 -0.4885 -0.3546  0.1536
 4924SOL    HW226235   1.605   3.336  10.065  0.3384 -0.5461  0.3611
 4925SOL     OW26236   3.715   3.211   6.457  0.3587  0.1668 -0.6642
 4925SOL    HW126237   3.694   3.267   6.532  1.4834  1.3545 -1.2236
 4925SOL    HW226238   3.745   3.126   6.490  1.0173  1.5399  2.2963
 4926SOL     OW26239   1.383   0.317   0.975 -0.1419 -0.2375  0.3469
 4926SOL    HW126240   1.307   0.376   0.982 -0.2418 -0.2110 -0.9787
 4926SOL    HW226241   1.429   0.340   1.056  0.1386 -0.5424  0.2719
 4927SOL     OW26242   4.716   0.982   7.739  0.0727  0.4947 -0.2386
 4927SOL    HW126243   0.036   1.037   7.673  0.2950  0.5046 -0.0822
 4927SOL    HW226244   4.638   0.952   7.692  1.0956 -2.5299 -0.0119
 4928SOL     OW26245   0.582   3.980   2.614 -0.5050  0.6066  0.0019
 4928SOL    HW126246   0.593   4.008   2.704 -0.7723 -1.1921  0.5872
 4928SOL    HW226247   0.601   3.886   2.617 -1.7308  0.3390 -0.4259
 4929SOL     OW26248   3.875   0.896  14.303 -0.3005  0.4138  0.1893
 4929SOL    HW126249   3.876   0.984  14.266 -1.6542 -0.1276 -1.0999
 4929SOL    HW226250   3.892   0.844  14.224  1.4451 -2.2979  2.3309
 4930SOL     OW26251   2.054   2.092   5.106 -0.3494 -0.0031 -0.4593
 4930SOL    HW126252   1.992   2.143   5.053 -0.8989  2.2021  2.3144
 4930SOL    HW226253   2.017   2.004   5.102  2.6134 -1.2796  0.3591
 4931SOL     OW26254   2.715   1.951  17.398 -0.1720 -0.4330 -0.1965
 4931SOL    HW126255   2.784   1.992  17.451 -1.1461  0.5897  0.2806
 4931SOL    HW226256   2.766   1.893  17.342  0.7145 -0.1436  0.2917
 4932SOL     OW26257   3.110   0.135   6.144  0.4169  0.1735  0.1315
 4932SOL    HW126258   3.193   0.183   6.137 -0.3827  1.5947  0.5180
 4932SOL    HW226259   3.076   0.148   6.055 -1.4353 -1.7220  0.5630
 4933SOL     OW26260   0.874   3.991   6.784 -0.0355 -0.1269 -0.3134
 4933SOL    HW126261   0.935   4.048   6.737 -2.5224 -1.1174 -4.7090
 4933SOL    HW226262   0.852   4.059   6.848  2.0254  0.1509  0.0918
 4934SOL     OW26263   0.484   1.453   0.437 -0.0503 -0.2723  0.1665
 4934SOL    HW126264   0.422   1.503   0.384 -1.3277 -0.4504  1.4826
 4934SOL    HW226265   0.431   1.374   0.435 -0.7713  0.2042  0.3833
 4935SOL     OW26266   2.799   4.174   4.786 -0.3664 -0.2257  0.1855
 4935SOL    HW126267   2.835   4.258   4.756 -0.3435  0.6084  2.5973
 4935SOL    HW226268   2.880   4.134   4.816 -0.7892 -1.4398 -0.2973
 4936SOL     OW26269   2.658   1.324  17.550  0.1061  0.6104 -0.7651
 4936SOL    HW126270   2.689   1.407  17.587  1.2076  0.2157 -0.8139
 4936SOL    HW226271   2.636   1.270  17.627 -1.0413 -0.0068 -1.5353
 4937SOL     OW26272   0.442   2.163   8.802  0.4727 -0.0940 -0.8468
 4937SOL    HW126273   0.426   2.216   8.880  0.7615  0.3070 -1.0562
 4937SOL    HW226274   0.491   2.087   8.832  0.5662  0.3330  0.1002
 4938SOL     OW26275   1.596   4.514  10.000 -0.0536 -0.2972 -0.1676
 4938SOL    HW126276   1.629   4.598  10.033 -1.7041 -0.3425  1.6105
 4938SOL    HW226277   1.595   4.469  10.085 -0.0826  1.0028  0.5221
 4939SOL     OW26278   3.929   0.611   6.365 -0.1665  0.2049 -0.0124
 4939SOL    HW126279   3.974   0.661   6.432  0.0684 -0.6439  0.4557
 4939SOL    HW226280   3.969   0.639   6.283 -0.9698 -2.4358 -1.3182
 4940SOL     OW26281   2.229   3.878   7.601 -0.0691  0.3236  0.4370
 4940SOL    HW126282   2.230   3.973   7.612  0.2052  0.3074  0.5372
 4940SOL    HW226283   2.265   3.870   7.512 -1.6773 -1.3461 -0.0556
 4941SOL     OW26284   3.626   0.755  17.065  0.1241 -0.8992 -0.5952
 4941SOL    HW126285   3.557   0.756  17.132  1.1070  1.7951  0.3848
 4941SOL    HW226286   3.699   0.725  17.119 -0.4944  1.0051  1.3205
 4942SOL     OW26287   1.099   3.018   6.171 -0.2520  0.2377 -0.5311
 4942SOL    HW126288   1.107   2.983   6.260  1.2037  0.1549 -0.6952
 4942SOL    HW226289   1.004   3.029   6.169 -0.4757 -1.3299  1.0877
 4943SOL     OW26290   0.243   0.046   4.715  0.4337 -0.2422 -0.0263
 4943SOL    HW126291   0.301   0.118   4.739 -1.3829  0.5202  2.0342
 4943SOL    HW226292   0.238   0.063   4.621  1.8353 -0.3522 -0.1117
 4944SOL     OW26293   1.564   3.772   5.251 -0.3762  0.6469 -0.1983
 4944SOL    HW126294   1.549   3.691   5.202 -0.6220 -0.2571  1.3917
 4944SOL    HW226295   1.473   3.799   5.262  0.6602  3.7860  0.6349
 4945SOL     OW26296   1.562   0.467   8.929 -0.2804  0.1577 -0.0463
 4945SOL    HW126297   1.469   0.449   8.914 -0.0916  0.2957 -1.3903
 4945SOL    HW226298   1.551   0.556   8.961 -2.1556  0.1455 -0.6749
 4946SOL     OW26299   1.598   2.346   7.212  0.0432  0.0011 -0.4843
 4946SOL    HW126300   1.576   2.261   7.174  0.5412 -0.2525 -0.2132
 4946SOL    HW226301   1.684   2.323   7.247 -0.2111 -0.2606 -0.0252
 4947SOL     OW26302   3.319   3.924  14.210 -0.6092 -0.1516  0.0657
 4947SOL    HW126303   3.262   3.980  14.157  1.4114  0.0441 -1.9019
 4947SOL    HW226304   3.392   3.985  14.223 -1.3900  0.6383  0.7396
 4948SOL     OW26305   2.511   0.598   2.032 -0.1269 -0.3690  0.1330
 4948SOL    HW126306   2.441   0.572   1.972 -1.5877 -0.9170  2.0486
 4948SOL    HW226307   2.492   0.690   2.049 -1.8286 -1.4334  4.1189
 4949SOL     OW26308   0.274   2.623   0.378 -0.8072 -0.5508 -0.1896
 4949SOL    HW126309   0.333   2.610   0.303 -1.0951 -0.8239 -0.3684
 4949SOL    HW226310   0.192   2.587   0.345 -1.2166 -0.2213  0.4640
 4950SOL     OW26311   1.506   0.205   4.105 -0.2635 -0.1441  0.0379
 4950SOL    HW126312   1.548   0.132   4.061  0.4324  0.0724  0.3425
 4950SOL    HW226313   1.565   0.280   4.101  2.5314 -2.5429 -2.7000
 4951SOL     OW26314   3.731   0.868  10.449  0.1072 -0.1618  0.0500
 4951SOL    HW126315   3.760   0.780  10.474 -1.7560 -0.6447  0.4883
 4951SOL    HW226316   3.729   0.914  10.534 -3.0648  0.2191 -0.2584
 4952SOL     OW26317   3.172   1.960  10.184 -0.1376 -0.0330  0.5284
 4952SOL    HW126318   3.165   1.874  10.143 -0.3312  1.0339 -1.6707
 4952SOL    HW226319   3.118   2.026  10.141 -1.4556 -1.3672  0.1223
 4953SOL     OW26320   1.986   4.631   0.405 -0.1623  0.9204 -0.1551
 4953SOL    HW126321   1.894   4.607   0.393 -0.8199  1.6559  3.3482
 4953SOL    HW226322   1.978   4.701   0.469 -2.0453  1.5167 -1.0382
 4954SOL     OW26323   3.165   3.424   9.889  0.0888  0.7385 -0.3655
 4954SOL    HW126324   3.127   3.431   9.977  1.6000 -1.3835  0.4682
 4954SOL    HW226325   3.238   3.366   9.914 -0.7567  0.7712  2.2072
 4955SOL     OW26326   2.989   3.228   6.893  0.4997  0.4816  0.5650
 4955SOL    HW126327   2.992   3.274   6.809 -0.7301  1.1193  0.8782
 4955SOL    HW226328   2.951   3.146   6.862  0.1236  0.0454  2.1768
 4956SOL     OW26329   1.588   2.578  17.001  0.2683  0.3161 -0.6090
 4956SOL    HW126330   1.654   2.646  17.014  0.2126 -0.2836  2.8277
 4956SOL    HW226331   1.514   2.616  17.049  1.9559  0.4407  1.8859
 4957SOL     OW26332   3.715   2.776  10.127 -0.3514 -0.6695 -0.1708
 4957SOL    HW126333   3.717   2.681  10.136  2.3082 -0.5948  0.0501
 4957SOL    HW226334   3.800   2.802  10.162 -0.6762 -2.1015  1.7538
 4958SOL     OW26335   3.144   1.951  12.789  0.1263 -0.8072  0.2617
 4958SOL    HW126336   3.163   1.936  12.697  2.2051  0.8441  0.4165
 4958SOL    HW226337   3.231   1.963  12.828  0.8775  0.5715 -1.8359
 4959SOL     OW26338   4.241   3.203   5.689  0.2654  0.4079 -0.2705
 4959SOL    HW126339   4.245   3.254   5.770  0.5765  0.2499 -0.1846
 4959SOL    HW226340   4.223   3.117   5.727 -0.5551  0.6203 -0.1775
 4960SOL     OW26341   3.513   3.630   4.795 -0.3489  0.2478 -0.3692
 4960SOL    HW126342   3.453   3.556   4.795  0.5789 -0.4983 -1.1749
 4960SOL    HW226343   3.514   3.653   4.703 -2.7711 -0.2766 -0.5164
 4961SOL     OW26344   1.194   4.408   4.818  0.0704  0.2852  0.5091
 4961SOL    HW126345   1.213   4.326   4.864  1.7963  1.9541  2.8014
 4961SOL    HW226346   1.102   4.412   4.845  0.2118  1.1356  0.8860
 4962SOL     OW26347   0.021   1.252   9.698  0.5749 -0.2611  0.2972
 4962SOL    HW126348   4.717   1.320   9.759 -0.6587 -0.8883  0.4467
 4962SOL    HW226349   0.094   1.302   9.662 -0.0274 -1.8298 -3.1367
 4963SOL     OW26350   0.339   0.386  14.552 -0.0388 -0.5326 -0.2502
 4963SOL    HW126351   0.252   0.414  14.580 -1.1588 -2.5122 -1.8307
 4963SOL    HW226352   0.365   0.318  14.614 -0.1179  1.6094  2.1374
 4964SOL     OW26353   1.679   1.538  13.577  0.3606 -0.4598 -0.4630
 4964SOL    HW126354   1.603   1.518  13.631  0.4816 -2.8308 -1.1538
 4964SOL    HW226355   1.698   1.630  13.596  1.5235 -1.0005  0.9591
 4965SOL     OW26356   4.507   2.763   7.351  0.0980  0.1038  0.0705
 4965SOL    HW126357   4.564   2.827   7.309 -1.0400  0.3559 -1.0814
 4965SOL    HW226358   4.480   2.723   7.269  1.8747 -0.4922 -0.2382
 4966SOL     OW26359   3.721   0.780  10.781 -0.3923  0.1059  0.1417
 4966SOL    HW126360   3.734   0.869  10.748 -0.4853 -1.0932 -3.1125
 4966SOL    HW226361   3.688   0.733  10.705  0.9854 -1.8870  0.7804
 4967SOL     OW26362   4.635   3.511   5.124 -0.4272 -0.0837 -0.3396
 4967SOL    HW126363   4.611   3.517   5.216 -1.3522 -1.3645 -0.4885
 4967SOL    HW226364   4.563   3.556   5.080  0.5670  0.5421 -1.3094
 4968SOL     OW26365   0.885   4.715   4.577  0.3875 -0.2264  0.5022
 4968SOL    HW126366   0.804   0.023   4.619  0.0010 -0.1806 -0.2834
 4968SOL    HW226367   0.875   0.046   4.499  1.1807 -1.4607 -0.4684
 4969SOL     OW26368   1.996   0.817   4.159  0.2060 -0.0411  0.1644
 4969SOL    HW126369   1.920   0.855   4.116 -1.7730 -2.2028  1.7683
 4969SOL    HW226370   2.035   0.899   4.190  0.9602 -1.4201  2.8149
 4970SOL     OW26371   4.450   2.360   8.859  0.6439  0.6416 -0.2685
 4970SOL    HW126372   4.472   2.344   8.767  3.4906 -3.3340  1.0697
 4970SOL    HW226373   4.525   2.319   8.903  0.3592  0.7961  0.3672
 4971SOL     OW26374   4.587   3.198  13.938 -0.2245  0.1647  0.0640
 4971SOL    HW126375   4.548   3.114  13.912  4.0491 -1.6036 -0.6497
 4971SOL    HW226376   4.529   3.241  13.875 -0.9110 -0.6851  0.1114
 4972SOL     OW26377   1.468   0.894   1.630 -0.4729 -0.0748 -0.5483
 4972SOL    HW126378   1.454   0.974   1.579  0.4551 -0.0411 -0.7491
 4972SOL    HW226379   1.548   0.862   1.589 -0.8917  0.5147 -1.8327
 4973SOL     OW26380   1.857   1.485  11.175  0.1276 -0.2673 -0.2399
 4973SOL    HW126381   1.801   1.563  11.174 -0.4728 -0.6933 -1.1942
 4973SOL    HW226382   1.897   1.480  11.088 -0.3638  0.5482 -0.5249
 4974SOL     OW26383   0.866   0.395   1.522  0.3509 -0.0757  0.2957
 4974SOL    HW126384   0.911   0.429   1.445 -2.1347  1.8433 -0.2930
 4974SOL    HW226385   0.894   0.462   1.585 -1.1550 -0.9531  1.9008
 4975SOL     OW26386   3.844   2.941   7.036 -0.2127 -0.0399 -0.6336
 4975SOL    HW126387   3.911   2.940   7.105  1.1834  0.8116 -1.9891
 4975SOL    HW226388   3.899   2.911   6.964  0.8648  0.8204 -0.1652
 4976SOL     OW26389   4.080   4.364   6.049 -0.3278 -0.2484  0.2978
 4976SOL    HW126390   4.114   4.325   6.130 -5.0398  1.3188  3.0683
 4976SOL    HW226391   4.151   4.427   6.036  0.6519 -1.6941 -1.3252
 4977SOL     OW26392   1.509   4.171   2.609  0.5535 -0.3078 -0.1533
 4977SOL    HW126393   1.530   4.078   2.602  1.8835 -0.1980  2.2056
 4977SOL    HW226394   1.596   4.208   2.594  1.3768 -2.3338 -0.4246
 4978SOL     OW26395   4.212   0.581  16.470 -0.7558 -0.4797  0.6351
 4978SOL    HW126396   4.145   0.533  16.518  0.0297 -2.8221 -0.5968
 4978SOL    HW226397   4.271   0.625  16.531  0.3298 -1.8025  0.5438
 4979SOL     OW26398   2.302   3.456   7.969 -0.3452  0.6700  0.2652
 4979SOL    HW126399   2.304   3.528   7.905 -0.9445 -0.5628 -1.1446
 4979SOL    HW226400   2.304   3.381   7.909  0.5776  0.3065  0.7483
 4980SOL     OW26401   0.778   1.227   3.167  0.2776 -0.1381  0.0907
 4980SOL    HW126402   0.823   1.252   3.248 -3.0223 -1.7012  2.4294
 4980SOL    HW226403   0.726   1.153   3.199  0.1162 -0.5998 -1.2451
 4981SOL     OW26404   0.239   2.794   1.989  0.2524  0.4007 -0.1867
 4981SOL    HW126405   0.244   2.719   1.930  0.6315  0.4673 -0.2382
 4981SOL    HW226406   0.311   2.849   1.959  0.4704  0.5213  0.5490
 4982SOL     OW26407   2.623   3.082   6.278  0.1076 -0.2487 -0.3829
 4982SOL    HW126408   2.681   3.084   6.354  0.5353  0.2795 -0.7228
 4982SOL    HW226409   2.570   3.160   6.294  0.7354  0.6576 -2.7153
 4983SOL     OW26410   4.103   2.133  17.678 -0.2488 -0.2329  0.4743
 4983SOL    HW126411   4.193   2.120  17.649 -0.7374 -0.0267 -1.1475
 4983SOL    HW226412   4.085   2.044   0.015 -0.2973 -0.3839  0.0224
 4984SOL     OW26413   3.247   0.903  16.417  0.4789 -0.0205 -0.0655
 4984SOL    HW126414   3.264   0.979  16.473 -0.0129 -0.2041  0.3347
 4984SOL    HW226415   3.251   0.836  16.485 -1.0538  1.3679  1.4120
 4985SOL     OW26416   0.812   3.185  11.155  0.0602 -0.2542  0.0997
 4985SOL    HW126417   0.884   3.122  11.153 -1.5472 -2.0814 -0.7503
 4985SOL    HW226418   0.780   3.173  11.065  2.2763 -0.7381 -0.6489
 4986SOL     OW26419   1.464   2.541   7.083  0.0555 -0.5179  0.1266
 4986SOL    HW126420   1.508   2.463   7.116  2.8884  1.7860  1.8477
 4986SOL    HW226421   1.517   2.618   7.103 -0.1266 -0.5935  0.9063
 4987SOL     OW26422   2.509   1.423  10.681 -0.0315 -0.0454 -0.1415
 4987SOL    HW126423   2.425   1.460  10.653  1.0299  1.5788 -1.1126
 4987SOL    HW226424   2.571   1.494  10.668 -0.1288 -0.1652 -1.3108
 4988SOL     OW26425   3.060   1.396  10.857 -0.3906  0.4534  0.5176
 4988SOL    HW126426   3.055   1.317  10.910 -2.2601 -0.1955 -0.6300
 4988SOL    HW226427   3.111   1.372  10.780 -0.3918  2.0186  0.0234
 4989SOL     OW26428   2.698   3.953   1.482 -0.4969 -0.1225  0.0848
 4989SOL    HW126429   2.783   3.914   1.461 -0.1098  1.6771 -1.6780
 4989SOL    HW226430   2.646   3.906   1.416 -0.8303  3.7274 -2.3965
 4990SOL     OW26431   0.499   4.291   5.125  0.0324 -0.1104  0.3316
 4990SOL    HW126432   0.439   4.341   5.181  0.1304  0.5412 -0.1337
 4990SOL    HW226433   0.475   4.320   5.037  0.8613  0.3358  0.2542
 4991SOL     OW26434   0.616   2.849   3.645 -0.4684  0.6562  0.4173
 4991SOL    HW126435   0.612   2.839   3.740  3.0217  2.7492  0.7740
 4991SOL    HW226436   0.524   2.860   3.620 -0.0977  2.1186 -0.2738
 4992SOL     OW26437   2.998   0.521  12.694 -0.0365  0.6693  0.7588
 4992SOL    HW126438   3.004   0.429  12.721  0.0481  0.4474 -0.0021
 4992SOL    HW226439   3.025   0.506  12.603  0.1555  0.5919  0.8276
 4993SOL     OW26440   1.011   1.145   8.613  0.1075  0.2135 -0.4205
 4993SOL    HW126441   0.951   1.219   8.620 -1.8524 -1.3263 -0.6523
 4993SOL    HW226442   1.050   1.139   8.700  0.5012 -0.5573 -0.6470
 4994SOL     OW26443   2.333   3.611   0.429 -0.1097  0.5864  0.4074
 4994SOL    HW126444   2.419   3.575   0.451 -0.2312 -0.9502 -1.6485
 4994SOL    HW226445   2.293   3.525   0.419 -0.2042  0.4648  1.7906
 4995SOL     OW26446   4.666   1.783   9.144 -0.5866 -0.4044 -0.7492
 4995SOL    HW126447   4.586   1.836   9.147 -0.0706  0.3254  0.1179
 4995SOL    HW226448   0.007   1.845   9.179 -2.3129  1.0133 -0.0819
 4996SOL     OW26449   3.323   1.669   4.106  0.5106  0.3566  0.0163
 4996SOL    HW126450   3.412   1.651   4.137  1.4076  0.6295 -2.4485
 4996SOL    HW226451   3.291   1.743   4.157 -0.3289  0.1538 -0.2263
 4997SOL     OW26452   2.692   4.588   3.461 -0.7204 -0.7768  0.1130
 4997SOL    HW126453   2.635   4.660   3.487  2.9709  2.9712 -2.2307
 4997SOL    HW226454   2.684   4.598   3.366 -0.2230  0.0788  0.1622
 4998SOL     OW26455   0.295   2.265   0.147  0.2622  0.4409 -0.4866
 4998SOL    HW126456   0.331   2.238   0.232 -0.8074  2.0739  0.4883
 4998SOL    HW226457   0.245   2.190   0.114  0.3740 -1.0794  2.7371
 4999SOL     OW26458   2.981   3.824   4.207  0.9807  0.1397 -0.3508
 4999SOL    HW126459   2.975   3.732   4.234 -0.4348  0.1859 -0.5048
 4999SOL    HW226460   3.077   3.819   4.207  0.9563 -0.4354  0.7133
 5000SOL     OW26461   2.613   2.905   9.395 -0.4506 -0.9018  0.0408
 5000SOL    HW126462   2.541   2.842   9.389 -0.8308 -0.1498 -3.3364
 5000SOL    HW226463   2.629   2.904   9.490  1.8886  1.3740 -0.3230
 5001SOL     OW26464   0.861   0.730   6.371  0.1997 -0.0425  0.2624
 5001SOL    HW126465   0.812   0.706   6.292  1.1690 -2.2136  0.2985
 5001SOL    HW226466   0.925   0.658   6.372  2.2056  1.7559  0.6572
 5002SOL     OW26467   3.278   2.666   6.792 -0.0330  1.2422 -0.3044
 5002SOL    HW126468   3.334   2.625   6.727  2.4508  1.2205  1.8708
 5002SOL    HW226469   3.210   2.598   6.802 -0.1416  1.1780 -1.4062
 5003SOL     OW26470   1.995   2.912   2.587  0.0292 -0.1324 -0.0459
 5003SOL    HW126471   2.077   2.884   2.546 -0.9605 -1.0539 -1.4270
 5003SOL    HW226472   2.030   2.897   2.675  1.5913 -0.5934 -0.7371
 5004SOL     OW26473   4.026   3.922  15.577 -0.0677  1.0840 -0.4366
 5004SOL    HW126474   3.953   3.905  15.637  0.9535 -2.0339 -0.0235
 5004SOL    HW226475   4.030   3.837  15.532  0.7038  1.0452 -0.2961
 5005SOL     OW26476   3.878   4.327   1.010  0.2510 -0.0468 -0.3687
 5005SOL    HW126477   3.894   4.284   1.094 -2.7364 -0.6791 -0.1357
 5005SOL    HW226478   3.818   4.389   1.053 -0.0780 -1.3042  0.9863
 5006SOL     OW26479   1.079   1.322   9.054 -0.1335 -0.2006  0.5059
 5006SOL    HW126480   1.078   1.238   9.007  0.8137  0.5625 -0.8567
 5006SOL    HW226481   1.086   1.389   8.987  1.1121 -1.1708 -0.3251
 5007SOL     OW26482   2.092   4.011  12.646 -0.0396 -0.2454  0.3226
 5007SOL    HW126483   2.187   4.009  12.661 -0.0482  0.6059  0.4909
 5007SOL    HW226484   2.080   3.926  12.603  0.2862  1.3187 -2.8018
 5008SOL     OW26485   3.940   3.647   4.360 -0.3768 -0.4848  0.9345
 5008SOL    HW126486   3.997   3.706   4.310 -0.1260 -0.5609  1.1283
 5008SOL    HW226487   3.852   3.683   4.352 -0.2533 -0.2007  0.8572
 5009SOL     OW26488   4.723   0.494   2.090  0.5805 -0.4558 -0.4190
 5009SOL    HW126489   0.041   0.534   2.166  2.2016  0.9239 -2.0288
 5009SOL    HW226490   0.074   0.455   2.043 -0.3755 -2.6768 -0.1206
 5010SOL     OW26491   0.658   4.310   0.400 -0.0684 -0.4828  0.6275
 5010SOL    HW126492   0.659   4.221   0.435 -1.8760 -0.6726  0.1952
 5010SOL    HW226493   0.635   4.292   0.309  2.4738  1.7864 -0.4772
 5011SOL     OW26494   4.208   2.290  12.116 -0.5463 -0.1965  0.2918
 5011SOL    HW126495   4.268   2.334  12.177  0.0783 -0.6342 -0.0005
 5011SOL    HW226496   4.158   2.360  12.074 -0.2702  1.0892  2.1158
 5012SOL     OW26497   3.074   1.623   4.255 -0.4867 -0.4582 -0.0472
 5012SOL    HW126498   2.999   1.564   4.247 -0.2215 -0.8731  0.5302
 5012SOL    HW226499   3.122   1.609   4.173  0.1424  0.1948  0.2079
 5013SOL     OW26500   2.994   2.528  12.236  0.5463  0.5488 -0.5772
 5013SOL    HW126501   2.988   2.462  12.167 -1.8947  0.1358  0.0096
 5013SOL    HW226502   3.047   2.591  12.187  1.1243  0.9554  0.5903
 5014SOL     OW26503   3.882   2.557  14.132 -0.0723  0.0612 -0.2291
 5014SOL    HW126504   3.845   2.551  14.220  0.2533 -1.8450 -0.2202
 5014SOL    HW226505   3.808   2.576  14.075  0.1054  2.2111  0.2728
 5015SOL     OW26506   0.228   0.755   6.494 -0.1998  0.4046  0.2509
 5015SOL    HW126507   0.324   0.748   6.494 -0.1140  1.5156  0.6529
 5015SOL    HW226508   0.212   0.832   6.549 -0.4719  0.2924  0.3259
 5016SOL     OW26509   1.539   4.455   1.127 -0.4084  0.1450 -0.1775
 5016SOL    HW126510   1.523   4.458   1.033 -0.3231  1.7641 -0.1521
 5016SOL    HW226511   1.484   4.532   1.145 -3.8091 -1.8271 -2.0841
 5017SOL     OW26512   4.378   3.190   8.317  0.6701  0.4094 -0.5918
 5017SOL    HW126513   4.459   3.192   8.265  2.0459 -0.7653  1.4881
 5017SOL    HW226514   4.316   3.235   8.261  0.4405 -0.5254 -1.0959
 5018SOL     OW26515   3.391   1.727  12.942  0.5331 -0.1805 -0.6847
 5018SOL    HW126516   3.320   1.686  12.894 -0.7411 -0.3637  1.3466
 5018SOL    HW226517   3.392   1.819  12.918  0.7193 -0.4508 -1.6823
 5019SOL     OW26518   1.256   1.883   6.584 -0.1452  0.6511  0.0885
 5019SOL    HW126519   1.197   1.954   6.561 -0.8291  0.0758  0.0589
 5019SOL    HW226520   1.331   1.926   6.626 -0.1996  1.8150 -1.0141
 5020SOL     OW26521   2.098   1.084   9.577 -0.7392  0.1878 -1.2697
 5020SOL    HW126522   2.119   1.145   9.648  3.2192 -3.7783  0.9824
 5020SOL    HW226523   2.012   1.052   9.604 -0.2437  0.8082  1.0230
 5021SOL     OW26524   3.324   4.158   2.174 -0.2273  0.1939  0.3618
 5021SOL    HW126525   3.379   4.080   2.176 -0.1146  0.1506 -3.9696
 5021SOL    HW226526   3.376   4.218   2.121 -0.5979 -0.5633 -0.8443
 5022SOL     OW26527   0.612   0.054   3.193 -0.6804 -0.5539  0.6023
 5022SOL    HW126528   0.645   4.710   3.252 -0.3312 -0.1389  0.8783
 5022SOL    HW226529   0.610   4.723   3.114  0.4075  0.1889  0.0579
 5023SOL     OW26530   0.349   4.630  10.236 -0.5034 -0.3330 -0.0897
 5023SOL    HW126531   0.443   4.649  10.228 -1.0365  1.8705 -1.1486
 5023SOL    HW226532   0.359   4.564  10.304 -0.6319  0.1719  0.4205
 5024SOL     OW26533   3.604   2.356   6.507  0.0953 -0.2348  0.5681
 5024SOL    HW126534   3.586   2.363   6.414 -1.7247  0.9753  1.0120
 5024SOL    HW226535   3.699   2.369   6.517  0.3052 -0.9599 -0.4771
 5025SOL     OW26536   0.222   3.648   8.427  0.2489  0.0346 -0.1208
 5025SOL    HW126537   0.191   3.565   8.464 -0.0498  0.0196 -0.4008
 5025SOL    HW226538   0.148   3.675   8.373  1.0132  1.9319 -0.2205
 5026SOL     OW26539   0.238   0.227   5.246  0.0435  0.0489 -0.0507
 5026SOL    HW126540   0.296   0.198   5.176  1.8681  0.8974  1.1272
 5026SOL    HW226541   0.214   0.314   5.214 -0.1019  0.3288  0.8398
 5027SOL     OW26542   0.685   4.058   6.274 -0.9536 -0.3654  0.4883
 5027SOL    HW126543   0.641   3.985   6.230 -1.7401  1.0119 -1.0300
 5027SOL    HW226544   0.760   4.074   6.216  0.1744  0.8335  2.2926
 5028SOL     OW26545   2.552   4.023   4.875 -0.0052  0.1601 -0.2793
 5028SOL    HW126546   2.591   4.104   4.842  0.8362 -0.4972 -0.8703
 5028SOL    HW226547   2.576   4.021   4.968  1.6308 -0.4596 -0.7190
 5029SOL     OW26548   1.743   1.312   5.761  0.4036  0.5429  0.0862
 5029SOL    HW126549   1.730   1.266   5.844  0.3756 -2.4280 -1.5537
 5029SOL    HW226550   1.666   1.290   5.708 -0.5787  2.7362  0.6052
 5030SOL     OW26551   2.151   0.660   3.113 -0.1926 -0.4156  0.8249
 5030SOL    HW126552   2.116   0.576   3.143 -1.5795 -0.3630 -0.6462
 5030SOL    HW226553   2.158   0.707   3.196  1.4163 -0.2540  0.6133
 5031SOL     OW26554   4.658   2.872  10.144 -0.0730  0.0026 -0.1591
 5031SOL    HW126555   4.661   2.790  10.195 -0.2238  0.3207  0.3606
 5031SOL    HW226556   4.600   2.848  10.072 -1.0767 -0.9616  0.9650
 5032SOL     OW26557   0.281   0.648   3.761 -0.1543  0.5161  0.3342
 5032SOL    HW126558   0.348   0.676   3.823  2.2280 -1.5940 -1.2974
 5032SOL    HW226559   0.274   0.555   3.784  1.2732 -0.2728 -2.5259
 5033SOL     OW26560   2.903   3.810   9.909  0.2012 -0.3819  0.2039
 5033SOL    HW126561   2.998   3.800   9.906  0.2768  0.7574 -1.1147
 5033SOL    HW226562   2.871   3.719   9.909 -2.1445  0.4444 -1.2719
 5034SOL     OW26563   4.523   3.762   4.775  0.0878 -0.3325 -0.0627
 5034SOL    HW126564   4.563   3.849   4.777  1.1624 -0.8227 -0.2588
 5034SOL    HW226565   4.465   3.763   4.699  0.1637 -0.5013 -0.1239
 5035SOL     OW26566   1.893   1.413   1.948 -0.0627  0.4512 -0.7552
 5035SOL    HW126567   1.951   1.351   1.993  1.5087  3.7396  1.7343
 5035SOL    HW226568   1.827   1.438   2.013 -0.5297 -2.0532 -0.2779
 5036SOL     OW26569   4.321   4.215   6.767 -0.0709 -0.5362  0.1555
 5036SOL    HW126570   4.363   4.185   6.687 -1.9770  1.6610 -1.6778
 5036SOL    HW226571   4.265   4.141   6.789  0.0086 -1.0777 -1.4619
 5037SOL     OW26572   2.703   4.170   8.459 -0.0176  0.1165 -0.3077
 5037SOL    HW126573   2.784   4.141   8.416  0.1330  1.7348 -1.1217
 5037SOL    HW226574   2.649   4.091   8.453 -0.0885  0.1428  0.0204
 5038SOL     OW26575   0.539   2.312   0.021  0.6348 -0.0442 -0.0931
 5038SOL    HW126576   0.560   2.223   0.050  1.0650  1.0697  2.9802
 5038SOL    HW226577   0.446   2.312   0.047  1.1966 -0.5344  1.9315
 5039SOL     OW26578   2.265   2.453   1.127  0.0459 -0.4886  0.6540
 5039SOL    HW126579   2.254   2.412   1.041 -0.2811 -0.3152  0.6138
 5039SOL    HW226580   2.206   2.401   1.181  0.5274 -0.4726  1.1892
 5040SOL     OW26581   4.140   2.422   2.169  0.0952  0.0590 -0.0398
 5040SOL    HW126582   4.201   2.424   2.096  0.1832 -4.3791 -0.0854
 5040SOL    HW226583   4.053   2.440   2.134  0.6415  0.0226 -1.3817
 5041SOL     OW26584   0.058   4.630  12.065  0.1291  0.1846 -0.1186
 5041SOL    HW126585   0.086   4.545  12.030  1.4707 -0.4596  2.5122
 5041SOL    HW226586   0.133   4.635  12.125 -0.6646  1.9121  0.7326
 5042SOL     OW26587   0.630   1.833   8.608  0.1802 -0.0040 -0.2521
 5042SOL    HW126588   0.641   1.892   8.534  2.6526 -1.2681 -0.9063
 5042SOL    HW226589   0.708   1.778   8.614 -1.2996 -1.9736  1.1451
 5043SOL     OW26590   4.044   0.544  16.210  0.3461  0.2031  0.1113
 5043SOL    HW126591   4.065   0.470  16.153  0.1457 -0.1990  0.5547
 5043SOL    HW226592   3.959   0.518  16.247  0.8228 -1.8431 -0.2144
 5044SOL     OW26593   0.811   4.674   6.546 -0.2265 -0.3261  0.0892
 5044SOL    HW126594   0.902   4.677   6.577  0.3681 -0.4398 -1.6315
 5044SOL    HW226595   0.819   4.720   6.462 -1.3575  2.7563  1.6594
 5045SOL     OW26596   3.348   0.132  11.001  0.6274 -0.2074 -0.3235
 5045SOL    HW126597   3.364   0.127  11.095  0.5453  1.1110 -0.2439
 5045SOL    HW226598   3.323   0.043  10.973 -0.4583  0.1401 -0.4785
 5046SOL     OW26599   2.022   2.574   7.561  0.0720  0.0603 -0.4897
 5046SOL    HW126600   1.954   2.636   7.588  0.8278  0.7876 -0.2856
 5046SOL    HW226601   2.087   2.601   7.626  0.5442 -0.3587 -0.7930
 5047SOL     OW26602   0.428   3.404   9.739 -0.1980  0.6929 -0.0466
 5047SOL    HW126603   0.365   3.339   9.769  1.6042 -0.9256  0.2667
 5047SOL    HW226604   0.375   3.484   9.738 -0.6229  0.3446 -3.4691
 5048SOL     OW26605   2.740   0.875   8.280 -0.1452 -0.1085  0.3061
 5048SOL    HW126606   2.759   0.785   8.257  2.2440  0.2927  0.6828
 5048SOL    HW226607   2.680   0.859   8.353 -1.2986  1.4685 -0.3092
 5049SOL     OW26608   0.178   0.032   1.843 -0.4218 -0.2497  0.0482
 5049SOL    HW126609   0.087   0.048   1.868  0.1971  1.1727  1.3569
 5049SOL    HW226610   0.201   0.116   1.805  0.0125 -0.1439  0.5588
 5050SOL     OW26611   3.374   4.513   6.148 -0.2902 -0.4070 -0.5448
 5050SOL    HW126612   3.354   4.452   6.076 -1.5576  0.2185 -0.7350
 5050SOL    HW226613   3.344   4.475   6.230 -1.5898  1.1830 -0.2659
 5051SOL     OW26614   4.429   2.105  13.778 -0.0404  0.0475 -0.2538
 5051SOL    HW126615   4.472   2.183  13.743  3.5262 -1.5656  0.5781
 5051SOL    HW226616   4.406   2.073  13.691 -0.3990  1.3022 -0.6219
 5052SOL     OW26617   1.055   3.361   5.733  0.4335 -0.2245  0.0559
 5052SOL    HW126618   1.147   3.380   5.715  0.2268 -0.4439 -1.2386
 5052SOL    HW226619   1.070   3.270   5.756  2.9259  0.0202 -0.5741
 5053SOL     OW26620   3.134   2.073   8.658 -0.2452 -0.5346 -0.2839
 5053SOL    HW126621   3.204   2.029   8.705 -0.4059 -0.0066  0.4385
 5053SOL    HW226622   3.085   2.124   8.722 -1.8033  0.3129 -2.1275
 5054SOL     OW26623   3.774   2.941   2.962 -0.2000 -0.5437  0.3464
 5054SOL    HW126624   3.733   2.883   3.025  1.0562  0.1444  1.7794
 5054SOL    HW226625   3.830   2.992   3.020 -2.0427  2.8274 -0.8230
 5055SOL     OW26626   1.254   1.934  15.936  0.1118  0.6986 -0.0541
 5055SOL    HW126627   1.253   1.844  15.903 -0.0169  0.2974  1.0625
 5055SOL    HW226628   1.343   1.967  15.929  0.3040  0.2989  0.5280
 5056SOL     OW26629   2.695   2.291   4.165 -0.1798 -0.4828  0.2094
 5056SOL    HW126630   2.790   2.299   4.171 -0.0308  0.1197 -2.9344
 5056SOL    HW226631   2.669   2.383   4.162  1.1829 -0.1739 -1.7322
 5057SOL     OW26632   3.091   2.481   7.134  0.4240 -0.1160 -0.0819
 5057SOL    HW126633   3.139   2.402   7.158 -1.1040 -0.8484  0.5406
 5057SOL    HW226634   3.139   2.553   7.177 -3.4105  0.8927  2.4917
 5058SOL     OW26635   2.733   3.088   6.849  0.1308 -0.0292  0.5340
 5058SOL    HW126636   2.693   3.003   6.868  0.1759 -0.3293 -0.7745
 5058SOL    HW226637   2.756   3.123   6.936 -1.8893 -0.5899  1.3113
 5059SOL     OW26638   3.150   4.354   9.552 -0.2021 -0.4182  0.2783
 5059SOL    HW126639   3.108   4.268   9.551 -0.5143 -0.2508 -0.7201
 5059SOL    HW226640   3.101   4.394   9.480 -0.8644 -0.4671  0.7055
 5060SOL     OW26641   2.800   2.170   9.180 -0.5159 -0.2423 -0.3561
 5060SOL    HW126642   2.737   2.129   9.240 -1.0155 -1.6955 -1.8617
 5060SOL    HW226643   2.737   2.215   9.124 -0.6295 -0.0181 -0.0466
 5061SOL     OW26644   1.420   2.340   9.031  0.2398 -0.1728  0.4434
 5061SOL    HW126645   1.404   2.410   9.094 -0.3606  2.1205 -2.2937
 5061SOL    HW226646   1.344   2.285   9.052  0.2606 -0.9255 -1.5170
 5062SOL     OW26647   1.718   3.101  13.041 -0.0186  0.7731  0.0378
 5062SOL    HW126648   1.790   3.087  13.103  1.2509 -0.1185 -1.6434
 5062SOL    HW226649   1.682   3.013  13.033 -0.2975  0.9908 -1.0503
 5063SOL     OW26650   0.760   1.183   6.859 -0.3860  0.3734 -0.5976
 5063SOL    HW126651   0.729   1.115   6.919  0.2632  0.5077 -0.1027
 5063SOL    HW226652   0.686   1.185   6.799 -0.8723  1.3961  0.0338
 5064SOL     OW26653   1.964   0.992  15.589 -0.2308 -0.1287  0.3728
 5064SOL    HW126654   1.901   1.014  15.520 -0.6882  0.2560  0.9071
 5064SOL    HW226655   1.934   0.903  15.610 -2.0920  0.3403 -0.3202
 5065SOL     OW26656   1.141   2.079   3.467  0.3094  0.5178  0.1556
 5065SOL    HW126657   1.188   2.005   3.506 -1.0029 -0.1125  0.5416
 5065SOL    HW226658   1.079   2.104   3.534  0.3555 -1.2446  0.8453
 5066SOL     OW26659   0.714   0.785  10.531  0.1202 -0.4425  0.3582
 5066SOL    HW126660   0.730   0.842  10.606 -3.9418  0.2829  0.7031
 5066SOL    HW226661   0.714   0.852  10.463 -0.1361 -1.8668 -1.0204
 5067SOL     OW26662   1.869   1.501   3.957  0.0193  0.2474  0.8817
 5067SOL    HW126663   1.958   1.537   3.968  0.6654 -1.1541  0.1457
 5067SOL    HW226664   1.827   1.587   3.955 -0.8866 -0.1668  1.7978
 5068SOL     OW26665   4.439   1.485   8.614 -0.5638  0.1495 -0.1116
 5068SOL    HW126666   4.524   1.526   8.628 -0.7707 -0.1658  2.1121
 5068SOL    HW226667   4.399   1.561   8.572 -0.9889  0.4454  0.8430
 5069SOL     OW26668   3.625   3.435  13.494 -0.4230  0.1584 -0.2207
 5069SOL    HW126669   3.661   3.443  13.583  2.9546 -1.5106 -1.4603
 5069SOL    HW226670   3.566   3.361  13.503 -0.5947  0.3253  0.0347
 5070SOL     OW26671   3.752   3.735   4.946 -0.4158 -0.0482 -0.3220
 5070SOL    HW126672   3.679   3.738   4.884 -0.6764  0.6976  0.0148
 5070SOL    HW226673   3.743   3.805   5.011 -2.2596 -0.2354 -0.3522
 5071SOL     OW26674   3.451   0.918   7.626  0.2877  0.1548  0.8131
 5071SOL    HW126675   3.441   0.893   7.535 -1.2006  1.0099  0.7395
 5071SOL    HW226676   3.529   0.970   7.609 -0.1716  0.6831  0.3322
 5072SOL     OW26677   2.049   2.494   5.134  0.3820  0.2822  0.2186
 5072SOL    HW126678   2.106   2.443   5.077 -0.9397  0.5272 -1.3150
 5072SOL    HW226679   1.974   2.506   5.075 -0.7496 -3.8438  0.8364
 5073SOL     OW26680   0.694   1.600   5.367  0.6088  0.0780 -0.0888
 5073SOL    HW126681   0.642   1.670   5.329 -0.0169 -0.1686  0.3214
 5073SOL    HW226682   0.659   1.590   5.455 -2.2139 -2.5694 -1.5075
 5074SOL     OW26683   0.736   2.656  17.393 -0.3698 -0.0609  0.1025
 5074SOL    HW126684   0.733   2.713  17.316 -0.0667 -1.2077 -0.7654
 5074SOL    HW226685   0.644   2.669  17.415 -0.1562  0.4859  0.6550
 5075SOL     OW26686   3.075   1.320   8.644 -0.4633  0.2688 -0.1217
 5075SOL    HW126687   3.021   1.271   8.706 -0.0012  1.0487  0.8974
 5075SOL    HW226688   3.042   1.409   8.659  0.9187  0.6363  0.8009
 5076SOL     OW26689   4.380   1.994   7.745 -0.2397 -0.4925 -0.1240
 5076SOL    HW126690   4.418   1.948   7.819  3.0511  1.4370 -0.6321
 5076SOL    HW226691   4.367   2.085   7.774  0.6647 -0.7667  1.1433
 5077SOL     OW26692   3.487   2.313   1.959  0.3668  0.1658  0.5661
 5077SOL    HW126693   3.475   2.218   1.954 -0.8563  0.4110 -1.5767
 5077SOL    HW226694   3.488   2.338   1.866  0.4937  1.8988  1.0445
 5078SOL     OW26695   0.722   3.032   3.409  0.0980  0.1436 -0.1905
 5078SOL    HW126696   0.696   3.123   3.391 -0.6323 -0.3892 -1.8396
 5078SOL    HW226697   0.666   3.023   3.487  1.8414  0.5798  1.1169
 5079SOL     OW26698   2.350   2.489   9.869 -0.3454 -0.1705 -0.2466
 5079SOL    HW126699   2.268   2.460   9.828  0.8572 -0.1346 -2.6529
 5079SOL    HW226700   2.392   2.518   9.788 -0.3489 -1.2244 -0.6297
 5080SOL     OW26701   2.759   4.147   8.037  0.0796 -0.3740 -0.1736
 5080SOL    HW126702   2.718   4.072   7.996  0.5779  0.3191 -1.9214
 5080SOL    HW226703   2.821   4.169   7.967  0.6681 -1.2852  0.0568
 5081SOL     OW26704   3.595   3.788  10.971 -0.5669 -0.4932 -0.3161
 5081SOL    HW126705   3.599   3.699  10.938  0.3116 -0.3540 -0.5823
 5081SOL    HW226706   3.645   3.845  10.913  0.6794  0.9811  2.1773
 5082SOL     OW26707   1.694   4.155  16.510 -0.0403 -0.2308  0.5178
 5082SOL    HW126708   1.668   4.236  16.553 -0.8225 -0.3046  0.1817
 5082SOL    HW226709   1.611   4.112  16.530  0.7168 -1.2936  1.3709
 5083SOL     OW26710   2.556   2.890  16.584 -0.0041 -0.0245 -0.3991
 5083SOL    HW126711   2.462   2.899  16.564 -0.0973  0.3748  0.2035
 5083SOL    HW226712   2.566   2.798  16.560 -0.3911 -0.3013  0.4989
 5084SOL     OW26713   0.866   2.198   2.424  0.2649 -0.3231 -0.2072
 5084SOL    HW126714   0.806   2.206   2.350 -0.4137  0.6672  0.4500
 5084SOL    HW226715   0.911   2.114   2.413 -1.0149 -1.0715  0.2870
 5085SOL     OW26716   0.082   3.162  13.638  0.0012 -0.0186 -0.0792
 5085SOL    HW126717   0.158   3.107  13.659  0.0638  0.5784  1.2807
 5085SOL    HW226718   0.014   3.107  13.601  1.6587 -1.1407 -1.4292
 5086SOL     OW26719   1.583   1.913   6.512 -0.2810 -0.5428 -0.6542
 5086SOL    HW126720   1.666   1.960   6.512 -1.4326  1.5268  2.1359
 5086SOL    HW226721   1.532   1.948   6.438 -0.1061  2.4198  0.6387
 5087SOL     OW26722   1.466   3.126   7.720 -0.3243  0.0274 -0.5467
 5087SOL    HW126723   1.532   3.195   7.730  1.3712 -1.9824  2.2782
 5087SOL    HW226724   1.409   3.175   7.660  0.0418 -0.3347 -1.1891
 5088SOL     OW26725   2.823   0.323   8.759  0.2659  0.7368 -0.2175
 5088SOL    HW126726   2.918   0.312   8.753 -0.0643 -0.7302 -2.6792
 5088SOL    HW226727   2.792   0.233   8.756 -0.1805  0.8959 -0.4510
 5089SOL     OW26728   1.006   3.677   8.170 -0.3017 -0.0030 -0.6546
 5089SOL    HW126729   0.911   3.690   8.170 -0.6075 -2.2059 -0.3195
 5089SOL    HW226730   1.033   3.665   8.079 -1.6397 -3.2678 -0.6030
 5090SOL     OW26731   4.333   1.236   6.373 -0.1232 -0.3556 -0.4551
 5090SOL    HW126732   4.415   1.187   6.371 -0.9396 -1.7532  0.2088
 5090SOL    HW226733   4.295   1.218   6.459 -1.6706  1.9117 -0.6905
 5091SOL     OW26734   2.214   2.902   4.307 -0.4161 -0.0397  0.1371
 5091SOL    HW126735   2.242   2.940   4.223 -0.3578 -0.5989 -0.0955
 5091SOL    HW226736   2.133   2.952   4.312 -0.0005  0.8767 -2.2960
 5092SOL     OW26737   1.149   3.919   6.632  0.2184  0.1014 -0.2958
 5092SOL    HW126738   1.229   3.970   6.644 -1.4000  2.1215  1.8935
 5092SOL    HW226739   1.128   3.895   6.722  1.0661 -1.5487 -0.5458
 5093SOL     OW26740   1.598   4.566   2.615 -0.7537 -0.2492  0.1040
 5093SOL    HW126741   1.662   4.544   2.682 -1.6775 -2.6944  0.1741
 5093SOL    HW226742   1.619   4.503   2.545 -3.0746 -2.3263  1.3005
 5094SOL     OW26743   1.033   4.276   4.439 -0.3760 -0.3975  0.4159
 5094SOL    HW126744   1.105   4.288   4.501 -0.6935  0.3179  0.6493
 5094SOL    HW226745   0.970   4.337   4.477 -1.7236 -0.6723 -1.4010
 5095SOL     OW26746   2.773   4.320  11.788 -0.1030 -0.1859  0.2064
 5095SOL    HW126747   2.860   4.282  11.775 -0.0104 -0.0229  0.3531
 5095SOL    HW226748   2.720   4.242  11.804 -1.4245  0.6629 -0.0443
 5096SOL     OW26749   1.883   1.025   8.245 -0.3448  0.1773  1.1382
 5096SOL    HW126750   1.960   1.075   8.272  2.2443 -2.0169 -2.2609
 5096SOL    HW226751   1.867   0.978   8.326  2.0847 -2.6418 -0.0060
 5097SOL     OW26752   1.268   2.380   2.769  0.2431  0.3351  0.3671
 5097SOL    HW126753   1.239   2.289   2.770  2.3949 -0.3399  1.0242
 5097SOL    HW226754   1.359   2.362   2.745 -0.2883 -1.7328 -0.0962
 5098SOL     OW26755   3.496   3.157   9.348 -0.4851  0.0724 -0.1381
 5098SOL    HW126756   3.520   3.245   9.376 -1.7414  0.3701  0.0005
 5098SOL    HW226757   3.570   3.109   9.384 -1.3056  0.3072  1.8647
 5099SOL     OW26758   4.143   1.132   5.016  0.2153  0.1515 -0.0755
 5099SOL    HW126759   4.215   1.191   5.039 -0.1721  0.0337  1.4040
 5099SOL    HW226760   4.166   1.042   5.039  0.8334  0.2547 -0.2767
 5100SOL     OW26761   0.763   2.348   3.029 -0.4134  0.4330 -0.8883
 5100SOL    HW126762   0.729   2.316   2.945 -2.6583  0.1371  0.1403
 5100SOL    HW226763   0.710   2.294   3.087  0.0899 -1.6922 -2.3830
 5101SOL     OW26764   0.892   1.113  13.495  1.0460 -0.3311 -0.0006
 5101SOL    HW126765   0.826   1.144  13.433  1.7504 -0.8392 -0.9874
 5101SOL    HW226766   0.934   1.191  13.530  1.0822  0.0904 -1.0102
 5102SOL     OW26767   2.563   1.948  16.072  0.4145  0.3423 -0.2979
 5102SOL    HW126768   2.627   2.014  16.043  1.0069 -1.1014 -2.2445
 5102SOL    HW226769   2.545   1.892  15.997 -1.5640 -0.3570  0.7106
 5103SOL     OW26770   2.901   1.881  12.924  0.2398  0.1144  0.2774
 5103SOL    HW126771   2.901   1.785  12.930  3.2100  0.1030 -0.0680
 5103SOL    HW226772   2.982   1.900  12.877  0.6157 -1.3253  0.3453
 5104SOL     OW26773   2.994   1.084   7.138 -0.3437 -0.4725  0.1577
 5104SOL    HW126774   2.962   1.169   7.166  0.6943  0.5064 -1.5673
 5104SOL    HW226775   2.920   1.050   7.088  0.3011  0.4636 -1.4600
 5105SOL     OW26776   2.715   0.978  14.520  0.3198  0.0814  0.0411
 5105SOL    HW126777   2.739   1.054  14.467  0.4677  0.2025  0.2827
 5105SOL    HW226778   2.802   0.951  14.549  0.2794 -0.9858 -0.7891
 5106SOL     OW26779   0.605   3.934   8.914  0.6831  0.2841 -0.3794
 5106SOL    HW126780   0.632   3.858   8.965  0.0952  1.4347  1.6460
 5106SOL    HW226781   0.549   3.889   8.851  0.0221 -0.1041  0.4951
 5107SOL     OW26782   4.402   3.208   6.509  0.3510  0.1447  0.1323
 5107SOL    HW126783   4.359   3.255   6.580 -2.1778  0.9837 -1.9827
 5107SOL    HW226784   4.357   3.123   6.507  1.2845 -0.3721  1.2465
 5108SOL     OW26785   2.923   4.644   2.653  0.0861 -0.5282  0.3472
 5108SOL    HW126786   2.893   4.590   2.727  1.1100 -1.2311  0.2424
 5108SOL    HW226787   3.013   4.615   2.643 -0.0091 -0.6804 -0.0665
 5109SOL     OW26788   0.963   3.472   4.124 -0.6435  0.0771  0.6114
 5109SOL    HW126789   0.992   3.562   4.107  2.2252 -0.9054  0.3292
 5109SOL    HW226790   0.993   3.431   4.043 -2.5490  0.9296 -0.5310
 5110SOL     OW26791   4.372   2.389   2.339 -0.0166  0.1091  0.1131
 5110SOL    HW126792   4.293   2.397   2.284  0.7804 -0.0085 -1.0583
 5110SOL    HW226793   4.352   2.440   2.417  0.9646 -0.8655  0.9969
 5111SOL     OW26794   2.408   4.025   9.437 -0.1351  0.5868 -0.8382
 5111SOL    HW126795   2.448   4.104   9.400 -1.0125  0.9647 -0.9851
 5111SOL    HW226796   2.406   3.964   9.364  1.5022 -1.6392  1.0038
 5112SOL     OW26797   0.107   2.114   5.399  0.5717  0.0960  0.2268
 5112SOL    HW126798   0.037   2.055   5.429  0.7664 -0.0730  0.3547
 5112SOL    HW226799   0.059   2.195   5.387  1.3622  0.4150 -0.8251
 5113SOL     OW26800   0.160   0.870   3.796  0.3530 -0.5211  0.2184
 5113SOL    HW126801   0.198   0.784   3.782 -0.2588 -0.6934 -0.3676
 5113SOL    HW226802   0.082   0.853   3.743 -1.0624 -0.2690  2.2335
 5114SOL     OW26803   4.315   0.228   4.501 -0.4867 -0.8590  0.0876
 5114SOL    HW126804   4.266   0.308   4.520  0.3825  0.1219 -1.8529
 5114SOL    HW226805   4.342   0.250   4.412 -3.3301 -0.0967 -0.5800
 5115SOL     OW26806   2.139   4.621   5.884  0.0187 -0.0719  0.3564
 5115SOL    HW126807   2.078   4.549   5.901  0.3111 -0.9051 -2.2007
 5115SOL    HW226808   2.072   4.680   5.847 -1.5082 -2.8372 -1.2789
 5116SOL     OW26809   3.604   1.105   7.469 -0.4865  0.8858  0.0125
 5116SOL    HW126810   3.519   1.148   7.468 -1.1087 -0.2515  3.4986
 5116SOL    HW226811   3.663   1.180   7.471  0.2799  0.2833  0.1892
 5117SOL     OW26812   2.001   3.044   5.080  0.1977  0.5528  0.0945
 5117SOL    HW126813   2.083   3.087   5.058  0.1977  0.3151 -0.3533
 5117SOL    HW226814   2.027   2.953   5.075  0.9552  0.8532 -1.1737
 5118SOL     OW26815   3.242   3.613   4.439  0.6051  0.1191  0.0229
 5118SOL    HW126816   3.168   3.611   4.378  1.2822  3.0766 -0.8888
 5118SOL    HW226817   3.197   3.659   4.510 -1.2967  0.8306 -1.6224
 5119SOL     OW26818   3.908   3.834   8.355 -0.2468  0.1318 -0.2269
 5119SOL    HW126819   3.858   3.844   8.274  0.1627  3.3139 -0.1161
 5119SOL    HW226820   3.959   3.915   8.355 -0.7277  0.4397 -1.7533
 5120SOL     OW26821   2.679   0.927  16.665  0.6832 -0.5048 -0.0889
 5120SOL    HW126822   2.685   0.873  16.586 -2.0806 -0.0250 -0.6243
 5120SOL    HW226823   2.659   1.015  16.633  3.4854  0.8241  1.7189
 5121SOL     OW26824   3.497   0.521   2.802  0.5355 -0.1026 -0.4402
 5121SOL    HW126825   3.567   0.530   2.867  0.3400  0.1221 -0.2625
 5121SOL    HW226826   3.545   0.509   2.719  3.3589  1.9040  0.9108
 5122SOL     OW26827   0.877   2.744   8.982  0.1319 -0.4657 -0.2898
 5122SOL    HW126828   0.862   2.838   8.993  2.2254 -0.0406 -1.0676
 5122SOL    HW226829   0.900   2.730   9.074 -1.3675 -0.2984  0.1073
 5123SOL     OW26830   0.194   3.559   2.283 -0.3244 -0.1324  0.1776
 5123SOL    HW126831   0.102   3.581   2.298 -0.4043  0.9425 -1.8516
 5123SOL    HW226832   0.241   3.612   2.347 -1.4766  0.8517  0.2204
 5124SOL     OW26833   1.967   1.482   8.659 -0.0068 -0.1135 -0.3093
 5124SOL    HW126834   2.044   1.453   8.708 -0.0315 -2.3104 -1.5937
 5124SOL    HW226835   1.994   1.467   8.568  1.0530 -0.4777  0.0764
 5125SOL     OW26836   0.334   1.727   3.602 -0.3755  0.5086  0.5995
 5125SOL    HW126837   0.309   1.815   3.628  1.3411  0.8437  1.1149
 5125SOL    HW226838   0.426   1.732   3.574 -0.8835 -0.1870 -1.1824
 5126SOL     OW26839   1.405   0.365   6.835  0.0858 -0.6702 -0.7783
 5126SOL    HW126840   1.407   0.445   6.783  0.3363 -0.1007  0.0938
 5126SOL    HW226841   1.494   0.333   6.847  0.2015  0.1478  0.5905
 5127SOL     OW26842   3.638   2.936   9.910  0.1965  0.1845 -0.3928
 5127SOL    HW126843   3.729   2.955   9.890 -0.5952  1.5884 -2.6447
 5127SOL    HW226844   3.656   2.870   9.977  0.8887 -0.1101 -0.8665
 5128SOL     OW26845   4.572   0.199   4.141 -0.3711 -0.3422 -0.3783
 5128SOL    HW126846   4.585   0.110   4.175  0.7614 -0.4892 -1.1819
 5128SOL    HW226847   4.636   0.198   4.070 -1.2872  3.0815 -1.2334
 5129SOL     OW26848   0.526   1.781   5.273 -0.1029  0.7879  0.3535
 5129SOL    HW126849   0.512   1.815   5.185 -1.4111 -1.5633 -0.3363
 5129SOL    HW226850   0.440   1.742   5.291 -0.7996  1.1602 -2.2092
 5130SOL     OW26851   3.963   0.964  12.174 -0.2545 -0.5050 -0.2732
 5130SOL    HW126852   3.912   1.043  12.159 -0.5977 -0.5618  0.5953
 5130SOL    HW226853   4.001   0.982  12.260 -1.2022 -0.7893  0.2117
 5131SOL     OW26854   0.198   2.679   3.476  0.4834  0.5073  0.2517
 5131SOL    HW126855   0.267   2.737   3.507 -0.0617  1.5782 -0.5348
 5131SOL    HW226856   0.140   2.679   3.553 -1.3870  1.7617 -1.1567
 5132SOL     OW26857   4.470   3.088   2.619 -0.3662 -0.0283  0.1463
 5132SOL    HW126858   4.391   3.037   2.639 -0.4797  0.2685  0.4499
 5132SOL    HW226859   4.498   3.097   2.710  0.4611  0.2148 -0.1303
 5133SOL     OW26860   0.571   3.392   7.098 -0.2012  0.5447 -0.2955
 5133SOL    HW126861   0.633   3.434   7.159 -0.7340  0.5083  0.2721
 5133SOL    HW226862   0.526   3.463   7.052  0.3874  0.0400 -1.6426
 5134SOL     OW26863   3.400   0.478   6.322  0.3045  0.2696 -0.0905
 5134SOL    HW126864   3.391   0.471   6.417 -0.0238  2.9267  0.0550
 5134SOL    HW226865   3.489   0.511   6.309  0.1410  1.0439  0.7523
 5135SOL     OW26866   1.833   1.470   6.946 -0.2724  0.0556  0.3166
 5135SOL    HW126867   1.849   1.375   6.940  0.2180  0.1268  0.5049
 5135SOL    HW226868   1.919   1.511   6.941 -0.4238  0.3604  0.2441
 5136SOL     OW26869   4.631   0.021  15.760 -0.2547  0.0610 -0.2936
 5136SOL    HW126870   4.682   4.711  15.834 -0.8575  2.0409  0.9870
 5136SOL    HW226871   4.639   4.672  15.696 -0.1100 -0.7850  0.6767
 5137SOL     OW26872   0.729   2.117   5.922  0.0340  0.2311  0.5890
 5137SOL    HW126873   0.772   2.197   5.894  3.8085 -1.7802  0.7218
 5137SOL    HW226874   0.789   2.047   5.897  1.3241  0.8691  1.8981
 5138SOL     OW26875   1.241   1.472   7.754 -0.2327  0.4677  0.0231
 5138SOL    HW126876   1.220   1.544   7.695  2.9383  3.0247  1.9691
 5138SOL    HW226877   1.312   1.509   7.807 -0.2674 -0.9397  1.0756
 5139SOL     OW26878   0.883   3.417   2.144 -0.3122 -0.7613 -0.4103
 5139SOL    HW126879   0.882   3.505   2.106 -0.6520 -0.6145 -0.0658
 5139SOL    HW226880   0.796   3.384   2.123 -1.0756  0.8720  0.1707
 5140SOL     OW26881   2.058   0.841  14.807 -0.1573  0.4231  0.0736
 5140SOL    HW126882   2.064   0.809  14.897  1.6830  0.8964  0.1296
 5140SOL    HW226883   2.147   0.817  14.782 -0.5016 -2.7800  1.9187
 5141SOL     OW26884   0.632   3.584   4.505  0.0895  0.0224 -0.0374
 5141SOL    HW126885   0.692   3.529   4.455  1.4371  0.6596  0.8679
 5141SOL    HW226886   0.683   3.600   4.585  0.1067 -1.1807  0.1935
 5142SOL     OW26887   0.886   0.601   3.920  0.0818 -0.0656 -0.0653
 5142SOL    HW126888   0.831   0.536   3.964 -2.3354  1.3184 -1.0741
 5142SOL    HW226889   0.891   0.567   3.831  0.7172  0.0768 -0.0827
 5143SOL     OW26890   0.670   2.866   2.172  0.1213  0.0429 -0.7242
 5143SOL    HW126891   0.727   2.913   2.233  0.4963 -2.5409  0.9237
 5143SOL    HW226892   0.589   2.918   2.166 -1.1707 -1.7098  1.5452
 5144SOL     OW26893   1.071   0.725   2.703  0.3360  0.3419  0.0102
 5144SOL    HW126894   1.064   0.635   2.669 -2.0359  0.8691 -0.8832
 5144SOL    HW226895   1.000   0.774   2.662 -0.8683 -1.2067  0.2461
 5145SOL     OW26896   3.459   1.095  10.510 -0.0113  0.5902 -0.0833
 5145SOL    HW126897   3.494   1.044  10.583  3.2374  0.9894 -1.3786
 5145SOL    HW226898   3.496   1.179  10.534  0.0899  0.6178 -0.3372
 5146SOL     OW26899   0.914   2.144   7.091  0.2839  1.0908 -0.2605
 5146SOL    HW126900   0.971   2.146   7.167 -1.3815  1.2439  0.9851
 5146SOL    HW226901   0.971   2.194   7.032  2.4964  0.2494  1.1679
 5147SOL     OW26902   3.381   3.639   3.116  0.0118 -0.2506  0.1223
 5147SOL    HW126903   3.308   3.632   3.177  0.7792  0.6755  1.1430
 5147SOL    HW226904   3.378   3.735   3.117  0.4914 -0.2142 -1.6993
 5148SOL     OW26905   3.644   3.445   4.174  0.1953  0.0833  0.4158
 5148SOL    HW126906   3.725   3.410   4.212  0.5802 -0.7692 -1.1715
 5148SOL    HW226907   3.632   3.526   4.223  1.0412  0.2169  0.4028
 5149SOL     OW26908   1.900   2.479   5.971 -0.4047  0.1337  0.4869
 5149SOL    HW126909   1.948   2.418   6.027 -0.2171  0.0059  0.1862
 5149SOL    HW226910   1.824   2.430   5.940 -1.1804  3.0274 -2.1523
 5150SOL     OW26911   0.388   2.551  13.046 -0.6960 -0.4570 -0.1724
 5150SOL    HW126912   0.460   2.491  13.067 -0.4405  0.3222  1.2083
 5150SOL    HW226913   0.364   2.509  12.964 -0.3568  1.7362 -1.4050
 5151SOL     OW26914   3.278   1.772  12.319 -0.2369 -0.1970 -0.1619
 5151SOL    HW126915   3.300   1.755  12.227 -2.6745 -1.7081 -0.4713
 5151SOL    HW226916   3.330   1.702  12.358 -2.1529 -1.5717 -0.1221
 5152SOL     OW26917   4.017   1.427   6.154 -0.3545 -0.1305 -0.3545
 5152SOL    HW126918   3.924   1.417   6.134 -0.6527  0.7685  0.5951
 5152SOL    HW226919   4.049   1.337   6.157  1.6930  0.6020  0.1306
 5153SOL     OW26920   3.491   1.035   6.877  0.5522 -0.0516 -0.4170
 5153SOL    HW126921   3.540   0.967   6.832  0.4862 -0.5856  0.3093
 5153SOL    HW226922   3.443   0.973   6.932 -0.3708  3.3495  2.6445
 5154SOL     OW26923   1.791   2.938   1.622  0.2240  0.2757  0.5506
 5154SOL    HW126924   1.869   2.969   1.575  0.0140  0.0047  0.0285
 5154SOL    HW226925   1.727   2.996   1.581  0.1202 -0.8094 -0.7998
 5155SOL     OW26926   1.129   2.952   6.432 -0.1151 -0.5002  0.0230
 5155SOL    HW126927   1.065   2.899   6.478 -0.8474  0.5782  0.2446
 5155SOL    HW226928   1.135   3.026   6.493  1.5508 -0.1292 -0.5827
 5156SOL     OW26929   1.593   0.428   5.002 -0.4325 -0.6680 -0.0306
 5156SOL    HW126930   1.634   0.406   4.918 -1.6383  0.6527 -0.9555
 5156SOL    HW226931   1.532   0.354   5.003 -1.2753  0.0246  0.1298
 5157SOL     OW26932   2.336   1.156  14.579 -0.1689  0.2075  0.4751
 5157SOL    HW126933   2.244   1.178  14.564 -0.8578 -1.3894  2.3491
 5157SOL    HW226934   2.359   1.092  14.513 -2.6084 -0.3178  0.1111
 5158SOL     OW26935   2.061   0.277  13.040  0.0203 -0.6400  0.3363
 5158SOL    HW126936   1.987   0.321  12.998  2.3570  2.5214 -0.4149
 5158SOL    HW226937   2.029   0.258  13.128  1.5590  0.6461  1.1615
 5159SOL     OW26938   3.877   2.034  16.537  0.2020 -0.3861  0.3557
 5159SOL    HW126939   3.790   2.071  16.542  1.8243  3.7596 -2.4405
 5159SOL    HW226940   3.882   1.981  16.617 -0.4531  0.1786  0.7629
 5160SOL     OW26941   3.661   2.176   8.363 -0.4127  0.6333 -0.0163
 5160SOL    HW126942   3.692   2.228   8.289 -0.7980  1.9421  0.7361
 5160SOL    HW226943   3.735   2.175   8.424  0.2492 -0.3980 -0.8470
 5161SOL     OW26944   4.294   0.383   1.948 -0.5833  0.1611 -0.1481
 5161SOL    HW126945   4.222   0.433   1.909 -1.0910 -0.4583 -0.0167
 5161SOL    HW226946   4.270   0.291   1.939  1.0645 -0.2942  0.0727
 5162SOL     OW26947   1.404   2.847   1.566 -0.4286 -0.4146 -0.0594
 5162SOL    HW126948   1.420   2.758   1.536  1.7273 -0.3907  0.9752
 5162SOL    HW226949   1.325   2.830   1.616 -0.2331  1.7389  0.9780
 5163SOL     OW26950   4.534   4.179   5.144  0.4936  0.4194  0.2503
 5163SOL    HW126951   4.578   4.139   5.220 -0.2628  0.1048  0.5172
 5163SOL    HW226952   4.610   4.195   5.087 -0.4809  1.3283 -0.7854
 5164SOL     OW26953   3.196   0.668  10.017 -0.3724  0.1233 -0.0638
 5164SOL    HW126954   3.220   0.584  10.057 -0.9350  0.8234  1.7435
 5164SOL    HW226955   3.224   0.733  10.081 -1.1554 -0.6027  1.0221
 5165SOL     OW26956   1.510   4.602   9.757 -0.0472 -0.4262 -0.3409
 5165SOL    HW126957   1.437   4.661   9.776  0.2720 -0.1793  0.1159
 5165SOL    HW226958   1.531   4.560   9.840  0.4993 -0.6313 -0.5806
 5166SOL     OW26959   1.121   0.958   9.798  1.1263 -0.4538  0.2883
 5166SOL    HW126960   1.118   0.996   9.886  0.8220  2.0384 -0.7976
 5166SOL    HW226961   1.121   1.030   9.735  0.0457  0.5646  1.4533
 5167SOL     OW26962   2.161   2.327   2.661  0.7047  0.6189 -0.5038
 5167SOL    HW126963   2.106   2.362   2.731 -1.4072 -1.7293 -1.0015
 5167SOL    HW226964   2.187   2.401   2.607  1.1526  0.8675  0.0569
 5168SOL     OW26965   3.982   3.634   5.358  0.1617 -0.0045 -0.2916
 5168SOL    HW126966   4.061   3.687   5.345  0.4635 -0.2967  0.3352
 5168SOL    HW226967   3.993   3.570   5.288 -2.9937  0.2522 -1.0527
 5169SOL     OW26968   0.362   1.516   2.055  0.3923 -0.7357  0.3986
 5169SOL    HW126969   0.407   1.597   2.079 -0.6560  0.2098 -0.8664
 5169SOL    HW226970   0.345   1.477   2.140 -2.4694 -1.2666 -0.4408
 5170SOL     OW26971   0.148   3.562   4.371 -0.4624 -0.1267 -0.0961
 5170SOL    HW126972   0.179   3.650   4.388 -1.8770  0.6272 -1.4276
 5170SOL    HW226973   0.225   3.509   4.393  0.7513  1.2692 -0.9949
 5171SOL     OW26974   3.742   4.413   4.494  0.1607  0.0339 -0.7338
 5171SOL    HW126975   3.797   4.483   4.460 -0.8000  0.6565 -0.9774
 5171SOL    HW226976   3.659   4.428   4.450  0.3793  1.5376 -0.6385
 5172SOL     OW26977   2.146   4.720   6.786 -0.4387  0.3711  0.1012
 5172SOL    HW126978   2.085   4.700   6.857  0.0709 -0.8539  0.1923
 5172SOL    HW226979   2.229   4.713   6.833 -1.3821 -0.5138  1.6199
 5173SOL     OW26980   1.614   2.864  10.782  1.0564 -0.0534 -0.2576
 5173SOL    HW126981   1.657   2.941  10.744 -1.5898  1.6017  0.1225
 5173SOL    HW226982   1.580   2.886  10.868 -0.7130 -0.9366 -0.7271
 5174SOL     OW26983   1.234   1.381   6.659  0.8419  0.1382 -0.4705
 5174SOL    HW126984   1.284   1.461   6.641  1.0099  0.1713  0.1438
 5174SOL    HW226985   1.166   1.428   6.708  0.1743 -0.6439 -0.6491
 5175SOL     OW26986   3.255   4.420   4.283  0.2803  0.4035 -0.3766
 5175SOL    HW126987   3.206   4.348   4.324  1.0203 -0.7583 -1.5286
 5175SOL    HW226988   3.222   4.397   4.196  0.8093 -2.3228  0.1269
 5176SOL     OW26989   0.712   4.203   1.866  0.3436  0.5014  0.1705
 5176SOL    HW126990   0.667   4.240   1.942 -0.0909 -0.5378  0.4171
 5176SOL    HW226991   0.641   4.164   1.816  0.9846 -0.6178  0.1143
 5177SOL     OW26992   3.176   2.828  12.817  0.2112  0.1315  0.1390
 5177SOL    HW126993   3.265   2.829  12.782 -0.0889  0.1590 -0.6148
 5177SOL    HW226994   3.144   2.906  12.772 -0.8833 -0.0348  0.6222
 5178SOL     OW26995   2.022   1.681   6.978 -0.0939  0.4405 -1.1652
 5178SOL    HW126996   1.970   1.758   6.955  1.5582  1.3346 -1.9319
 5178SOL    HW226997   2.112   1.707   6.959 -0.3336  1.5406 -0.7918
 5179SOL     OW26998   3.865   0.598  15.954 -0.3249  0.1796 -0.0194
 5179SOL    HW126999   3.808   0.658  15.906  1.2874 -0.3747 -2.6193
 5179SOL    HW227000   3.949   0.635  15.927 -0.2016 -0.0875 -0.0036
 5180SOL     OW27001   3.284   2.859   6.065 -0.2601  0.0033  0.0562
 5180SOL    HW127002   3.324   2.811   5.993 -2.2575 -0.3926 -0.7860
 5180SOL    HW227003   3.206   2.806   6.082  0.3144  0.0450  2.6999
 5181SOL     OW27004   4.672   0.201   2.692 -0.1588 -0.0733  0.0209
 5181SOL    HW127005   0.006   0.193   2.768 -1.5561  0.2810  1.1105
 5181SOL    HW227006   4.719   0.272   2.646  1.4255 -1.2757 -0.2228
 5182SOL     OW27007   0.734   1.570  12.570  0.0616  0.6845  0.8050
 5182SOL    HW127008   0.695   1.515  12.502 -0.7256  2.1632  0.0399
 5182SOL    HW227009   0.684   1.542  12.646 -0.5148 -0.3579  0.0396
 5183SOL     OW27010   1.648   2.479   2.020  0.6326  0.3584  0.6264
 5183SOL    HW127011   1.563   2.503   2.055 -0.0464 -2.6302  1.0040
 5183SOL    HW227012   1.695   2.544   2.072  0.3714  0.9839  0.0863
 5184SOL     OW27013   2.713   0.101   1.878 -0.1256  0.8963  0.2296
 5184SOL    HW127014   2.728   0.195   1.890 -0.2986  1.0117 -0.4364
 5184SOL    HW227015   2.619   0.107   1.861 -0.2364  1.0152  0.8881
 5185SOL     OW27016   1.249   1.915   2.334 -0.3234 -0.1358  0.2583
 5185SOL    HW127017   1.214   2.000   2.361 -0.6382 -0.4032  0.6807
 5185SOL    HW227018   1.293   1.940   2.253 -0.8558 -1.0059 -0.2950
 5186SOL     OW27019   0.336   2.310   1.203  0.2721  0.3279  0.6057
 5186SOL    HW127020   0.262   2.251   1.190 -0.3883  0.6560  2.7928
 5186SOL    HW227021   0.301   2.361   1.276  2.0483  2.5709 -0.1232
 5187SOL     OW27022   3.999   0.872   2.898 -0.5258 -0.2246 -0.5983
 5187SOL    HW127023   3.981   0.779   2.911 -2.4349  0.3049  0.4166
 5187SOL    HW227024   4.044   0.865   2.814  0.4409 -2.4372  0.0887
 5188SOL     OW27025   3.709   2.616   2.411  0.0370 -0.1112  0.3852
 5188SOL    HW127026   3.659   2.616   2.492 -2.7687  0.1155 -1.3764
 5188SOL    HW227027   3.711   2.524   2.382  0.2880  0.5867 -1.8179
 5189SOL     OW27028   3.042   0.177  14.530  0.8248  0.0824 -0.2662
 5189SOL    HW127029   2.969   0.229  14.496  1.1513  1.0678  0.5323
 5189SOL    HW227030   3.038   0.101  14.473  1.6516  1.1225 -1.7009
 5190SOL     OW27031   0.006   3.969   2.957  0.2714  0.2837 -0.3557
 5190SOL    HW127032   4.677   4.024   3.015 -1.3774 -1.9349  0.2792
 5190SOL    HW227033   0.011   4.030   2.883 -0.7541  1.1053  0.2617
 5191SOL     OW27034   2.989   0.223  16.360 -0.3338  0.1545 -0.6971
 5191SOL    HW127035   2.953   0.220  16.449 -0.9674 -0.6837 -0.9753
 5191SOL    HW227036   3.046   0.300  16.362  0.0650 -0.1196 -1.5048
 5192SOL     OW27037   1.336   0.926   2.612 -0.1678  0.1401  0.0516
 5192SOL    HW127038   1.260   0.976   2.643 -0.0826  0.0308  0.4375
 5192SOL    HW227039   1.342   0.845   2.663  2.4074  0.4909  0.2960
 5193SOL     OW27040   3.631   3.509   3.062  0.6356 -0.2940 -0.3042
 5193SOL    HW127041   3.619   3.540   2.972 -2.2147  0.7638  0.4444
 5193SOL    HW227042   3.553   3.541   3.106  1.3962  0.0936  0.7513
 5194SOL     OW27043   0.371   3.105   2.970  0.4254  0.1403  0.0693
 5194SOL    HW127044   0.452   3.106   3.020  0.0690  2.3450  0.5706
 5194SOL    HW227045   0.308   3.134   3.036 -1.6123 -2.0349 -0.8883
 5195SOL     OW27046   3.801   1.443   6.681 -0.5852  0.2643  0.0516
 5195SOL    HW127047   3.825   1.521   6.732 -0.0042  0.5108 -0.5959
 5195SOL    HW227048   3.734   1.475   6.620  0.0671 -0.5727 -1.0887
 5196SOL     OW27049   0.773   1.496   7.957  0.1193 -1.0226 -0.2493
 5196SOL    HW127050   0.867   1.482   7.967  0.3259  1.0112  0.6566
 5196SOL    HW227051   0.767   1.589   7.981 -0.5212 -1.2077  0.2965
 5197SOL     OW27052   0.655   1.673  11.050 -1.4096 -0.0735 -0.0623
 5197SOL    HW127053   0.634   1.712  11.135  0.1289  0.8671 -0.1044
 5197SOL    HW227054   0.751   1.667  11.049 -1.2174  2.1835  1.8589
 5198SOL     OW27055   0.913   0.068  14.875  0.0231 -0.1463 -0.2844
 5198SOL    HW127056   0.865   0.035  14.951  1.3549  0.8334  0.9954
 5198SOL    HW227057   0.901   0.163  14.877 -2.6997 -0.4687 -1.5288
 5199SOL     OW27058   1.953   2.380   8.605 -0.5969  0.3453 -0.3198
 5199SOL    HW127059   1.897   2.305   8.586 -3.4380  2.1537  0.9443
 5199SOL    HW227060   1.902   2.453   8.571 -0.0166  1.1041  0.4376
 5200SOL     OW27061   4.505   3.540  10.592  0.1827 -0.6178  0.0635
 5200SOL    HW127062   4.547   3.455  10.579  1.0102 -0.0234 -1.0846
 5200SOL    HW227063   4.450   3.556  10.516 -1.5819 -0.2074  1.4080
 5201SOL     OW27064   3.856   4.451   5.934 -0.4705  0.2281 -0.2633
 5201SOL    HW127065   3.916   4.415   5.998 -1.0345 -2.9004 -1.4966
 5201SOL    HW227066   3.868   4.396   5.857  1.2416 -0.4869  0.5366
 5202SOL     OW27067   1.103   0.309   1.885 -0.2685  0.0254 -0.2857
 5202SOL    HW127068   1.037   0.375   1.906 -0.2150 -0.8604  2.6390
 5202SOL    HW227069   1.170   0.326   1.951  2.1552 -2.8798 -1.9442
 5203SOL     OW27070   3.270   1.792  11.748 -0.1410 -0.5997  0.2785
 5203SOL    HW127071   3.182   1.818  11.721 -0.9838 -1.7125  1.9559
 5203SOL    HW227072   3.289   1.730  11.677  0.3303  1.4441 -1.3808
 5204SOL     OW27073   1.460   3.522   5.407  0.1107  0.3176 -0.2706
 5204SOL    HW127074   1.399   3.448   5.412  2.5708 -1.8866 -2.6367
 5204SOL    HW227075   1.544   3.476   5.412 -0.2010 -0.0178  1.9469
 5205SOL     OW27076   1.251   4.151   3.482  0.1893 -0.3418 -0.9423
 5205SOL    HW127077   1.271   4.242   3.502  0.5931 -0.2045 -1.9857
 5205SOL    HW227078   1.332   4.120   3.443 -0.0907  0.3827 -2.0788
 5206SOL     OW27079   4.315   2.322  17.141  0.0634 -0.0077  0.5289
 5206SOL    HW127080   4.227   2.336  17.177 -1.5387 -1.3783 -2.7783
 5206SOL    HW227081   4.298   2.309  17.048  3.2267 -0.6421  0.0418
 5207SOL     OW27082   3.649   3.826  16.624  0.3077 -0.3144 -0.0175
 5207SOL    HW127083   3.641   3.733  16.600  0.7003  0.4180 -3.0292
 5207SOL    HW227084   3.699   3.817  16.705 -0.0750 -2.0718  0.0275
 5208SOL     OW27085   2.050   3.384  16.298  0.2310  0.2027 -0.5389
 5208SOL    HW127086   2.025   3.334  16.220  1.3391 -1.0990 -0.0715
 5208SOL    HW227087   2.097   3.453  16.250  0.2243  0.5926  0.0206
 5209SOL     OW27088   4.409   4.698   2.221 -0.7809 -0.4477  0.5337
 5209SOL    HW127089   4.475   4.647   2.267 -0.2014  0.4121  0.6581
 5209SOL    HW227090   4.407   4.640   2.145 -4.7248  1.8540 -1.1426
 5210SOL     OW27091   3.068   0.890   6.024 -0.0661  0.5491  0.1887
 5210SOL    HW127092   3.018   0.916   5.946 -0.4164  0.0864  0.2623
 5210SOL    HW227093   3.018   0.816   6.058  0.3844  0.2584  0.2108
 5211SOL     OW27094   0.292   2.980   5.482 -0.1011  0.5513  0.7992
 5211SOL    HW127095   0.278   3.030   5.402  1.3524 -0.0282  0.1925
 5211SOL    HW227096   0.387   2.986   5.489 -0.0637  0.1657  0.6163
 5212SOL     OW27097   1.374   0.548   8.503  0.0727  0.3246  0.1568
 5212SOL    HW127098   1.311   0.619   8.519 -1.9973 -1.2546 -1.0662
 5212SOL    HW227099   1.331   0.472   8.541 -0.3349  1.0302  1.1127
 5213SOL     OW27100   1.619   0.394   0.392  0.2738  0.0627  0.7332
 5213SOL    HW127101   1.609   0.373   0.485 -0.8992  1.4804  0.9421
 5213SOL    HW227102   1.557   0.336   0.348  1.7923 -2.6611  2.1789
 5214SOL     OW27103   0.988   0.006   0.503 -0.0903  0.2340  0.6155
 5214SOL    HW127104   0.902   4.698   0.473  1.4710 -2.3663 -1.0936
 5214SOL    HW227105   1.014   4.644   0.539  0.9450 -0.6089 -2.1316
 5215SOL     OW27106   3.864   1.350  13.092  0.6984 -0.4352  0.0038
 5215SOL    HW127107   3.905   1.264  13.092 -0.8784 -1.1777  0.9983
 5215SOL    HW227108   3.844   1.367  13.000  0.4384 -0.6929  0.0151
 5216SOL     OW27109   3.712   2.554   2.781 -0.0914 -0.4000 -0.1616
 5216SOL    HW127110   3.665   2.492   2.725  2.7561 -4.0815  1.4918
 5216SOL    HW227111   3.749   2.483   2.835 -0.6233  1.6780  2.9611
 5217SOL     OW27112   3.663   4.360  10.053  0.3754 -0.1720 -0.2655
 5217SOL    HW127113   3.734   4.379  10.114 -1.2302 -1.5490  2.0716
 5217SOL    HW227114   3.673   4.427   9.986  3.0016  1.9319  2.2482
 5218SOL     OW27115   0.989   0.244   2.363  0.6915  0.6533  0.1830
 5218SOL    HW127116   1.071   0.214   2.402 -0.7305 -0.7653  2.0928
 5218SOL    HW227117   1.031   0.309   2.308  2.9135  0.6407  1.8330
 5219SOL     OW27118   4.216   3.875   2.710  0.0025 -0.3798  0.4027
 5219SOL    HW127119   4.310   3.882   2.725 -0.1188 -0.8048  1.3784
 5219SOL    HW227120   4.215   3.849   2.618  0.9562 -0.0199  0.2921
 5220SOL     OW27121   4.159   3.407   6.184 -0.3104 -0.4465 -0.0214
 5220SOL    HW127122   4.160   3.453   6.268 -0.5050  2.2451 -1.4988
 5220SOL    HW227123   4.167   3.318   6.219  0.9122 -0.4891 -0.4166
 5221SOL     OW27124   0.465   2.169  17.320 -0.1000  0.1551 -0.1330
 5221SOL    HW127125   0.519   2.239  17.355 -1.5868  2.2861 -2.1158
 5221SOL    HW227126   0.511   2.129  17.246 -1.8074 -1.3845 -0.3568
 5222SOL     OW27127   1.846   4.132  12.586 -0.5418  0.0072 -0.1312
 5222SOL    HW127128   1.849   4.217  12.632 -1.5775  0.8265 -1.6011
 5222SOL    HW227129   1.930   4.093  12.611 -1.1884 -1.0027  0.4672
 5223SOL     OW27130   2.294   0.285   1.959 -0.0797 -0.4555 -0.4094
 5223SOL    HW127131   2.309   0.379   1.956 -0.1170 -0.3818  1.2999
 5223SOL    HW227132   2.208   0.290   1.918 -0.0889 -0.0688 -0.3420
 5224SOL     OW27133   4.191   3.957   0.542 -0.6971 -0.7306 -0.3934
 5224SOL    HW127134   4.158   3.911   0.465 -1.3710  1.2123 -1.2651
 5224SOL    HW227135   4.276   3.916   0.554  0.3585  1.0650 -1.6885
 5225SOL     OW27136   0.294   1.560   8.603  0.0408 -0.1923 -0.2423
 5225SOL    HW127137   0.345   1.495   8.556  0.6041  0.1963 -0.1676
 5225SOL    HW227138   0.232   1.589   8.536 -0.5866  1.0488  0.8768
 5226SOL     OW27139   0.159   4.619   1.621 -0.1417 -0.0213 -0.0350
 5226SOL    HW127140   0.116   4.546   1.666  0.1237 -0.6962 -0.8636
 5226SOL    HW227141   0.184   4.665   1.701  1.3446  1.6341 -1.4433
 5227SOL     OW27142   1.895   0.839   2.892 -0.6861 -0.2911 -0.5744
 5227SOL    HW127143   1.989   0.849   2.902 -0.6725 -1.3418  0.3809
 5227SOL    HW227144   1.858   0.856   2.979 -0.0737  2.2314 -0.8120
 5228SOL     OW27145   4.209   1.480   1.872  0.6805  0.2131 -0.1518
 5228SOL    HW127146   4.190   1.387   1.870 -0.4366  0.4470 -0.2107
 5228SOL    HW227147   4.227   1.499   1.780  0.0882 -0.5574 -0.4224
 5229SOL     OW27148   1.632   2.769   7.063  0.1955 -0.3991  0.3127
 5229SOL    HW127149   1.713   2.809   7.031 -0.7799  0.7086 -0.7566
 5229SOL    HW227150   1.568   2.788   6.995 -0.5510  1.5338  1.5536
 5230SOL     OW27151   2.451   0.144   2.121 -0.0949 -0.1620  0.1862
 5230SOL    HW127152   2.474   0.229   2.157  0.1091 -0.0655 -0.1676
 5230SOL    HW227153   2.414   0.165   2.035  0.3146 -2.3780 -0.5194
 5231SOL     OW27154   4.057   4.000   3.477  0.2788 -0.5321 -0.0344
 5231SOL    HW127155   4.085   3.915   3.443  0.2311 -1.2446  1.7109
 5231SOL    HW227156   4.025   3.986   3.566 -0.8213  1.4025 -0.1253
 5232SOL     OW27157   3.541   2.822  14.053  0.1280 -0.2934 -0.1676
 5232SOL    HW127158   3.500   2.743  14.018 -0.9067  0.5720 -0.8909
 5232SOL    HW227159   3.530   2.885  13.982 -0.0984 -0.3222 -0.1568
 5233SOL     OW27160   4.242   0.683   7.845 -0.5768  0.0349  0.0558
 5233SOL    HW127161   4.170   0.640   7.890  0.1606 -1.3921 -0.1170
 5233SOL    HW227162   4.193   0.764   7.831 -3.4757 -1.7332  0.0091
 5234SOL     OW27163   0.211   2.423   7.539  0.5663  0.5997  0.5663
 5234SOL    HW127164   0.212   2.509   7.581  0.3190  1.8073 -1.9000
 5234SOL    HW227165   0.136   2.439   7.481  1.5632  0.6772 -0.6802
 5235SOL     OW27166   0.156   1.632   3.381 -0.3395 -0.3030  0.2929
 5235SOL    HW127167   0.197   1.693   3.443 -1.7375 -0.0499  0.9836
 5235SOL    HW227168   0.215   1.557   3.377  2.5490  1.9891 -0.2607
 5236SOL     OW27169   3.468   3.048   4.547  0.3125  0.1918 -0.5209
 5236SOL    HW127170   3.393   3.019   4.495 -0.3300 -0.3604  0.7182
 5236SOL    HW227171   3.491   2.960   4.575 -0.4649  0.8432  2.2026
 5237SOL     OW27172   3.759   2.417   7.331 -0.2962  0.0392  0.2182
 5237SOL    HW127173   3.775   2.505   7.366 -0.0678 -0.2422  0.8130
 5237SOL    HW227174   3.804   2.364   7.397  0.8039 -0.7125 -1.1404
 5238SOL     OW27175   3.112   4.548   8.516 -0.1239  0.4536 -0.0395
 5238SOL    HW127176   3.186   4.488   8.502 -1.3885 -1.0803 -0.2240
 5238SOL    HW227177   3.032   4.497   8.529 -0.0818  0.6552  1.0675
 5239SOL     OW27178   0.378   0.264   0.940  0.2384  0.6625 -0.2307
 5239SOL    HW127179   0.300   0.319   0.941 -0.5558 -0.4723 -0.5160
 5239SOL    HW227180   0.339   0.178   0.924 -0.3200  0.5484  1.6821
 5240SOL     OW27181   4.204   3.834   2.364 -0.3319 -0.5818  0.1031
 5240SOL    HW127182   4.182   3.748   2.327  0.8158 -0.8885  0.1383
 5240SOL    HW227183   4.298   3.835   2.346  0.0037  0.5546  1.9002
 5241SOL     OW27184   3.776   1.486   3.255  0.1861 -0.2386 -0.6055
 5241SOL    HW127185   3.750   1.486   3.163 -0.9495  0.1681 -0.2908
 5241SOL    HW227186   3.826   1.405   3.261 -0.0817 -0.2709  1.1822
 5242SOL     OW27187   0.165   0.863  11.686 -0.3133  0.3369  0.9683
 5242SOL    HW127188   0.199   0.948  11.713  2.0646 -0.2671 -0.2179
 5242SOL    HW227189   0.160   0.884  11.593  1.3596 -2.0972  0.3394
 5243SOL     OW27190   3.784   3.700  10.593  0.0829  0.1877  0.3408
 5243SOL    HW127191   3.827   3.740  10.518 -0.0360  2.5284  1.5263
 5243SOL    HW227192   3.706   3.756  10.599 -1.3335 -1.8081  0.8704
 5244SOL     OW27193   0.337   4.465  10.477  0.3256 -0.7082 -0.6332
 5244SOL    HW127194   0.336   4.507  10.563  0.9181  0.1212 -1.0356
 5244SOL    HW227195   0.400   4.397  10.500 -1.4168 -2.5198 -1.2080
 5245SOL     OW27196   4.434   2.717   6.440 -0.0972  0.7985 -0.4904
 5245SOL    HW127197   4.528   2.719   6.454  0.1486 -4.5047 -1.5206
 5245SOL    HW227198   4.426   2.636   6.390  1.6427 -0.2346  0.8931
 5246SOL     OW27199   3.250   0.983   9.705 -0.1905  0.3167 -0.1361
 5246SOL    HW127200   3.278   0.996   9.615  1.5651 -1.5377  0.1566
 5246SOL    HW227201   3.225   1.070   9.737 -2.4682 -0.5840  0.5371
 5247SOL     OW27202   3.972   4.100   8.336 -0.2055  0.1891  0.2182
 5247SOL    HW127203   3.933   4.118   8.421  0.0917 -1.9754  0.8172
 5247SOL    HW227204   3.982   4.185   8.293  1.2324  0.7577  1.6758
 5248SOL     OW27205   2.701   0.580  11.757  0.4653  0.5745 -0.5791
 5248SOL    HW127206   2.791   0.606  11.738  1.0726 -1.7674 -0.8711
 5248SOL    HW227207   2.718   0.488  11.776  0.7215  0.7141 -0.1327
 5249SOL     OW27208   0.028   0.923   9.199  0.4520 -0.0744  0.3834
 5249SOL    HW127209   0.011   0.829   9.201 -1.1592  0.1704 -1.2470
 5249SOL    HW227210   0.037   0.947   9.107  0.1338 -0.7274  0.1814
 5250SOL     OW27211   0.570   2.177  13.501  0.0390  0.0899  0.0351
 5250SOL    HW127212   0.489   2.168  13.550 -0.4752  0.2187 -0.7829
 5250SOL    HW227213   0.610   2.236  13.565  0.8684 -1.5341  0.9852
 5251SOL     OW27214   4.658   0.188   4.734  0.2175 -0.5252 -0.2498
 5251SOL    HW127215   0.011   0.131   4.724  1.1837  0.7995 -0.4391
 5251SOL    HW227216   4.675   0.247   4.661 -0.9978  0.3586  0.1982
 5252SOL     OW27217   1.867   0.427  17.530  0.0234  0.6787 -0.0772
 5252SOL    HW127218   1.787   0.387  17.565  0.3328  1.2460  1.2831
 5252SOL    HW227219   1.823   0.510  17.515  1.2264  1.6223  1.6058
 5253SOL     OW27220   3.021   2.700   9.126 -0.4112 -0.3799  0.1713
 5253SOL    HW127221   2.982   2.675   9.043  0.3831  2.4764 -1.0491
 5253SOL    HW227222   3.099   2.746   9.094 -0.2590 -0.7893 -0.0398
 5254SOL     OW27223   0.255   4.229   3.184 -0.0215 -0.7007 -0.4773
 5254SOL    HW127224   0.185   4.225   3.250 -1.1401 -1.0304 -1.6881
 5254SOL    HW227225   0.225   4.289   3.115 -2.6254 -0.1909  1.0704
 5255SOL     OW27226   2.234   0.436  14.827 -0.0105  0.7323  0.3284
 5255SOL    HW127227   2.230   0.351  14.784 -1.7822 -0.4716  2.9424
 5255SOL    HW227228   2.144   0.467  14.818  0.1929  1.4863  0.8858
 5256SOL     OW27229   3.210   0.319   0.528 -0.4146  0.0110 -0.1056
 5256SOL    HW127230   3.148   0.295   0.597  0.4213  0.2282  0.7147
 5256SOL    HW227231   3.208   0.242   0.473  0.3195 -0.1250  0.0545
 5257SOL     OW27232   1.985   3.687  12.327  0.5447  0.2067  0.8746
 5257SOL    HW127233   2.028   3.728  12.402 -0.0793  0.8918  0.8550
 5257SOL    HW227234   1.898   3.706  12.361  0.1000 -1.0604  0.4470
 5258SOL     OW27235   3.697   1.023   2.932  0.1680  0.3111 -0.3970
 5258SOL    HW127236   3.718   0.944   2.883 -2.6726 -0.4210 -0.4103
 5258SOL    HW227237   3.627   1.060   2.878  0.4731  0.9923 -0.3351
 5259SOL     OW27238   2.108   0.276   7.258 -0.0012 -0.4387 -0.0838
 5259SOL    HW127239   2.109   0.180   7.261 -1.7381 -0.4641 -0.0597
 5259SOL    HW227240   2.166   0.299   7.185  1.8650  0.6245  1.7421
 5260SOL     OW27241   3.750   0.635   7.385  0.2120  0.5229  0.2765
 5260SOL    HW127242   3.828   0.591   7.352  0.5473  0.4474  1.1801
 5260SOL    HW227243   3.768   0.728   7.373  1.0506  0.2545 -0.4669
 5261SOL     OW27244   4.332   1.956   6.391 -0.1531  0.1008  0.3572
 5261SOL    HW127245   4.285   1.976   6.472  2.2008  1.6997  1.3464
 5261SOL    HW227246   4.395   1.901   6.438  1.0611  0.5678 -0.7227
 5262SOL     OW27247   0.377   2.476  10.407  0.2427  0.1413  0.3168
 5262SOL    HW127248   0.347   2.560  10.441 -2.2188 -0.8443  0.5830
 5262SOL    HW227249   0.422   2.527  10.340 -1.1440  1.8220  0.6573
 5263SOL     OW27250   0.508   1.894   3.300  0.2146 -0.5431 -0.0320
 5263SOL    HW127251   0.492   1.847   3.218  0.2495  0.3660 -0.5550
 5263SOL    HW227252   0.562   1.965   3.266  0.8295 -0.9994 -0.0088
 5264SOL     OW27253   2.510   3.969   0.212  0.2826  0.3821 -0.4616
 5264SOL    HW127254   2.547   3.881   0.225 -4.1811 -1.3006  0.5772
 5264SOL    HW227255   2.501   3.989   0.305 -0.2408  0.6089 -0.5629
 5265SOL     OW27256   1.074   2.331   5.104  0.1831  0.4168  0.1137
 5265SOL    HW127257   1.140   2.303   5.041 -1.4394 -2.4592 -0.3191
 5265SOL    HW227258   1.111   2.282   5.177 -1.4980  0.7507  1.2075
 5266SOL     OW27259   0.033   0.749   2.798 -0.3949 -0.4993 -0.5098
 5266SOL    HW127260   4.699   0.821   2.773 -1.2826 -1.2944 -0.7320
 5266SOL    HW227261   0.068   0.774   2.884 -2.1788 -1.0476  0.3692
 5267SOL     OW27262   3.284   1.697   2.691  0.4827 -0.0448 -0.8925
 5267SOL    HW127263   3.230   1.675   2.615 -0.1118 -0.6461 -0.2943
 5267SOL    HW227264   3.348   1.626   2.688  1.6723  1.0310 -0.9214
 5268SOL     OW27265   3.659   4.559   6.114 -0.0458  0.5601  0.1820
 5268SOL    HW127266   3.683   4.536   6.024  1.4143 -2.0093  1.1988
 5268SOL    HW227267   3.599   4.488   6.138 -0.1023 -0.1433 -2.0231
 5269SOL     OW27268   0.036   2.124   0.080 -0.1630 -0.1575  0.4329
 5269SOL    HW127269   0.059   2.045   0.131  3.4811  0.1595 -0.7388
 5269SOL    HW227270   4.679   2.147   0.129 -0.8480  1.1390 -1.3168
 5270SOL     OW27271   4.159   0.874   9.292  0.5829 -0.1788  0.8620
 5270SOL    HW127272   4.193   0.828   9.368  1.3983  0.7214  1.0328
 5270SOL    HW227273   4.227   0.855   9.227  0.8598  0.3211  1.0092
 5271SOL     OW27274   1.820   3.550   7.393 -0.3283  0.6242 -0.8579
 5271SOL    HW127275   1.841   3.622   7.452  0.8132  1.3803 -2.1955
 5271SOL    HW227276   1.895   3.492   7.407 -1.4457  0.0784  2.8072
 5272SOL     OW27277   4.289   0.721   2.436  0.4592 -0.0606  0.0362
 5272SOL    HW127278   4.330   0.744   2.353 -1.6174  0.4839 -0.8472
 5272SOL    HW227279   4.196   0.703   2.418  0.3021  0.4394  0.3554
 5273SOL     OW27280   0.711   0.217   0.510  0.0414 -0.0347 -0.0032
 5273SOL    HW127281   0.753   0.191   0.592  1.5235 -0.8653 -1.0361
 5273SOL    HW227282   0.660   0.137   0.500  0.5055  0.0500 -3.1947
 5274SOL     OW27283   0.615   2.711   8.605 -0.4969 -0.3106  0.4833
 5274SOL    HW127284   0.601   2.759   8.523  1.5061 -0.1206  0.2439
 5274SOL    HW227285   0.527   2.677   8.621 -0.4918 -0.5390  0.0201
 5275SOL     OW27286   2.200   0.604  16.966  0.5878  0.1578 -0.4019
 5275SOL    HW127287   2.147   0.545  17.019  0.1528 -0.2284 -1.2583
 5275SOL    HW227288   2.178   0.686  17.010 -1.1574 -0.8521  0.6247
 5276SOL     OW27289   4.358   2.933  16.988 -0.0678 -0.0779 -0.4726
 5276SOL    HW127290   4.322   3.004  16.934 -0.4943  1.1216  1.3750
 5276SOL    HW227291   4.285   2.871  16.998 -1.5495  1.4444 -1.8142
 5277SOL     OW27292   3.787   0.554   7.653 -0.7387  0.5587  0.0505
 5277SOL    HW127293   3.761   0.591   7.568  2.3928  0.2498 -1.0471
 5277SOL    HW227294   3.821   0.632   7.697  0.6655  0.7094 -1.2951
 5278SOL     OW27295   0.007   2.631   0.588 -0.1490  0.3865  0.1339
 5278SOL    HW127296   0.027   2.565   0.521  1.3863  0.0094  0.9631
 5278SOL    HW227297   0.094   2.660   0.615  0.3825 -1.6596  0.6035
 5279SOL     OW27298   3.893   4.350  13.981 -0.1211  0.4676  0.3067
 5279SOL    HW127299   3.963   4.387  14.035 -2.2236  1.5267  2.2863
 5279SOL    HW227300   3.878   4.432  13.934 -2.5877  1.2350  2.4364
 5280SOL     OW27301   1.422   0.210   4.973 -0.1817  0.3834  0.4174
 5280SOL    HW127302   1.395   0.151   5.043  0.5171 -0.9607 -0.4426
 5280SOL    HW227303   1.376   0.180   4.894  3.0608  0.7165 -1.6117
 5281SOL     OW27304   3.568   0.065   6.458  0.1182 -0.0269  0.1506
 5281SOL    HW127305   3.599   4.703   6.489  0.0466 -0.1169 -0.0253
 5281SOL    HW227306   3.549   0.055   6.365 -2.2090 -0.8225  0.7037
 5282SOL     OW27307   3.238   4.589   3.898  0.6278 -0.2708  0.5906
 5282SOL    HW127308   3.312   4.579   3.959  0.6199 -0.5875  0.5523
 5282SOL    HW227309   3.267   4.532   3.826 -0.4787 -0.2917  0.1674
 5283SOL     OW27310   1.717   3.574   1.780  0.2523 -0.0707  0.2654
 5283SOL    HW127311   1.657   3.550   1.710 -1.8536 -1.9380  2.7137
 5283SOL    HW227312   1.796   3.527   1.754  0.4758 -0.1294  1.0503
 5284SOL     OW27313   1.143   1.075   2.747  0.0919  0.1383  0.2867
 5284SOL    HW127314   1.068   1.022   2.772 -0.4078  0.5276 -0.3874
 5284SOL    HW227315   1.147   1.129   2.826  0.9221  0.7129 -0.1378
 5285SOL     OW27316   2.245   0.096   2.987  0.1061 -0.4087  0.6687
 5285SOL    HW127317   2.215   0.006   2.979  0.5060 -0.5941  1.2646
 5285SOL    HW227318   2.333   0.094   2.949 -0.9252 -2.7467 -1.5762
 5286SOL     OW27319   2.143   0.362   5.901 -0.2434 -0.2901 -0.5136
 5286SOL    HW127320   2.236   0.346   5.914 -0.1690  1.2985  0.8626
 5286SOL    HW227321   2.133   0.435   5.962 -1.4957 -2.1201  1.4904
 5287SOL     OW27322   2.043   0.756   5.527 -0.0063  0.0196  0.0227
 5287SOL    HW127323   1.947   0.748   5.524 -0.0420  0.0742  0.9701
 5287SOL    HW227324   2.057   0.696   5.600  1.7270  0.9247  0.4404
 5288SOL     OW27325   0.209   0.088  17.449  0.1965 -0.0840 -0.2598
 5288SOL    HW127326   0.295   0.083  17.407  0.5193 -2.0758  0.6311
 5288SOL    HW227327   0.150   0.049  17.385  1.6060 -1.1973 -0.8717
 5289SOL     OW27328   0.289   4.533   1.379 -0.4937  0.3331 -0.2477
 5289SOL    HW127329   0.242   4.579   1.449 -1.3143  1.9617 -1.8683
 5289SOL    HW227330   0.330   4.458   1.421 -1.1260 -0.6768 -1.4179
 5290SOL     OW27331   4.000   3.518   7.332  0.1995  0.3003  0.2127
 5290SOL    HW127332   4.062   3.448   7.310 -1.1029 -0.8103  0.0999
 5290SOL    HW227333   3.944   3.507   7.255  0.7976 -3.1423  0.2482
 5291SOL     OW27334   1.027   4.688   4.193  0.2096  0.2346  0.4443
 5291SOL    HW127335   1.099   4.684   4.257 -0.4876  0.3541  1.2252
 5291SOL    HW227336   1.042   0.050   4.152 -1.7014  0.9711  1.3047
 5292SOL     OW27337   4.165   3.712   7.061 -0.1218 -0.2639 -0.2727
 5292SOL    HW127338   4.113   3.643   7.019  1.2276 -1.2199 -0.3781
 5292SOL    HW227339   4.225   3.657   7.112  1.2024  0.2932 -1.2372
 5293SOL     OW27340   4.006   2.587  11.596 -0.2175 -0.0084 -0.0798
 5293SOL    HW127341   4.063   2.571  11.671  1.3028  1.3425 -0.9263
 5293SOL    HW227342   4.006   2.503  11.551 -0.7959  0.4845 -1.0130
 5294SOL     OW27343   4.274   0.570  14.134 -0.6632  0.0518  0.4244
 5294SOL    HW127344   4.185   0.561  14.167 -0.2348 -0.7053  1.3617
 5294SOL    HW227345   4.279   0.663  14.111  0.6234 -0.2889 -0.6675
 5295SOL     OW27346   3.296   4.207   7.210 -0.3702  0.1787  0.4918
 5295SOL    HW127347   3.219   4.217   7.154 -0.0169 -0.9071 -0.1739
 5295SOL    HW227348   3.321   4.119   7.183 -0.8164 -0.0603  0.8555
 5296SOL     OW27349   2.579   1.744   9.284 -0.5024  0.1249  0.0692
 5296SOL    HW127350   2.673   1.727   9.274 -0.5087  0.7059 -0.9728
 5296SOL    HW227351   2.539   1.722   9.200  0.9539 -0.5615 -0.4440
 5297SOL     OW27352   3.252   1.142   5.367  0.5567 -0.4763  0.2825
 5297SOL    HW127353   3.339   1.109   5.388  0.0812 -1.9026 -0.0062
 5297SOL    HW227354   3.211   1.061   5.338  0.6873 -0.3676 -0.1979
 5298SOL     OW27355   3.348   3.291   4.334  0.1275  0.0656 -0.3925
 5298SOL    HW127356   3.337   3.310   4.241 -0.1874 -0.2100 -0.4123
 5298SOL    HW227357   3.270   3.238   4.351  0.0264  0.4018  0.1925
 5299SOL     OW27358   1.748   0.683  17.385  0.7245 -0.0517  0.0395
 5299SOL    HW127359   1.670   0.639  17.353 -0.3240  0.9233  1.2629
 5299SOL    HW227360   1.709   0.755  17.434 -0.2779 -1.3081  1.0641
 5300SOL     OW27361   2.391   3.262   4.889 -0.2248 -0.1354 -0.4239
 5300SOL    HW127362   2.484   3.275   4.904  0.0175  0.0246 -2.0104
 5300SOL    HW227363   2.354   3.336   4.936  1.5680  2.0749 -2.4965
 5301SOL     OW27364   4.646   2.007   2.083  0.7662  0.3847  0.2433
 5301SOL    HW127365   4.552   2.007   2.063  0.6597  0.1243  0.7316
 5301SOL    HW227366   4.684   1.941   2.025  2.5428  3.3212 -1.9033
 5302SOL     OW27367   2.069   0.721   7.336  0.3956 -0.6803 -0.0259
 5302SOL    HW127368   2.064   0.807   7.296  1.2731 -0.2275  0.8391
 5302SOL    HW227369   1.992   0.684   7.293  0.4080 -1.5574  0.6998
 5303SOL     OW27370   0.197   4.546   4.393 -0.3884 -0.1835 -0.2069
 5303SOL    HW127371   0.205   4.470   4.450  1.0027  0.7198  0.7994
 5303SOL    HW227372   0.146   4.602   4.450 -1.4026 -0.6778 -0.6229
 5304SOL     OW27373   2.298   3.658   8.477  0.4881  0.9070  0.8189
 5304SOL    HW127374   2.387   3.643   8.511  1.1893 -1.2853 -1.9591
 5304SOL    HW227375   2.311   3.614   8.392 -0.6916  1.0606  0.5640
 5305SOL     OW27376   2.896   0.183   6.870 -0.2206 -0.1161  0.5956
 5305SOL    HW127377   2.940   0.150   6.792 -1.8323 -0.5793 -0.1192
 5305SOL    HW227378   2.883   0.275   6.845 -1.1610  0.5841  3.6508
 5306SOL     OW27379   1.748   2.307   3.100  0.3060 -0.3025 -0.7408
 5306SOL    HW127380   1.705   2.346   3.024 -2.5921 -2.3940 -0.1697
 5306SOL    HW227381   1.676   2.257   3.138  0.9433 -0.0399  0.7902
 5307SOL     OW27382   1.047   3.000   4.251 -0.1558  0.4112  0.1790
 5307SOL    HW127383   1.058   2.911   4.284 -0.1433 -0.2539 -1.5773
 5307SOL    HW227384   1.075   2.990   4.160  0.0134  0.4061  0.2312
 5308SOL     OW27385   4.064   2.296   3.592  0.3149 -0.0347  0.2249
 5308SOL    HW127386   3.994   2.348   3.552  1.1517  0.7245 -0.2551
 5308SOL    HW227387   4.026   2.243   3.662  2.7106 -1.0204  0.7893
 5309SOL     OW27388   1.127   2.220   8.249  0.2214  0.0474  0.3909
 5309SOL    HW127389   1.203   2.162   8.251  1.0442  1.0887 -0.8169
 5309SOL    HW227390   1.173   2.302   8.265 -0.8148  0.7116  0.0026
 5310SOL     OW27391   0.645   2.838   7.920 -0.1409  0.1991  0.5021
 5310SOL    HW127392   0.621   2.767   7.860  1.1009  1.1196 -1.0614
 5310SOL    HW227393   0.686   2.902   7.862  0.0161  1.8809  2.4572
 5311SOL     OW27394   2.137   1.968   1.165 -0.3149  0.0516 -0.3519
 5311SOL    HW127395   2.089   1.895   1.126  0.5799  0.5631 -2.4237
 5311SOL    HW227396   2.152   1.933   1.252  0.9624  2.3607  0.3660
 5312SOL     OW27397   0.757   0.307  17.609  0.0457 -0.3380 -0.1942
 5312SOL    HW127398   0.687   0.372  17.609 -0.9839 -1.4449 -1.1538
 5312SOL    HW227399   0.712   0.223  17.606 -1.2298  0.2333  2.6027
 5313SOL     OW27400   2.693   1.501  10.396 -0.2625  0.0867 -0.1792
 5313SOL    HW127401   2.693   1.522  10.489 -2.9468 -2.0143  0.2801
 5313SOL    HW227402   2.660   1.585  10.362 -0.6898  1.2771  3.2393
 5314SOL     OW27403   3.289   1.188   8.596 -0.0028 -0.3337 -0.5224
 5314SOL    HW127404   3.207   1.235   8.583  0.4477  0.1538 -1.5681
 5314SOL    HW227405   3.345   1.254   8.555  0.7918 -1.4921 -1.3215
 5315SOL     OW27406   0.922   4.620   1.959 -0.2846 -0.3279 -0.3924
 5315SOL    HW127407   1.005   4.643   1.918 -1.1439  0.7365 -1.5427
 5315SOL    HW227408   0.905   4.527   1.946 -0.8780 -0.5749  2.0816
 5316SOL     OW27409   4.410   0.467   6.303  0.2432 -0.1739  0.3510
 5316SOL    HW127410   4.381   0.382   6.272  0.3968 -0.4098  0.8528
 5316SOL    HW227411   4.503   0.467   6.280  0.1174  0.2005 -0.1640
 5317SOL     OW27412   1.849   2.836   9.201 -0.1895  0.7617 -1.0050
 5317SOL    HW127413   1.768   2.810   9.158 -0.8492  1.4354 -0.1643
 5317SOL    HW227414   1.895   2.896   9.142  1.3202  0.3692 -0.2319
 5318SOL     OW27415   3.011   4.511   4.097 -0.6305  0.1924  0.3148
 5318SOL    HW127416   2.975   4.540   4.013 -1.1798  0.4806  0.6464
 5318SOL    HW227417   2.973   4.423   4.092 -1.0135  0.3643  0.1813
 5319SOL     OW27418   4.712   3.707   8.711 -0.1038  0.0509 -0.1035
 5319SOL    HW127419   4.655   3.724   8.786 -0.4042 -1.0758 -0.0708
 5319SOL    HW227420   4.653   3.727   8.639  0.1821  1.0818 -0.0443
 5320SOL     OW27421   4.258   4.557   5.851  0.0401  0.4785 -0.1877
 5320SOL    HW127422   4.317   4.485   5.874  1.9828  2.5097  1.1982
 5320SOL    HW227423   4.321   4.611   5.803 -0.7718 -1.1371 -3.0602
 5321SOL     OW27424   0.690   3.772   9.167 -0.0856 -0.4732 -0.2165
 5321SOL    HW127425   0.642   3.695   9.196 -0.1936 -1.3195 -2.7018
 5321SOL    HW227426   0.671   3.836   9.236 -0.5666 -0.8233 -0.0272
 5322SOL     OW27427   2.768   2.769   4.138  0.4203 -0.3985  0.2678
 5322SOL    HW127428   2.840   2.727   4.187  1.0974 -1.4838 -1.6801
 5322SOL    HW227429   2.810   2.817   4.067 -0.0553  0.8984  0.8536
 5323SOL     OW27430   1.075   1.146   7.911  0.3050  0.2414 -0.8611
 5323SOL    HW127431   1.129   1.131   7.833  1.6462  0.2004  0.0586
 5323SOL    HW227432   1.121   1.086   7.970 -1.2984  1.4189  1.6049
 5324SOL     OW27433   3.358   4.322  13.376 -0.2941 -0.5420  0.1127
 5324SOL    HW127434   3.447   4.286  13.373  0.4942  1.4474 -0.7276
 5324SOL    HW227435   3.310   4.249  13.337  0.2753 -1.0246  0.3156
 5325SOL     OW27436   1.234   2.420  14.550 -0.3091 -0.2519 -0.7456
 5325SOL    HW127437   1.268   2.473  14.477  0.5039 -0.2184 -0.3382
 5325SOL    HW227438   1.304   2.357  14.564 -0.1174  0.5819  1.9227
 5326SOL     OW27439   3.027   0.695  10.401 -0.5853  0.7014 -0.1719
 5326SOL    HW127440   3.068   0.608  10.410 -1.0781  0.4997  0.1400
 5326SOL    HW227441   2.999   0.712  10.491 -0.8676 -1.7244  0.2107
 5327SOL     OW27442   0.459   1.284   8.635  0.8827 -0.0600  0.2982
 5327SOL    HW127443   0.542   1.253   8.672  0.1890 -2.0015  0.1957
 5327SOL    HW227444   0.493   1.348   8.572 -1.3395  2.7434  1.9456
 5328SOL     OW27445   1.179   2.448  16.480  0.5252  0.5502 -0.0881
 5328SOL    HW127446   1.119   2.389  16.527  1.5466 -1.1973 -0.9990
 5328SOL    HW227447   1.203   2.499  16.557 -0.7549 -2.3803  2.2955
 5329SOL     OW27448   4.015   1.458   5.745  0.7893  0.4139 -0.8547
 5329SOL    HW127449   4.036   1.531   5.687  0.4880  1.8405  0.8027
 5329SOL    HW227450   3.989   1.515   5.818  1.8447 -1.5385  1.0678
 5330SOL     OW27451   0.950   3.143   0.091  0.0989  0.3519  0.1179
 5330SOL    HW127452   0.897   3.177   0.020  1.4179  2.7147  0.2508
 5330SOL    HW227453   0.947   3.205   0.164  0.8156  0.6273 -0.0782
 5331SOL     OW27454   0.535   3.307   5.440  0.3085  0.7895  1.0278
 5331SOL    HW127455   0.556   3.216   5.462  1.4059  1.3095  2.1496
 5331SOL    HW227456   0.619   3.351   5.451 -0.0811  2.3847 -2.4952
 5332SOL     OW27457   4.194   4.249   6.450 -0.8466 -0.1935 -0.0857
 5332SOL    HW127458   4.178   4.344   6.454 -2.7165 -0.4880 -0.3993
 5332SOL    HW227459   4.282   4.246   6.487 -0.2029  0.2345 -1.5961
 5333SOL     OW27460   1.580   3.025   1.462 -0.4068  0.4799  0.1122
 5333SOL    HW127461   1.519   2.983   1.523 -0.9424  0.4473 -0.4527
 5333SOL    HW227462   1.608   3.107   1.503  0.0104  0.0080  0.7840
 5334SOL     OW27463   3.059   0.248   6.632  0.2847 -0.7053 -0.4787
 5334SOL    HW127464   3.115   0.274   6.705 -1.9136 -0.2725  1.0281
 5334SOL    HW227465   3.112   0.186   6.581  2.9797  1.8332 -0.7885
 5335SOL     OW27466   3.080   3.911   6.243  0.1349  0.1371  0.0827
 5335SOL    HW127467   3.107   3.892   6.153 -0.8628 -0.6411 -0.0557
 5335SOL    HW227468   3.000   3.963   6.229  1.0938  1.9103  1.1432
 5336SOL     OW27469   1.236   2.147   7.659 -0.4156  0.5506  0.1060
 5336SOL    HW127470   1.183   2.224   7.637 -3.4376 -1.6635 -0.4241
 5336SOL    HW227471   1.292   2.134   7.582  0.9446 -2.7624  1.6338
 5337SOL     OW27472   4.698   2.456   6.851 -0.5385 -0.0058  0.1360
 5337SOL    HW127473   0.020   2.400   6.787 -0.0446 -0.9921  1.3598
 5337SOL    HW227474   4.614   2.474   6.808 -0.6850 -1.4248 -0.1736
 5338SOL     OW27475   0.601   0.872   5.864  0.5732 -0.1665 -0.0153
 5338SOL    HW127476   0.535   0.933   5.897 -0.4477 -0.2129 -1.9682
 5338SOL    HW227477   0.542   0.799   5.852  0.4918 -0.0750 -0.1723
 5339SOL     OW27478   0.153   1.713   6.222 -0.4165  0.5777  0.5619
 5339SOL    HW127479   0.200   1.750   6.147  1.2084 -0.6539  0.9800
 5339SOL    HW227480   0.066   1.741   6.192 -0.8838 -0.4053  1.0148
 5340SOL     OW27481   3.340   0.506   8.902  0.2282 -0.0465  0.8469
 5340SOL    HW127482   3.396   0.515   8.979  1.3109  0.1841  0.0303
 5340SOL    HW227483   3.393   0.443   8.853 -0.4653  0.7883 -0.9800
 5341SOL     OW27484   0.599   1.370   8.146  0.2261 -0.4786  0.1836
 5341SOL    HW127485   0.571   1.292   8.100  2.4724 -0.5640 -1.0646
 5341SOL    HW227486   0.589   1.444   8.086 -0.1628 -0.1731  0.6222
 5342SOL     OW27487   3.203   3.547   1.742 -0.1921  0.4093  0.3623
 5342SOL    HW127488   3.202   3.610   1.670 -0.0469  1.0476  0.9091
 5342SOL    HW227489   3.205   3.598   1.823  1.0193 -0.5186  0.9140
 5343SOL     OW27490   3.096   1.351   5.816 -0.3260  0.4389  0.3173
 5343SOL    HW127491   3.053   1.266   5.809  0.3960 -0.1152  2.5157
 5343SOL    HW227492   3.124   1.360   5.725  0.3783  1.8544  0.6713
 5344SOL     OW27493   3.684   4.683  12.011  0.5961 -0.4250 -0.2456
 5344SOL    HW127494   3.676   4.598  12.054 -1.2934 -0.7569 -1.2416
 5344SOL    HW227495   3.596   4.700  11.977  0.2303  1.7941  1.7731
 5345SOL     OW27496   2.175   4.324   9.449  0.4056  0.3250  0.0293
 5345SOL    HW127497   2.187   4.258   9.381  1.8913 -0.1204  0.7114
 5345SOL    HW227498   2.260   4.367   9.440  0.6194 -0.4387 -1.6156
 5346SOL     OW27499   2.478   1.526   4.144  0.1542  0.2367  0.6800
 5346SOL    HW127500   2.394   1.482   4.157  0.0712  0.0751 -0.4338
 5346SOL    HW227501   2.453   1.596   4.205  2.2616  0.6507  1.0737
 5347SOL     OW27502   4.222   3.439   4.904 -0.2837  0.2218 -0.4425
 5347SOL    HW127503   4.224   3.358   4.954  0.6524 -1.2057 -2.7864
 5347SOL    HW227504   4.130   3.461   4.917 -0.2386 -0.4409  0.9760
 5348SOL     OW27505   0.944   3.540   5.913 -0.6215 -0.0694  0.0769
 5348SOL    HW127506   1.004   3.609   5.940 -2.6909  0.8589  2.3351
 5348SOL    HW227507   1.004   3.493   5.856 -2.2423 -2.5267  0.3655
 5349SOL     OW27508   1.585   0.210   3.775 -0.0020 -1.0082  0.5930
 5349SOL    HW127509   1.650   0.195   3.707 -0.6030 -0.3901 -0.1149
 5349SOL    HW227510   1.638   0.236   3.850 -1.0413  0.7968  0.6936
 5350SOL     OW27511   1.359   1.275   5.829 -0.0857  0.3759  0.0287
 5350SOL    HW127512   1.359   1.277   5.733  2.8020  2.7745  0.0876
 5350SOL    HW227513   1.289   1.334   5.856  0.5681 -0.2200  2.9424
 5351SOL     OW27514   0.031   0.014   0.804  0.2629 -0.1106  0.1099
 5351SOL    HW127515   4.720   4.664   0.854  0.9058  1.5118  2.9481
 5351SOL    HW227516   0.126   0.004   0.816  0.3311  0.3892  0.0064
 5352SOL     OW27517   1.751   4.551   9.635  0.0825  0.1152  0.2642
 5352SOL    HW127518   1.724   4.629   9.586  0.3648  0.2145  0.2703
 5352SOL    HW227519   1.680   4.546   9.699  0.4931 -0.4326  0.6804
 5353SOL     OW27520   2.512   2.933   6.089  0.4428  0.3149  0.0312
 5353SOL    HW127521   2.504   2.987   6.010  4.1786  0.4849 -0.2412
 5353SOL    HW227522   2.556   2.988   6.154  0.1633  2.2996 -1.4396
 5354SOL     OW27523   3.351   1.470   5.875  0.4630 -0.8333 -0.3309
 5354SOL    HW127524   3.295   1.400   5.841  0.8119 -0.5159 -1.5707
 5354SOL    HW227525   3.425   1.477   5.814  0.1120 -0.4040 -0.7065
 5355SOL     OW27526   3.921   1.570  17.133  0.2238  0.4505 -0.0392
 5355SOL    HW127527   3.959   1.486  17.162  1.6414  0.2003 -2.6117
 5355SOL    HW227528   3.851   1.580  17.198 -1.6201 -1.0279 -1.7721
 5356SOL     OW27529   3.528   2.600  16.577  0.2355 -0.2984 -0.2141
 5356SOL    HW127530   3.489   2.581  16.663 -0.3497  0.2452 -0.3567
 5356SOL    HW227531   3.492   2.521  16.536  0.3840 -1.0827  1.1423
 5357SOL     OW27532   1.951   0.711   7.036 -0.3128 -0.2109  0.1602
 5357SOL    HW127533   1.939   0.620   7.010 -2.5046  0.1204  0.0486
 5357SOL    HW227534   2.046   0.719   7.040 -0.2169 -0.5470 -1.7982
 5358SOL     OW27535   2.694   3.282   8.841  0.0653 -0.0191  0.4193
 5358SOL    HW127536   2.715   3.191   8.817  1.3639  0.5086 -0.4318
 5358SOL    HW227537   2.606   3.269   8.876  1.3266 -3.5925  2.3027
 5359SOL     OW27538   0.166   0.202   2.337  0.0394 -0.0316  0.0549
 5359SOL    HW127539   0.103   0.145   2.380  0.1538  0.3925  0.7765
 5359SOL    HW227540   0.176   0.260   2.412 -0.8273  0.8453 -0.5206
 5360SOL     OW27541   3.150   3.998  17.356  0.0092 -0.0947 -0.0816
 5360SOL    HW127542   3.089   3.966  17.423 -1.7965  1.2346 -1.0638
 5360SOL    HW227543   3.231   3.976  17.401  0.5644 -0.6029 -1.3353
 5361SOL     OW27544   0.348   1.999   2.716  0.4115 -0.1816  0.7974
 5361SOL    HW127545   0.443   2.004   2.706  0.4394 -0.8998  0.7305
 5361SOL    HW227546   0.328   2.091   2.730  0.9333  0.2787 -1.4046
 5362SOL     OW27547   1.624   0.310  17.568  0.1317 -0.3670 -0.3130
 5362SOL    HW127548   1.535   0.343  17.571  1.4355  2.9164  2.3398
 5362SOL    HW227549   1.610   0.225  17.611  1.1387 -0.1401  0.4689
 5363SOL     OW27550   4.102   2.157   7.890  0.7302 -0.2067  0.4137
 5363SOL    HW127551   4.174   2.094   7.896  0.3346 -0.4686  2.2908
 5363SOL    HW227552   4.114   2.233   7.947 -0.5119 -0.8951  1.6110
 5364SOL     OW27553   4.200   2.014   3.744 -0.3684  0.0467  0.5254
 5364SOL    HW127554   4.209   1.981   3.655 -1.1560  0.6298  0.2316
 5364SOL    HW227555   4.150   1.945   3.787  0.5694 -0.9852 -0.0316
 5365SOL     OW27556   3.469   2.226   4.276  0.7294 -0.1593  0.2813
 5365SOL    HW127557   3.378   2.206   4.299  0.7654 -0.8418 -0.1475
 5365SOL    HW227558   3.475   2.321   4.266  1.4250 -0.0949  1.3463
 5366SOL     OW27559   3.040   4.533   2.103 -0.2652  0.2492  0.2554
 5366SOL    HW127560   3.079   4.588   2.170  1.1356 -0.5266  0.0881
 5366SOL    HW227561   2.950   4.561   2.086 -0.1358  0.5501  0.0674
 5367SOL     OW27562   2.951   0.741  16.473  0.0385  0.1841 -0.0025
 5367SOL    HW127563   3.033   0.693  16.484  0.5580  1.2115  0.6076
 5367SOL    HW227564   2.975   0.832  16.490 -0.7082  0.9524 -2.9807
 5368SOL     OW27565   3.320   0.753   6.803  0.6836  0.0890  0.1269
 5368SOL    HW127566   3.244   0.698   6.787  1.5872 -0.6138 -1.7730
 5368SOL    HW227567   3.328   0.809   6.725 -0.7113  1.5508  1.0324
 5369SOL     OW27568   4.008   1.791  10.409 -0.6019  0.4556 -0.4136
 5369SOL    HW127569   4.052   1.721  10.456  0.3834  0.9820 -0.5460
 5369SOL    HW227570   4.038   1.777  10.319  0.4945  2.6454 -0.3983
 5370SOL     OW27571   2.386   1.924   3.135  0.1894 -0.2629 -0.2261
 5370SOL    HW127572   2.359   1.851   3.079  1.2836 -1.8590  1.3368
 5370SOL    HW227573   2.313   1.978   3.166 -1.2041 -1.9916 -0.5425
 5371SOL     OW27574   4.214   2.319   5.565  0.6437  0.0506  0.1778
 5371SOL    HW127575   4.184   2.327   5.475 -1.2526  2.5048  1.0146
 5371SOL    HW227576   4.253   2.232   5.568 -0.9688 -0.6923 -0.3470
 5372SOL     OW27577   4.540   1.011   1.936  0.1484 -0.0059  0.5785
 5372SOL    HW127578   4.456   1.013   1.889 -0.2259  1.6295  1.3098
 5372SOL    HW227579   4.604   1.047   1.875 -2.2526 -0.1893 -2.0460
 5373SOL     OW27580   0.760   3.189   8.629 -0.0359 -0.0636  0.1278
 5373SOL    HW127581   0.714   3.130   8.688 -1.2413  0.4775 -0.2671
 5373SOL    HW227582   0.814   3.238   8.691  0.3368 -1.2864  0.7491
 5374SOL     OW27583   2.014   4.606  14.409  0.1003 -0.5459 -0.7291
 5374SOL    HW127584   2.079   4.597  14.339  0.0462  2.0710 -1.1397
 5374SOL    HW227585   2.007   4.515  14.437  3.0893  0.3080  2.7981
 5375SOL     OW27586   1.916   3.667  13.175 -0.3391  0.3744 -0.1248
 5375SOL    HW127587   1.896   3.757  13.202 -1.1519  0.8136 -2.1939
 5375SOL    HW227588   2.007   3.692  13.161  1.0723 -3.1909  2.8115
 5376SOL     OW27589   2.456   2.462   5.418  0.2866 -0.5288 -0.4079
 5376SOL    HW127590   2.416   2.492   5.500  2.4609  1.3567 -0.0185
 5376SOL    HW227591   2.544   2.468   5.455  0.5873 -1.6637 -0.9256
 5377SOL     OW27592   0.912   0.755   1.393 -0.3314  0.6414  0.0447
 5377SOL    HW127593   0.914   0.838   1.346  3.7589  0.5059 -0.0310
 5377SOL    HW227594   1.000   0.738   1.427 -0.6644 -0.3554  0.4065
 5378SOL     OW27595   2.629   2.044   9.707  0.4656  0.5898  0.3777
 5378SOL    HW127596   2.722   2.039   9.728  0.7391  0.9229 -0.7363
 5378SOL    HW227597   2.587   2.047   9.793  0.8628  0.4257  0.5746
 5379SOL     OW27598   0.279   2.977   4.975  0.3249 -0.3454  0.2147
 5379SOL    HW127599   0.188   2.953   4.958  0.4248 -0.0301 -0.7956
 5379SOL    HW227600   0.273   3.068   4.944 -1.6203 -0.3352  0.6772
 5380SOL     OW27601   1.384   1.603   3.821 -0.2500 -0.4042 -0.0362
 5380SOL    HW127602   1.428   1.650   3.750 -1.8688 -1.1427 -1.5218
 5380SOL    HW227603   1.451   1.537   3.837  1.5250  1.1421 -1.0661
 5381SOL     OW27604   1.865   1.689   5.264 -0.1416 -0.4498  0.0768
 5381SOL    HW127605   1.910   1.718   5.344 -3.3876 -1.0377  2.0899
 5381SOL    HW227606   1.892   1.598   5.275 -1.0388 -0.7069  0.1415
 5382SOL     OW27607   0.487   3.827  11.001 -0.0459  0.0401  0.6947
 5382SOL    HW127608   0.508   3.736  11.020 -0.3051 -0.1304  0.1687
 5382SOL    HW227609   0.535   3.864  11.075  2.1132 -0.6641 -0.3491
 5383SOL     OW27610   1.723   4.456   8.936  0.7799  0.4215  0.2827
 5383SOL    HW127611   1.638   4.492   8.963  0.0790 -0.6453 -0.4770
 5383SOL    HW227612   1.778   4.470   9.013  0.7948  1.0682  0.1508
 5384SOL     OW27613   0.994   0.029   6.983 -0.2315  0.2378  1.0627
 5384SOL    HW127614   1.005   4.708   7.067 -1.0305  0.0170  1.0530
 5384SOL    HW227615   1.075   0.079   6.978  1.0318 -2.0997 -1.5690
 5385SOL     OW27616   0.108   4.297  13.385  0.6820  0.1878  0.6084
 5385SOL    HW127617   0.166   4.227  13.414 -0.9585 -1.2830  0.3426
 5385SOL    HW227618   0.048   4.251  13.326 -0.6829  1.9962  0.5654
 5386SOL     OW27619   3.822   3.375   1.367  0.0320  0.0364 -0.1280
 5386SOL    HW127620   3.797   3.466   1.380  1.9241  0.5306  0.0982
 5386SOL    HW227621   3.814   3.342   1.457  0.3798 -0.3947 -0.2542
 5387SOL     OW27622   2.807   3.575   6.409 -0.1631 -0.9920  0.5762
 5387SOL    HW127623   2.837   3.626   6.334 -0.8792 -0.6644  0.5068
 5387SOL    HW227624   2.884   3.540   6.452 -0.4355 -1.3623  0.7591
 5388SOL     OW27625   4.194   1.447   8.768  0.4772  0.2999 -0.2378
 5388SOL    HW127626   4.182   1.368   8.821 -0.2228  1.8168  1.8609
 5388SOL    HW227627   4.287   1.465   8.755  0.2076  0.3962 -1.9853
 5389SOL     OW27628   0.880   4.701   3.626 -0.8150 -0.6059 -0.0644
 5389SOL    HW127629   0.901   0.042   3.694  1.2639 -0.6838 -0.6132
 5389SOL    HW227630   0.876   4.623   3.681  0.9493 -0.4317  0.3377
 5390SOL     OW27631   1.347   1.507   3.241  0.3002 -0.3572 -0.1318
 5390SOL    HW127632   1.361   1.519   3.335 -1.3561  2.1813 -0.2106
 5390SOL    HW227633   1.416   1.564   3.209  1.5745  0.2642  3.6920
 5391SOL     OW27634   0.103   3.327  17.661 -0.0317 -0.7934  0.0838
 5391SOL    HW127635   0.022   3.341   0.015  1.3077  1.5990  1.6241
 5391SOL    HW227636   0.072   3.265  17.594  1.3228 -1.3892 -0.0143
 5392SOL     OW27637   3.941   2.921  11.278 -0.1354  0.4248 -0.0360
 5392SOL    HW127638   3.992   2.942  11.200  0.2227 -2.9381 -0.7057
 5392SOL    HW227639   3.904   3.005  11.303  0.0720  0.9960 -1.6983
 5393SOL     OW27640   1.163   0.069   5.913 -0.7229 -0.3027 -0.3493
 5393SOL    HW127641   1.240   0.013   5.912 -0.3740  0.2500 -3.7319
 5393SOL    HW227642   1.171   0.103   5.824  0.5912 -1.1316 -0.5417
 5394SOL     OW27643   1.827   2.221   4.979 -0.5948 -0.0761  0.2290
 5394SOL    HW127644   1.773   2.154   5.019 -0.8500 -0.1551 -0.2392
 5394SOL    HW227645   1.787   2.297   5.022  3.7267  1.8581  0.8130
 5395SOL     OW27646   3.180   2.483  13.556 -0.5303 -0.0383 -0.2916
 5395SOL    HW127647   3.221   2.458  13.639  1.3520 -0.5502 -1.3576
 5395SOL    HW227648   3.117   2.411  13.550 -0.7460  0.0019  1.6522
 5396SOL     OW27649   2.422   4.126   1.486 -0.4712 -0.0084  0.1789
 5396SOL    HW127650   2.468   4.178   1.552  0.5170 -0.8354  0.1325
 5396SOL    HW227651   2.388   4.050   1.532  0.4323  0.7742  2.1327
 5397SOL     OW27652   1.190   0.894   8.923 -0.0003 -0.3008  0.3801
 5397SOL    HW127653   1.179   0.806   8.887 -0.9794  0.4478 -1.1325
 5397SOL    HW227654   1.279   0.915   8.893 -0.2727  1.2766  0.6611
 5398SOL     OW27655   1.072   1.919   9.065 -0.6327 -0.5557  0.2823
 5398SOL    HW127656   1.109   1.937   9.152  0.1413 -0.1439 -0.1345
 5398SOL    HW227657   1.007   1.854   9.092 -2.1442  1.4656  1.5786
 5399SOL     OW27658   3.582   3.809   8.637  0.0113  0.4730  0.3756
 5399SOL    HW127659   3.618   3.769   8.716 -1.9038 -0.5033  0.7513
 5399SOL    HW227660   3.624   3.749   8.575 -2.6131 -2.6853  1.6107
 5400SOL     OW27661   4.039   2.221  11.884 -0.6793  0.6813  0.3135
 5400SOL    HW127662   4.008   2.290  11.943 -3.3471 -1.0025  0.8847
 5400SOL    HW227663   4.131   2.230  11.910 -1.3280  3.9371  1.4929
 5401SOL     OW27664   1.196   2.600   8.872 -0.3197 -0.1742  0.2898
 5401SOL    HW127665   1.160   2.579   8.785 -2.1542  2.5015  0.3918
 5401SOL    HW227666   1.287   2.615   8.846 -0.1532 -0.1787  0.8767
 5402SOL     OW27667   4.398   2.010   7.324 -0.1214  0.3870 -0.2327
 5402SOL    HW127668   4.407   1.918   7.297 -2.7308 -0.0005  0.2101
 5402SOL    HW227669   4.450   2.043   7.251  2.7923 -0.7270  1.3791
 5403SOL     OW27670   4.080   0.470   7.983 -0.6283 -0.1073  0.1347
 5403SOL    HW127671   4.075   0.516   8.067 -1.0981  1.0215 -0.5066
 5403SOL    HW227672   4.103   0.380   8.007 -0.3048  0.1001  0.5998
 5404SOL     OW27673   2.177   1.410   7.097  0.0309  0.5655 -0.2382
 5404SOL    HW127674   2.164   1.397   7.191  0.9312  2.5219  0.1751
 5404SOL    HW227675   2.109   1.476   7.081 -1.4415 -0.8480  0.2884
 5405SOL     OW27676   1.578   1.119   8.475 -0.0335  0.4595 -0.4730
 5405SOL    HW127677   1.486   1.127   8.502 -0.4657 -1.4646 -1.3039
 5405SOL    HW227678   1.576   1.053   8.405 -1.3128 -3.2630  3.0079
 5406SOL     OW27679   2.902   2.383   0.714 -0.4944  0.1314 -0.5247
 5406SOL    HW127680   2.920   2.476   0.701 -3.3984  0.9885  1.5970
 5406SOL    HW227681   2.831   2.381   0.779  1.4502 -1.5862  1.5042
 5407SOL     OW27682   0.590   0.905   3.165  0.1092 -0.3382 -0.0010
 5407SOL    HW127683   0.522   0.972   3.154  1.0559  1.0499  2.3634
 5407SOL    HW227684   0.620   0.918   3.255 -0.1174 -1.9836  0.3053
 5408SOL     OW27685   0.986   2.568  17.068  0.5863  0.0079  0.4222
 5408SOL    HW127686   0.987   2.542  17.160 -2.3085 -0.0191  0.4651
 5408SOL    HW227687   1.079   2.586  17.057  0.6481 -1.3682 -1.3702
 5409SOL     OW27688   4.611   2.812  15.720  0.0325  0.1769  0.0323
 5409SOL    HW127689   4.696   2.848  15.697  0.7735 -1.7563 -0.2409
 5409SOL    HW227690   4.611   2.843  15.811  1.7720 -0.4654  0.2450
 5410SOL     OW27691   3.425   1.703   8.242  0.3226 -0.3909  0.2249
 5410SOL    HW127692   3.475   1.758   8.301 -0.7134  0.2848  0.4859
 5410SOL    HW227693   3.421   1.622   8.293 -2.5764 -1.9305 -2.4299
 5411SOL     OW27694   3.342   1.676  12.005 -0.1463  0.1118  0.5910
 5411SOL    HW127695   3.406   1.742  12.031 -0.4771  0.2567  1.0355
 5411SOL    HW227696   3.314   1.722  11.926  1.2615 -2.3651 -1.3597
 5412SOL     OW27697   3.670   0.286  12.069 -0.1579 -0.5524 -0.0835
 5412SOL    HW127698   3.614   0.265  12.143  0.3142  1.3690  0.8040
 5412SOL    HW227699   3.609   0.276  11.996 -1.3802 -0.8174  0.9726
 5413SOL     OW27700   0.864   2.243   8.193  0.0313 -0.0073 -0.9817
 5413SOL    HW127701   0.958   2.228   8.206 -0.0463 -0.2826 -0.7503
 5413SOL    HW227702   0.839   2.291   8.272  0.0818  0.4075 -1.2193
 5414SOL     OW27703   3.205   3.143   1.260 -0.0427 -0.3727 -0.2502
 5414SOL    HW127704   3.297   3.138   1.283  0.1751 -1.8022 -1.3963
 5414SOL    HW227705   3.193   3.074   1.195 -1.1832 -0.6007  0.1985
 5415SOL     OW27706   2.588   1.364  15.957 -0.4681 -0.5025  0.4523
 5415SOL    HW127707   2.586   1.270  15.940 -0.3943 -0.5994  0.9845
 5415SOL    HW227708   2.535   1.402  15.887  1.2653 -1.9062 -1.6461
 5416SOL     OW27709   0.186   1.450  17.527  0.4186  0.0090  0.1333
 5416SOL    HW127710   0.163   1.477  17.616 -2.8355 -0.5753 -0.5042
 5416SOL    HW227711   0.154   1.528  17.482  0.7758  0.3833  0.5402
 5417SOL     OW27712   4.499   2.085   6.683  0.3358 -0.4208 -0.2441
 5417SOL    HW127713   4.551   2.133   6.618 -0.1362  0.0026 -0.3178
 5417SOL    HW227714   4.488   1.996   6.650  0.0203  0.4575 -2.5441
 5418SOL     OW27715   0.051   0.484  12.394  0.1427 -0.3608 -0.0750
 5418SOL    HW127716   4.701   0.501  12.334  0.4889  0.4929 -0.2468
 5418SOL    HW227717   0.081   0.400  12.359  2.5189  0.9556 -1.1360
 5419SOL     OW27718   2.912   1.557  16.294 -0.0174  0.4788  0.1265
 5419SOL    HW127719   3.004   1.537  16.277 -0.4036 -0.8082 -0.4720
 5419SOL    HW227720   2.864   1.515  16.222  1.4495 -4.3245  1.9580
 5420SOL     OW27721   2.593   3.645   2.246  0.2273 -0.2692 -0.4116
 5420SOL    HW127722   2.573   3.711   2.313 -0.2501 -2.6489  1.7776
 5420SOL    HW227723   2.633   3.705   2.183 -2.2358  0.6910 -1.0897
 5421SOL     OW27724   3.665   3.623   7.605  0.3940 -0.4589 -0.0620
 5421SOL    HW127725   3.758   3.638   7.616 -0.0944  2.6493 -0.2284
 5421SOL    HW227726   3.655   3.591   7.694  2.4681 -0.2954  0.2182
 5422SOL     OW27727   0.376   1.949   7.213  0.6141  0.5945  0.2342
 5422SOL    HW127728   0.335   1.901   7.284 -0.3224  0.4105 -0.4344
 5422SOL    HW227729   0.370   1.876   7.152  3.2489  1.1063 -0.6580
 5423SOL     OW27730   0.484   0.759  10.233  0.6836  0.1479 -0.0924
 5423SOL    HW127731   0.504   0.666  10.245 -0.7890 -0.0856  0.4544
 5423SOL    HW227732   0.444   0.792  10.314 -0.9157 -1.2414 -0.3223
 5424SOL     OW27733   3.628   1.181   9.088  0.6391  1.2704 -0.0952
 5424SOL    HW127734   3.613   1.137   9.004  1.7213  0.8572 -0.0750
 5424SOL    HW227735   3.541   1.191   9.125  0.5164 -1.3028  0.3067
 5425SOL     OW27736   2.386   2.069   4.344  0.1681 -0.6029  0.3943
 5425SOL    HW127737   2.322   2.033   4.406  0.1728 -0.4793  0.4710
 5425SOL    HW227738   2.341   2.052   4.261 -0.5469 -0.7318  0.8083
 5426SOL     OW27739   3.857   0.954   2.510  0.2387  0.0760 -0.7735
 5426SOL    HW127740   3.858   0.866   2.472 -1.5693 -0.1400 -0.3090
 5426SOL    HW227741   3.942   0.987   2.481 -0.2270  2.4079  0.5047
 5427SOL     OW27742   4.083   2.454   6.484 -0.0489 -0.0846  0.0799
 5427SOL    HW127743   4.160   2.408   6.517  0.6408  0.1804 -1.1786
 5427SOL    HW227744   4.100   2.544   6.511  2.4260 -0.1718 -1.2584
 5428SOL     OW27745   1.431   0.638   6.744  0.3495 -0.1047 -0.4387
 5428SOL    HW127746   1.519   0.675   6.749 -0.0826  0.6941  1.0023
 5428SOL    HW227747   1.384   0.720   6.759  2.3422  0.9274  0.1473
 5429SOL     OW27748   2.625   1.916  16.329  0.0077 -0.2137 -0.2822
 5429SOL    HW127749   2.716   1.917  16.300  0.0140 -3.3865 -0.3965
 5429SOL    HW227750   2.586   1.949  16.249 -1.7665  0.2888  0.7957
 5430SOL     OW27751   0.195   3.019  17.136 -0.1975  0.5497 -0.2100
 5430SOL    HW127752   0.171   2.944  17.081  0.7360  1.1786 -1.4690
 5430SOL    HW227753   0.116   3.071  17.121  0.7675  1.8282 -0.7940
 5431SOL     OW27754   3.325   0.862   2.264  0.1533 -0.5462 -0.0607
 5431SOL    HW127755   3.402   0.808   2.250 -0.6456 -2.0516  1.2974
 5431SOL    HW227756   3.270   0.830   2.192  0.6379 -0.0662 -0.6490
 5432SOL     OW27757   2.219   1.442   5.228  0.1663  0.1923 -0.2078
 5432SOL    HW127758   2.241   1.475   5.140  2.6059  0.6243  0.5688
 5432SOL    HW227759   2.224   1.347   5.233  0.2726  0.1980 -0.2172
 5433SOL     OW27760   3.694   0.492   4.475  0.2239 -0.4049 -0.3253
 5433SOL    HW127761   3.600   0.489   4.493 -0.5854 -1.5759 -4.7523
 5433SOL    HW227762   3.711   0.416   4.420 -1.7413 -0.9887 -0.1085
 5434SOL     OW27763   1.490   3.542   5.109  0.2297 -0.1557  0.0411
 5434SOL    HW127764   1.567   3.488   5.089  0.1641  0.2548 -1.3612
 5434SOL    HW227765   1.418   3.489   5.074  0.3914  0.1654 -0.7707
 5435SOL     OW27766   1.108   2.808   1.251 -0.4704 -0.0215  0.4213
 5435SOL    HW127767   1.103   2.895   1.212  1.4856 -0.4008 -0.7112
 5435SOL    HW227768   1.019   2.785   1.277 -0.7889  3.5029  2.4844
 5436SOL     OW27769   3.896   0.918  13.452 -0.1080 -0.3418 -0.0073
 5436SOL    HW127770   3.985   0.899  13.423 -0.1543 -0.2200 -0.2325
 5436SOL    HW227771   3.878   0.839  13.502  0.0028  0.7488  1.7709
 5437SOL     OW27772   3.968   0.555   5.747 -0.0878  0.3352  0.7080
 5437SOL    HW127773   4.003   0.644   5.738  1.7742 -0.6115 -1.5467
 5437SOL    HW227774   4.030   0.502   5.696  0.3950 -0.0448  1.6726
 5438SOL     OW27775   1.170   0.509  15.588 -0.5594  0.0606 -0.2810
 5438SOL    HW127776   1.130   0.423  15.575 -0.3711  0.2691 -2.2197
 5438SOL    HW227777   1.101   0.574  15.580 -0.3840  0.1951 -0.6797
 5439SOL     OW27778   3.704   2.049   1.959 -0.0971  0.3558  0.0332
 5439SOL    HW127779   3.620   2.029   1.918  0.4988 -1.5700 -0.2491
 5439SOL    HW227780   3.720   2.139   1.933 -2.5537  1.0862  0.9875
 5440SOL     OW27781   1.946   1.999   5.416 -0.8621  0.5320 -0.1336
 5440SOL    HW127782   1.850   1.999   5.412 -0.9115  2.3242  0.9421
 5440SOL    HW227783   1.974   1.972   5.328 -1.7385 -0.6167 -0.0504
 5441SOL     OW27784   3.713   1.858  10.157 -0.0534  0.2047 -0.1780
 5441SOL    HW127785   3.709   1.823  10.068 -1.3343  0.8322 -0.3679
 5441SOL    HW227786   3.790   1.915  10.149  0.5971 -0.8385 -1.3151
 5442SOL     OW27787   1.828   3.207   5.267 -0.2107 -0.0392 -0.1178
 5442SOL    HW127788   1.815   3.130   5.213 -1.8316 -1.3876  2.1647
 5442SOL    HW227789   1.918   3.219   5.235 -0.5150  0.6698 -0.6994
 5443SOL     OW27790   3.851   3.383  16.279  0.5529  0.4859 -0.0174
 5443SOL    HW127791   3.812   3.301  16.310 -0.3865  0.9777  0.1007
 5443SOL    HW227792   3.900   3.350  16.203  1.1795  0.0529  0.5797
 5444SOL     OW27793   2.260   1.274  15.471 -0.0945  0.0689  0.1544
 5444SOL    HW127794   2.329   1.337  15.489 -0.1880 -0.6669  2.9726
 5444SOL    HW227795   2.187   1.333  15.486  0.1429 -0.2170  2.3465
 5445SOL     OW27796   3.251   2.837   2.669 -0.1269  0.5474  0.2611
 5445SOL    HW127797   3.270   2.914   2.722 -0.0623  1.0921 -0.5523
 5445SOL    HW227798   3.172   2.858   2.619 -0.9831  0.3279  1.5226
 5446SOL     OW27799   1.442   0.411   9.711  0.7701 -0.0453  0.0487
 5446SOL    HW127800   1.459   0.360   9.633  1.2604  1.9440 -1.1426
 5446SOL    HW227801   1.530   0.451   9.715 -0.2326  2.1242  0.6989
 5447SOL     OW27802   3.190   1.878   7.568 -0.0238 -0.3540 -0.5682
 5447SOL    HW127803   3.149   1.821   7.503  0.4934 -0.5968 -0.6796
 5447SOL    HW227804   3.204   1.955   7.514  0.7085  0.1074  0.2712
 5448SOL     OW27805   2.979   3.724   8.784 -0.4135  0.6198  0.2878
 5448SOL    HW127806   2.972   3.629   8.777 -0.2983  0.4827  2.1290
 5448SOL    HW227807   3.072   3.726   8.806 -0.2321  2.4447 -0.6510
 5449SOL     OW27808   2.946   4.328   7.814 -0.5665 -0.2102 -0.4355
 5449SOL    HW127809   2.988   4.407   7.848 -3.0045  1.8760 -2.2804
 5449SOL    HW227810   3.018   4.272   7.786  1.4555  1.1806  1.9523
 5450SOL     OW27811   1.205   2.650   2.704 -0.3101 -0.1169  0.0653
 5450SOL    HW127812   1.247   2.630   2.620 -1.4252  3.1910 -1.2746
 5450SOL    HW227813   1.212   2.563   2.744 -0.4586 -1.3220 -2.4922
 5451SOL     OW27814   4.380   1.079   1.623  0.3592  0.1741 -0.0667
 5451SOL    HW127815   4.300   1.104   1.578 -1.7876 -3.4234  1.7883
 5451SOL    HW227816   4.401   1.006   1.565 -0.2798  1.7323 -2.2511
 5452SOL     OW27817   3.168   2.657  13.222  0.0009 -0.7604 -0.0621
 5452SOL    HW127818   3.169   2.735  13.277 -1.1245  1.4165 -3.0804
 5452SOL    HW227819   3.110   2.691  13.154 -0.3116 -1.0033  0.0830
 5453SOL     OW27820   1.707   0.429   6.476 -0.4434 -0.1991 -0.2619
 5453SOL    HW127821   1.627   0.415   6.427  0.3016 -0.5767 -1.3596
 5453SOL    HW227822   1.730   0.505   6.424 -1.1115  0.0977 -0.1225
 5454SOL     OW27823   3.619   3.029  12.733 -0.0873  0.4277 -0.3261
 5454SOL    HW127824   3.651   3.030  12.823  0.7964 -2.3952 -0.5954
 5454SOL    HW227825   3.553   2.961  12.747 -0.4683  1.0059  0.7138
 5455SOL     OW27826   4.526   2.413   6.604  0.3308 -0.3129  0.3759
 5455SOL    HW127827   4.534   2.349   6.533  0.1966 -0.9596  0.9387
 5455SOL    HW227828   4.603   2.469   6.595  1.0494 -1.3723 -0.2060
 5456SOL     OW27829   1.776   3.454  10.667  0.5661 -0.0375  0.3361
 5456SOL    HW127830   1.754   3.540  10.630  1.2267  1.1798  2.7827
 5456SOL    HW227831   1.864   3.468  10.700  1.2137 -1.7771 -0.6857
 5457SOL     OW27832   1.768   0.268   8.896 -0.0622  0.7144 -0.0228
 5457SOL    HW127833   1.687   0.315   8.916 -0.4756  0.0183 -0.0520
 5457SOL    HW227834   1.826   0.283   8.970 -1.5385  0.4688  1.1949
 5458SOL     OW27835   3.339   4.474   2.804 -0.6474 -0.0522 -0.4503
 5458SOL    HW127836   3.389   4.426   2.870 -1.1662  0.5552  0.3936
 5458SOL    HW227837   3.403   4.464   2.733  0.5853 -2.5352  1.0173
 5459SOL     OW27838   4.487   4.216   3.598  0.0933  0.4855  0.1909
 5459SOL    HW127839   4.438   4.184   3.523 -0.1816 -1.4202  1.1723
 5459SOL    HW227840   4.564   4.159   3.590 -0.2590  0.0794 -0.2833
 5460SOL     OW27841   0.725   3.515   3.708  0.5473 -0.5287 -0.1321
 5460SOL    HW127842   0.688   3.487   3.624 -0.9935 -1.0639  0.7201
 5460SOL    HW227843   0.815   3.482   3.701  0.3753 -0.6088 -1.7938
 5461SOL     OW27844   0.838   1.948   6.929  0.7650  0.0038 -0.5275
 5461SOL    HW127845   0.848   2.021   6.990 -0.3436 -1.6923  1.6962
 5461SOL    HW227846   0.927   1.915   6.919  0.2169 -2.2828  2.2877
 5462SOL     OW27847   1.312   4.124   2.423  0.2951 -0.1832  0.1960
 5462SOL    HW127848   1.363   4.168   2.491  0.9080 -0.5117 -0.0538
 5462SOL    HW227849   1.375   4.128   2.351 -1.6165  0.4548 -1.4341
 5463SOL     OW27850   3.481   0.367   0.576  0.5056  0.2221  0.1871
 5463SOL    HW127851   3.408   0.315   0.542 -0.2784  1.9838 -0.8024
 5463SOL    HW227852   3.550   0.301   0.584  0.7941  0.2628 -2.0264
 5464SOL     OW27853   4.184   2.529  11.797 -0.1612 -0.2405 -0.0908
 5464SOL    HW127854   4.265   2.554  11.843 -2.4229  1.7292  2.8581
 5464SOL    HW227855   4.219   2.471  11.729  0.1627 -1.6029  1.2275
 5465SOL     OW27856   2.582   4.638   0.057 -0.3129  0.0032  0.1105
 5465SOL    HW127857   2.569   0.010   0.066 -1.2244 -0.0900 -0.2280
 5465SOL    HW227858   2.559   4.628  17.660  0.1755  1.2354 -0.1444
 5466SOL     OW27859   2.994   2.472   9.945 -0.2586 -0.5372  0.3635
 5466SOL    HW127860   2.964   2.409   9.879 -1.1902 -0.0170  0.2947
 5466SOL    HW227861   3.077   2.435   9.978  2.2819  3.0977 -1.9261
 5467SOL     OW27862   1.169   0.093   3.684  0.0313  0.2846 -0.0379
 5467SOL    HW127863   1.264   0.086   3.691 -0.2035 -2.5530  0.6690
 5467SOL    HW227864   1.132   0.038   3.754 -2.1869  1.9578  0.0892
 5468SOL     OW27865   0.521   0.005   0.504 -0.5726 -0.5778 -0.5054
 5468SOL    HW127866   0.526   4.673   0.582 -0.6418  0.7880  0.4669
 5468SOL    HW227867   0.455   4.672   0.464 -0.3098 -0.2295 -1.4318
 5469SOL     OW27868   0.969   3.545   1.851 -0.1400 -0.1229 -0.5403
 5469SOL    HW127869   0.974   3.641   1.850  2.5235 -0.2715 -2.5312
 5469SOL    HW227870   1.005   3.518   1.767 -0.8982 -2.2271 -0.1829
 5470SOL     OW27871   4.691   0.699   0.882  0.3173  0.1885 -0.0963
 5470SOL    HW127872   4.700   0.789   0.851  1.8730 -0.2822 -0.9969
 5470SOL    HW227873   4.707   0.650   0.801  1.4305  0.4038 -0.0003
 5471SOL     OW27874   0.224   0.524   9.002 -0.6540 -0.1199 -0.0631
 5471SOL    HW127875   0.263   0.437   9.009  1.1970  0.8819  1.8608
 5471SOL    HW227876   0.130   0.512   8.991 -0.5121 -1.2613 -0.1302
 5472SOL     OW27877   0.668   1.391  13.060 -0.2382  0.4287 -0.1454
 5472SOL    HW127878   0.620   1.395  12.977 -0.1922  0.6333 -0.1626
 5472SOL    HW227879   0.622   1.449  13.121  3.1338  2.5242  0.4124
 5473SOL     OW27880   3.612   3.216   1.772  0.1792 -0.3471  0.6218
 5473SOL    HW127881   3.671   3.193   1.844  0.3784  4.0883  1.8447
 5473SOL    HW227882   3.662   3.279   1.720 -0.1699  0.8530  1.7435
 5474SOL     OW27883   3.489   3.137   4.084 -0.0182  0.2809  0.3224
 5474SOL    HW127884   3.516   3.047   4.102  1.0398  0.4423 -0.4358
 5474SOL    HW227885   3.554   3.187   4.132  0.5984  0.9114 -1.1553
 5475SOL     OW27886   1.522   3.762   7.627  1.0001  0.2262 -0.6862
 5475SOL    HW127887   1.560   3.770   7.714 -1.4259  0.2637  0.3907
 5475SOL    HW227888   1.484   3.676   7.643  0.2401  0.7179  0.2023
 5476SOL     OW27889   1.775   1.463   7.431  0.0366  0.7334 -0.0792
 5476SOL    HW127890   1.830   1.529   7.389 -0.5019 -0.2084 -2.2797
 5476SOL    HW227891   1.812   1.464   7.519  0.3626  2.1506 -0.2306
 5477SOL     OW27892   0.208   4.654   9.281 -0.2603  0.6777  0.4255
 5477SOL    HW127893   0.237   4.584   9.224 -0.0811  1.9383 -1.0402
 5477SOL    HW227894   0.291   4.700   9.290  1.1969 -1.7659 -0.7589
 5478SOL     OW27895   4.071   4.666   3.734  0.0836  0.2904  0.0640
 5478SOL    HW127896   4.159   4.643   3.706 -1.0538 -3.0533 -0.7203
 5478SOL    HW227897   4.089   0.019   3.789  0.1400  1.5963 -1.7842
 5479SOL     OW27898   4.321   2.619   1.375 -0.3684  0.0613  0.5712
 5479SOL    HW127899   4.351   2.558   1.443 -0.2446  0.5449  0.9503
 5479SOL    HW227900   4.383   2.690   1.389 -0.9913  1.4744 -3.8569
 5480SOL     OW27901   1.686   2.107   5.461  0.5229  0.1551 -0.0247
 5480SOL    HW127902   1.648   2.147   5.383 -0.1737  0.9899  0.7478
 5480SOL    HW227903   1.609   2.072   5.506  0.0462  0.7357 -0.3958
 5481SOL     OW27904   2.575   0.707   9.553  0.3178  0.1200  0.0154
 5481SOL    HW127905   2.596   0.630   9.604  1.2088  0.4246  0.1061
 5481SOL    HW227906   2.501   0.732   9.609  0.4682 -2.1753  1.2310
 5482SOL     OW27907   2.758   1.278  13.231 -0.3734 -0.1442 -0.4743
 5482SOL    HW127908   2.766   1.290  13.326 -1.1211 -0.8306 -0.3354
 5482SOL    HW227909   2.664   1.266  13.219 -0.6487  0.2044  1.3304
 5483SOL     OW27910   4.656   3.076   4.715 -0.4779  0.0655  0.9348
 5483SOL    HW127911   4.624   3.000   4.666 -1.7634  0.6198  0.9232
 5483SOL    HW227912   4.689   3.029   4.791 -1.0734 -0.5698  0.8028
 5484SOL     OW27913   4.398   3.633   5.321 -0.1316  0.4837 -0.1151
 5484SOL    HW127914   4.394   3.612   5.227  1.3251  2.7418 -0.6808
 5484SOL    HW227915   4.325   3.586   5.361 -1.2612 -0.9155 -3.7725
 5485SOL     OW27916   0.532   1.385   7.336 -0.3628  0.7732 -0.2714
 5485SOL    HW127917   0.626   1.386   7.316 -0.3534 -2.3058 -0.4450
 5485SOL    HW227918   0.530   1.317   7.404  0.2929  0.1671 -0.8513
 5486SOL     OW27919   0.495   2.704   9.348  0.0145  0.4266 -0.5768
 5486SOL    HW127920   0.551   2.775   9.380  1.4662 -0.8891 -0.1980
 5486SOL    HW227921   0.425   2.757   9.310 -2.7050 -1.9920  1.1530
 5487SOL     OW27922   3.705   2.080  11.250  0.5342 -0.2731  0.8576
 5487SOL    HW127923   3.754   2.007  11.287  1.8625  0.3538  0.3156
 5487SOL    HW227924   3.715   2.142  11.322 -2.1094 -0.8033  1.6763
 5488SOL     OW27925   3.301   3.586  14.994 -0.3582 -0.3351  0.3592
 5488SOL    HW127926   3.363   3.567  15.064 -2.1523  1.0636  2.3041
 5488SOL    HW227927   3.325   3.519  14.930 -0.6508  1.5692 -1.7669
 5489SOL     OW27928   2.397   2.724  16.300  0.0381 -0.1132 -0.2935
 5489SOL    HW127929   2.456   2.726  16.375 -0.8509 -0.3713  0.4046
 5489SOL    HW227930   2.330   2.790  16.317  0.3280  0.0558  0.1920
 5490SOL     OW27931   0.522   3.373   0.003 -0.0226 -0.0906 -0.1236
 5490SOL    HW127932   0.493   3.437   0.068  1.1845 -0.9182  1.2186
 5490SOL    HW227933   0.436   3.339  17.673  0.0199  0.6585 -1.3078
 5491SOL     OW27934   3.455   0.181   7.876  0.1891  0.1917  0.1183
 5491SOL    HW127935   3.403   0.195   7.797  0.2299 -0.5375 -0.0311
 5491SOL    HW227936   3.516   0.255   7.870  1.2219 -0.7015 -0.1689
 5492SOL     OW27937   3.101   1.753   1.754  0.1881  0.2043  0.1588
 5492SOL    HW127938   3.121   1.661   1.741  0.4667  0.1586  0.9257
 5492SOL    HW227939   3.025   1.752   1.696 -0.4724  1.6975  0.9983
 5493SOL     OW27940   4.276   0.786   7.004  0.2290  0.0996 -0.1641
 5493SOL    HW127941   4.304   0.698   6.980  0.3470  0.9094 -2.9973
 5493SOL    HW227942   4.307   0.836   6.928  0.2978  2.7442  1.6079
 5494SOL     OW27943   3.800   2.265   1.827  0.1141  0.4000  0.2751
 5494SOL    HW127944   3.752   2.218   1.759  0.1323  1.5869 -0.5671
 5494SOL    HW227945   3.811   2.355   1.796  0.3719  0.8202  1.5898
 5495SOL     OW27946   0.047   2.961   7.604 -0.5487 -0.3021  0.1998
 5495SOL    HW127947   0.103   3.031   7.635  1.5186 -1.8491 -0.0582
 5495SOL    HW227948   0.002   3.005   7.531  1.0660 -0.0791 -0.6691
 5496SOL     OW27949   4.507   1.175   7.378 -0.5892 -0.3459  0.5177
 5496SOL    HW127950   4.568   1.105   7.403 -0.0469  0.1177  0.4794
 5496SOL    HW227951   4.532   1.226   7.455  1.8370 -0.2229 -0.3505
 5497SOL     OW27952   0.767   1.587   6.756  0.3095 -0.3456  0.1219
 5497SOL    HW127953   0.774   1.546   6.842  1.5471  1.0680  0.7179
 5497SOL    HW227954   0.726   1.516   6.707 -1.1461 -1.9805  3.7537
 5498SOL     OW27955   3.590   3.617   7.325  0.4341 -0.4205 -0.3633
 5498SOL    HW127956   3.634   3.545   7.280  1.1426  0.9404 -1.8533
 5498SOL    HW227957   3.613   3.608   7.418  1.2295 -0.0114 -0.5183
 5499SOL     OW27958   2.573   4.672   5.243  0.1145 -0.2860 -0.2203
 5499SOL    HW127959   2.479   4.665   5.225 -0.0521 -1.3255  1.0902
 5499SOL    HW227960   2.598   0.003   5.169  1.4118 -2.5261 -1.4074
 5500SOL     OW27961   4.699   3.724   9.605  0.4147  0.4258 -0.0989
 5500SOL    HW127962   0.072   3.720   9.605  0.4187  0.5614 -0.5532
 5500SOL    HW227963   4.678   3.650   9.548 -1.2551  1.0573 -0.2934
 5501SOL     OW27964   3.435   2.381   6.202 -0.5614  0.4493 -0.3795
 5501SOL    HW127965   3.465   2.356   6.114  0.2937  0.4236 -0.0792
 5501SOL    HW227966   3.369   2.312   6.209  0.2026 -0.4754 -2.3800
 5502SOL     OW27967   3.756   0.736   4.564  0.1947  0.0181  0.5660
 5502SOL    HW127968   3.752   0.744   4.469  2.1963  1.2141  0.5818
 5502SOL    HW227969   3.723   0.647   4.571 -1.2538  0.5468  0.3401
 5503SOL     OW27970   2.102   1.008   3.719  0.4299 -0.0987 -0.5731
 5503SOL    HW127971   2.050   1.038   3.645  0.0170 -1.4305 -0.8290
 5503SOL    HW227972   2.067   1.048   3.799 -1.9290 -1.5030 -0.9048
 5504SOL     OW27973   1.346   2.339   5.541  0.2606 -0.2605 -0.0482
 5504SOL    HW127974   1.259   2.372   5.559  0.4111 -1.1764  2.3020
 5504SOL    HW227975   1.358   2.290   5.623 -0.2969  0.5649  0.5203
 5505SOL     OW27976   2.128   0.941   4.791 -0.6663  0.8949  0.5252
 5505SOL    HW127977   2.105   0.873   4.728 -0.4786 -1.7656  3.3720
 5505SOL    HW227978   2.197   0.993   4.750  2.1225 -1.6139  2.0096
 5506SOL     OW27979   4.688   0.263   3.143 -0.6817 -0.1201 -0.2300
 5506SOL    HW127980   4.643   0.201   3.200 -1.2233 -0.5732 -1.1518
 5506SOL    HW227981   4.715   0.205   3.072  3.7709 -0.7919  2.0181
 5507SOL     OW27982   1.653   1.657   5.092 -0.3086  0.4253 -0.3916
 5507SOL    HW127983   1.604   1.579   5.120  2.1713 -0.7884  0.5919
 5507SOL    HW227984   1.735   1.653   5.142  0.2585 -0.7017 -1.4072
 5508SOL     OW27985   1.780   3.600   2.661  0.1308  0.1718  0.0960
 5508SOL    HW127986   1.715   3.597   2.731 -1.4276 -2.3505 -1.4480
 5508SOL    HW227987   1.733   3.542   2.601  0.0118 -0.2578  0.6155
 5509SOL     OW27988   3.720   2.034   6.031 -0.1477  0.4020 -0.1084
 5509SOL    HW127989   3.669   2.068   5.957 -0.3228  0.6081  0.1078
 5509SOL    HW227990   3.786   2.104   6.029 -0.4923  0.7623  1.7886
 5510SOL     OW27991   3.994   4.017   2.891  0.3345 -0.2243  0.1632
 5510SOL    HW127992   4.064   3.966   2.850  1.0825  1.4293 -0.6132
 5510SOL    HW227993   3.951   4.056   2.815  0.2791  1.6779  1.1579
 5511SOL     OW27994   3.782   1.239   3.075  0.6097  0.4953  0.2606
 5511SOL    HW127995   3.780   1.150   3.040 -0.0963 -0.1878  2.0382
 5511SOL    HW227996   3.696   1.264   3.042  0.5754 -0.5282 -0.4311
 5512SOL     OW27997   1.067   0.214   4.079 -0.0687  0.1889 -0.9248
 5512SOL    HW127998   1.017   0.260   4.146  2.5344  1.9791 -0.1945
 5512SOL    HW227999   1.152   0.256   4.064  0.1763 -0.7569 -2.1797
 5513SOL     OW28000   2.912   2.549  15.847 -0.5394 -0.4437 -0.0935
 5513SOL    HW128001   2.958   2.469  15.821  1.1525  0.2318  0.8179
 5513SOL    HW228002   2.913   2.588  15.760 -1.3145  0.1934  0.1785
 5514SOL     OW28003   3.495   2.346  15.030 -0.3112 -0.0243  0.4283
 5514SOL    HW128004   3.556   2.372  14.961  0.6145  0.1677  1.3253
 5514SOL    HW228005   3.413   2.352  14.981  0.4101  2.6292 -0.4208
 5515SOL     OW28006   0.148   3.852   4.776 -0.4635 -0.1314 -0.2022
 5515SOL    HW128007   0.058   3.879   4.792  0.0819  0.9315  1.0663
 5515SOL    HW228008   0.155   3.778   4.837  1.3636  0.8568  0.7992
 5516SOL     OW28009   0.165   1.980   3.702 -0.2186 -0.2233 -0.0504
 5516SOL    HW128010   0.104   1.938   3.642 -0.3319  0.8760 -0.7031
 5516SOL    HW228011   0.171   1.929   3.783 -1.2435  0.2023  0.2972
 5517SOL     OW28012   3.851   2.225  14.456 -0.1205  0.5048 -0.3290
 5517SOL    HW128013   3.942   2.248  14.475  0.2130 -1.6218  0.5850
 5517SOL    HW228014   3.877   2.138  14.426  4.2321  2.4771 -2.2737
 5518SOL     OW28015   2.849   3.684   7.667  0.2880  0.5996 -0.0254
 5518SOL    HW128016   2.907   3.754   7.698 -1.2007  0.5459  2.8369
 5518SOL    HW228017   2.920   3.640   7.621 -0.0390  1.7981 -1.6895
 5519SOL     OW28018   4.620   1.016  13.841  0.2256 -0.4480  0.2029
 5519SOL    HW128019   4.638   0.989  13.751  1.8830  3.7544 -0.7060
 5519SOL    HW228020   4.633   0.931  13.884  1.8894  0.9132  2.4319
 5520SOL     OW28021   2.681   2.946   8.391 -0.0791  0.1081 -0.1310
 5520SOL    HW128022   2.755   2.894   8.361 -0.9502 -0.8899 -0.5161
 5520SOL    HW228023   2.648   2.988   8.312  0.5989  1.8783  0.5115
 5521SOL     OW28024   0.574   3.072   4.679 -0.0538  1.0587 -0.2147
 5521SOL    HW128025   0.624   3.153   4.673 -0.5899  1.3627 -0.5847
 5521SOL    HW228026   0.481   3.096   4.678  0.5208  3.1251 -2.5688
 5522SOL     OW28027   2.822   1.195  10.930  0.3208 -0.5421  0.3774
 5522SOL    HW128028   2.858   1.212  10.843  0.7400 -1.2881  0.4047
 5522SOL    HW228029   2.882   1.128  10.962  3.3513  1.5217 -0.8883
 5523SOL     OW28030   1.770   4.183   3.479  0.0465  0.8660  0.1507
 5523SOL    HW128031   1.836   4.239   3.439 -0.6035  2.4049  1.2204
 5523SOL    HW228032   1.822   4.110   3.512  1.3653  2.1366  0.8620
 5524SOL     OW28033   3.178   1.507   3.936  0.4111 -0.1164 -0.2478
 5524SOL    HW128034   3.181   1.442   4.006 -0.2568  0.4688  0.3212
 5524SOL    HW228035   3.207   1.586   3.980 -1.5208  0.8676 -0.7499
 5525SOL     OW28036   2.684   2.521   8.683 -0.5090  0.7914 -0.3809
 5525SOL    HW128037   2.754   2.468   8.643 -0.4076  1.6602 -1.3601
 5525SOL    HW228038   2.616   2.456   8.702  0.1669 -0.5890 -2.6535
 5526SOL     OW28039   4.680   3.737   5.718  0.7898 -1.1518 -0.4845
 5526SOL    HW128040   4.601   3.715   5.766 -0.9682  2.6866 -1.5736
 5526SOL    HW228041   4.645   3.751   5.630 -0.3920 -1.8632 -0.1222
 5527SOL     OW28042   1.152   1.482   3.070  0.1123 -0.6439 -0.5605
 5527SOL    HW128043   1.210   1.470   3.145  1.0073  0.1770 -1.1188
 5527SOL    HW228044   1.181   1.571   3.052  1.2305 -0.3469  2.7983
 5528SOL     OW28045   4.053   0.387  10.359 -0.5932 -0.4400 -0.1783
 5528SOL    HW128046   4.123   0.392  10.294  1.6782 -0.4188  2.2349
 5528SOL    HW228047   4.044   0.293  10.375  0.0107 -0.3293  0.8818
 5529SOL     OW28048   4.105   2.198   8.390 -0.2553  0.8761 -0.1243
 5529SOL    HW128049   4.156   2.265   8.435  0.8014 -0.4145  0.6128
 5529SOL    HW228050   4.031   2.185   8.449 -0.9584 -0.9315 -1.3913
 5530SOL     OW28051   0.888   3.801   3.904 -0.4370 -0.0168 -0.4170
 5530SOL    HW128052   0.826   3.872   3.890 -0.4431  0.3665  1.6037
 5530SOL    HW228053   0.823   3.755   3.957 -0.2932 -0.0951 -0.3092
 5531SOL     OW28054   2.448   1.391   7.458 -0.0780 -0.4158  0.3840
 5531SOL    HW128055   2.414   1.435   7.536  0.3944 -1.1825  1.0166
 5531SOL    HW228056   2.394   1.313   7.461 -2.8435  1.4387 -0.6982
 5532SOL     OW28057   4.593   3.167  12.397  0.2394 -0.0229 -0.7178
 5532SOL    HW128058   4.668   3.219  12.371 -1.3758  2.1198 -1.1272
 5532SOL    HW228059   4.523   3.227  12.372  1.1875  1.1249 -0.5726
 5533SOL     OW28060   1.695   4.237  15.622 -0.1575 -0.2279 -0.5751
 5533SOL    HW128061   1.725   4.250  15.532  0.8255  0.3243 -0.1615
 5533SOL    HW228062   1.664   4.147  15.613 -1.1343  0.2421 -2.0557
 5534SOL     OW28063   3.248   3.884  15.838  0.7420  0.3777  0.1337
 5534SOL    HW128064   3.240   3.904  15.932  0.7954  2.1611 -0.2383
 5534SOL    HW228065   3.227   3.972  15.807 -0.7297 -0.1082 -0.2574
 5535SOL     OW28066   4.405   0.503   7.633  1.1217  0.2685  0.6369
 5535SOL    HW128067   4.414   0.576   7.573  3.6450 -3.1063 -3.1542
 5535SOL    HW228068   4.385   0.555   7.711 -2.2300 -0.1646  0.0610
 5536SOL     OW28069   1.843   1.795   9.483  0.0284  0.0155 -0.1546
 5536SOL    HW128070   1.864   1.786   9.575  0.3915 -0.0259 -0.2412
 5536SOL    HW228071   1.913   1.758   9.428 -0.3950  0.3525 -0.9185
 5537SOL     OW28072   4.353   3.980  15.065 -0.2237  0.3444 -0.0713
 5537SOL    HW128073   4.359   3.899  15.015  0.8362  0.2310  0.2355
 5537SOL    HW228074   4.286   4.030  15.018  0.0187  1.1439  0.4188
 5538SOL     OW28075   1.709   1.741   8.802 -0.0897  0.1517 -0.4252
 5538SOL    HW128076   1.627   1.749   8.753 -0.9981  2.0380  1.3830
 5538SOL    HW228077   1.680   1.717   8.890 -0.7947  2.4234 -0.0489
 5539SOL     OW28078   3.898   3.910   8.082 -0.5767 -0.1864 -0.3743
 5539SOL    HW128079   3.882   4.004   8.089  0.2565 -0.1398  1.0022
 5539SOL    HW228080   3.968   3.915   8.017  1.8162 -3.4612  1.9193
 5540SOL     OW28081   0.031   2.495   5.715  0.1003 -0.3771  0.6764
 5540SOL    HW128082   4.685   2.435   5.741  1.9882 -1.2458  3.7284
 5540SOL    HW228083   0.084   2.486   5.794  0.4235 -0.2358  0.4771
 5541SOL     OW28084   3.380   1.100   3.926 -0.0747 -0.6022 -0.2865
 5541SOL    HW128085   3.466   1.064   3.945 -0.0639 -0.2951  0.2423
 5541SOL    HW228086   3.394   1.182   3.973 -2.2692  1.8139 -3.7907
 5542SOL     OW28087   0.529   1.781   4.638  0.2380  0.0001 -0.3782
 5542SOL    HW128088   0.597   1.848   4.638 -2.7951  3.0560 -1.4023
 5542SOL    HW228089   0.545   1.739   4.722  0.5917 -0.1532 -0.5220
 5543SOL     OW28090   1.243   2.757  11.353 -0.3716 -0.2214 -0.2139
 5543SOL    HW128091   1.272   2.753  11.262 -1.3938  1.7988 -0.6295
 5543SOL    HW228092   1.320   2.720  11.395  1.5228  0.2745 -3.2487
 5544SOL     OW28093   2.289   1.465   2.893  0.5921  0.0622  0.2493
 5544SOL    HW128094   2.211   1.431   2.937  0.8104 -0.1210  0.4969
 5544SOL    HW228095   2.362   1.436   2.948 -0.8881 -2.9114  0.6268
 5545SOL     OW28096   4.561   4.470   6.766 -0.4754  0.2132  0.3260
 5545SOL    HW128097   4.522   4.483   6.852 -0.7596  1.7731 -0.0365
 5545SOL    HW228098   4.531   4.379   6.755 -1.9257  0.8152 -0.7956
 5546SOL     OW28099   3.939   0.730   2.380  0.1330  0.4667 -0.2188
 5546SOL    HW128100   3.945   0.636   2.399  0.8039 -0.0446 -2.9677
 5546SOL    HW228101   3.928   0.721   2.285 -2.3179 -1.7027  0.2584
 5547SOL     OW28102   2.511   2.932   9.950 -0.0912 -0.1912 -0.2882
 5547SOL    HW128103   2.537   2.841   9.938 -0.6009 -0.4997  0.9950
 5547SOL    HW228104   2.504   2.935  10.045 -0.0931  1.2723 -0.3242
 5548SOL     OW28105   1.293   3.479   2.448  0.0135  0.2143 -0.1876
 5548SOL    HW128106   1.244   3.413   2.496 -0.6365 -1.0340 -2.6148
 5548SOL    HW228107   1.378   3.474   2.492  0.8936 -0.6200 -2.0136
 5549SOL     OW28108   0.907   2.007   3.315 -0.4816 -0.2127 -0.6327
 5549SOL    HW128109   0.974   2.062   3.354  1.1781 -3.3718  1.0280
 5549SOL    HW228110   0.841   2.072   3.291  1.3317  0.8965 -2.5656
 5550SOL     OW28111   3.394   1.781   2.388 -0.8240 -0.4253 -0.2167
 5550SOL    HW128112   3.403   1.712   2.322 -0.3108 -0.6423  0.0794
 5550SOL    HW228113   3.459   1.751   2.452 -0.2132  0.0582 -0.6130
 5551SOL     OW28114   0.441   1.487   6.396  0.0114  0.2673  0.1178
 5551SOL    HW128115   0.353   1.520   6.413 -0.2707  0.8442 -2.4213
 5551SOL    HW228116   0.433   1.433   6.318 -0.4399 -1.4565  1.3747
 5552SOL     OW28117   2.005   2.718  13.085  0.1578  0.0716 -0.5781
 5552SOL    HW128118   2.095   2.687  13.089 -0.0532 -0.4132  0.3868
 5552SOL    HW228119   2.015   2.782  13.155 -0.3917 -1.4864  0.9311
 5553SOL     OW28120   1.728   1.959   4.046 -0.4627  0.3274  0.5848
 5553SOL    HW128121   1.795   1.983   3.982  0.4218 -0.2099  1.3280
 5553SOL    HW228122   1.779   1.939   4.123 -2.9005  0.3569  2.2148
 5554SOL     OW28123   1.153   4.105   3.856 -0.0532 -0.0996 -0.2667
 5554SOL    HW128124   1.183   4.057   3.779 -0.0737 -1.8893  0.8467
 5554SOL    HW228125   1.138   4.193   3.823 -1.0510 -0.7854 -1.6364
 5555SOL     OW28126   3.117   0.722   7.140  0.1960  0.6323  0.2534
 5555SOL    HW128127   3.121   0.630   7.114  0.0737  1.8671 -4.1484
 5555SOL    HW228128   3.041   0.724   7.199 -2.6239  0.8344 -3.3454
 5556SOL     OW28129   0.406   2.694   2.771  0.2266  0.0287  0.2186
 5556SOL    HW128130   0.385   2.728   2.684  0.0334  1.8159  0.9624
 5556SOL    HW228131   0.349   2.744   2.829 -0.5132 -0.1253 -0.3830
 5557SOL     OW28132   2.569   1.026  15.521 -0.0691 -0.4261 -0.1862
 5557SOL    HW128133   2.618   1.065  15.448  1.0301  1.8734  1.8047
 5557SOL    HW228134   2.517   0.958  15.479  0.8169 -1.3213  0.1826
 5558SOL     OW28135   2.386   2.312   5.132 -0.1053  0.3088  0.3535
 5558SOL    HW128136   2.481   2.321   5.131 -0.2695  1.7767 -1.1755
 5558SOL    HW228137   2.358   2.279   5.046 -1.3767 -0.4438  1.0709
 5559SOL     OW28138   0.932   1.447   0.333  0.3148 -0.2242 -0.5183
 5559SOL    HW128139   0.970   1.532   0.311  0.3564 -0.3899 -1.0778
 5559SOL    HW228140   1.006   1.388   0.324  1.0214  0.2261  2.1286
 5560SOL     OW28141   2.868   4.668   7.626 -0.6065  0.4528  0.0310
 5560SOL    HW128142   2.868   4.683   7.721  0.1750  0.3453  0.0469
 5560SOL    HW228143   2.950   4.620   7.614 -2.0207 -2.0537  0.5394
 5561SOL     OW28144   3.191   3.128   2.970  0.1773  0.2899  0.6665
 5561SOL    HW128145   3.141   3.075   3.032  1.7803 -0.6005  1.2138
 5561SOL    HW228146   3.121   3.185   2.940  0.4311  0.6409  0.7375
 5562SOL     OW28147   2.748   3.511   2.414 -0.0367 -0.0795 -0.1649
 5562SOL    HW128148   2.682   3.537   2.350  0.6270 -0.3742 -0.9685
 5562SOL    HW228149   2.758   3.421   2.383 -0.1187  1.0656 -3.4815
 5563SOL     OW28150   1.627   2.423   7.518 -0.3328 -0.3374 -1.0137
 5563SOL    HW128151   1.709   2.433   7.469  0.0066 -0.2970 -0.4432
 5563SOL    HW228152   1.635   2.328   7.525 -2.0248 -0.4447 -0.6152
 5564SOL     OW28153   3.623   3.876   9.056 -0.4684  0.3275 -0.2583
 5564SOL    HW128154   3.657   3.942   9.116  0.5499  0.0184 -0.4943
 5564SOL    HW228155   3.530   3.891   9.070 -0.2508 -0.2236  1.9273
 5565SOL     OW28156   1.927   3.276  14.107  0.2198  0.0152 -0.3294
 5565SOL    HW128157   1.864   3.288  14.036  2.2404  3.0182 -1.5867
 5565SOL    HW228158   1.900   3.342  14.171 -2.7809 -0.7131 -0.8633
 5566SOL     OW28159   3.776   2.851   4.362  0.1239  0.4798 -0.1531
 5566SOL    HW128160   3.851   2.911   4.362  0.1477  0.4479 -0.7160
 5566SOL    HW228161   3.800   2.782   4.300  1.9327  1.3170 -0.4094
 5567SOL     OW28162   3.695   2.375   5.666 -0.2573 -0.5889 -0.0761
 5567SOL    HW128163   3.786   2.380   5.637 -0.7185 -1.5003 -1.6995
 5567SOL    HW228164   3.657   2.331   5.589 -0.4947 -0.0759 -0.2540
 5568SOL     OW28165   3.049   2.622   6.586 -0.2275 -0.3487  0.3771
 5568SOL    HW128166   3.073   2.704   6.629 -0.3888  1.0651 -2.2292
 5568SOL    HW228167   3.059   2.568   6.664  2.7008  1.6379  1.3699
 5569SOL     OW28168   3.472   1.095   5.105 -0.1253  0.1523  0.3276
 5569SOL    HW128169   3.475   1.104   5.200  0.2382  1.6097  0.1759
 5569SOL    HW228170   3.545   1.036   5.086  1.2465  1.9579 -0.0146
 5570SOL     OW28171   1.170   2.195   8.994 -0.0887  0.3215 -0.3963
 5570SOL    HW128172   1.235   2.172   8.927  0.6281  1.1628  0.0113
 5570SOL    HW228173   1.156   2.114   9.043  0.6174  0.8496  0.6671
 5571SOL     OW28174   3.378   2.912   6.709 -0.1279 -0.8167 -0.1612
 5571SOL    HW128175   3.308   2.900   6.645 -0.8152 -0.4845  0.5288
 5571SOL    HW228176   3.356   2.840   6.769 -1.7311  0.8528  1.2419
 5572SOL     OW28177   0.626   2.700   8.321  0.4781 -0.2121  0.5914
 5572SOL    HW128178   0.645   2.734   8.234 -0.5618 -0.6012  0.2154
 5572SOL    HW228179   0.541   2.661   8.300  1.0676 -0.0018 -2.1624
 5573SOL     OW28180   2.547   0.419  10.880  0.4176  0.3755  0.1740
 5573SOL    HW128181   2.572   0.388  10.967  3.8866  0.7718 -0.6873
 5573SOL    HW228182   2.548   0.514  10.892 -2.3348  0.4599 -0.1672
 5574SOL     OW28183   4.545   0.306   7.306 -0.2369 -0.2976  0.1821
 5574SOL    HW128184   4.582   0.242   7.245 -3.1678 -0.2742 -1.5924
 5574SOL    HW228185   4.453   0.285   7.288  0.1037 -0.3213 -1.5675
 5575SOL     OW28186   3.298   1.172  17.350 -0.2557  0.0806  0.3283
 5575SOL    HW128187   3.363   1.177  17.280 -0.9301  2.0625 -0.1448
 5575SOL    HW228188   3.328   1.252  17.392 -0.9626  1.8109 -2.4733
 5576SOL     OW28189   2.589   1.720  13.077  0.1573  0.1665  0.2292
 5576SOL    HW128190   2.592   1.816  13.074 -1.7198  0.1795 -1.2063
 5576SOL    HW228191   2.645   1.716  12.999 -2.0095 -1.8362 -1.2367
 5577SOL     OW28192   1.687   1.540   6.072 -0.0909 -0.4343  0.1739
 5577SOL    HW128193   1.601   1.581   6.065 -0.2821 -0.5342  1.9687
 5577SOL    HW228194   1.713   1.567   6.160  0.1686  0.9488 -0.3311
 5578SOL     OW28195   1.184   2.814   2.945 -0.2789  0.0861 -0.1562
 5578SOL    HW128196   1.163   2.788   2.855 -0.0023 -1.7825  0.3107
 5578SOL    HW228197   1.208   2.906   2.933  0.1956 -0.2566 -1.9452
 5579SOL     OW28198   1.942   4.228  15.813  0.5548 -0.0866 -0.0430
 5579SOL    HW128199   1.856   4.220  15.773  0.9713 -0.6262 -0.8502
 5579SOL    HW228200   1.928   4.220  15.907  0.8153 -1.9745 -0.1778
 5580SOL     OW28201   3.486   1.302   4.075 -0.2529 -0.3959  0.2091
 5580SOL    HW128202   3.486   1.396   4.093  1.2676 -0.2344 -0.6571
 5580SOL    HW228203   3.531   1.261   4.149 -0.7504 -0.3454  0.5410
 5581SOL     OW28204   3.339   1.725   3.732 -0.1226 -0.7539  0.1048
 5581SOL    HW128205   3.381   1.775   3.802  0.0299 -1.4823  0.5417
 5581SOL    HW228206   3.249   1.758   3.736  0.1071 -0.2044  0.7379
 5582SOL     OW28207   0.756   1.129  16.201  0.2049  0.1175 -0.2867
 5582SOL    HW128208   0.777   1.042  16.234  1.7054  0.0693 -1.3309
 5582SOL    HW228209   0.835   1.150  16.151  0.7473 -1.6500 -0.1733
 5583SOL     OW28210   2.927   2.487   3.572 -0.4553 -0.1783 -0.5271
 5583SOL    HW128211   2.994   2.419   3.570  0.8534  1.1374 -2.0050
 5583SOL    HW228212   2.923   2.502   3.478  2.3376 -1.8040 -0.9185
 5584SOL     OW28213   1.162   2.768   8.068 -0.7351  0.1738 -0.7587
 5584SOL    HW128214   1.217   2.710   8.016 -1.8119 -1.0128 -0.5897
 5584SOL    HW228215   1.078   2.721   8.069 -0.3365 -0.5234 -0.2031
 5585SOL     OW28216   4.549   1.361   1.944  0.3512  0.4021 -0.8263
 5585SOL    HW128217   4.491   1.400   2.009  2.9574 -2.2091  3.0934
 5585SOL    HW228218   4.555   1.268   1.967  0.5727  0.0457 -2.3184
 5586SOL     OW28219   0.384   2.346   4.755 -0.1655 -0.0648  0.3163
 5586SOL    HW128220   0.383   2.261   4.799 -0.8201  0.3258  1.0605
 5586SOL    HW228221   0.293   2.336   4.725  0.2187 -0.5941 -0.6808
 5587SOL     OW28222   4.690   1.069   4.832  0.3568  0.5797 -0.1863
 5587SOL    HW128223   4.652   1.093   4.916  0.1390 -3.5587  0.8797
 5587SOL    HW228224   4.606   1.033   4.803  0.5018  1.6293 -1.9694
 5588SOL     OW28225   1.356   0.348   7.874 -0.6407 -0.1355  0.9219
 5588SOL    HW128226   1.327   0.333   7.964  1.0405  0.2362  1.5218
 5588SOL    HW228227   1.276   0.336   7.824 -0.2006 -0.1884  0.2290
 5589SOL     OW28228   3.279   1.460   6.128  0.2044 -0.9308  0.3724
 5589SOL    HW128229   3.304   1.467   6.036 -0.0044 -0.1424  0.3729
 5589SOL    HW228230   3.299   1.553   6.140 -1.2239 -0.2932 -2.2572
 5590SOL     OW28231   2.631   2.162   8.383 -0.4143  0.1699 -0.3051
 5590SOL    HW128232   2.557   2.106   8.358  0.0770 -1.0981  1.0633
 5590SOL    HW228233   2.665   2.116   8.460 -1.4961 -0.3649 -0.1420
 5591SOL     OW28234   2.310   2.830   4.859  0.1259 -0.7063  0.7192
 5591SOL    HW128235   2.337   2.817   4.768 -2.2435  0.1111 -0.1035
 5591SOL    HW228236   2.396   2.828   4.901  0.2244 -0.5196  0.5251
 5592SOL     OW28237   3.633   2.202   5.450 -0.1912  0.4549 -0.1452
 5592SOL    HW128238   3.676   2.132   5.400  0.6243  0.3346  0.7248
 5592SOL    HW228239   3.539   2.190   5.434 -0.1175 -1.4669  0.8639
 5593SOL     OW28240   1.910   3.321   6.141 -0.1841  0.3064 -0.1037
 5593SOL    HW128241   1.937   3.396   6.087  1.4569  0.2905  0.6992
 5593SOL    HW228242   1.880   3.362   6.222  2.3860  1.5655  0.2267
 5594SOL     OW28243   1.235   1.301   7.494  0.4746  0.5752 -0.2216
 5594SOL    HW128244   1.256   1.348   7.575  0.2553  0.1367  0.0877
 5594SOL    HW228245   1.321   1.309   7.451  0.8964  0.4091  0.5942
 5595SOL     OW28246   1.520   1.442   5.183  0.4915  0.0451 -0.0334
 5595SOL    HW128247   1.586   1.372   5.182  1.4644  0.9551  1.0660
 5595SOL    HW228248   1.455   1.384   5.143  1.2972 -0.8173 -0.0998
 5596SOL     OW28249   1.917   0.772   2.274  0.4561  0.3035  0.2086
 5596SOL    HW128250   1.829   0.765   2.237  1.0866  0.7150 -1.3473
 5596SOL    HW228251   1.967   0.815   2.205 -0.6451 -0.4965 -1.0847
 5597SOL     OW28252   0.769   3.577   4.770 -0.4889 -0.1017 -0.1808
 5597SOL    HW128253   0.798   3.567   4.861 -1.0468  0.8749  0.1035
 5597SOL    HW228254   0.856   3.601   4.738 -0.3096 -0.6127 -0.0739
 5598SOL     OW28255   2.600   3.783   7.531 -0.3270  0.4250  0.9557
 5598SOL    HW128256   2.661   3.812   7.463 -1.0490  1.1873  0.6261
 5598SOL    HW228257   2.642   3.701   7.557  0.0405  0.6114  0.9442
 5599SOL     OW28258   2.323   0.860   7.769  0.6790 -0.7260  0.1095
 5599SOL    HW128259   2.383   0.792   7.800  0.9856  0.1206  1.3639
 5599SOL    HW228260   2.252   0.856   7.834 -1.1144 -0.6010 -1.8571
 5600SOL     OW28261   1.230   2.414  14.216  0.0298  0.2656  0.1920
 5600SOL    HW128262   1.276   2.473  14.275 -1.6559  1.6036  0.1850
 5600SOL    HW228263   1.240   2.458  14.132 -0.6262 -1.1591 -0.6567
 5601SOL     OW28264   1.126   4.142   1.424 -0.1383  0.3404 -0.6433
 5601SOL    HW128265   1.088   4.054   1.432  0.7603 -0.0939 -1.1075
 5601SOL    HW228266   1.050   4.197   1.410 -0.5412 -0.1204 -0.2696
 5602SOL     OW28267   1.690   0.088   9.212  0.0822 -0.3467 -0.0264
 5602SOL    HW128268   1.758   0.153   9.192  1.1221 -0.7854  2.1100
 5602SOL    HW228269   1.726   0.010   9.170  0.1978 -1.0258  1.3269
 5603SOL     OW28270   0.179   2.318   7.775 -0.2607 -0.5580  0.4864
 5603SOL    HW128271   0.198   2.363   7.693 -1.4707 -1.0690 -0.0749
 5603SOL    HW228272   0.102   2.266   7.750 -1.0449  1.0655 -0.4880
 5604SOL     OW28273   1.670   4.494  13.988  0.2433  0.0566 -0.2531
 5604SOL    HW128274   1.620   4.467  13.910 -0.5056 -0.0941  0.2800
 5604SOL    HW228275   1.707   4.578  13.963  0.6568 -0.0455  0.0147
 5605SOL     OW28276   0.376   2.317   9.044  0.7819 -0.3208 -0.7609
 5605SOL    HW128277   0.343   2.325   9.133  0.3985 -2.7901 -0.6964
 5605SOL    HW228278   0.459   2.363   9.058  0.2483  0.4478 -0.1519
 5606SOL     OW28279   4.685   4.650  12.682 -0.1896 -0.0022 -0.0318
 5606SOL    HW128280   0.032   4.641  12.618 -0.8876 -1.4112 -0.5878
 5606SOL    HW228281   4.647   0.012  12.660  0.5201  1.2367  3.5210
 5607SOL     OW28282   4.564   1.644   1.680  0.1877 -0.0881  0.0921
 5607SOL    HW128283   4.637   1.649   1.619 -1.5675 -0.8354 -2.0787
 5607SOL    HW228284   4.496   1.703   1.646  0.8164  1.0149  0.7302
 5608SOL     OW28285   3.038   1.949   6.974 -0.3835 -0.1162 -0.2686
 5608SOL    HW128286   3.042   1.867   7.024 -0.3552  0.2757  0.3800
 5608SOL    HW228287   3.048   2.007   7.050  1.0162 -1.6431  0.7016
 5609SOL     OW28288   4.621   0.090   3.381 -0.3160  0.3100  0.3947
 5609SOL    HW128289   4.620   4.721   3.354  1.6347  0.5703 -0.6358
 5609SOL    HW228290   4.682   0.089   3.454  1.6583  1.4844 -1.2198
 5610SOL     OW28291   3.088   4.664   6.418  0.1186 -0.0526  0.1483
 5610SOL    HW128292   3.160   4.610   6.450  1.1029  1.9733  1.3883
 5610SOL    HW228293   3.135   0.024   6.408  1.9235 -1.0157  0.5870
 5611SOL     OW28294   3.220   1.050   4.297  0.2138 -0.0050 -0.1869
 5611SOL    HW128295   3.302   1.001   4.309  0.9323  2.2449  4.0982
 5611SOL    HW228296   3.231   1.112   4.369 -0.1134 -1.5821  1.2176
 5612SOL     OW28297   4.243   1.867  13.776 -0.0356  0.1421 -0.5331
 5612SOL    HW128298   4.155   1.878  13.740  0.5428 -0.9019 -2.2312
 5612SOL    HW228299   4.248   1.951  13.822 -2.7547 -0.5449  1.0030
 5613SOL     OW28300   0.051   1.422  13.268 -0.2583  0.3181 -0.2786
 5613SOL    HW128301   0.058   1.377  13.184  1.8549  0.1476  0.0061
 5613SOL    HW228302   0.142   1.428  13.297 -0.5178  0.2210  0.5834
 5614SOL     OW28303   1.197   4.246   5.854  0.4029  0.0606 -0.1753
 5614SOL    HW128304   1.264   4.179   5.841  0.8915  0.5936 -0.4283
 5614SOL    HW228305   1.222   4.285   5.937  1.9370 -0.2325 -0.4839
 5615SOL     OW28306   1.843   2.919  10.933  0.6130 -0.2090  0.2554
 5615SOL    HW128307   1.883   2.948  10.851 -0.2885 -0.5172 -0.2995
 5615SOL    HW228308   1.916   2.871  10.973  0.5291 -0.3314  0.2611
 5616SOL     OW28309   1.502   1.533   4.547  0.1545  0.1079  0.3855
 5616SOL    HW128310   1.455   1.614   4.526  1.4390  0.4446 -1.1547
 5616SOL    HW228311   1.435   1.473   4.513 -2.0324  1.5763  2.0277
 5617SOL     OW28312   0.162   4.229   0.680  0.3391  0.4090  0.2434
 5617SOL    HW128313   0.227   4.294   0.652 -0.1126  1.1692  0.9653
 5617SOL    HW228314   0.100   4.231   0.607  2.8484  0.0677 -1.9287
 5618SOL     OW28315   2.054   3.381  13.889  0.0321  0.2837 -0.5905
 5618SOL    HW128316   2.027   3.340  13.971 -0.4654  0.4754 -0.6541
 5618SOL    HW228317   2.102   3.461  13.908 -0.5860 -0.0012  2.1664
 5619SOL     OW28318   2.879   3.288   9.389  0.0768  0.4159 -0.3490
 5619SOL    HW128319   2.845   3.363   9.341 -0.6837  0.7864  0.7515
 5619SOL    HW228320   2.799   3.240   9.412 -1.3681  3.5112  1.0690
 5620SOL     OW28321   1.810   1.970   1.332 -0.5355 -0.1817 -0.0018
 5620SOL    HW128322   1.800   1.886   1.377  1.5212 -0.5055 -0.1488
 5620SOL    HW228323   1.810   1.936   1.242  0.3891 -1.8800  0.6387
 5621SOL     OW28324   3.031   1.533  13.794 -0.1764  0.2439  0.0353
 5621SOL    HW128325   2.972   1.591  13.841  1.5913  0.2550  2.2469
 5621SOL    HW228326   3.107   1.542  13.852 -0.9852 -1.3201  1.3581
 5622SOL     OW28327   1.130   0.279   4.706  0.2367 -0.1150  0.3858
 5622SOL    HW128328   1.107   0.187   4.714  0.4026  0.0393  2.5803
 5622SOL    HW228329   1.040   0.310   4.709  0.1747 -0.0716 -1.7129
 5623SOL     OW28330   0.231   4.425   5.964  0.1615 -0.4388  0.3030
 5623SOL    HW128331   0.310   4.380   5.933  0.6049  0.7655 -0.3172
 5623SOL    HW228332   0.262   4.515   5.976  0.0409 -0.2973 -0.4764
 5624SOL     OW28333   1.991   3.780   1.979 -0.4151  0.1076  0.5875
 5624SOL    HW128334   1.898   3.795   1.961 -0.0741 -1.3827 -2.3269
 5624SOL    HW228335   1.985   3.687   2.001  0.7593 -0.3911 -1.2165
 5625SOL     OW28336   2.365   0.701  14.539  0.3076 -0.0234  0.2613
 5625SOL    HW128337   2.348   0.727  14.630  0.0946  2.6717 -0.5631
 5625SOL    HW228338   2.312   0.621  14.534 -0.1040  0.1442  1.6674
 5626SOL     OW28339   2.782   2.678   7.881  0.6109 -0.1354  0.0504
 5626SOL    HW128340   2.792   2.625   7.801 -0.4947  2.2724 -1.6714
 5626SOL    HW228341   2.824   2.762   7.862  0.7541  0.2743  2.1293
 5627SOL     OW28342   0.770   1.787   5.611  0.2595  0.6547  0.1123
 5627SOL    HW128343   0.697   1.725   5.605  0.9110 -0.0014 -0.9333
 5627SOL    HW228344   0.728   1.869   5.638 -1.0672  0.4953 -1.4683
 5628SOL     OW28345   3.881   1.230   1.595  0.0218  0.0987  0.3863
 5628SOL    HW128346   3.798   1.202   1.557 -0.4751  1.3872  0.5409
 5628SOL    HW228347   3.871   1.322   1.569  2.3325  0.5257  1.0175
 5629SOL     OW28348   1.652   3.207   0.884 -0.4712 -0.1188 -0.0737
 5629SOL    HW128349   1.581   3.271   0.881 -0.0817  0.3838  1.5982
 5629SOL    HW228350   1.727   3.266   0.873 -0.3737 -0.5022 -1.4458
 5630SOL     OW28351   3.054   3.772   6.662  0.1453  0.4421 -0.0120
 5630SOL    HW128352   3.076   3.730   6.579  2.7922  0.7906  0.4907
 5630SOL    HW228353   3.036   3.701   6.723 -0.1838 -0.4188 -1.1233
 5631SOL     OW28354   1.960   2.376   4.636  0.3698 -0.5005  0.3767
 5631SOL    HW128355   1.875   2.415   4.617  1.0948 -0.1932 -2.3569
 5631SOL    HW228356   1.944   2.283   4.619 -1.0826 -0.2341  0.3403
 5632SOL     OW28357   3.966   3.067   4.322  0.4815 -0.1664  0.2300
 5632SOL    HW128358   4.060   3.079   4.335  0.2309  1.3916  0.6188
 5632SOL    HW228359   3.968   3.039   4.230 -1.0318 -1.2559  0.5305
 5633SOL     OW28360   1.733   3.407  13.137  0.1400 -0.5083  0.2916
 5633SOL    HW128361   1.748   3.348  13.211 -3.1429  0.1271  1.4422
 5633SOL    HW228362   1.813   3.460  13.133  0.1919 -0.4601  1.9572
 5634SOL     OW28363   1.458   2.601   5.813 -0.2305 -0.2277  0.0383
 5634SOL    HW128364   1.395   2.672   5.825 -0.2996 -0.4682  1.1198
 5634SOL    HW228365   1.406   2.533   5.770 -1.4723 -0.7425  2.3793
 5635SOL     OW28366   2.468   2.634  15.510  0.1405 -0.3641  0.0951
 5635SOL    HW128367   2.560   2.607  15.514 -0.8026 -3.4130  1.3088
 5635SOL    HW228368   2.438   2.617  15.600 -0.1080  0.0923  0.0984
 5636SOL     OW28369   2.075   2.275   5.532 -0.1928  0.2678 -0.1304
 5636SOL    HW128370   2.131   2.221   5.475  0.3938  0.3342  0.3809
 5636SOL    HW228371   2.096   2.359   5.492  1.8446  0.1315  0.6700
 5637SOL     OW28372   0.213   2.855   8.289  0.0733  0.8654 -0.5237
 5637SOL    HW128373   0.258   2.930   8.328 -1.0670  0.3803  1.6989
 5637SOL    HW228374   0.283   2.792   8.274  0.0268  0.6805  0.0474
 5638SOL     OW28375   3.319   1.628  13.370 -0.0150 -0.3336 -0.5252
 5638SOL    HW128376   3.284   1.710  13.336  0.4922  0.2833  0.4487
 5638SOL    HW228377   3.242   1.600  13.419 -0.0842 -1.9449 -1.5333
 5639SOL     OW28378   1.180   3.127   1.588 -0.7258  0.0942  0.2411
 5639SOL    HW128379   1.213   3.042   1.615 -3.2019 -1.7309 -2.3785
 5639SOL    HW228380   1.116   3.091   1.527  0.4505 -2.6193  0.6520
 5640SOL     OW28381   0.081   0.587   2.325 -0.2958 -0.2058 -0.1717
 5640SOL    HW128382   0.143   0.656   2.304 -0.2994 -0.2111 -0.1999
 5640SOL    HW228383   0.014   0.637   2.372 -1.2660 -0.7504 -0.9601
 5641SOL     OW28384   4.294   1.547   9.320 -0.2270 -0.2341 -0.3081
 5641SOL    HW128385   4.307   1.642   9.311  2.0772 -0.4231  0.9796
 5641SOL    HW228386   4.240   1.541   9.241  2.2355 -1.1073 -1.9413
 5642SOL     OW28387   3.809   4.659   5.746  0.7612 -0.5730 -0.4816
 5642SOL    HW128388   3.825   4.602   5.821 -2.1771 -0.6761  0.0643
 5642SOL    HW228389   3.889   4.631   5.700  1.7244 -2.7025  2.5178
 5643SOL     OW28390   4.518   0.810  13.054  0.0232 -0.3548 -0.0538
 5643SOL    HW128391   4.562   0.866  12.990  0.5945  0.6060  1.1712
 5643SOL    HW228392   4.595   0.759  13.080  0.5466 -0.4834 -1.8485
 5644SOL     OW28393   4.256   1.946   2.347  0.0162 -0.9118  0.2373
 5644SOL    HW128394   4.223   1.984   2.266  1.8089  0.4816  0.1877
 5644SOL    HW228395   4.219   1.858   2.334  0.3123 -0.8833 -0.7574
 5645SOL     OW28396   4.164   3.850  13.626  0.3492  0.0135 -0.2713
 5645SOL    HW128397   4.210   3.773  13.592  0.5519  0.3188 -0.6952
 5645SOL    HW228398   4.210   3.913  13.571 -0.8143  1.4066  0.3349
 5646SOL     OW28399   2.239   2.180   9.940  0.1879 -0.4144 -0.3010
 5646SOL    HW128400   2.227   2.103   9.884  1.0357  1.0856 -2.5704
 5646SOL    HW228401   2.201   2.256   9.894 -1.6999 -1.9418 -1.2855
 5647SOL     OW28402   4.475   1.998   4.789 -0.1965 -0.6928  0.3327
 5647SOL    HW128403   4.537   1.935   4.753 -2.2861 -3.3579  1.3671
 5647SOL    HW228404   4.422   1.938   4.841  1.1573 -1.3068  0.9889
 5648SOL     OW28405   0.973   0.203   0.041  0.3370  0.5185  0.0047
 5648SOL    HW128406   0.956   0.236   0.129  0.0264  0.0465  0.1228
 5648SOL    HW228407   0.909   0.257  17.690 -0.9841 -1.2981 -0.2654
 5649SOL     OW28408   3.797   4.347   0.173 -0.2058 -0.3477 -0.0637
 5649SOL    HW128409   3.836   4.265   0.204 -1.3377 -0.2468  1.6524
 5649SOL    HW228410   3.819   4.411   0.241 -0.5602 -0.0322 -0.2444
 5650SOL     OW28411   4.660   1.289   3.168 -0.7503 -0.2687  0.5823
 5650SOL    HW128412   4.668   1.380   3.197 -1.1870  0.7896 -2.6019
 5650SOL    HW228413   4.595   1.261   3.232 -3.5090 -2.9061 -3.3906
 5651SOL     OW28414   2.083   0.240   7.799 -0.1272  0.1942 -0.3495
 5651SOL    HW128415   2.166   0.272   7.764  1.2997 -1.2803  1.6305
 5651SOL    HW228416   2.049   0.312   7.852 -0.2074 -0.8952  1.1041
 5652SOL     OW28417   0.213   3.939   0.092 -0.3513  0.4207  0.2319
 5652SOL    HW128418   0.210   3.844   0.103  1.3692  0.3747  0.2418
 5652SOL    HW228419   0.209   3.972   0.182  2.5809  0.0398  0.5055
 5653SOL     OW28420   3.835   3.258   7.035  0.0605  0.3844  0.0623
 5653SOL    HW128421   3.843   3.235   6.942  0.4991  0.5105  0.0679
 5653SOL    HW228422   3.885   3.182   7.066  0.1838 -1.2864 -4.1527
 5654SOL     OW28423   4.358   3.514   7.555  0.1346 -0.3476  0.1397
 5654SOL    HW128424   4.291   3.447   7.543 -0.0473 -0.2944  0.8381
 5654SOL    HW228425   4.404   3.512   7.471 -0.0731  1.0016 -0.0151
 5655SOL     OW28426   0.038   2.859  17.693  0.5250 -0.0230 -0.2090
 5655SOL    HW128427   4.708   2.805   0.056  1.2628  0.8434  1.2884
 5655SOL    HW228428   4.698   2.927  17.670  0.2968 -0.6605 -1.4472
 5656SOL     OW28429   0.964   3.418   3.606 -0.2474  0.4469  0.2209
 5656SOL    HW128430   0.960   3.322   3.596  1.3751  0.5319 -1.1836
 5656SOL    HW228431   0.944   3.454   3.520 -0.3483  0.5074  0.2702
 5657SOL     OW28432   4.222   3.048   4.138 -0.1514 -0.4089 -0.5050
 5657SOL    HW128433   4.267   2.963   4.138  0.3757 -0.1333  0.0249
 5657SOL    HW228434   4.214   3.067   4.044 -0.9080  0.8477 -0.1770
 5658SOL     OW28435   2.584   2.014  11.444 -0.2321  0.1956 -0.4061
 5658SOL    HW128436   2.669   2.054  11.424  0.9762 -0.6589  3.0606
 5658SOL    HW228437   2.581   1.943  11.380  2.9352 -2.5848  2.5449
 5659SOL     OW28438   1.497   1.049   2.835 -0.4737 -0.5121  0.3046
 5659SOL    HW128439   1.500   1.128   2.781  1.6682 -0.7521  0.0914
 5659SOL    HW228440   1.571   1.005   2.793 -1.1332 -1.5310  0.2028
 5660SOL     OW28441   3.762   2.111   7.137 -0.1310 -0.5180 -0.1229
 5660SOL    HW128442   3.786   2.103   7.229 -1.4636 -0.1931  0.2460
 5660SOL    HW228443   3.749   2.019   7.113  1.6479 -0.2631 -2.0445
 5661SOL     OW28444   0.708   1.017   7.401  0.9928 -0.0270  0.5908
 5661SOL    HW128445   0.668   1.023   7.488  0.4773  0.3174  0.3256
 5661SOL    HW228446   0.800   1.002   7.426  1.7700  2.0976 -1.0215
 5662SOL     OW28447   0.192   1.328   8.735  0.5098 -0.3777 -0.5051
 5662SOL    HW128448   0.287   1.320   8.724  0.7170  0.4314  0.6328
 5662SOL    HW228449   0.173   1.381   8.658 -2.3044 -0.6090  0.0308
 5663SOL     OW28450   0.826   2.235  12.237 -0.0614  0.1351  0.1064
 5663SOL    HW128451   0.903   2.190  12.201 -0.6911  0.7029 -1.9383
 5663SOL    HW228452   0.787   2.166  12.291  1.6053 -0.8664  0.0405
 5664SOL     OW28453   1.062   2.463   4.789 -0.4677  0.9994 -0.4888
 5664SOL    HW128454   1.012   2.505   4.860 -0.7486  0.5832 -0.4435
 5664SOL    HW228455   1.144   2.454   4.838 -0.9766  0.0651  0.1909
 5665SOL     OW28456   2.895   2.869   6.156  0.1041  0.3221  0.0866
 5665SOL    HW128457   2.877   2.838   6.245  1.6026 -0.3546  0.1549
 5665SOL    HW228458   2.860   2.797   6.103  0.4030  0.7749 -0.7240
 5666SOL     OW28459   1.055   1.867   7.593 -0.2419  1.3711 -0.1526
 5666SOL    HW128460   1.011   1.851   7.677 -1.5075  1.3279 -0.8116
 5666SOL    HW228461   1.023   1.955   7.571  0.2275  1.7612  0.7379
 5667SOL     OW28462   3.415   0.945   4.464  0.4509  0.2558  0.1618
 5667SOL    HW128463   3.407   0.850   4.472  0.9362  0.1017 -1.2439
 5667SOL    HW228464   3.383   0.970   4.551  0.9884  0.7554  0.2127
 5668SOL     OW28465   3.771   1.089  13.656  0.4961 -0.5623  0.2550
 5668SOL    HW128466   3.680   1.120  13.654  0.1830 -1.4569  0.7379
 5668SOL    HW228467   3.777   1.026  13.585  2.8776 -0.9194  0.7871
 5669SOL     OW28468   0.976   3.483   7.479  0.2208  0.0578 -0.2546
 5669SOL    HW128469   0.962   3.562   7.425  0.0091 -0.5750 -1.1237
 5669SOL    HW228470   1.071   3.476   7.488  0.1318 -0.0193  0.6018
 5670SOL     OW28471   3.732   0.747  12.332  0.2659 -0.0668  0.2787
 5670SOL    HW128472   3.687   0.744  12.416 -0.2400 -0.5156 -0.0093
 5670SOL    HW228473   3.696   0.824  12.289  0.0123 -1.3526 -1.8285
 5671SOL     OW28474   0.756   0.303  10.888 -0.3619  0.1569  0.7971
 5671SOL    HW128475   0.757   0.285  10.794  0.4360 -2.1252  1.2645
 5671SOL    HW228476   0.765   0.218  10.931  1.0482 -0.7571 -1.3378
 5672SOL     OW28477   1.335   3.599   1.573 -0.5148  0.0483  0.0763
 5672SOL    HW128478   1.342   3.652   1.653  3.9210  0.7786 -0.8099
 5672SOL    HW228479   1.355   3.513   1.609 -1.6522 -1.1669 -2.1703
 5673SOL     OW28480   2.288   4.026   4.309  0.2932 -0.2792 -0.4435
 5673SOL    HW128481   2.309   3.954   4.369 -1.8733  0.3631  1.1146
 5673SOL    HW228482   2.369   4.075   4.319 -0.2344  0.8921 -1.8917
 5674SOL     OW28483   0.249   3.414   0.553  0.4276  0.5616 -0.5180
 5674SOL    HW128484   0.215   3.368   0.630 -1.6294  0.0877 -1.7042
 5674SOL    HW228485   0.167   3.455   0.526 -0.3330 -0.9323 -0.4802
 5675SOL     OW28486   1.747   3.823   5.868 -0.5148  0.1147  0.6820
 5675SOL    HW128487   1.811   3.760   5.833  0.0983  0.9002  0.3872
 5675SOL    HW228488   1.803   3.899   5.854  0.0602 -0.3637  0.3665
 5676SOL     OW28489   3.691   1.019   4.524 -0.2597  0.4481  0.1624
 5676SOL    HW128490   3.602   0.993   4.503  0.4386 -1.0812 -0.9401
 5676SOL    HW228491   3.733   0.935   4.545 -0.8078  0.2022  0.2686
 5677SOL     OW28492   2.430   0.917  11.882 -0.2343  0.0592 -0.0828
 5677SOL    HW128493   2.402   0.965  11.804 -0.1884 -0.3899 -0.3741
 5677SOL    HW228494   2.421   0.825  11.860 -2.2588 -0.3113  2.2464
 5678SOL     OW28495   1.301   4.444  11.902 -0.3224 -0.4430  0.1968
 5678SOL    HW128496   1.339   4.484  11.824  0.5706 -1.2189  0.2276
 5678SOL    HW228497   1.364   4.468  11.970  0.3524 -0.2536 -0.4902
 5679SOL     OW28498   1.118   0.444   7.740  0.3208 -0.1905  0.0199
 5679SOL    HW128499   1.039   0.455   7.793 -0.3849  2.3485 -1.5334
 5679SOL    HW228500   1.146   0.536   7.735  0.5261 -0.2302  0.4498
 5680SOL     OW28501   3.286   1.999   8.882  0.0504 -0.4753 -0.2351
 5680SOL    HW128502   3.332   2.059   8.941 -2.7739  0.4276  1.0710
 5680SOL    HW228503   3.206   1.992   8.935  1.3412 -1.5587  1.5426
 5681SOL     OW28504   2.697   4.417   3.905  0.2268  0.0677  0.4984
 5681SOL    HW128505   2.740   4.390   3.824  1.3348  0.8924  0.8113
 5681SOL    HW228506   2.658   4.503   3.886  1.1028  0.0406 -1.4803
 5682SOL     OW28507   3.187   1.554  16.228 -0.3600  0.2964 -0.0918
 5682SOL    HW128508   3.220   1.464  16.225  2.8852  1.4854  0.4072
 5682SOL    HW228509   3.199   1.579  16.136 -0.9214  1.0559  0.0462
 5683SOL     OW28510   1.362   3.679   3.700  0.1184  0.3472  0.6220
 5683SOL    HW128511   1.271   3.685   3.671 -0.5220 -2.6528  2.0657
 5683SOL    HW228512   1.389   3.770   3.683 -0.0643  0.1430 -0.7638
 5684SOL     OW28513   1.648   0.803   2.181 -0.2844  0.3488  0.2712
 5684SOL    HW128514   1.668   0.821   2.089 -0.0299 -0.5768  0.1354
 5684SOL    HW228515   1.553   0.798   2.172 -0.4132 -0.2472  1.9631
 5685SOL     OW28516   3.475   3.562  11.408  0.5813  0.4461  0.2333
 5685SOL    HW128517   3.462   3.655  11.390  0.5987 -0.0173 -2.1957
 5685SOL    HW228518   3.451   3.556  11.500  0.5702  3.3143  0.4141
 5686SOL     OW28519   1.638   0.293  17.268 -0.0671 -0.0223  0.6853
 5686SOL    HW128520   1.640   0.306  17.363 -0.6639  0.9250  0.5686
 5686SOL    HW228521   1.703   0.223  17.258  1.3699  1.1370  1.8606
 5687SOL     OW28522   2.234   0.929   5.397  0.1859  0.2844  0.1878
 5687SOL    HW128523   2.185   0.851   5.424 -2.0212  1.2693 -1.0007
 5687SOL    HW228524   2.170   1.000   5.399 -0.5964 -0.4135  0.0180
 5688SOL     OW28525   3.317   4.391   5.492 -0.6742 -0.4846 -0.2860
 5688SOL    HW128526   3.262   4.429   5.560 -1.6296 -0.3664 -1.1249
 5688SOL    HW228527   3.367   4.331   5.548  0.5938 -0.7066 -1.6457
 5689SOL     OW28528   3.643   4.286   7.371 -0.3412 -0.2817 -0.1275
 5689SOL    HW128529   3.702   4.341   7.422  0.6480 -1.6277  0.1683
 5689SOL    HW228530   3.680   4.200   7.392  2.1619  0.5938 -0.9457
 5690SOL     OW28531   0.553   2.953   9.523  0.1505  0.5102  0.0333
 5690SOL    HW128532   0.525   3.030   9.572 -0.3892  1.7991 -2.2703
 5690SOL    HW228533   0.614   2.925   9.591  1.3674 -1.0358 -1.6951
 5691SOL     OW28534   1.773   0.827  10.830  0.3227 -0.6106  0.9942
 5691SOL    HW128535   1.689   0.799  10.864 -0.8542  1.5421 -0.1094
 5691SOL    HW228536   1.758   0.822  10.736  0.7260 -0.1513  0.9002
 5692SOL     OW28537   0.319   0.039   4.234 -0.5163 -0.4381  0.3154
 5692SOL    HW128538   0.302   4.674   4.267  1.2852 -0.5610  0.9117
 5692SOL    HW228539   0.345   0.012   4.146  0.0856  2.2288 -0.3151
 5693SOL     OW28540   3.168   3.973   7.519 -0.1112  0.2694 -0.2314
 5693SOL    HW128541   3.157   4.009   7.431  0.4061  0.5770 -0.1717
 5693SOL    HW228542   3.118   3.893   7.509  1.5224 -0.7798  0.0123
 5694SOL     OW28543   1.718   1.453   4.219  0.5718  0.5222 -0.1566
 5694SOL    HW128544   1.750   1.475   4.132  1.3518  1.9666  0.4865
 5694SOL    HW228545   1.638   1.506   4.227 -1.1228 -2.0566 -0.3338
 5695SOL     OW28546   0.252   1.386   3.427  0.7046 -0.5676 -0.3583
 5695SOL    HW128547   0.249   1.292   3.407  0.4340 -0.7424  0.4906
 5695SOL    HW228548   0.347   1.391   3.434  0.4855  2.5865  0.2518
 5696SOL     OW28549   4.129   0.268   7.371  0.3262 -0.3712  0.7921
 5696SOL    HW128550   4.042   0.258   7.411  0.8795  1.0217  2.3976
 5696SOL    HW228551   4.185   0.269   7.449  1.2212  1.2629  0.1222
 5697SOL     OW28552   0.805   0.726   4.345  0.3923 -0.5219  0.0060
 5697SOL    HW128553   0.899   0.727   4.363  0.3167  0.8805  0.2659
 5697SOL    HW228554   0.768   0.757   4.428 -0.2212 -1.2307  0.0011
 5698SOL     OW28555   1.432   1.248   9.708 -0.9330  0.1147 -0.0268
 5698SOL    HW128556   1.356   1.207   9.666 -1.1384 -0.1029  0.5548
 5698SOL    HW228557   1.493   1.174   9.707 -0.8714  0.2079 -2.9148
 5699SOL     OW28558   2.720   2.136  17.162  0.4770 -0.0796 -0.0583
 5699SOL    HW128559   2.692   2.069  17.224  0.8460 -1.7079 -1.6509
 5699SOL    HW228560   2.652   2.203  17.170 -1.8961 -2.4525 -0.5459
 5700SOL     OW28561   0.456   0.558   4.372 -0.4255  0.0743  0.3329
 5700SOL    HW128562   0.500   0.550   4.288 -0.0180 -0.0731  0.5624
 5700SOL    HW228563   0.459   0.653   4.389 -3.1450  0.5223 -1.6494
 5701SOL     OW28564   0.217   2.720  17.282 -0.1217  0.4175 -0.2092
 5701SOL    HW128565   0.253   2.693  17.198  0.3802 -3.5733  1.3031
 5701SOL    HW228566   0.128   2.686  17.271  0.2836 -0.7684  0.2663
 5702SOL     OW28567   0.321   3.872  16.579 -0.3995 -0.0964 -0.3977
 5702SOL    HW128568   0.310   3.815  16.503  1.4094  0.8426 -1.3799
 5702SOL    HW228569   0.344   3.956  16.539  1.3828  0.9092  2.7333
 5703SOL     OW28570   1.699   3.397  14.201 -0.0636  0.5551 -0.3348
 5703SOL    HW128571   1.622   3.373  14.150  0.1913  1.1014 -0.9896
 5703SOL    HW228572   1.685   3.362  14.289  0.4251 -0.5877 -0.7096
 5704SOL     OW28573   0.401   2.067   2.062  0.5295  0.6029 -0.2201
 5704SOL    HW128574   0.345   1.994   2.037 -0.5873  1.5616 -0.5296
 5704SOL    HW228575   0.349   2.120   2.122 -0.0142 -1.0618  0.7749
 5705SOL     OW28576   2.620   4.361   3.576  0.2557 -0.1516 -0.1402
 5705SOL    HW128577   2.540   4.363   3.525 -0.4240  0.8686  0.9604
 5705SOL    HW228578   2.651   4.448   3.549 -0.0858 -0.0422 -0.1712
 5706SOL     OW28579   1.656   4.363   7.972 -0.2217 -0.3265 -0.2970
 5706SOL    HW128580   1.627   4.273   7.987  2.3210 -1.1611 -0.4173
 5706SOL    HW228581   1.608   4.400   8.045  0.5678 -0.3627  0.2447
 5707SOL     OW28582   0.399   1.411  14.731 -0.1323  0.9528 -0.0149
 5707SOL    HW128583   0.375   1.455  14.813  3.0363 -1.0717  1.9754
 5707SOL    HW228584   0.335   1.446  14.669 -1.0041 -0.1378  0.2681
 5708SOL     OW28585   3.966   1.691   6.531  0.3908 -0.6493 -0.1875
 5708SOL    HW128586   3.874   1.670   6.514  0.4862 -2.3675  1.3102
 5708SOL    HW228587   3.959   1.706   6.625  2.5373 -0.9549  0.0162
 5709SOL     OW28588   3.706   1.443  11.661  0.1090 -0.2353  0.0677
 5709SOL    HW128589   3.752   1.359  11.659  0.1549 -0.1767 -1.1614
 5709SOL    HW228590   3.775   1.509  11.661  0.1894 -0.3208  1.1784
 5710SOL     OW28591   0.312   2.817   2.540  0.3192 -0.4407 -0.1260
 5710SOL    HW128592   0.237   2.869   2.568  0.7161  1.0123 -1.7928
 5710SOL    HW228593   0.356   2.885   2.489  0.1302  0.8281  1.3971
 5711SOL     OW28594   3.823   0.145   6.091 -0.7797 -0.1464  0.1659
 5711SOL    HW128595   3.876   0.116   6.016  0.4965  0.6571  0.7578
 5711SOL    HW228596   3.823   0.240   6.079  0.1600 -0.0963  0.5436
 5712SOL     OW28597   1.335   4.230  13.406 -0.1596 -0.1353 -0.4562
 5712SOL    HW128598   1.414   4.176  13.409 -1.0784 -1.4514  0.2444
 5712SOL    HW228599   1.370   4.310  13.367  0.5957 -1.7361 -3.0673
 5713SOL     OW28600   3.436   3.176   9.073  0.1465  0.1372 -0.1434
 5713SOL    HW128601   3.474   3.173   8.985 -2.5552 -2.7191 -1.1885
 5713SOL    HW228602   3.512   3.174   9.132  0.6139 -2.6539 -0.8369
 5714SOL     OW28603   0.650   0.053   4.764  0.1986  0.2491  0.4096
 5714SOL    HW128604   0.640   0.023   4.854 -0.5361 -0.7732 -0.0104
 5714SOL    HW228605   0.589   4.717   4.720  2.6161  0.1209 -2.8098
 5715SOL     OW28606   2.667   1.559  15.670 -0.3863 -0.5592 -0.2022
 5715SOL    HW128607   2.739   1.497  15.680 -2.2331 -2.8970 -1.4419
 5715SOL    HW228608   2.672   1.553  15.575 -1.1955  0.1750 -0.2913
 5716SOL     OW28609   2.437   0.987   5.789  0.2104  0.2592 -0.6236
 5716SOL    HW128610   2.342   0.992   5.783  0.4203  1.6070 -2.5660
 5716SOL    HW228611   2.459   0.915   5.731  0.2339  0.5439 -0.9685
 5717SOL     OW28612   2.186   0.495   7.442 -0.4936  0.1003 -0.0455
 5717SOL    HW128613   2.165   0.569   7.386  0.3274 -0.8134 -1.5601
 5717SOL    HW228614   2.128   0.427   7.406  0.3903 -0.4327 -0.4641
 5718SOL     OW28615   4.590   0.239   1.026 -0.5322  0.3302 -0.0560
 5718SOL    HW128616   4.519   0.283   1.072 -0.5773 -0.5340  0.6986
 5718SOL    HW228617   4.538   0.207   0.952  2.3215 -0.6683 -1.6511
 5719SOL     OW28618   1.740   0.097  15.021  0.2710  0.2898 -0.2555
 5719SOL    HW128619   1.676   0.119  14.953  0.1609 -0.2877 -0.3397
 5719SOL    HW228620   1.702   0.017  15.057  0.7994  0.5118  0.8010
 5720SOL     OW28621   4.540   4.604   5.209  0.2399 -0.2089  0.7622
 5720SOL    HW128622   4.457   4.560   5.229 -0.5713  0.1540 -1.8575
 5720SOL    HW228623   4.605   4.551   5.255  0.5909 -0.5939 -0.1724
 5721SOL     OW28624   0.778   0.763  11.178 -0.3994  0.1033 -0.3261
 5721SOL    HW128625   0.769   0.763  11.273  0.5856 -0.1534 -0.2323
 5721SOL    HW228626   0.872   0.780  11.170 -0.3806 -0.6139 -1.7446
 5722SOL     OW28627   3.616   2.732  13.223 -0.4918  0.1588 -0.0498
 5722SOL    HW128628   3.656   2.747  13.137  1.5183 -2.1890  0.4823
 5722SOL    HW228629   3.587   2.641  13.214 -1.2268  0.1058  3.0353
 5723SOL     OW28630   3.116   2.683   3.657 -0.3474  0.3504 -0.1930
 5723SOL    HW128631   3.029   2.668   3.619 -0.7031  0.3020  0.6423
 5723SOL    HW228632   3.135   2.607   3.711 -1.8409 -0.1018 -0.3199
 5724SOL     OW28633   1.347   3.817   4.581 -0.2101 -0.0387  0.7882
 5724SOL    HW128634   1.337   3.839   4.488  2.6426 -0.2069  0.4431
 5724SOL    HW228635   1.380   3.727   4.570 -0.4719  0.3337 -3.2083
 5725SOL     OW28636   1.185   4.544   0.635  0.6325 -0.2750  0.2094
 5725SOL    HW128637   1.250   4.615   0.640  1.9413 -1.4727  0.0735
 5725SOL    HW228638   1.172   4.515   0.725  0.9201 -1.5481 -0.1586
 5726SOL     OW28639   4.662   1.945   3.551 -0.9266 -0.3086  0.0593
 5726SOL    HW128640   4.633   2.034   3.571 -0.8410 -0.5385  1.2233
 5726SOL    HW228641   4.595   1.893   3.594 -3.6492  2.0143 -1.4305
 5727SOL     OW28642   2.965   4.573   3.573  0.1893  0.1493  0.0649
 5727SOL    HW128643   2.878   4.587   3.535  0.2602 -0.8148 -0.4401
 5727SOL    HW228644   2.992   4.492   3.531  0.3756  1.0208 -1.4616
 5728SOL     OW28645   4.321   4.387   2.560 -0.0068 -0.2204  0.0224
 5728SOL    HW128646   4.368   4.449   2.617  0.6168 -1.1908  0.5569
 5728SOL    HW228647   4.303   4.319   2.624  0.0466 -1.0998 -0.8990
 5729SOL     OW28648   0.878   2.288   4.865 -0.2637 -0.1907  0.3300
 5729SOL    HW128649   0.958   2.326   4.830 -1.2614  0.7065 -1.0124
 5729SOL    HW228650   0.823   2.358   4.899 -1.8251 -1.4337  0.3956
 5730SOL     OW28651   2.318   3.936   3.755  0.1391 -0.0457  0.3712
 5730SOL    HW128652   2.275   3.953   3.839 -2.0702 -0.0744 -0.7702
 5730SOL    HW228653   2.311   4.026   3.722 -3.0578  0.1822  1.6358
 5731SOL     OW28654   1.996   0.395  16.139 -0.1158  0.0370 -0.0581
 5731SOL    HW128655   2.076   0.446  16.147 -0.2874  0.3664 -0.4339
 5731SOL    HW228656   1.996   0.354  16.226  1.2680  0.3839  0.1011
 5732SOL     OW28657   4.050   0.391  17.021 -0.0298  0.4948 -0.0794
 5732SOL    HW128658   4.087   0.478  17.035  0.4666  0.2317  0.2493
 5732SOL    HW228659   4.131   0.355  16.986 -0.6096 -0.2318 -0.6632
 5733SOL     OW28660   1.120   2.791   7.702  0.0665  0.3169  0.1850
 5733SOL    HW128661   1.142   2.700   7.685  2.5066  0.9560  0.0157
 5733SOL    HW228662   1.061   2.787   7.778  0.1893  0.5286  0.2932
 5734SOL     OW28663   0.303   4.150   7.055  0.5636 -0.6113 -0.8740
 5734SOL    HW128664   0.224   4.200   7.032  0.6168  0.3314  0.9630
 5734SOL    HW228665   0.297   4.154   7.150  1.9250  1.8851 -0.8789
 5735SOL     OW28666   2.301   3.060   2.092  0.7200  0.0209  0.4481
 5735SOL    HW128667   2.379   3.081   2.039  0.9492 -3.3804 -0.5849
 5735SOL    HW228668   2.317   2.972   2.125 -0.8619 -1.0856 -1.7000
 5736SOL     OW28669   4.682   2.125   4.885  0.4741 -0.2885  0.0477
 5736SOL    HW128670   4.598   2.107   4.842  1.1488 -0.6633 -1.1288
 5736SOL    HW228671   4.681   2.047   4.941  2.8595  0.1044  0.6178
 5737SOL     OW28672   2.881   4.174   5.462  0.1516  0.5713 -0.0942
 5737SOL    HW128673   2.967   4.209   5.435 -0.3503  0.6999 -1.5229
 5737SOL    HW228674   2.826   4.252   5.472  1.2784  1.3011  0.4586
 5738SOL     OW28675   1.780   0.314   0.173  0.3755 -0.3464  0.6644
 5738SOL    HW128676   1.762   0.220   0.165 -3.0941  0.4287 -0.2235
 5738SOL    HW228677   1.727   0.327   0.252 -0.0158 -0.6424  0.4524
 5739SOL     OW28678   4.294   1.044   6.797  0.2322  0.7654 -0.0690
 5739SOL    HW128679   4.283   1.009   6.709 -0.6992  2.3516 -0.5835
 5739SOL    HW228680   4.387   1.035   6.817 -0.4102  1.6238  3.2755
 5740SOL     OW28681   2.127   3.220   3.391 -0.8007 -0.6142  0.3485
 5740SOL    HW128682   2.061   3.195   3.327  0.3270  2.0950 -1.8353
 5740SOL    HW228683   2.203   3.231   3.334 -0.3396  2.9360  1.6687
 5741SOL     OW28684   0.944   4.334   1.955  0.1076  0.3056 -0.0093
 5741SOL    HW128685   0.876   4.282   1.912 -0.6208  0.2148  1.2239
 5741SOL    HW228686   0.939   4.300   2.045  1.5453  3.2933  1.1818
 5742SOL     OW28687   4.567   0.548  11.547 -0.0376  0.4391 -0.1706
 5742SOL    HW128688   4.641   0.494  11.521 -1.7902 -0.8700 -2.4287
 5742SOL    HW228689   4.496   0.484  11.544 -0.2115  0.6052  0.3306
 5743SOL     OW28690   1.100   1.780   4.738 -0.5574 -0.1428  0.5096
 5743SOL    HW128691   1.053   1.726   4.676 -0.6859  0.4673  0.0718
 5743SOL    HW228692   1.050   1.862   4.734 -0.5891 -0.2435 -0.9835
 5744SOL     OW28693   2.534   4.446  12.592  0.3449  0.4441 -0.6118
 5744SOL    HW128694   2.544   4.385  12.518  1.7300  0.1139 -0.1380
 5744SOL    HW228695   2.606   4.508  12.579  2.2682 -1.4059  1.3597
 5745SOL     OW28696   2.178   3.471   2.580 -0.0735  0.0754 -0.1674
 5745SOL    HW128697   2.132   3.399   2.622 -0.1292 -0.4945 -1.1936
 5745SOL    HW228698   2.126   3.485   2.500 -0.9583 -3.4275 -0.2217
 5746SOL     OW28699   4.605   3.694   3.223 -0.1271 -0.3187  0.2791
 5746SOL    HW128700   4.524   3.664   3.264  0.4303 -0.5975  1.1596
 5746SOL    HW228701   4.576   3.687   3.131 -3.7570 -0.3880  1.4172
 5747SOL     OW28702   4.581   2.522   3.066 -0.0525  0.0921 -0.4071
 5747SOL    HW128703   4.525   2.470   3.008  1.4582  0.3205 -2.1012
 5747SOL    HW228704   4.576   2.597   3.007 -0.2005 -0.3827 -1.0060
 5748SOL     OW28705   1.847   0.119  17.267 -0.2026  0.0505 -0.3590
 5748SOL    HW128706   1.795   0.051  17.310  0.0796  0.5078  0.6901
 5748SOL    HW228707   1.910   0.131  17.337 -1.2647  2.0463  0.2623
 5749SOL     OW28708   3.600   2.766   8.553 -0.4633  0.2959  0.0608
 5749SOL    HW128709   3.518   2.803   8.521 -0.9653 -1.1367 -0.3135
 5749SOL    HW228710   3.640   2.739   8.470  1.0980  1.6408  0.3879
 5750SOL     OW28711   2.978   4.037   4.412  0.7483 -0.6240 -0.5446
 5750SOL    HW128712   2.905   4.053   4.473  1.3359  0.8136 -0.2151
 5750SOL    HW228713   2.933   3.998   4.337 -2.1552  1.1475  0.2599
 5751SOL     OW28714   1.773   2.136   6.961  0.2191  0.0073  0.2354
 5751SOL    HW128715   1.725   2.162   6.883  0.5667 -0.1981 -0.0525
 5751SOL    HW228716   1.848   2.194   6.944 -0.8171  1.1625 -0.3436
 5752SOL     OW28717   0.894   0.688   7.296 -0.0872 -0.2009  0.1305
 5752SOL    HW128718   0.958   0.718   7.231 -1.0348 -0.4353 -0.8981
 5752SOL    HW228719   0.922   0.748   7.366  0.1245 -0.6475  0.4254
 5753SOL     OW28720   3.215   3.304   8.836 -0.0418 -0.2007  0.3516
 5753SOL    HW128721   3.269   3.372   8.876  0.0580  1.0379 -1.8921
 5753SOL    HW228722   3.160   3.295   8.914  0.8026 -0.8215  0.8757
 5754SOL     OW28723   1.834   1.726   1.447 -0.4606  0.8570 -0.4162
 5754SOL    HW128724   1.895   1.755   1.516 -0.7058  1.6884 -0.5498
 5754SOL    HW228725   1.895   1.657   1.420 -0.3830  0.6102  0.3736
 5755SOL     OW28726   2.653   0.966   2.994 -0.0572 -0.3612 -0.1628
 5755SOL    HW128727   2.686   1.028   2.929  0.4142  1.3660  1.7041
 5755SOL    HW228728   2.737   0.927   3.021 -0.0674 -0.0007  0.3975
 5756SOL     OW28729   3.146   0.169   5.855  0.8413 -0.4033  0.0195
 5756SOL    HW128730   3.091   0.140   5.782  0.0034  1.0254  0.0885
 5756SOL    HW228731   3.203   0.092   5.859 -0.7528 -1.6072 -0.3972
 5757SOL     OW28732   0.650   0.653   4.137 -0.0170  0.1286  1.0659
 5757SOL    HW128733   0.684   0.575   4.094  0.9053  1.5425 -0.7691
 5757SOL    HW228734   0.712   0.668   4.208  0.0147 -3.0150  1.7028
 5758SOL     OW28735   3.052   3.471   2.315 -0.1724 -0.2557  0.4718
 5758SOL    HW128736   3.005   3.552   2.294 -0.4092 -0.8262 -1.1342
 5758SOL    HW228737   3.096   3.461   2.231  0.3259 -0.9026  0.8085
 5759SOL     OW28738   0.377   2.363   5.119 -0.0585 -0.3359 -0.3763
 5759SOL    HW128739   0.311   2.313   5.070  1.2032  0.1362 -2.5543
 5759SOL    HW228740   0.327   2.379   5.200  0.3091  0.2050 -0.2563
 5760SOL     OW28741   0.243   1.466   6.653 -0.5686 -0.4386  0.7738
 5760SOL    HW128742   0.295   1.547   6.659 -3.2243  1.3210 -0.2245
 5760SOL    HW228743   0.213   1.452   6.563  1.7827  0.3200 -0.1445
 5761SOL     OW28744   2.315   1.478   7.684  0.0473 -0.4055 -0.3553
 5761SOL    HW128745   2.259   1.401   7.693  0.1891 -0.5422 -0.6470
 5761SOL    HW228746   2.326   1.497   7.777 -1.5081  0.2313 -0.2836
 5762SOL     OW28747   4.210   0.289  12.694  0.0967  0.1726  0.4760
 5762SOL    HW128748   4.298   0.318  12.669 -0.1207 -0.6672 -1.2317
 5762SOL    HW228749   4.165   0.365  12.731 -0.5058  1.8863 -3.8223
 5763SOL     OW28750   0.238   2.457  17.622 -0.2202  0.2698  0.0716
 5763SOL    HW128751   0.191   2.418  17.548 -1.6560  1.6937  0.2058
 5763SOL    HW228752   0.212   2.404   0.002 -0.1719  1.6548  1.0849
 5764SOL     OW28753   1.388   0.871  17.471 -0.1315 -0.0764 -0.5258
 5764SOL    HW128754   1.371   0.820  17.391 -0.4558 -1.0644  0.1779
 5764SOL    HW228755   1.305   0.915  17.493 -0.7302 -1.7064  0.4503
 5765SOL     OW28756   0.086   3.308  12.305 -0.3122  0.2022  0.6561
 5765SOL    HW128757   0.062   3.305  12.212 -1.7469 -0.3388  1.0585
 5765SOL    HW228758   0.158   3.371  12.305  1.0702 -1.3850 -0.8544
 5766SOL     OW28759   2.792   2.204   5.827 -0.3447 -0.0653 -0.2539
 5766SOL    HW128760   2.698   2.219   5.813 -0.4215 -0.8640 -0.6312
 5766SOL    HW228761   2.803   2.129   5.768 -0.2725 -1.2259  1.2301
 5767SOL     OW28762   4.260   3.944  15.426 -0.3680  0.4111 -0.5240
 5767SOL    HW128763   4.245   3.910  15.514 -0.3157  0.2133 -0.5908
 5767SOL    HW228764   4.274   3.862  15.377 -2.0708 -0.8453  1.0989
 5768SOL     OW28765   0.744   4.180   4.817  0.1573 -0.1594 -0.0572
 5768SOL    HW128766   0.739   4.111   4.883  0.5386 -1.9830 -1.9588
 5768SOL    HW228767   0.727   4.136   4.734 -0.4075  1.2053 -0.6627
 5769SOL     OW28768   1.559   4.053   7.429  0.0759 -0.3895 -0.5458
 5769SOL    HW128769   1.599   4.127   7.475  0.2272  0.4439 -2.0093
 5769SOL    HW228770   1.615   3.980   7.457 -0.7639 -0.5558  0.7279
 5770SOL     OW28771   2.661   4.439   1.795 -0.2056  0.4559 -0.3202
 5770SOL    HW128772   2.739   4.394   1.763 -1.3089  0.3583 -2.8508
 5770SOL    HW228773   2.694   4.515   1.844 -1.4080  0.6902  0.1228
 5771SOL     OW28774   0.889   2.263  17.680  0.0394  0.4676  0.2274
 5771SOL    HW128775   0.883   2.348   0.028 -0.3709  1.0225 -0.9361
 5771SOL    HW228776   0.983   2.251  17.668 -0.1017 -0.4200 -0.0465
 5772SOL     OW28777   3.373   3.768   6.962  0.1222  0.2443 -0.0832
 5772SOL    HW128778   3.295   3.714   6.949  1.7893 -2.4420  1.0581
 5772SOL    HW228779   3.450   3.718   6.934 -0.4467 -0.7862  0.2032
 5773SOL     OW28780   0.028   4.575   3.231 -0.4363  0.2098  0.1616
 5773SOL    HW128781   0.113   4.608   3.201 -0.8966  2.0761  0.9546
 5773SOL    HW228782   4.694   4.613   3.165 -0.8152 -1.8457 -0.7219
 5774SOL     OW28783   4.671   2.820   6.061 -0.8775  0.3450  0.1274
 5774SOL    HW128784   0.009   2.879   6.017 -1.3475  0.8890  0.2057
 5774SOL    HW228785   4.708   2.818   6.149 -0.6861 -1.8114  0.0022
 5775SOL     OW28786   4.307   1.675   6.940 -0.2921 -0.5406 -0.4606
 5775SOL    HW128787   4.243   1.708   7.002 -1.1668  0.7331 -2.0459
 5775SOL    HW228788   4.265   1.594   6.910 -1.8680  1.3037 -3.2211
 5776SOL     OW28789   4.481   0.202  14.702 -0.2451 -0.5336  0.1221
 5776SOL    HW128790   4.531   0.282  14.716  2.2817 -2.2705  1.0731
 5776SOL    HW228791   4.430   0.220  14.780  0.0804  1.0330 -0.0313
 5777SOL     OW28792   2.605   3.212   5.562  0.2069 -0.3373 -0.0330
 5777SOL    HW128793   2.568   3.296   5.534  2.4065  0.8012  0.4320
 5777SOL    HW228794   2.536   3.149   5.544 -0.6524  0.8501 -0.9125
 5778SOL     OW28795   1.096   1.408  11.926  0.0510  0.0592 -0.4653
 5778SOL    HW128796   1.102   1.499  11.956  1.7785  0.2766 -1.4809
 5778SOL    HW228797   1.014   1.380  11.968 -0.5105  0.5708 -1.2268
 5779SOL     OW28798   3.047   3.261   3.337 -0.3480 -0.1450  0.3258
 5779SOL    HW128799   3.083   3.312   3.264 -3.4139 -1.4157 -2.0874
 5779SOL    HW228800   3.123   3.258   3.396  0.4804 -0.7021 -0.7492
 5780SOL     OW28801   3.997   3.932   7.080  0.4782 -0.1313 -1.0197
 5780SOL    HW128802   4.001   3.975   7.166  0.6276 -2.1800 -0.0033
 5780SOL    HW228803   4.053   3.856   7.095  0.7407  0.3076  0.2212
 5781SOL     OW28804   1.016   1.178   0.524  0.2117  0.0199  0.4804
 5781SOL    HW128805   1.044   1.232   0.597 -0.5006  0.7309  0.2239
 5781SOL    HW228806   1.076   1.196   0.452  0.5746 -2.0669  0.2410
 5782SOL     OW28807   1.293   0.613   3.128 -0.5281 -0.2453  0.4948
 5782SOL    HW128808   1.237   0.537   3.146 -0.0165 -0.6691  0.2898
 5782SOL    HW228809   1.234   0.669   3.078  0.8046  0.3543 -0.3774
 5783SOL     OW28810   3.995   1.129   2.787  0.0068 -0.7983 -0.6112
 5783SOL    HW128811   3.970   1.038   2.803 -0.8663 -0.4405  0.0958
 5783SOL    HW228812   4.087   1.120   2.812 -0.1654 -0.1904  0.2333
 5784SOL     OW28813   0.607   2.660   0.945 -0.6083 -0.1056 -0.0632
 5784SOL    HW128814   0.661   2.595   0.900 -1.2737 -1.1680  0.6726
 5784SOL    HW228815   0.550   2.595   0.987  0.8808 -1.0648  0.4594
 5785SOL     OW28816   0.662   0.160   4.135  0.3358  0.5000 -0.0277
 5785SOL    HW128817   0.706   0.091   4.184  0.5531 -0.3641 -1.4518
 5785SOL    HW228818   0.581   0.118   4.108  0.5459 -0.4856  0.8682
 5786SOL     OW28819   3.859   4.591   7.629 -0.4862 -0.0958 -0.5258
 5786SOL    HW128820   3.824   4.515   7.675 -2.0246  0.7165 -0.3655
 5786SOL    HW228821   3.839   4.573   7.537  4.1244  1.6123 -1.8761
 5787SOL     OW28822   2.540   2.375  13.604 -0.4938  0.3399 -0.2676
 5787SOL    HW128823   2.530   2.291  13.558 -2.5794  0.1174  0.5967
 5787SOL    HW228824   2.486   2.433  13.551  0.1883 -0.1446 -1.4887
 5788SOL     OW28825   1.325   0.335   8.154 -0.0258  0.4245 -0.8177
 5788SOL    HW128826   1.361   0.246   8.160  1.8836  1.3396  1.3445
 5788SOL    HW228827   1.304   0.335   8.248  2.9027  0.4212 -0.1578
 5789SOL     OW28828   0.829   0.282  17.313  0.4294 -0.7753  0.0933
 5789SOL    HW128829   0.739   0.280  17.345  1.3199  1.3213  2.7595
 5789SOL    HW228830   0.868   0.299  17.398  1.0423  0.0123 -0.3421
 5790SOL     OW28831   2.186   0.303  16.945  0.3024  0.1196  0.0439
 5790SOL    HW128832   2.198   0.346  16.861  0.5411  2.3453  1.2319
 5790SOL    HW228833   2.091   0.302  16.958  0.3145  0.4985  0.1604
 5791SOL     OW28834   1.310   3.329  14.583  0.1670 -0.3989 -0.9070
 5791SOL    HW128835   1.266   3.278  14.650 -1.5951  2.1048 -0.1976
 5791SOL    HW228836   1.284   3.419  14.601  1.4405 -0.0368 -0.8359
 5792SOL     OW28837   1.006   4.650   9.174 -0.5153  0.0724 -0.4499
 5792SOL    HW128838   0.952   4.586   9.220 -1.1572  0.3641 -0.7965
 5792SOL    HW228839   1.074   4.681   9.234 -0.5211  0.9351 -0.8969
 5793SOL     OW28840   0.385   0.319   6.878 -0.1655  0.3995 -0.1285
 5793SOL    HW128841   0.473   0.285   6.862  0.3163  1.6030 -0.0562
 5793SOL    HW228842   0.401   0.389   6.941  0.4544  2.1102 -2.1851
 5794SOL     OW28843   1.703   2.897  13.323 -0.2633  0.2362  0.3036
 5794SOL    HW128844   1.776   2.959  13.321 -0.5017  0.5058  0.0287
 5794SOL    HW228845   1.637   2.956  13.287 -3.1888 -2.0000  1.9776
 5795SOL     OW28846   3.375   3.259  10.994 -0.1838  0.1802  0.1939
 5795SOL    HW128847   3.444   3.256  10.928 -1.4799  1.8749 -1.2581
 5795SOL    HW228848   3.423   3.297  11.068 -0.5342  1.8710 -0.4380
 5796SOL     OW28849   3.475   3.737   4.499  0.4503 -0.1213 -0.3074
 5796SOL    HW128850   3.449   3.797   4.569  0.5421  2.0938 -2.2078
 5796SOL    HW228851   3.391   3.702   4.470  0.1885 -1.5859  2.2436
 5797SOL     OW28852   1.166   4.507   9.692 -0.2616 -0.5542  0.2632
 5797SOL    HW128853   1.193   4.577   9.752 -1.0702 -1.1598  1.3244
 5797SOL    HW228854   1.149   4.431   9.747  1.7174  0.0892  1.7627
 5798SOL     OW28855   1.613   1.005  14.592  0.0057 -0.2306  0.2566
 5798SOL    HW128856   1.627   0.980  14.501 -0.0117  1.7674 -0.2729
 5798SOL    HW228857   1.580   1.094  14.580  1.6258  0.1781 -1.1519
 5799SOL     OW28858   0.427   2.566   5.618  0.3517 -0.3824 -0.1492
 5799SOL    HW128859   0.507   2.566   5.565  1.3413 -0.4225  1.3534
 5799SOL    HW228860   0.447   2.506   5.689  1.4608  0.9342  0.6529
 5800SOL     OW28861   4.554   0.994  11.635 -0.1009 -0.3698  0.1163
 5800SOL    HW128862   4.499   1.040  11.698  1.1358  0.2494  0.7400
 5800SOL    HW228863   4.625   1.053  11.609  0.3034 -1.6190 -1.6526
 5801SOL     OW28864   3.142   3.141   0.253  0.2695 -0.0731 -0.1131
 5801SOL    HW128865   3.203   3.194   0.304 -1.4933 -0.7991  2.7914
 5801SOL    HW228866   3.188   3.057   0.257 -0.6129 -0.5607 -0.0597
 5802SOL     OW28867   3.655   1.264  10.986 -0.4528  0.0798 -0.6029
 5802SOL    HW128868   3.695   1.232  11.067  0.0318  0.7885 -0.5574
 5802SOL    HW228869   3.708   1.212  10.925  1.6275 -0.6399  1.8392
 5803SOL     OW28870   2.231   0.654  17.535  0.4056  0.2617 -0.0905
 5803SOL    HW128871   2.246   0.682  17.625 -0.2580  0.4517 -0.0368
 5803SOL    HW228872   2.138   0.678  17.528  0.4356  0.7269  1.1719
 5804SOL     OW28873   3.380   1.309   6.722 -0.3428 -0.2754 -0.2225
 5804SOL    HW128874   3.413   1.394   6.750 -0.2122  0.2754 -2.0254
 5804SOL    HW228875   3.443   1.246   6.757  0.3561  1.8675  2.2906
 5805SOL     OW28876   4.087   1.423  17.393  0.8283 -0.3136  0.1946
 5805SOL    HW128877   4.106   1.483  17.466  0.8706  0.6329 -0.5961
 5805SOL    HW228878   4.004   1.461  17.363  0.7262 -1.2943 -0.7822
 5806SOL     OW28879   3.357   0.906   9.469 -0.2260  0.1435 -0.6892
 5806SOL    HW128880   3.409   0.977   9.432  0.4461 -0.0449 -0.1094
 5806SOL    HW228881   3.422   0.871   9.530  0.1201  1.3713 -0.3535
 5807SOL     OW28882   4.595   0.818   7.156 -0.1890  0.2602  0.2812
 5807SOL    HW128883   4.614   0.728   7.182 -1.2925 -0.2616 -0.7392
 5807SOL    HW228884   4.523   0.800   7.096  0.9023 -1.1023 -0.6350
 5808SOL     OW28885   1.503   4.550   6.151  0.2804 -0.3966 -0.2842
 5808SOL    HW128886   1.547   4.524   6.232  0.5964 -3.5101 -1.4642
 5808SOL    HW228887   1.556   4.618   6.109 -0.5885 -0.3045 -1.2378
 5809SOL     OW28888   2.681   2.516   2.000 -0.1076 -0.1605  0.0885
 5809SOL    HW128889   2.596   2.540   1.963  0.7030  0.8760 -1.1466
 5809SOL    HW228890   2.704   2.598   2.043 -3.2906 -0.5248  2.4785
 5810SOL     OW28891   1.917   3.242  15.682  0.1635  0.5144 -0.8454
 5810SOL    HW128892   1.834   3.258  15.638  1.5720  0.0754 -3.6639
 5810SOL    HW228893   1.973   3.214  15.609  0.4591  2.7237 -1.4462
 5811SOL     OW28894   1.992   3.399   9.189  0.3265 -0.4364 -0.3039
 5811SOL    HW128895   2.000   3.488   9.224  0.1379 -0.6375  0.2389
 5811SOL    HW228896   1.915   3.413   9.134  0.9714  1.3880 -0.7582
 5812SOL     OW28897   0.875   1.787  16.855 -0.6142 -0.2775  0.3092
 5812SOL    HW128898   0.812   1.847  16.817  0.7137  0.6837 -0.3382
 5812SOL    HW228899   0.881   1.806  16.949 -0.7206 -0.9899  0.4632
 5813SOL     OW28900   0.845   2.900   5.596  0.3837  0.0018 -0.1176
 5813SOL    HW128901   0.823   2.953   5.672  1.6236 -1.3533  1.1706
 5813SOL    HW228902   0.840   2.964   5.525 -2.1749 -1.2418 -1.0619
 5814SOL     OW28903   4.133   1.602   6.349  0.5786 -0.4134  0.8711
 5814SOL    HW128904   4.091   1.546   6.284  0.6023  0.1693  0.3644
 5814SOL    HW228905   4.064   1.635   6.406  0.3821  1.9531 -0.7583
 5815SOL     OW28906   4.134   1.487   6.841  0.0984 -0.7764 -0.7260
 5815SOL    HW128907   4.067   1.554   6.834  0.8285 -0.2039 -2.0883
 5815SOL    HW228908   4.101   1.420   6.901  0.9709 -0.8930 -0.3842
 5816SOL     OW28909   3.647   2.029  11.944 -0.2631  0.7185  0.0501
 5816SOL    HW128910   3.569   2.084  11.937 -0.3568  0.4407 -1.0659
 5816SOL    HW228911   3.619   1.952  11.993  1.4660 -0.1482 -0.3249
 5817SOL     OW28912   0.365   1.022   0.599  0.4154 -0.2547 -0.1636
 5817SOL    HW128913   0.410   1.095   0.642 -0.0020 -0.5239  0.7264
 5817SOL    HW228914   0.432   0.956   0.615  0.0204 -0.9085 -1.1921
 5818SOL     OW28915   4.180   1.406  16.919  0.3101  0.1143 -1.0155
 5818SOL    HW128916   4.147   1.352  16.991 -2.0310 -1.4153 -3.2044
 5818SOL    HW228917   4.153   1.351  16.845 -1.5546  1.2332 -1.1871
 5819SOL     OW28918   3.821   4.536   7.367 -0.4897 -0.0748  0.4093
 5819SOL    HW128919   3.886   4.525   7.297  0.8544  1.5951  1.4191
 5819SOL    HW228920   3.751   4.566   7.309 -0.5643 -1.3597 -0.1879
 5820SOL     OW28921   0.947   1.408   9.265  0.0537 -0.3994 -0.5802
 5820SOL    HW128922   0.995   1.489   9.281 -0.4446 -0.2958  0.4509
 5820SOL    HW228923   0.998   1.374   9.192 -1.3748 -0.0828 -1.7286
 5821SOL     OW28924   1.818   2.483  17.179  0.2435  0.3941  0.2019
 5821SOL    HW128925   1.791   2.573  17.158 -2.3184 -0.5483 -0.5736
 5821SOL    HW228926   1.730   2.447  17.196  0.5224 -0.9070 -1.1583
 5822SOL     OW28927   1.650   2.012   8.941  0.0523  0.3213 -0.1190
 5822SOL    HW128928   1.595   1.967   9.005 -2.7499  3.1043 -0.5483
 5822SOL    HW228929   1.681   2.086   8.994  0.0507 -0.9944  1.7306
 5823SOL     OW28930   2.503   2.493   9.519  0.0946 -0.2562  0.2192
 5823SOL    HW128931   2.574   2.438   9.484 -0.4731 -1.0889  0.3942
 5823SOL    HW228932   2.456   2.418   9.552  1.4024 -0.7978  0.8369
 5824SOL     OW28933   0.083   4.370   1.716 -0.0229 -0.6081  0.0189
 5824SOL    HW128934   0.015   4.325   1.666  0.4551  2.0460 -3.0759
 5824SOL    HW228935   0.081   4.319   1.796 -0.6877  0.7173  0.8413
 5825SOL     OW28936   3.682   4.475   1.135  0.2732  0.1762  0.3044
 5825SOL    HW128937   3.673   4.569   1.118  2.4909  0.8209  2.8776
 5825SOL    HW228938   3.636   4.468   1.218  2.2527 -3.2379  1.1165
 5826SOL     OW28939   0.336   2.549  13.592  0.0670  0.0191 -0.5889
 5826SOL    HW128940   0.392   2.507  13.526  0.9747 -0.9340  0.8007
 5826SOL    HW228941   0.275   2.480  13.616 -0.4344  0.7602  0.2849
 5827SOL     OW28942   3.219   2.480   8.116 -0.0724 -0.0710  0.5951
 5827SOL    HW128943   3.225   2.476   8.212  1.6412  1.6776  0.5652
 5827SOL    HW228944   3.137   2.527   8.107  0.9548  1.4760 -0.6701
 5828SOL     OW28945   2.362   1.382  14.280  0.6858  0.3708  0.5011
 5828SOL    HW128946   2.369   1.423  14.366 -1.8775 -0.8796  1.3241
 5828SOL    HW228947   2.269   1.399  14.265  1.5523  2.6152 -2.2730
 5829SOL     OW28948   3.368   3.295   1.531  0.5076 -0.0464  0.0467
 5829SOL    HW128949   3.440   3.351   1.561 -0.3637  1.2943 -0.3409
 5829SOL    HW228950   3.404   3.264   1.448  2.8979 -0.1468  1.1055
 5830SOL     OW28951   0.304   1.107   3.821 -0.3826  0.4137  0.0252
 5830SOL    HW128952   0.395   1.079   3.814 -1.1641 -2.0425 -0.6013
 5830SOL    HW228953   0.256   1.028   3.848  1.2774 -0.5681  0.1233
 5831SOL     OW28954   2.286   3.613   0.115 -0.1984  0.4054 -0.6628
 5831SOL    HW128955   2.304   3.646   0.203 -3.5855  0.3030  0.0470
 5831SOL    HW228956   2.348   3.672   0.071  0.0633 -0.4319 -1.3954
 5832SOL     OW28957   3.276   3.697   5.869 -0.1087  0.4255 -0.2180
 5832SOL    HW128958   3.251   3.653   5.787  0.4751 -0.0741 -0.1302
 5832SOL    HW228959   3.313   3.620   5.912 -0.3441 -0.3223 -1.3368
 5833SOL     OW28960   1.037   0.185  10.718  0.1437  0.2167 -0.7260
 5833SOL    HW128961   0.941   0.181  10.723  0.2147  0.0098  0.5864
 5833SOL    HW228962   1.055   0.146  10.633  0.4692  1.9112 -1.4258
 5834SOL     OW28963   3.802   4.487   3.738  0.2041  0.8401  0.2086
 5834SOL    HW128964   3.859   4.561   3.714  2.5231 -0.6042  1.2847
 5834SOL    HW228965   3.812   4.487   3.833  2.3346  2.0321 -0.0160
 5835SOL     OW28966   2.577   2.325   3.182  0.0659 -0.4774  0.5568
 5835SOL    HW128967   2.515   2.288   3.119  0.3248  1.3717 -0.7949
 5835SOL    HW228968   2.571   2.270   3.259 -2.8309 -0.3378  0.4120
 5836SOL     OW28969   0.252   3.582  17.039 -0.6238  0.3661  0.1397
 5836SOL    HW128970   0.324   3.601  17.100 -0.4180  0.5055 -0.1481
 5836SOL    HW228971   0.267   3.490  17.018 -1.4190  0.7478 -2.0498
 5837SOL     OW28972   1.634   3.486  12.138  0.0274 -0.0032 -0.3063
 5837SOL    HW128973   1.708   3.466  12.081 -1.6396 -0.1284 -2.4400
 5837SOL    HW228974   1.562   3.431  12.106  0.6379 -0.0157 -1.6282
 5838SOL     OW28975   0.720   3.803  12.268  0.1696  0.1902  0.2621
 5838SOL    HW128976   0.723   3.741  12.341 -2.8877  1.1702  1.2146
 5838SOL    HW228977   0.797   3.771  12.220  0.2804  1.2392 -0.2675
 5839SOL     OW28978   3.747   4.702   7.093 -0.1361  0.1500  0.6368
 5839SOL    HW128979   3.761   4.695   6.998  0.9431  1.1257  0.7250
 5839SOL    HW228980   3.837   4.708   7.124  0.5363 -2.6206 -0.6804
 5840SOL     OW28981   3.367   0.880   9.030 -0.0033 -0.4753  0.2471
 5840SOL    HW128982   3.455   0.854   9.004  0.8525  0.4779  2.2394
 5840SOL    HW228983   3.351   0.817   9.101  1.6121  1.3781  2.2796
 5841SOL     OW28984   3.775   2.845  12.541  0.1997 -0.3047  0.0988
 5841SOL    HW128985   3.791   2.757  12.506 -1.4297  0.1831 -1.8511
 5841SOL    HW228986   3.701   2.871  12.486  0.5779 -1.9112 -1.1425
 5842SOL     OW28987   0.068   4.279   7.030 -0.2818  0.0279  0.3578
 5842SOL    HW128988   0.035   4.309   6.945  2.7795  0.1361 -0.8039
 5842SOL    HW228989   0.034   4.351   7.083  0.5397 -0.4729  1.5492
 5843SOL     OW28990   0.034   4.278   6.069  0.1602  0.0572 -0.0636
 5843SOL    HW128991   4.699   4.273   5.993  1.0462  0.0019 -0.7391
 5843SOL    HW228992   0.105   4.330   6.031  0.2456 -0.4978 -0.6727
 5844SOL     OW28993   4.700   1.189   6.874 -0.0384  0.1639 -0.2900
 5844SOL    HW128994   4.623   1.147   6.835 -0.2463  1.7741 -1.6211
 5844SOL    HW228995   4.688   1.174   6.968 -1.0304  0.4517 -0.3617
 5845SOL     OW28996   1.673   4.467  16.076  0.0928 -0.2057 -0.2049
 5845SOL    HW128997   1.634   4.416  16.147  1.0082 -0.9757 -0.2620
 5845SOL    HW228998   1.607   4.444  16.011  1.3068 -0.8030 -1.2079
 5846SOL     OW28999   4.184   0.230  11.169  0.0310  0.5248  0.3472
 5846SOL    HW129000   4.199   0.296  11.237  0.1465  1.6367 -0.7572
 5846SOL    HW229001   4.140   0.168  11.227  0.5694  0.6851  0.9298
 5847SOL     OW29002   3.336   4.124  13.630 -0.5880  0.0907 -0.0174
 5847SOL    HW129003   3.335   4.097  13.538  0.1652 -0.9662  0.2895
 5847SOL    HW229004   3.403   4.071  13.672  0.8376  1.1597 -0.9804
 5848SOL     OW29005   4.286   2.560   1.718  0.5683  0.1978  0.9428
 5848SOL    HW129006   4.329   2.644   1.704  1.8570 -0.6380 -0.2130
 5848SOL    HW229007   4.348   2.494   1.685  0.7325  0.2048  1.2377
 5849SOL     OW29008   0.666   2.842   5.954 -0.2405  0.6769  0.1790
 5849SOL    HW129009   0.739   2.900   5.930  1.0928 -1.2881 -0.5292
 5849SOL    HW229010   0.618   2.834   5.872  0.2590 -0.9891  0.0473
 5850SOL     OW29011   1.014   0.779  14.928  0.2126 -0.3524  0.2359
 5850SOL    HW129012   1.058   0.736  14.855 -0.9932 -3.0865  1.1432
 5850SOL    HW229013   1.087   0.824  14.970  0.7992 -0.4425 -0.6977
 5851SOL     OW29014   3.641   3.984  12.631 -0.3247  0.4434 -0.2246
 5851SOL    HW129015   3.688   3.932  12.696  0.4393  1.0382 -0.3027
 5851SOL    HW229016   3.552   3.950  12.643 -0.9475  1.6367 -1.4109
 5852SOL     OW29017   4.697   0.353   4.538 -0.0220 -0.1241  0.3091
 5852SOL    HW129018   4.635   0.367   4.467  2.3268 -0.4487 -1.8204
 5852SOL    HW229019   0.059   0.365   4.495 -0.4072 -2.0942 -1.0076
 5853SOL     OW29020   2.484   4.517  13.073 -0.0444 -1.5810  0.0419
 5853SOL    HW129021   2.414   4.575  13.043  1.6132  0.2100 -0.3627
 5853SOL    HW229022   2.509   4.474  12.992 -0.6305  0.0312 -1.0113
 5854SOL     OW29023   4.140   1.051   1.012 -0.4187 -0.7116 -0.2909
 5854SOL    HW129024   4.227   1.042   0.973  0.1538  0.8686  0.6069
 5854SOL    HW229025   4.153   1.090   1.099 -1.2511  0.3458 -0.6522
 5855SOL     OW29026   1.871   1.073   6.053 -0.4115  0.4472 -0.5356
 5855SOL    HW129027   1.819   1.150   6.076 -1.5674 -0.6304  0.5105
 5855SOL    HW229028   1.922   1.051   6.130  2.5482  1.2018 -2.2789
 5856SOL     OW29029   2.836   2.022   8.849 -0.2320 -1.1879  0.1079
 5856SOL    HW129030   2.825   1.977   8.933  0.0201 -2.1390 -0.3605
 5856SOL    HW229031   2.906   2.082   8.876 -0.8944 -0.5955  0.4832
 5857SOL     OW29032   4.427   2.444   4.881  0.0016 -0.1266 -0.6175
 5857SOL    HW129033   4.359   2.377   4.885  3.5183 -3.6903 -1.2915
 5857SOL    HW229034   4.430   2.461   4.787 -0.1313  0.4783 -0.5127
 5858SOL     OW29035   0.337   3.588   4.791  0.0422 -0.3713  0.4330
 5858SOL    HW129036   0.243   3.571   4.797  0.3041 -2.0259 -0.0239
 5858SOL    HW229037   0.361   3.506   4.834  1.2437  0.7336  1.8957
 5859SOL     OW29038   2.437   3.501  16.697  0.0556 -0.0505  0.5468
 5859SOL    HW129039   2.464   3.534  16.783 -1.1053  0.2391  0.7953
 5859SOL    HW229040   2.525   3.499  16.660  0.6475  0.0706  1.9412
 5860SOL     OW29041   3.251   0.158   6.446 -0.2552 -0.3538 -0.4683
 5860SOL    HW129042   3.253   0.186   6.355 -0.7623 -1.5691 -0.8615
 5860SOL    HW229043   3.341   0.165   6.478 -0.2420 -2.7306  0.0675
 5861SOL     OW29044   2.973   3.652   5.789  0.0373 -0.9918 -0.2410
 5861SOL    HW129045   2.958   3.622   5.878 -0.9476 -1.1176 -0.4463
 5861SOL    HW229046   2.891   3.621   5.750  0.7759 -0.9967 -1.7941
 5862SOL     OW29047   0.919   4.662   5.386  0.0125  0.5191 -0.1697
 5862SOL    HW129048   0.937   4.652   5.480 -0.4751  1.7001  0.0468
 5862SOL    HW229049   1.006   4.667   5.347  0.2101  1.1457  0.3700
 5863SOL     OW29050   2.110   1.078   4.212  0.3173  0.5378 -0.2817
 5863SOL    HW129051   2.113   1.075   4.307 -0.8566 -1.5881 -0.2975
 5863SOL    HW229052   2.062   1.160   4.200 -2.6073 -1.2135 -0.6134
 5864SOL     OW29053   1.041   4.564   0.911  0.1938 -0.6137  0.1125
 5864SOL    HW129054   0.960   4.606   0.881 -0.7698 -2.5025  0.1013
 5864SOL    HW229055   1.029   4.470   0.899  2.6278 -0.8261 -0.5575
 5865SOL     OW29056   1.947   3.021  11.359  0.4105 -0.0764  0.2734
 5865SOL    HW129057   1.883   2.955  11.388  0.4280  0.6168  1.8972
 5865SOL    HW229058   1.908   3.062  11.282  1.9110 -1.0903 -1.0212
 5866SOL     OW29059   3.784   3.581   1.001 -0.1289  0.2798 -0.1632
 5866SOL    HW129060   3.800   3.539   0.917  0.8791  0.2929  0.0179
 5866SOL    HW229061   3.794   3.670   0.968  1.4815 -0.4030 -1.4869
 5867SOL     OW29062   0.615   4.151   8.288  0.0150  0.1916 -0.4342
 5867SOL    HW129063   0.608   4.070   8.338 -0.2165  0.7930  0.5024
 5867SOL    HW229064   0.689   4.199   8.328 -0.8679 -0.2455  1.7221
 5868SOL     OW29065   1.950   1.285   3.813  0.2676 -0.4345  0.8040
 5868SOL    HW129066   1.913   1.349   3.873 -2.7899 -0.9701 -0.4795
 5868SOL    HW229067   1.892   1.298   3.738  1.1544  0.3094  0.2529
 5869SOL     OW29068   4.575   4.200   9.264 -0.3222 -0.4094 -0.6317
 5869SOL    HW129069   4.544   4.123   9.217  0.4064 -0.9524 -0.2226
 5869SOL    HW229070   4.614   4.258   9.199  1.5056 -1.5561 -0.5413
 5870SOL     OW29071   4.214   0.898   3.255  0.1692  0.7712  0.2223
 5870SOL    HW129072   4.155   0.931   3.187 -0.1665  0.7119  0.4844
 5870SOL    HW229073   4.261   0.976   3.284  0.9661 -0.0761  1.2028
 5871SOL     OW29074   0.241   3.237   9.010  0.5095  0.0390 -0.6256
 5871SOL    HW129075   0.280   3.325   9.014 -1.0712  0.6034  2.0222
 5871SOL    HW229076   0.172   3.240   9.076  0.0648  1.0498 -1.1316
 5872SOL     OW29077   3.439   4.022   7.074  0.8598 -0.0494 -0.3584
 5872SOL    HW129078   3.382   3.956   7.033  0.1766  0.1536  0.2808
 5872SOL    HW229079   3.503   3.977   7.129  1.3722 -2.3206 -2.7686
 5873SOL     OW29080   1.232   4.294  10.763  0.4145 -0.2500 -0.1722
 5873SOL    HW129081   1.229   4.389  10.774 -3.2530 -0.4053  0.2383
 5873SOL    HW229082   1.318   4.276  10.801 -0.7583 -2.3753  1.4792
 5874SOL     OW29083   0.056   1.301   9.298  0.7114  0.0819  0.1545
 5874SOL    HW129084   0.034   1.390   9.271 -0.7755  0.0934  1.3902
 5874SOL    HW229085   0.085   1.260   9.216  1.6688 -0.4621  0.7553
 5875SOL     OW29086   0.284   2.628  14.563  0.3567  0.1929 -0.1390
 5875SOL    HW129087   0.330   2.551  14.530  1.1730  0.5654  0.1164
 5875SOL    HW229088   0.222   2.592  14.626 -0.4072  0.2500 -0.8521
 5876SOL     OW29089   3.222   4.448  11.189 -0.3098 -0.5305  0.7566
 5876SOL    HW129090   3.226   4.354  11.205  0.5648 -0.9587 -1.9683
 5876SOL    HW229091   3.287   4.473  11.255 -1.2482  0.9731  1.1250
 5877SOL     OW29092   4.684   0.936   0.717 -0.6965 -0.7149  0.0632
 5877SOL    HW129093   4.693   1.024   0.753  2.7925 -1.4113  0.8063
 5877SOL    HW229094   0.008   0.944   0.634 -0.3976 -1.2931  0.1762
 5878SOL     OW29095   3.701   3.651   2.542 -0.1935 -0.1775  0.0097
 5878SOL    HW129096   3.659   3.737   2.539  0.3797  0.1585  1.9675
 5878SOL    HW229097   3.750   3.655   2.460  1.3765 -0.1875  0.9512
 5879SOL     OW29098   2.783   3.188   3.422  0.8048  0.9136  0.0099
 5879SOL    HW129099   2.875   3.175   3.401  0.6876  0.1773 -0.0573
 5879SOL    HW229100   2.788   3.282   3.436  0.8851  0.6025  2.0915
 5880SOL     OW29101   4.092   2.564   7.280  0.6599  0.1229  0.1606
 5880SOL    HW129102   4.025   2.566   7.347  0.1688  3.0841 -0.4360
 5880SOL    HW229103   4.077   2.653   7.250  0.0711 -0.2460 -0.6235
 5881SOL     OW29104   1.960   1.818   4.258 -0.3312  0.0870  0.0334
 5881SOL    HW129105   1.984   1.909   4.279 -0.7254 -0.4907  2.9623
 5881SOL    HW229106   1.874   1.805   4.296  0.8848 -4.0853  1.3873
 5882SOL     OW29107   0.455   0.970   7.305  0.0150  0.2147  0.2177
 5882SOL    HW129108   0.466   0.938   7.215  1.8450  0.6385  0.3018
 5882SOL    HW229109   0.545   0.996   7.323  1.1191 -1.4821 -2.8388
 5883SOL     OW29110   4.519   4.337   8.189  0.6802 -0.0687 -0.5788
 5883SOL    HW129111   4.510   4.266   8.126 -0.0534 -2.7895  2.5685
 5883SOL    HW229112   4.447   4.311   8.247 -1.0954 -0.3183 -2.8933
 5884SOL     OW29113   4.029   0.624  14.978 -0.5379  0.2344  0.0438
 5884SOL    HW129114   4.003   0.605  14.887  0.4930  2.3051 -0.6814
 5884SOL    HW229115   3.969   0.567  15.025  0.3117 -0.8854 -0.2044
 5885SOL     OW29116   0.991   2.188  12.631 -0.1108 -0.1787  0.2820
 5885SOL    HW129117   0.939   2.167  12.553  0.2848 -2.8333  0.7298
 5885SOL    HW229118   1.059   2.122  12.619 -0.1494 -0.2174  0.2713
 5886SOL     OW29119   1.538   3.353   8.045 -0.1947 -0.3196 -0.7862
 5886SOL    HW129120   1.552   3.259   8.060  1.1721 -0.0635 -0.4505
 5886SOL    HW229121   1.617   3.392   8.083 -1.8610  1.9883  0.3030
 5887SOL     OW29122   0.350   3.044  10.758 -0.1298  0.1193 -0.2944
 5887SOL    HW129123   0.387   3.087  10.681 -0.3535 -0.6295 -0.8223
 5887SOL    HW229124   0.434   3.043  10.804 -0.6181  0.2913  0.5987
 5888SOL     OW29125   2.273   1.110   7.078 -0.2177  0.5140  0.1308
 5888SOL    HW129126   2.341   1.071   7.133 -0.4536  1.0207  0.7849
 5888SOL    HW229127   2.201   1.053   7.106  1.8115 -1.8823  0.5404
 5889SOL     OW29128   4.292   1.939  10.244  0.0120  0.0845  0.1142
 5889SOL    HW129129   4.319   1.962  10.333 -2.4253  1.7167  0.4547
 5889SOL    HW229130   4.266   1.847  10.252 -1.8097  0.6284  0.6972
 5890SOL     OW29131   0.271   0.462  14.930 -0.1587 -0.0596 -0.2308
 5890SOL    HW129132   0.232   0.529  14.986 -1.1894 -1.7206  1.0195
 5890SOL    HW229133   0.216   0.386  14.945 -0.1275  0.0864  0.6330
 5891SOL     OW29134   4.109   3.842  10.091  0.4258  0.2058 -0.1845
 5891SOL    HW129135   4.072   3.756  10.072  0.4670  0.3883 -1.1011
 5891SOL    HW229136   4.042   3.900  10.055  1.0979  0.7509 -0.5576
 5892SOL     OW29137   2.498   4.333   7.574  0.3506 -0.2095 -0.1992
 5892SOL    HW129138   2.574   4.359   7.523  1.2535 -0.6193  0.9494
 5892SOL    HW229139   2.448   4.281   7.511 -1.1912 -1.6317  2.1923
 5893SOL     OW29140   4.153   4.310   2.034  0.3510  0.2307  0.1545
 5893SOL    HW129141   4.158   4.237   2.095 -1.9164  1.5096  1.8612
 5893SOL    HW229142   4.188   4.369   2.101 -2.3175  1.0327  0.8429
 5894SOL     OW29143   0.271   3.966   7.465 -0.5635  0.4108 -0.0280
 5894SOL    HW129144   0.337   4.034   7.449 -0.9701  0.1542 -2.9255
 5894SOL    HW229145   0.308   3.925   7.542 -1.3780 -0.3701 -0.0538
 5895SOL     OW29146   0.692   1.912  17.353 -0.1667  0.3230  0.4620
 5895SOL    HW129147   0.606   1.955  17.360  0.2217  1.0916  0.5400
 5895SOL    HW229148   0.749   1.976  17.396  1.7012 -0.0015 -1.5801
 5896SOL     OW29149   0.022   3.268   9.185  0.4938 -0.1771  0.3394
 5896SOL    HW129150   0.022   3.339   9.248 -1.7902  0.3734 -0.2811
 5896SOL    HW229151   4.652   3.246   9.184  0.3554  0.4215  0.0748
 5897SOL     OW29152   4.353   2.035   4.116 -0.0333  0.0023 -0.4329
 5897SOL    HW129153   4.302   2.082   4.049 -0.0517 -2.1051 -1.8997
 5897SOL    HW229154   4.280   2.026   4.177 -0.9056 -3.9684 -2.0539
 5898SOL     OW29155   4.224   3.211   4.346  0.0092 -0.2284  0.6655
 5898SOL    HW129156   4.316   3.208   4.372  0.4049 -0.1854 -0.7121
 5898SOL    HW229157   4.231   3.185   4.254  2.8449  3.4168 -0.1915
 5899SOL     OW29158   1.749   4.571   6.384 -0.1550  0.5807 -0.5211
 5899SOL    HW129159   1.762   4.601   6.295 -0.4934 -0.3182 -0.8756
 5899SOL    HW229160   1.696   4.644   6.418 -2.4623 -1.2766 -0.0651
 5900SOL     OW29161   1.930   3.821   4.991  0.2799 -0.0703  1.0924
 5900SOL    HW129162   1.983   3.900   4.980 -0.9076  0.3626 -1.4583
 5900SOL    HW229163   1.851   3.864   5.023 -0.3200 -0.5767  0.3192
 5901SOL     OW29164   0.156   3.294   5.649  0.5158  0.1525 -0.4888
 5901SOL    HW129165   0.195   3.380   5.633  2.9379 -0.2434  3.1972
 5901SOL    HW229166   0.084   3.294   5.587  0.4238  0.5195 -0.3829
 5902SOL     OW29167   1.266   3.343   7.982  0.1189  0.3149 -0.6595
 5902SOL    HW129168   1.348   3.385   8.008  0.7944 -0.8679 -0.8596
 5902SOL    HW229169   1.284   3.249   7.984 -0.4858  0.1520 -3.7863
 5903SOL     OW29170   2.807   3.149   3.777 -1.3335 -0.3609  0.0188
 5903SOL    HW129171   2.776   3.174   3.864 -0.5708 -1.0744  0.4971
 5903SOL    HW229172   2.835   3.233   3.742  1.4325 -1.9384 -1.5196
 5904SOL     OW29173   0.855   3.834  11.135  0.0393 -0.1974 -0.6247
 5904SOL    HW129174   0.875   3.927  11.123  0.5243 -0.0840  1.1116
 5904SOL    HW229175   0.769   3.840  11.178  0.3296  2.8008 -0.4295
 5905SOL     OW29176   0.661   3.984   3.381  0.2516 -0.2171 -0.0263
 5905SOL    HW129177   0.638   4.039   3.306  0.7617 -0.2367 -0.1992
 5905SOL    HW229178   0.595   4.013   3.444  2.3920  0.4851  1.9168
 5906SOL     OW29179   1.156   0.011   1.925 -0.4083  0.1362 -0.5668
 5906SOL    HW129180   1.239   4.690   1.908  0.4535  1.1319  1.0234
 5906SOL    HW229181   1.194   0.097   1.945  1.3044 -0.4398 -1.3197
 5907SOL     OW29182   1.656   2.549   3.877 -0.2498 -0.0087 -0.2512
 5907SOL    HW129183   1.704   2.491   3.936  0.2041  2.6690  2.0136
 5907SOL    HW229184   1.617   2.483   3.820 -0.8637  0.2163 -0.0887
 5908SOL     OW29185   3.181   3.150   2.188 -0.1629 -0.2911 -0.3552
 5908SOL    HW129186   3.204   3.072   2.138  0.6346 -0.5855  0.4740
 5908SOL    HW229187   3.254   3.176   2.243 -0.2187  0.7038 -0.7499
 5909SOL     OW29188   3.914   2.273   4.060  0.5070 -0.1351 -0.6235
 5909SOL    HW129189   3.848   2.203   4.058  1.4359 -1.0661  1.1657
 5909SOL    HW229190   3.864   2.338   4.011  1.7217  0.5775 -0.8981
 5910SOL     OW29191   1.918   2.466   2.561  0.3772  0.6993 -0.5091
 5910SOL    HW129192   1.977   2.466   2.637 -1.4964 -1.9705  0.9442
 5910SOL    HW229193   1.862   2.540   2.583  0.8647  1.5693 -2.1873
 5911SOL     OW29194   3.267   0.904  16.838 -0.0725 -0.4233 -0.1905
 5911SOL    HW129195   3.212   0.982  16.848  0.8881  0.4318 -1.5171
 5911SOL    HW229196   3.244   0.891  16.745 -0.3772  1.2367 -0.3369
 5912SOL     OW29197   2.124   1.265  10.178  0.4966 -0.0274  0.3354
 5912SOL    HW129198   2.211   1.254  10.217  1.2192 -0.7998 -1.4867
 5912SOL    HW229199   2.118   1.360  10.175 -1.5562 -0.1783 -0.1528
 5913SOL     OW29200   0.903   0.953   2.571 -0.2639  0.2867  0.4395
 5913SOL    HW129201   0.842   0.949   2.498  0.9525 -0.6942 -0.5007
 5913SOL    HW229202   0.960   1.027   2.550 -0.6606  1.3004  2.8490
 5914SOL     OW29203   3.736   4.558   9.863 -0.3924  0.2405  0.1145
 5914SOL    HW129204   3.680   4.635   9.854  0.0225  0.2673 -2.1521
 5914SOL    HW229205   3.819   4.586   9.825  0.2181 -2.3998 -0.4775
 5915SOL     OW29206   3.811   1.861  11.054 -0.4890 -0.4375 -0.0379
 5915SOL    HW129207   3.773   1.949  11.061  0.0404 -0.4772  3.0125
 5915SOL    HW229208   3.824   1.849  10.960  1.1727 -0.1342  0.1617
 5916SOL     OW29209   0.393   2.665  16.292  0.2562 -0.1339 -0.5608
 5916SOL    HW129210   0.369   2.610  16.366  0.4748  1.3670  0.6370
 5916SOL    HW229211   0.417   2.591  16.237 -0.8893  0.4641 -1.8462
 5917SOL     OW29212   1.241   2.230   7.214  0.5833 -0.0417  0.5499
 5917SOL    HW129213   1.217   2.161   7.277 -0.5241 -1.3357 -1.3022
 5917SOL    HW229214   1.315   2.191   7.167  0.9128 -1.6607  2.4283
 5918SOL     OW29215   3.332   1.863   6.744  0.1269 -0.6374  0.4899
 5918SOL    HW129216   3.387   1.839   6.670  1.5929 -0.6807  1.5857
 5918SOL    HW229217   3.265   1.795   6.735  0.3575 -1.0123  1.5466
 5919SOL     OW29218   2.685   1.634   0.310 -0.0539 -0.2227 -0.4051
 5919SOL    HW129219   2.713   1.555   0.263  2.1081 -0.1698  0.8199
 5919SOL    HW229220   2.705   1.609   0.400 -2.0337 -0.3353  0.0155
 5920SOL     OW29221   4.212   0.659  10.328  0.3316  0.1698 -0.3973
 5920SOL    HW129222   4.282   0.662  10.393  0.6262 -1.5720 -0.6459
 5920SOL    HW229223   4.199   0.565  10.314 -0.1382  0.5083 -2.2754
 5921SOL     OW29224   2.857   3.489   3.173  0.0847 -0.2671 -0.3287
 5921SOL    HW129225   2.855   3.400   3.138 -0.6429 -0.0008 -0.9606
 5921SOL    HW229226   2.836   3.473   3.265  0.0742 -1.1273 -0.4788
 5922SOL     OW29227   0.311   4.438   5.261  0.0844  0.3729 -0.6056
 5922SOL    HW129228   0.306   4.485   5.178 -0.9423 -0.5423 -1.0636
 5922SOL    HW229229   0.318   4.499   5.334  1.3435 -0.9481  0.3565
 5923SOL     OW29230   4.708   2.097  17.293  0.5434 -0.2412  0.3574
 5923SOL    HW129231   0.007   2.004  17.281  1.3255  0.0745 -0.6306
 5923SOL    HW229232   4.642   2.107  17.226 -1.5349 -0.0817  2.4264
 5924SOL     OW29233   2.266   4.161   7.129 -0.2777  0.0039  0.2097
 5924SOL    HW129234   2.278   4.242   7.179 -0.7223  0.6905 -0.7883
 5924SOL    HW229235   2.353   4.122   7.143 -0.0542  0.3315 -0.2572
 5925SOL     OW29236   1.710   2.117  12.443 -0.4169  0.1901  1.1747
 5925SOL    HW129237   1.791   2.166  12.433 -1.2789  0.8189 -2.8789
 5925SOL    HW229238   1.648   2.177  12.401  0.4151  0.9481  1.0278
 5926SOL     OW29239   2.575   3.032   8.155  0.3214 -0.6523  0.2517
 5926SOL    HW129240   2.597   3.125   8.164  2.3026 -1.1046 -0.1118
 5926SOL    HW229241   2.613   3.012   8.070 -1.3733  0.3369 -0.7453
 5927SOL     OW29242   2.085   2.764   4.046 -0.5503  0.1849 -0.2480
 5927SOL    HW129243   2.050   2.826   3.981  1.4613  0.4132 -1.1013
 5927SOL    HW229244   2.166   2.804   4.077 -0.6770 -1.0845  1.7272
 5928SOL     OW29245   3.158   1.932   4.134  0.1590 -0.2925  0.1479
 5928SOL    HW129246   3.071   1.951   4.098 -0.6133 -1.4188  1.3892
 5928SOL    HW229247   3.146   1.983   4.214 -0.1892  0.1327 -0.1719
 5929SOL     OW29248   2.080   0.563   4.168  0.7892  0.5125  0.0464
 5929SOL    HW129249   2.040   0.644   4.135  0.6794  1.1279  1.6805
 5929SOL    HW229250   2.169   0.592   4.190  0.3103  1.7216  0.3787
 5930SOL     OW29251   3.401   1.240   4.562  0.0249 -0.1152 -0.3831
 5930SOL    HW129252   3.427   1.286   4.643 -0.1864 -0.3968 -0.1551
 5930SOL    HW229253   3.345   1.304   4.517  0.5249  0.1599 -0.6069
 5931SOL     OW29254   2.216   2.880   2.405  0.4447  0.2505 -0.0132
 5931SOL    HW129255   2.199   2.851   2.315 -0.9264 -0.8758  0.6193
 5931SOL    HW229256   2.297   2.832   2.416  0.0469 -0.4794 -0.2846
 5932SOL     OW29257   1.874   2.848  14.254  0.2552 -0.0974 -0.0038
 5932SOL    HW129258   1.818   2.907  14.304  0.9484  0.2601  0.3548
 5932SOL    HW229259   1.917   2.912  14.197  0.4364  0.7992  1.1377
 5933SOL     OW29260   0.681   0.465   8.135 -0.0364 -0.0427  0.6635
 5933SOL    HW129261   0.710   0.382   8.174 -0.3932 -0.8173 -0.6860
 5933SOL    HW229262   0.606   0.491   8.189  0.0565  2.4299 -0.4146
 5934SOL     OW29263   2.443   0.436   7.475 -0.4324 -0.5350  0.1861
 5934SOL    HW129264   2.350   0.457   7.477 -0.2280  0.3527  0.4688
 5934SOL    HW229265   2.463   0.466   7.387  1.1293 -1.6065  0.1571
 5935SOL     OW29266   0.251   0.808  10.355 -0.0012  0.2435 -0.2243
 5935SOL    HW129267   0.168   0.843  10.388  0.0366  0.0522  0.0731
 5935SOL    HW229268   0.231   0.797  10.262  1.3699  1.4723 -0.6564
 5936SOL     OW29269   0.414   0.122   2.679 -0.4186  0.1442 -0.2401
 5936SOL    HW129270   0.437   0.100   2.589 -0.8217 -1.8786  0.1489
 5936SOL    HW229271   0.466   0.202   2.689 -0.1308  0.1312 -1.6525
 5937SOL     OW29272   2.174   3.780   6.815 -0.1832 -0.1709 -0.7567
 5937SOL    HW129273   2.267   3.799   6.805 -0.1048 -0.8886 -1.3794
 5937SOL    HW229274   2.140   3.870   6.810 -1.1189 -0.4665  0.3703
 5938SOL     OW29275   4.215   4.006   2.064 -0.5116  0.1190 -0.3539
 5938SOL    HW129276   4.272   4.048   2.000  0.1735  0.1706  0.2848
 5938SOL    HW229277   4.275   3.994   2.138  0.9713 -0.0339 -1.5876
 5939SOL     OW29278   0.281   2.041   6.126 -0.2192 -0.0306  0.7826
 5939SOL    HW129279   0.220   2.086   6.184 -1.8110 -0.2819 -0.7013
 5939SOL    HW229280   0.261   2.068   6.036  1.2227  0.0318  0.4763
 5940SOL     OW29281   3.273   4.629   9.535  0.3334 -0.0970 -1.0138
 5940SOL    HW129282   3.238   4.618   9.447  0.0432 -1.9619 -0.6697
 5940SOL    HW229283   3.192   4.623   9.586  1.2156  0.6806  0.4808
 5941SOL     OW29284   3.856   0.141  14.120  0.4857 -0.7508  0.1982
 5941SOL    HW129285   3.784   0.079  14.133 -0.6727  0.5287 -0.1213
 5941SOL    HW229286   3.880   0.111  14.032  0.1666 -1.7027  0.4333
 5942SOL     OW29287   0.607   1.648   9.358 -0.0044  0.0593 -0.1206
 5942SOL    HW129288   0.588   1.717   9.294 -0.5353  0.6996  0.7175
 5942SOL    HW229289   0.642   1.574   9.308 -0.9205 -1.1631  1.0330
 5943SOL     OW29290   2.026   0.497   3.368  0.0901  0.6525  0.2636
 5943SOL    HW129291   2.016   0.473   3.460 -0.6429  1.2512  0.3399
 5943SOL    HW229292   1.997   0.587   3.383  1.5982  1.5161 -1.9157
 5944SOL     OW29293   2.333   1.358   1.395 -0.3427  0.1404 -0.1726
 5944SOL    HW129294   2.286   1.435   1.365  0.3837  0.3037 -0.8920
 5944SOL    HW229295   2.273   1.284   1.381 -0.6522  0.3265  0.1653
 5945SOL     OW29296   0.205   3.886   6.524  0.0765 -0.6314 -0.1390
 5945SOL    HW129297   0.217   3.972   6.564 -0.6448  0.1492 -1.5803
 5945SOL    HW229298   0.277   3.879   6.461 -2.7462  0.1513 -3.4620
 5946SOL     OW29299   0.354   0.731  12.566  0.0754 -0.0043 -0.1669
 5946SOL    HW129300   0.316   0.765  12.485  0.4315 -0.5485 -0.5638
 5946SOL    HW229301   0.302   0.650  12.568 -0.5935  0.4131 -0.7877
 5947SOL     OW29302   1.609   3.882   2.489 -0.2792  0.4225 -0.0073
 5947SOL    HW129303   1.624   3.932   2.409  1.7574 -1.1220 -0.5950
 5947SOL    HW229304   1.622   3.793   2.457  0.7428  0.3030  0.7136
 5948SOL     OW29305   4.533   3.697   6.707 -0.3660 -0.0543 -0.4087
 5948SOL    HW129306   4.614   3.747   6.715 -0.8912  0.3556  2.4052
 5948SOL    HW229307   4.477   3.763   6.667  0.7108  0.1798 -1.5304
 5949SOL     OW29308   3.800   4.204   4.961 -0.2257  0.2114 -0.0942
 5949SOL    HW129309   3.770   4.226   4.873 -1.8550  0.3350  0.4807
 5949SOL    HW229310   3.712   4.207   4.998 -1.5102 -1.7721 -2.9864
 5950SOL     OW29311   3.536   0.206   7.518  0.1625  0.2746  0.1150
 5950SOL    HW129312   3.531   0.207   7.423 -0.1957  1.1150  0.1490
 5950SOL    HW229313   3.466   0.269   7.535  0.4239  0.7316 -0.5107
 5951SOL     OW29314   1.057   3.641   1.515 -0.2176 -0.2241  0.6428
 5951SOL    HW129315   1.149   3.645   1.540  0.8916 -2.9345 -3.0002
 5951SOL    HW229316   1.034   3.550   1.536  3.2264 -0.7161  2.2150
 5952SOL     OW29317   3.380   3.783   2.403 -0.2626  0.8491 -0.6492
 5952SOL    HW129318   3.403   3.732   2.324  0.8918  1.3847 -0.6653
 5952SOL    HW229319   3.327   3.852   2.364 -0.8845 -0.2458 -1.7453
 5953SOL     OW29320   2.119   2.671   7.260 -0.0806  0.4170  0.0589
 5953SOL    HW129321   2.104   2.578   7.242 -0.5846  1.0678 -2.9676
 5953SOL    HW229322   2.182   2.658   7.331  1.7571  1.7811 -1.3215
 5954SOL     OW29323   1.979   1.919   9.103  0.3674  0.3874  0.3929
 5954SOL    HW129324   1.977   1.989   9.037 -0.0991  2.7046  2.8864
 5954SOL    HW229325   1.947   1.968   9.179  1.0625  0.0175  0.9174
 5955SOL     OW29326   2.068   3.057   7.084 -0.1631 -0.0408 -0.1309
 5955SOL    HW129327   2.049   3.066   7.177  0.5313  2.1872 -0.2130
 5955SOL    HW229328   2.073   3.148   7.054  0.5083 -0.0463 -0.0502
 5956SOL     OW29329   4.101   2.717   8.957 -0.1584 -0.0197  0.0972
 5956SOL    HW129330   4.022   2.703   9.010  0.3846 -1.8229  0.4215
 5956SOL    HW229331   4.167   2.674   9.010 -0.9499 -4.3826 -2.4400
 5957SOL     OW29332   2.960   3.467   8.016  0.1858 -0.0593 -0.2942
 5957SOL    HW129333   2.924   3.554   7.997  1.7757  0.7718  0.4423
 5957SOL    HW229334   3.017   3.489   8.090 -1.1021 -2.0810  1.2826
 5958SOL     OW29335   3.703   0.208  17.623  0.1009  0.0643  0.2181
 5958SOL    HW129336   3.619   0.235  17.662 -0.2128  1.0999 -1.1660
 5958SOL    HW229337   3.670   0.173  17.540  0.4642  0.5874 -0.1455
 5959SOL     OW29338   0.740   2.238   7.950 -0.1839  0.5202  0.0617
 5959SOL    HW129339   0.823   2.253   7.905  1.2147 -2.1357  1.7780
 5959SOL    HW229340   0.766   2.267   8.037 -2.1732  0.9993  0.5009
 5960SOL     OW29341   2.251   3.690   4.470  0.3318  0.2975 -0.1500
 5960SOL    HW129342   2.241   3.651   4.557 -0.1157 -1.9875 -1.2110
 5960SOL    HW229343   2.160   3.702   4.443  1.1671  0.4726 -2.8740
 5961SOL     OW29344   1.951   0.107   0.602  0.2432  0.4926  0.4365
 5961SOL    HW129345   1.969   0.199   0.620  1.0868  0.5681 -0.7783
 5961SOL    HW229346   1.954   0.065   0.688  1.8369 -0.3199 -0.0152
 5962SOL     OW29347   2.040   1.905  15.805 -0.1487  0.3193  0.1333
 5962SOL    HW129348   2.128   1.879  15.833  0.3750 -0.7360 -2.4475
 5962SOL    HW229349   2.047   2.000  15.810  2.2095  0.1647 -0.2201
 5963SOL     OW29350   0.013   0.021   2.478 -0.3800 -0.2790 -0.5664
 5963SOL    HW129351   0.074   0.013   2.551  0.6756 -1.9526 -1.6291
 5963SOL    HW229352   4.664   0.059   2.529  1.8834 -0.3638  2.6963
 5964SOL     OW29353   1.190   0.572   7.042  0.1880 -0.0415  0.1313
 5964SOL    HW129354   1.283   0.579   7.063  0.4763 -0.4147 -1.0045
 5964SOL    HW229355   1.163   0.542   7.129 -1.9538  0.3219 -0.4080
 5965SOL     OW29356   2.080   0.318  17.416  0.7004 -0.1466  0.4322
 5965SOL    HW129357   1.997   0.358  17.443  0.5133 -0.6214  0.5577
 5965SOL    HW229358   2.147   0.341  17.480  0.2900 -1.0095  1.1699
 5966SOL     OW29359   1.233   0.918  14.965  0.1953  0.0362  0.5423
 5966SOL    HW129360   1.291   0.897  14.892  0.6040 -1.3245  1.2672
 5966SOL    HW229361   1.269   1.005  14.980 -0.7501  0.2388  1.6772
 5967SOL     OW29362   3.127   4.265   4.479  0.2301 -0.2714 -0.3172
 5967SOL    HW129363   3.177   4.225   4.550  1.9558 -0.9691 -1.9148
 5967SOL    HW229364   3.063   4.194   4.474  1.3632 -1.4336  1.6876
 5968SOL     OW29365   3.934   4.607   1.615  0.3758 -0.1475  0.3901
 5968SOL    HW129366   4.000   4.631   1.550 -0.2797  0.6413  0.0167
 5968SOL    HW229367   3.974   4.541   1.672  0.8988  1.3463  1.7226
 5969SOL     OW29368   3.875   3.946   3.978 -0.4980  0.0420 -0.0859
 5969SOL    HW129369   3.803   4.005   3.999 -1.0538 -0.9815  0.8637
 5969SOL    HW229370   3.930   3.997   3.918  2.3528 -0.3477  2.2047
 5970SOL     OW29371   3.381   3.968   1.663  0.3825 -0.0100  0.2867
 5970SOL    HW129372   3.337   4.041   1.706 -0.1283 -0.7668  1.0580
 5970SOL    HW229373   3.400   4.012   1.581  3.5520  1.1819  1.6386
 5971SOL     OW29374   1.099   1.642   4.424 -0.4826 -0.4928  0.1019
 5971SOL    HW129375   1.107   1.565   4.482 -0.1848 -1.2169 -0.9013
 5971SOL    HW229376   1.050   1.616   4.346 -0.5756 -1.4949  0.4787
 5972SOL     OW29377   3.758   0.087   4.679  0.4177  0.2156 -0.0353
 5972SOL    HW129378   3.685   0.077   4.619  0.1404 -1.9920  0.6843
 5972SOL    HW229379   3.834   0.060   4.627 -1.9768 -0.9794 -2.8802
 5973SOL     OW29380   2.307   0.676   8.116 -0.2495  0.2051  0.5932
 5973SOL    HW129381   2.242   0.617   8.151 -1.0902  0.3674 -0.6977
 5973SOL    HW229382   2.366   0.692   8.190 -2.4405 -0.6249  2.4838
 5974SOL     OW29383   0.251   0.475   8.627 -0.3694  0.2076  0.0150
 5974SOL    HW129384   0.251   0.512   8.538 -0.0433  1.7122  0.6321
 5974SOL    HW229385   0.196   0.537   8.675  2.3704  1.8168  1.1283
 5975SOL     OW29386   3.055   3.758  11.997  0.0978  0.2776 -0.6686
 5975SOL    HW129387   3.086   3.694  11.932  4.0511  0.1550  1.3352
 5975SOL    HW229388   3.078   3.702  12.071  0.5361  0.6365 -0.5388
 5976SOL     OW29389   4.425   1.398   8.208  0.3064 -0.1157 -0.3113
 5976SOL    HW129390   4.404   1.317   8.162  0.5810  0.2425 -1.0664
 5976SOL    HW229391   4.492   1.367   8.269  1.7004  0.8868 -1.3127
 5977SOL     OW29392   2.417   0.184  17.364  0.1030 -0.0493 -0.0803
 5977SOL    HW129393   2.501   0.159  17.402 -0.4566 -1.3940  0.2685
 5977SOL    HW229394   2.373   0.228  17.438 -0.5940 -1.9963  0.6608
 5978SOL     OW29395   2.293   3.210   6.955 -0.1233  0.2635 -0.0312
 5978SOL    HW129396   2.210   3.258   6.964 -0.3707  0.1344 -1.5802
 5978SOL    HW229397   2.303   3.215   6.860 -0.1131 -2.9001 -0.1984
 5979SOL     OW29398   2.240   3.309  16.464 -0.1949 -0.0573  0.3100
 5979SOL    HW129399   2.167   3.325  16.403  1.6328  0.6707 -1.7148
 5979SOL    HW229400   2.206   3.343  16.546 -0.4296  0.8565 -0.1616
 5980SOL     OW29401   3.162   2.380   7.847  0.2166 -0.4230  0.1285
 5980SOL    HW129402   3.109   2.388   7.926  0.4244 -2.0734  0.4241
 5980SOL    HW229403   3.150   2.289   7.820  0.8556  0.1657 -2.1244
 5981SOL     OW29404   1.063   4.491   0.081 -0.1658  0.1593  0.6175
 5981SOL    HW129405   1.128   4.422   0.068  0.0434  0.7064 -1.3245
 5981SOL    HW229406   1.117   4.560   0.119  2.8427 -0.6761 -2.1577
 5982SOL     OW29407   0.202   1.240   2.416 -0.2828  0.6720 -0.0207
 5982SOL    HW129408   0.155   1.229   2.333  3.1694  2.7098 -2.2927
 5982SOL    HW229409   0.141   1.204   2.480  0.8442 -0.8283  0.2113
 5983SOL     OW29410   3.997   2.534  16.042 -0.1268  0.5288  0.0107
 5983SOL    HW129411   3.960   2.507  16.126 -0.1280  1.3531  0.2721
 5983SOL    HW229412   4.083   2.493  16.047 -0.5083 -0.4358 -1.3850
 5984SOL     OW29413   1.878   2.534  14.755  0.1477 -0.1917 -0.0699
 5984SOL    HW129414   1.908   2.535  14.846  2.9137 -0.9448 -0.9735
 5984SOL    HW229415   1.962   2.554  14.714 -0.3121  0.0418 -0.9125
 5985SOL     OW29416   4.062   3.663   0.796  0.1798  0.8143  0.5045
 5985SOL    HW129417   3.968   3.650   0.801  0.2364 -0.0653 -0.6093
 5985SOL    HW229418   4.085   3.609   0.720 -1.3497  0.7591  0.0881
 5986SOL     OW29419   2.809   1.047   3.776 -0.2507 -0.3922 -0.4934
 5986SOL    HW129420   2.826   1.128   3.824  2.1805 -0.7850 -0.6756
 5986SOL    HW229421   2.890   0.997   3.791  1.1615  1.6717 -1.1741
 5987SOL     OW29422   4.369   4.359   6.993  0.3993  0.8065  0.2487
 5987SOL    HW129423   4.442   4.297   6.996 -0.5568 -0.5053 -3.3731
 5987SOL    HW229424   4.315   4.316   6.926  0.3664  0.5670  0.4283
 5988SOL     OW29425   0.383   0.085  16.078  0.7290 -0.4079 -0.4790
 5988SOL    HW129426   0.456   0.125  16.031  0.5098 -0.6191 -0.9950
 5988SOL    HW229427   0.426   0.020  16.134  0.1701 -0.3303  0.0387
 5989SOL     OW29428   0.374   2.774   4.818 -0.3479 -0.4054 -0.3844
 5989SOL    HW129429   0.313   2.837   4.857 -0.7602 -0.4299 -0.9852
 5989SOL    HW229430   0.420   2.740   4.894 -0.4800  0.1456 -0.0541
 5990SOL     OW29431   1.728   1.863   4.399  0.2867 -0.4446  0.0117
 5990SOL    HW129432   1.757   1.936   4.453  2.4053 -2.4569  1.6061
 5990SOL    HW229433   1.653   1.905   4.356  1.3988  1.3597 -0.1483
 5991SOL     OW29434   3.190   3.648   2.012 -0.1409 -0.1966  0.3285
 5991SOL    HW129435   3.174   3.561   2.047  1.0432  0.8403  3.4353
 5991SOL    HW229436   3.099   3.669   1.988 -0.6560 -0.3350  2.1727
 5992SOL     OW29437   3.819   3.864   6.377  0.0415 -0.7623  0.2470
 5992SOL    HW129438   3.860   3.802   6.438  1.0454 -1.1441 -0.8239
 5992SOL    HW229439   3.867   3.944   6.396  0.4510 -0.8548 -0.3918
 5993SOL     OW29440   1.623   0.235  12.994 -0.7213  0.1998  0.2233
 5993SOL    HW129441   1.628   0.153  13.041 -0.4640  0.7177  1.0986
 5993SOL    HW229442   1.579   0.289  13.060  0.1246  0.6117  0.4513
 5994SOL     OW29443   4.420   3.038   7.743 -0.3363 -0.0918  0.1077
 5994SOL    HW129444   4.465   3.116   7.711  2.1163 -1.5676 -0.0390
 5994SOL    HW229445   4.475   3.029   7.821 -1.0729  0.8188  0.7350
 5995SOL     OW29446   3.804   3.088  11.921 -0.4219  0.7298  0.0556
 5995SOL    HW129447   3.786   3.093  11.827 -0.3438  0.4912  0.0272
 5995SOL    HW229448   3.889   3.045  11.905 -1.6070 -1.2124 -1.0852
 5996SOL     OW29449   0.931   4.476   7.898 -0.3499 -0.1088 -0.1190
 5996SOL    HW129450   1.003   4.432   7.852 -1.0048 -0.6525 -0.6273
 5996SOL    HW229451   0.928   4.424   7.979 -0.1367 -0.8865 -0.6052
 5997SOL     OW29452   2.667   3.374  16.351  0.3109 -0.5059 -0.2734
 5997SOL    HW129453   2.673   3.303  16.415 -0.2614 -0.0141  0.3208
 5997SOL    HW229454   2.667   3.447  16.412  0.6601 -1.1388  0.4818
 5998SOL     OW29455   3.379   2.202   8.313  0.2618 -0.2511  0.1258
 5998SOL    HW129456   3.394   2.177   8.221  1.3513  1.5229 -0.1701
 5998SOL    HW229457   3.466   2.206   8.352  0.2413 -2.4173  0.4066
 5999SOL     OW29458   0.954   0.349   8.493  0.0183 -0.6719  0.1270
 5999SOL    HW129459   1.025   0.374   8.434  0.1137 -0.2355  0.4204
 5999SOL    HW229460   1.005   0.302   8.559  0.5996  1.6910  1.3788
 6000SOL     OW29461   2.658   4.092  11.904 -0.2515 -0.3040 -0.0077
 6000SOL    HW129462   2.676   4.060  11.816  0.6036  0.7301 -0.2142
 6000SOL    HW229463   2.714   4.039  11.961  3.6483  0.3482 -3.2113
 6001SOL     OW29464   2.193   3.582   4.702  0.2084  0.3518 -0.2732
 6001SOL    HW129465   2.164   3.582   4.794  1.6448 -1.0100  0.1842
 6001SOL    HW229466   2.121   3.530   4.666  1.2934 -1.5138  0.2185
 6002SOL     OW29467   1.806   4.306  13.151 -0.1484  0.0230  0.0884
 6002SOL    HW129468   1.832   4.230  13.100 -3.2323  0.0876 -1.5703
 6002SOL    HW229469   1.782   4.264  13.234  1.8543  3.4239  2.4025
 6003SOL     OW29470   2.525   0.899   8.447  0.3286  0.0582  0.1035
 6003SOL    HW129471   2.601   0.954   8.466  0.1465  1.0470 -2.1384
 6003SOL    HW229472   2.456   0.964   8.459  0.2489 -0.5671  3.1651
 6004SOL     OW29473   2.943   4.262   3.017 -0.0335  0.0172 -0.4211
 6004SOL    HW129474   2.943   4.221   2.930  3.0556  0.0677 -0.4327
 6004SOL    HW229475   2.902   4.194   3.071  1.4674  0.3541  1.1573
 6005SOL     OW29476   0.023   1.129   4.345  0.2991  0.2065 -0.6873
 6005SOL    HW129477   4.693   1.205   4.369  1.7182  1.5262 -1.6423
 6005SOL    HW229478   4.678   1.066   4.325  0.0401 -0.5685  2.6338
 6006SOL     OW29479   2.782   2.071   5.358 -0.0690 -0.0080 -0.1912
 6006SOL    HW129480   2.716   2.140   5.354  1.6285  1.7430  2.0589
 6006SOL    HW229481   2.858   2.121   5.389 -1.3608  2.1193 -0.4389
 6007SOL     OW29482   1.279   2.559   3.756 -0.4644  0.2468  0.1178
 6007SOL    HW129483   1.304   2.648   3.777  0.3917 -0.0789  0.4639
 6007SOL    HW229484   1.226   2.574   3.678 -0.1234  0.0699 -0.1477
 6008SOL     OW29485   4.247   3.676  15.303  0.1788  0.3159  0.0532
 6008SOL    HW129486   4.271   3.640  15.217 -2.6619  1.6415 -1.3044
 6008SOL    HW229487   4.222   3.591  15.338 -1.6787 -0.6629 -3.6467
 6009SOL     OW29488   3.745   2.731  11.570 -0.2035  0.5208  0.0801
 6009SOL    HW129489   3.685   2.669  11.611 -0.3548  0.5181 -0.1458
 6009SOL    HW229490   3.830   2.692  11.592 -0.0123  2.3348  2.4675
 6010SOL     OW29491   4.112   3.738   3.342 -0.1082  0.0609  0.1465
 6010SOL    HW129492   4.079   3.648   3.335 -0.0542 -0.0253  1.0473
 6010SOL    HW229493   4.077   3.779   3.263  2.1626 -1.0834 -1.4465
 6011SOL     OW29494   3.459   3.058  14.143  0.1096  0.1173  0.6127
 6011SOL    HW129495   3.438   2.973  14.105 -0.0182  1.0454 -1.4183
 6011SOL    HW229496   3.545   3.078  14.106 -0.3523  0.6145 -0.1862
 6012SOL     OW29497   2.179   0.416  10.059  0.2072 -0.2677  0.0921
 6012SOL    HW129498   2.221   0.432  10.144  0.2155  1.2854 -0.2202
 6012SOL    HW229499   2.209   0.328  10.037  0.2667  0.0493 -1.0710
 6013SOL     OW29500   1.411   4.717   3.735  0.1300  0.0625 -0.1429
 6013SOL    HW129501   1.401   4.673   3.819  0.0728 -3.7769 -2.1337
 6013SOL    HW229502   1.466   0.067   3.760  2.3283 -0.5975 -2.9912
 6014SOL     OW29503   2.980   0.481   5.579 -0.0392 -0.3298 -0.0027
 6014SOL    HW129504   2.946   0.438   5.500 -0.6404 -1.7323  1.0187
 6014SOL    HW229505   3.072   0.454   5.579 -0.2675 -1.1185 -0.9569
 6015SOL     OW29506   1.525   2.531   7.886  0.1077 -0.1591  0.2769
 6015SOL    HW129507   1.437   2.531   7.923 -0.4516  0.9562 -1.0657
 6015SOL    HW229508   1.514   2.475   7.808  2.8679 -0.1257 -0.1358
 6016SOL     OW29509   4.397   2.180   6.269  0.1140 -0.5933  0.3324
 6016SOL    HW129510   4.362   2.122   6.336 -1.9465 -1.2076 -1.2400
 6016SOL    HW229511   4.481   2.135   6.262  0.9143  1.1785 -1.6358
 6017SOL     OW29512   3.783   3.110   8.812  0.2213 -0.2586 -0.2767
 6017SOL    HW129513   3.771   3.134   8.904 -1.5115  1.7101 -1.0238
 6017SOL    HW229514   3.878   3.098   8.811  0.2359 -0.3491  2.1084
 6018SOL     OW29515   1.542   1.163   4.199  0.7120 -0.2030  0.1548
 6018SOL    HW129516   1.498   1.127   4.275  1.1005 -1.3652 -0.1693
 6018SOL    HW229517   1.624   1.184   4.244  0.7522  2.0058 -0.9186
 6019SOL     OW29518   2.512   1.833   6.811 -0.3379  0.3249  1.0041
 6019SOL    HW129519   2.599   1.871   6.798 -1.4047  2.1690 -0.8581
 6019SOL    HW229520   2.486   1.817   6.720  2.1421  0.8409  0.1945
 6020SOL     OW29521   3.524   0.607   4.073 -0.1234  0.3135 -0.4341
 6020SOL    HW129522   3.511   0.620   4.167  1.2513  0.8032 -0.3057
 6020SOL    HW229523   3.473   0.679   4.037  2.2635  2.6829  0.9360
 6021SOL     OW29524   4.716   2.402  13.158  0.1139 -0.8835  0.0468
 6021SOL    HW129525   4.677   2.452  13.086  1.0625  0.9611  0.8185
 6021SOL    HW229526   4.709   2.313  13.123 -0.8783 -0.7085 -0.1969
 6022SOL     OW29527   3.077   1.700  13.116  0.1356 -0.3830  0.4686
 6022SOL    HW129528   3.118   1.650  13.046  1.6825  2.9113 -0.9958
 6022SOL    HW229529   3.001   1.645  13.131 -0.5076  0.5412  0.6013
 6023SOL     OW29530   1.924   2.009   3.858 -0.0753  0.3010 -0.0047
 6023SOL    HW129531   2.008   2.017   3.902  0.0087  0.8456 -0.2619
 6023SOL    HW229532   1.943   2.054   3.775  0.6374  1.3474  0.7242
 6024SOL     OW29533   0.212   3.421   7.555 -0.2193  0.1400 -0.6055
 6024SOL    HW129534   0.301   3.453   7.538  0.0607  1.0909  2.6650
 6024SOL    HW229535   0.165   3.460   7.482  0.5485 -0.0806 -1.2169
 6025SOL     OW29536   1.729   4.037   2.310 -0.5890  0.0541  0.2615
 6025SOL    HW129537   1.747   4.010   2.219 -0.4573 -1.8916  0.8700
 6025SOL    HW229538   1.680   4.118   2.296  1.0097  1.0793  0.6955
 6026SOL     OW29539   4.300   0.269   7.577 -0.1675  0.4519  0.9366
 6026SOL    HW129540   4.350   0.349   7.597 -0.7679  1.5055 -1.7731
 6026SOL    HW229541   4.246   0.272   7.656  1.6562  0.0332  2.2073
 6027SOL     OW29542   3.297   0.523   0.715  0.0723  0.4783 -0.3495
 6027SOL    HW129543   3.357   0.597   0.711  0.9694 -0.3468 -1.8903
 6027SOL    HW229544   3.343   0.452   0.670 -0.6328 -0.4267  0.3719
 6028SOL     OW29545   2.593   3.942   1.780  0.2132  0.4328  0.0171
 6028SOL    HW129546   2.675   3.969   1.821 -0.3712 -0.2934  1.6826
 6028SOL    HW229547   2.620   3.944   1.688 -0.4247  0.4128 -0.1700
 6029SOL     OW29548   3.528   4.064  15.723 -0.0551 -0.3024  0.0949
 6029SOL    HW129549   3.557   4.142  15.675 -1.6901  0.1296 -0.1790
 6029SOL    HW229550   3.436   4.088  15.728  0.1061  0.6936 -1.5908
 6030SOL     OW29551   3.861   2.379  14.707 -0.1552 -0.4717 -0.4521
 6030SOL    HW129552   3.772   2.410  14.688  0.7167  2.9979  1.2264
 6030SOL    HW229553   3.846   2.293  14.748 -0.3249 -0.4349 -0.4371
 6031SOL     OW29554   3.609   2.053   2.635 -0.4916 -0.2344  0.2365
 6031SOL    HW129555   3.515   2.035   2.638 -0.2129 -1.3249  2.0783
 6031SOL    HW229556   3.639   1.985   2.696 -1.2764 -1.0209 -0.2670
 6032SOL     OW29557   0.175   3.004   9.206 -0.0038  0.2488  0.3557
 6032SOL    HW129558   0.121   3.068   9.161  1.1994 -1.3220 -3.3826
 6032SOL    HW229559   0.134   2.921   9.180 -1.2796  1.3628 -1.1230
 6033SOL     OW29560   4.161   0.987  14.288  0.4181 -0.0572 -0.2354
 6033SOL    HW129561   4.188   0.988  14.196 -0.6119  0.3745 -0.5364
 6033SOL    HW229562   4.189   0.901  14.317  2.4119 -0.3326 -2.9122
 6034SOL     OW29563   0.084   2.892   4.030  0.2890  0.1285 -0.1381
 6034SOL    HW129564   0.073   2.936   4.114 -1.0611  1.5570 -1.0635
 6034SOL    HW229565   4.721   2.852   4.018  0.7454 -0.7989 -0.3074
 6035SOL     OW29566   0.111   0.755   5.479 -0.3984 -0.1555  0.1020
 6035SOL    HW129567   0.053   0.680   5.466 -2.1762  1.1131  0.7973
 6035SOL    HW229568   0.088   0.821   5.414  0.8170  1.7724  1.6633
 6036SOL     OW29569   0.927   4.399   2.853  0.6518  0.0283  0.6755
 6036SOL    HW129570   0.922   4.461   2.926  0.6191 -1.0484  1.5934
 6036SOL    HW229571   0.990   4.331   2.878  0.2742  0.0488  1.6660
 6037SOL     OW29572   3.462   0.781   7.033  0.3391  0.5236 -0.7266
 6037SOL    HW129573   3.399   0.757   6.965  0.3099 -1.2950 -0.0561
 6037SOL    HW229574   3.487   0.694   7.064 -0.1710  0.5015 -0.3819
 6038SOL     OW29575   0.522   1.034  11.736 -0.0344  0.0304  0.1728
 6038SOL    HW129576   0.565   1.062  11.656  0.8145 -0.6241  0.3993
 6038SOL    HW229577   0.440   1.083  11.732  0.3360  0.5546 -0.9295
 6039SOL     OW29578   1.766   2.361   0.413  0.6414  0.3676 -0.0625
 6039SOL    HW129579   1.850   2.381   0.455 -0.0754 -1.0149  2.0283
 6039SOL    HW229580   1.766   2.266   0.419 -0.2898  0.3641 -0.1780
 6040SOL     OW29581   0.871   0.963  15.275  0.0090 -0.0923 -0.2559
 6040SOL    HW129582   0.820   0.957  15.195 -1.3301 -1.7334  0.7143
 6040SOL    HW229583   0.960   0.957  15.241  1.2074 -1.1818  3.0513
 6041SOL     OW29584   1.920   3.708   7.926  0.0968 -0.1070  0.2127
 6041SOL    HW129585   1.990   3.767   7.901 -0.4374  0.1864 -0.6046
 6041SOL    HW229586   1.882   3.757   7.999 -2.0416  1.8106 -2.1628
 6042SOL     OW29587   0.590   0.546   3.119 -0.3351 -0.0218 -0.4254
 6042SOL    HW129588   0.596   0.455   3.149  0.0367 -0.0157 -0.4838
 6042SOL    HW229589   0.671   0.560   3.070 -0.8846  1.0768 -1.0050
 6043SOL     OW29590   0.577   2.404   3.264 -0.4748 -0.8050  0.5080
 6043SOL    HW129591   0.497   2.439   3.223  0.7444  0.2559 -0.9386
 6043SOL    HW229592   0.640   2.455   3.214 -2.1378 -0.4492 -1.2671
 6044SOL     OW29593   0.229   3.879   3.463  0.7801 -0.4314 -0.5276
 6044SOL    HW129594   0.218   3.834   3.379 -1.4475  0.7802 -0.8989
 6044SOL    HW229595   0.222   3.803   3.521  0.3114 -1.0133 -1.3364
 6045SOL     OW29596   0.088   3.463   7.091 -0.3413  0.6824 -0.2331
 6045SOL    HW129597   0.072   3.396   7.025  0.1456  1.5325 -1.2070
 6045SOL    HW229598   0.034   3.531   7.051 -1.8898  0.2624  1.1287
 6046SOL     OW29599   3.579   4.282   6.117  0.7587 -0.1067 -0.1267
 6046SOL    HW129600   3.563   4.261   6.025 -1.2451 -3.3627  0.9513
 6046SOL    HW229601   3.670   4.254   6.128  1.1498  0.4536 -1.9411
 6047SOL     OW29602   0.207   4.466   0.123 -0.2205  0.1021  0.3273
 6047SOL    HW129603   0.178   4.488   0.212  0.6991  3.1979 -0.1575
 6047SOL    HW229604   0.139   4.516   0.077  1.0868  0.2551 -1.4495
 6048SOL     OW29605   3.364   3.956   7.889  0.5168 -0.1324  0.1028
 6048SOL    HW129606   3.458   3.941   7.878  0.7982  2.1830 -0.7354
 6048SOL    HW229607   3.322   3.872   7.871 -3.7682  2.4444 -1.9640
 6049SOL     OW29608   4.675   2.325   9.339  0.2649 -0.7918  0.6924
 6049SOL    HW129609   4.638   2.271   9.408 -1.2549 -3.8218 -2.5051
 6049SOL    HW229610   4.646   2.283   9.257  0.6906  1.7753 -0.7836
 6050SOL     OW29611   2.759   3.628   5.624 -0.4627  0.3586  0.2387
 6050SOL    HW129612   2.711   3.566   5.681 -0.2758  0.6740  0.7399
 6050SOL    HW229613   2.693   3.675   5.573 -1.5880  0.5956  1.8755
 6051SOL     OW29614   0.576   0.294   5.045  0.3259 -0.6659  0.8323
 6051SOL    HW129615   0.633   0.370   5.047  1.9053 -1.7673 -2.5786
 6051SOL    HW229616   0.550   0.304   4.954 -1.8393  1.1779  1.6537
 6052SOL     OW29617   0.862   3.503   5.005  0.0153 -0.0134 -0.7696
 6052SOL    HW129618   0.847   3.558   5.081 -3.5271 -0.5983 -1.0451
 6052SOL    HW229619   0.853   3.416   5.045  1.0710  1.2367  2.1331
 6053SOL     OW29620   1.853   2.527   3.261 -0.0447  0.1724  0.1869
 6053SOL    HW129621   1.835   2.444   3.215  0.8409 -0.1747  0.4713
 6053SOL    HW229622   1.776   2.529   3.318  0.1329 -0.9376  0.4777
 6054SOL     OW29623   2.651   0.738  16.452  0.6552  0.2839 -0.2529
 6054SOL    HW129624   2.745   0.754  16.442  0.2231  1.7142 -2.1326
 6054SOL    HW229625   2.609   0.752  16.367 -1.5697 -0.5324  0.7187
 6055SOL     OW29626   2.117   1.960   4.825 -0.2907 -0.7539  0.2726
 6055SOL    HW129627   2.032   1.972   4.781  1.0665  1.2649 -1.8016
 6055SOL    HW229628   2.118   1.870   4.857 -0.3184  0.2710  3.1237
 6056SOL     OW29629   0.268   2.122   8.142  0.1819 -0.6137  0.2369
 6056SOL    HW129630   0.215   2.137   8.221 -1.0388 -0.9083 -0.5166
 6056SOL    HW229631   0.350   2.162   8.169 -0.6609 -0.1448  2.1331
 6057SOL     OW29632   1.385   1.939   1.686 -0.0672  0.1627  0.0105
 6057SOL    HW129633   1.470   1.895   1.682 -1.2011 -2.1313  0.7368
 6057SOL    HW229634   1.400   1.984   1.769 -0.3488  0.7489 -0.2616
 6058SOL     OW29635   3.541   1.949  12.615 -0.0645 -0.3672 -0.4072
 6058SOL    HW129636   3.599   1.962  12.540 -0.7891  0.7650 -0.7713
 6058SOL    HW229637   3.611   1.929  12.677  0.0294  0.4589 -0.2384
 6059SOL     OW29638   2.270   2.258   7.179 -0.7628  0.0916  0.4415
 6059SOL    HW129639   2.337   2.320   7.209  0.1623  0.0052 -1.4878
 6059SOL    HW229640   2.311   2.173   7.194 -0.1535  0.3609  0.2903
 6060SOL     OW29641   4.127   4.104   2.417  0.4741 -0.6015  0.4339
 6060SOL    HW129642   4.035   4.078   2.420  0.8531 -2.0187 -0.1342
 6060SOL    HW229643   4.172   4.022   2.398 -2.3681 -2.1729  0.5110
 6061SOL     OW29644   2.985   2.936   4.218  0.3367 -0.0050  0.1062
 6061SOL    HW129645   3.011   2.971   4.132 -0.4627 -3.4496 -1.5518
 6061SOL    HW229646   3.011   3.012   4.269  2.0315 -1.2334  1.0952
 6062SOL     OW29647   3.898   3.530  14.176 -0.1345 -0.7233 -0.0061
 6062SOL    HW129648   3.838   3.566  14.241 -0.5941  0.2192 -0.9612
 6062SOL    HW229649   3.981   3.570  14.203 -0.3195  0.0017 -0.5227
 6063SOL     OW29650   2.267   3.167   5.143  0.4049  0.0252 -0.0296
 6063SOL    HW129651   2.301   3.209   5.064  2.1881 -1.8313 -0.2650
 6063SOL    HW229652   2.346   3.155   5.195  1.0744  0.7972 -0.8780
 6064SOL     OW29653   0.690   0.057  10.380 -0.3126  0.5195 -0.6676
 6064SOL    HW129654   0.653   4.718  10.317 -2.8228 -0.0021  1.3185
 6064SOL    HW229655   0.689   4.722  10.457  1.2194 -0.6359 -1.5354
 6065SOL     OW29656   0.828   0.731  14.633  0.0022  0.1955  0.0006
 6065SOL    HW129657   0.766   0.667  14.596  0.5127 -0.8064  0.8660
 6065SOL    HW229658   0.903   0.680  14.663 -1.7163 -2.2563  0.1856
 6066SOL     OW29659   0.130   2.417   5.942 -0.3931  0.7521  0.3449
 6066SOL    HW129660   0.084   2.432   6.024 -0.3621  3.4076 -0.1335
 6066SOL    HW229661   0.207   2.468   5.967  0.9236 -0.2709 -1.6097
 6067SOL     OW29662   0.871   2.318   7.400 -0.2220  0.1071 -0.1609
 6067SOL    HW129663   0.861   2.296   7.308  1.0023 -1.2142  0.0204
 6067SOL    HW229664   0.839   2.240   7.446  0.9159 -0.3397 -0.1478
 6068SOL     OW29665   0.904   0.961   5.548 -0.2032 -0.1163 -0.1939
 6068SOL    HW129666   0.993   0.992   5.564 -0.1429 -1.7995  2.5813
 6068SOL    HW229667   0.935   0.889   5.492  0.3608  0.9740 -1.2749
 6069SOL     OW29668   0.390   3.370   2.293  0.1598  0.1266  0.0894
 6069SOL    HW129669   0.349   3.284   2.302 -1.2900  1.0027  1.7428
 6069SOL    HW229670   0.312   3.425   2.290 -0.0015 -0.0980  0.1463
 6070SOL     OW29671   2.321   0.755  14.806 -0.0147 -0.7784 -0.3220
 6070SOL    HW129672   2.376   0.813  14.859 -2.9663  2.2326 -0.4794
 6070SOL    HW229673   2.328   0.682  14.866  3.9588 -0.3862 -0.3304
 6071SOL     OW29674   2.787   0.121   4.234  0.0273 -0.0982  0.1979
 6071SOL    HW129675   2.755   0.043   4.279  1.4351  0.5222  2.2798
 6071SOL    HW229676   2.796   0.096   4.143 -1.4516 -1.2843  0.3770
 6072SOL     OW29677   4.378   0.993   0.867  0.3489  0.0629 -0.5914
 6072SOL    HW129678   4.368   0.914   0.815 -1.6635  1.0680 -1.7286
 6072SOL    HW229679   4.451   0.966   0.922 -0.9775 -1.9686  0.1639
 6073SOL     OW29680   2.011   4.176   3.687 -0.4676  0.1039  0.2026
 6073SOL    HW129681   2.081   4.167   3.752  1.3761  2.1639 -1.4987
 6073SOL    HW229682   1.994   4.082   3.676  0.8468 -0.1685  0.4656
 6074SOL     OW29683   1.931   4.010   4.026  0.2853 -0.3658 -0.4835
 6074SOL    HW129684   1.862   4.047   3.972 -1.3275  1.0746  2.5366
 6074SOL    HW229685   1.884   3.955   4.089  1.3263 -0.5474  0.1417
 6075SOL     OW29686   3.557   2.579  12.322  0.5447  0.1007  0.2333
 6075SOL    HW129687   3.517   2.665  12.332 -2.5923 -1.5417  1.7966
 6075SOL    HW229688   3.590   2.582  12.232  0.9257 -1.1077  0.3309
 6076SOL     OW29689   0.972   0.458  17.144 -0.2146 -0.0544  0.4652
 6076SOL    HW129690   0.947   0.386  17.202 -0.7224 -1.7846 -1.8927
 6076SOL    HW229691   0.890   0.507  17.138  0.7841  1.1983 -3.6377
 6077SOL     OW29692   1.189   2.164   2.481  0.1830  0.4448 -0.8402
 6077SOL    HW129693   1.276   2.127   2.495 -0.3345 -0.0191  1.1971
 6077SOL    HW229694   1.155   2.155   2.570 -0.3917 -1.7417 -1.2725
 6078SOL     OW29695   4.068   1.808   4.478 -0.0086  0.1958  0.2212
 6078SOL    HW129696   3.994   1.863   4.504 -1.0905 -2.1881  2.1126
 6078SOL    HW229697   4.116   1.860   4.413  1.7312  0.4296  1.7134
 6079SOL     OW29698   2.395   0.759   6.889 -0.1023 -0.0121  0.1066
 6079SOL    HW129699   2.482   0.761   6.927  0.3605 -0.7684 -0.8992
 6079SOL    HW229700   2.338   0.808   6.948  0.8527  0.1115  0.9155
 6080SOL     OW29701   0.524   2.608   8.863 -0.0485 -0.0362 -0.0883
 6080SOL    HW129702   0.597   2.550   8.841  3.4091  4.5726 -0.8517
 6080SOL    HW229703   0.507   2.609   8.957  2.5518 -0.9200  0.3919
 6081SOL     OW29704   2.304   2.778   2.159  0.7540  0.3240  0.5407
 6081SOL    HW129705   2.247   2.733   2.095 -0.2289  1.5332  0.5840
 6081SOL    HW229706   2.371   2.710   2.174 -0.5282 -1.3573 -1.2508
 6082SOL     OW29707   4.275   0.883   9.029  0.0206  0.4832 -0.8548
 6082SOL    HW129708   4.236   0.931   8.956  1.3897  0.0974 -1.8439
 6082SOL    HW229709   4.284   0.952   9.095 -1.4308 -0.6890  0.5587
 6083SOL     OW29710   4.537   3.906  15.764  0.6079  0.0001  0.2350
 6083SOL    HW129711   4.444   3.928  15.765 -0.0171 -2.4226 -3.2001
 6083SOL    HW229712   4.555   3.920  15.671  1.3666  2.3854  0.7590
 6084SOL     OW29713   0.477   0.676   6.866  0.3108  0.6857 -0.2793
 6084SOL    HW129714   0.539   0.657   6.937 -0.1288 -0.1445 -0.1193
 6084SOL    HW229715   0.536   0.673   6.791 -0.2120  0.7479 -0.6945
 6085SOL     OW29716   3.830   1.893   8.677  0.2462 -0.0666 -0.7899
 6085SOL    HW129717   3.768   1.920   8.745  2.2617  0.8558  0.6817
 6085SOL    HW229718   3.890   1.843   8.733  0.4468 -1.3811 -2.1763
 6086SOL     OW29719   2.761   3.138   2.666 -0.1514  0.2557  0.4539
 6086SOL    HW129720   2.781   3.190   2.588 -1.7459  0.8463  0.4527
 6086SOL    HW229721   2.729   3.207   2.723  0.7304  1.0968 -0.0856
 6087SOL     OW29722   0.351   2.863   4.303 -0.5537  0.4491  0.2157
 6087SOL    HW129723   0.314   2.861   4.391  1.0821 -0.3111  0.8939
 6087SOL    HW229724   0.269   2.893   4.265 -0.3208  1.4912  0.5349
 6088SOL     OW29725   4.247   2.107  14.801  0.3385  0.2849  0.1220
 6088SOL    HW129726   4.223   2.188  14.846 -0.5798  0.7521 -1.2200
 6088SOL    HW229727   4.170   2.080  14.751  0.1482  0.0323  0.5502
 6089SOL     OW29728   0.081   1.098   5.276  0.9300  0.2239  0.1018
 6089SOL    HW129729   0.087   1.006   5.253 -3.1263 -0.5399  2.0469
 6089SOL    HW229730   4.711   1.099   5.298  0.6659 -1.2359 -0.9758
 6090SOL     OW29731   3.581   0.919  16.321  0.3213  0.3208  0.2437
 6090SOL    HW129732   3.559   0.827  16.335 -1.8640  0.7569 -0.2967
 6090SOL    HW229733   3.628   0.941  16.402  3.7033  0.0325 -1.6289
 6091SOL     OW29734   2.308   1.484   9.765 -0.0956 -0.7373 -0.3903
 6091SOL    HW129735   2.400   1.457   9.755 -0.4779 -2.2141  0.1071
 6091SOL    HW229736   2.260   1.402   9.753 -0.5270 -0.9955  3.1467
 6092SOL     OW29737   2.289   0.570  10.273  0.1665 -0.5359 -0.3665
 6092SOL    HW129738   2.286   0.638  10.339  1.9809 -1.6283  0.8404
 6092SOL    HW229739   2.381   0.546  10.267  0.6142  1.1885 -0.3089
 6093SOL     OW29740   0.065   4.085   3.962  0.7152  0.2719  0.4366
 6093SOL    HW129741   0.075   3.991   3.947 -2.0305 -0.7886  5.2154
 6093SOL    HW229742   0.147   4.104   4.006  0.6966 -0.6352  0.8458
 6094SOL     OW29743   0.736   2.458  14.155 -0.2548 -0.0425 -1.0529
 6094SOL    HW129744   0.745   2.363  14.153  0.0313  0.0151 -2.3842
 6094SOL    HW229745   0.776   2.481  14.071  1.8303  0.2583  0.0350
 6095SOL     OW29746   1.604   1.413   7.985  0.4171 -0.3454 -0.0462
 6095SOL    HW129747   1.562   1.361   8.053 -0.9501  0.2472 -0.4299
 6095SOL    HW229748   1.689   1.370   7.994  0.6404  0.3776  1.3253
 6096SOL     OW29749   2.674   1.365   8.272 -0.2271  0.1529  0.3605
 6096SOL    HW129750   2.613   1.291   8.277  1.0792 -1.1624 -3.2635
 6096SOL    HW229751   2.727   1.345   8.349 -0.6239 -0.0359  0.5882
 6097SOL     OW29752   1.663   1.865   2.117  0.0684  0.0660 -0.5974
 6097SOL    HW129753   1.757   1.855   2.106 -0.1701 -3.7244  0.7731
 6097SOL    HW229754   1.662   1.945   2.169  0.0978 -2.4052  3.1655
 6098SOL     OW29755   1.866   0.737   9.640  0.5649  0.5895 -0.2915
 6098SOL    HW129756   1.785   0.691   9.617  0.9578 -0.0805 -0.3314
 6098SOL    HW229757   1.886   0.677   9.712  1.3127  0.7914 -0.3390
 6099SOL     OW29758   0.488   2.199   3.941  0.1679  0.1313 -0.2143
 6099SOL    HW129759   0.502   2.272   4.001 -1.4955 -1.0239  1.5536
 6099SOL    HW229760   0.476   2.239   3.855 -0.4071 -2.8069 -1.5107
 6100SOL     OW29761   4.258   1.672  16.972  0.2653  0.5630 -0.3937
 6100SOL    HW129762   4.244   1.580  16.948  1.4474  0.5953 -1.2162
 6100SOL    HW229763   4.175   1.707  16.939 -0.0189  0.6733  0.4497
 6101SOL     OW29764   1.016   4.261   2.203  0.1080  0.0745  0.0148
 6101SOL    HW129765   1.006   4.337   2.260 -0.5536  0.3779 -0.5096
 6101SOL    HW229766   1.039   4.187   2.259  2.9807 -0.7079 -2.1678
 6102SOL     OW29767   1.851   0.816   3.252 -0.4940 -0.4666  0.4603
 6102SOL    HW129768   1.871   0.819   3.345  0.1371  1.4502  0.2683
 6102SOL    HW229769   1.832   0.722   3.246 -0.3368 -0.4500 -0.3202
 6103SOL     OW29770   3.235   0.075   3.465  0.1569  0.1539 -0.2288
 6103SOL    HW129771   3.144   0.087   3.493 -0.2113  0.7392 -1.6589
 6103SOL    HW229772   3.274   0.067   3.552 -1.5344 -1.6241  0.3788
 6104SOL     OW29773   0.678   0.043   7.938  0.1922  0.1113  0.2795
 6104SOL    HW129774   0.745   0.021   7.874 -0.4957 -0.5053 -0.2235
 6104SOL    HW229775   0.682   0.139   7.937 -0.4219  0.1220 -0.4928
 6105SOL     OW29776   0.061   1.140   2.613 -0.2594  0.1781  0.2347
 6105SOL    HW129777   4.701   1.098   2.633 -1.4646  2.4059 -0.1915
 6105SOL    HW229778   0.052   1.215   2.672  0.9207 -0.9711  1.8828
 6106SOL     OW29779   1.922   1.916   0.286 -0.1106  0.1715  0.2933
 6106SOL    HW129780   1.987   1.969   0.332  0.3138 -0.4855  0.4561
 6106SOL    HW229781   1.846   1.975   0.283  0.9366  1.5803  1.6435
 6107SOL     OW29782   3.379   0.094   2.748  0.3346  0.2205  0.0142
 6107SOL    HW129783   3.402   0.176   2.793 -1.0972 -0.1309  1.4242
 6107SOL    HW229784   3.445   0.035   2.784  1.5671  1.1428 -0.7294
 6108SOL     OW29785   0.830   3.028   3.828  0.2997 -0.0826  0.0296
 6108SOL    HW129786   0.834   2.987   3.741  0.9403 -0.0443  0.0468
 6108SOL    HW229787   0.762   2.966   3.858 -0.1784  0.0576 -0.7703
 6109SOL     OW29788   0.621   0.375   0.806 -0.2101  0.1014 -0.1631
 6109SOL    HW129789   0.543   0.350   0.855  1.4513 -2.1461  1.3572
 6109SOL    HW229790   0.637   0.467   0.831  0.0248 -0.1077  0.4727
 6110SOL     OW29791   2.910   4.479   5.817  0.1250 -0.3328  0.1481
 6110SOL    HW129792   2.893   4.469   5.911  2.6028 -3.5009  0.2640
 6110SOL    HW229793   2.841   4.419   5.786 -0.7829  0.7192  0.1143
 6111SOL     OW29794   1.299   4.431   9.254  0.1189  0.2287 -0.3293
 6111SOL    HW129795   1.368   4.481   9.299  1.6569 -0.5433 -1.8123
 6111SOL    HW229796   1.230   4.440   9.319  1.1921  0.9812  0.7030
 6112SOL     OW29797   3.487   1.676  15.282  0.0373  0.3033  0.0668
 6112SOL    HW129798   3.422   1.652  15.349  0.6255 -0.1067  0.4904
 6112SOL    HW229799   3.569   1.648  15.322  0.2588 -0.0033 -0.6020
 6113SOL     OW29800   2.745   2.326  10.150  0.4632  0.0431 -0.2873
 6113SOL    HW129801   2.804   2.400  10.139  0.0939  0.0283 -2.3795
 6113SOL    HW229802   2.669   2.359  10.101  0.6673 -0.7122 -1.1020
 6114SOL     OW29803   0.674   3.288  13.446  0.3083 -0.2000 -0.5902
 6114SOL    HW129804   0.607   3.284  13.515  1.3776 -1.0612  0.4039
 6114SOL    HW229805   0.743   3.233  13.483  0.3442 -0.9139 -1.7270
 6115SOL     OW29806   2.273   2.451   8.939  0.0149  0.4049 -0.1631
 6115SOL    HW129807   2.186   2.475   8.907 -0.3713  1.2253  1.5208
 6115SOL    HW229808   2.316   2.536   8.938 -2.4865  1.6688 -0.5770
 6116SOL     OW29809   1.101   3.977   2.310  0.1006 -0.7420 -0.0948
 6116SOL    HW129810   1.166   4.040   2.341 -1.4380  0.5482  0.5269
 6116SOL    HW229811   1.049   3.962   2.389  0.5856  0.0938  0.3847
 6117SOL     OW29812   2.011   0.833   2.040 -0.0986 -0.2188  0.3506
 6117SOL    HW129813   2.044   0.753   2.001 -0.3200  0.1755 -0.6470
 6117SOL    HW229814   1.940   0.855   1.979 -0.7115  0.6258  1.3519
 6118SOL     OW29815   3.617   3.874   7.216  0.0098 -0.5052  0.1224
 6118SOL    HW129816   3.631   3.928   7.293 -0.3241 -1.3668  0.7901
 6118SOL    HW229817   3.598   3.785   7.246 -1.7591 -0.0005  0.5110
 6119SOL     OW29818   0.257   2.116   3.480  0.1223  0.1134  0.3486
 6119SOL    HW129819   0.206   2.087   3.556 -0.1325 -0.5550 -0.0718
 6119SOL    HW229820   0.220   2.204   3.475 -3.0440 -1.2938 -0.9589
 6120SOL     OW29821   2.992   2.564   2.525 -0.4497  0.6253  0.1332
 6120SOL    HW129822   2.951   2.645   2.495 -0.5603 -0.4648 -2.5849
 6120SOL    HW229823   3.085   2.578   2.512 -0.0571 -2.7395 -0.7719
 6121SOL     OW29824   0.070   4.709  17.247  0.2844  0.4635 -0.5146
 6121SOL    HW129825   0.017   0.047  17.195 -1.1935  0.3987  0.9127
 6121SOL    HW229826   0.038   4.623  17.222 -0.1746  0.5185 -0.1248
 6122SOL     OW29827   4.618   3.285  15.847 -0.4761  0.3711  0.2381
 6122SOL    HW129828   4.578   3.199  15.836 -1.7255  1.0869 -0.7085
 6122SOL    HW229829   4.623   3.312  15.755  0.7781  0.1096  0.2242
 6123SOL     OW29830   3.557   4.639   7.276  0.4434 -0.2670 -0.0221
 6123SOL    HW129831   3.489   4.601   7.219 -1.0129 -0.8910  2.1173
 6123SOL    HW229832   3.612   4.682   7.211 -0.0515 -0.4625 -0.5740
 6124SOL     OW29833   2.090   0.036  15.768  0.3973  0.9304 -0.1780
 6124SOL    HW129834   2.107   0.130  15.774  2.2609  0.7257 -2.1530
 6124SOL    HW229835   2.019   0.019  15.829  0.0722  2.5870 -0.1138
 6125SOL     OW29836   4.377   2.481  12.225  0.5019  0.1914  0.0483
 6125SOL    HW129837   4.446   2.538  12.258  0.4922  0.0821  0.2559
 6125SOL    HW229838   4.309   2.548  12.216  0.1228 -0.0227  1.3586
 6126SOL     OW29839   2.650   4.613   4.327 -0.1460  0.3733 -0.1434
 6126SOL    HW129840   2.599   4.579   4.253  2.2921 -1.3720 -1.0632
 6126SOL    HW229841   2.618   4.543   4.385  1.8652 -0.5164 -0.0981
 6127SOL     OW29842   1.141   1.201   3.294 -0.2621  0.2516 -0.4179
 6127SOL    HW129843   1.138   1.204   3.390 -0.6826  0.9964 -0.4545
 6127SOL    HW229844   1.060   1.154   3.273  0.4993 -0.7123 -1.1900
 6128SOL     OW29845   2.490   1.776   5.114 -0.1778  0.0385  0.1499
 6128SOL    HW129846   2.415   1.723   5.085 -2.4021  2.6947  1.0240
 6128SOL    HW229847   2.526   1.718   5.180  2.6072  0.9843 -0.5560
 6129SOL     OW29848   2.438   2.384  10.089 -0.3682  0.0592  0.3358
 6129SOL    HW129849   2.368   2.415  10.031 -0.6429  1.9136  1.6762
 6129SOL    HW229850   2.441   2.444  10.163  1.1658 -0.1882  0.4702
 6130SOL     OW29851   3.142   1.549   8.427  0.3107  0.5265 -0.4721
 6130SOL    HW129852   3.068   1.535   8.485  0.2570  2.1925 -0.1510
 6130SOL    HW229853   3.116   1.481   8.364 -0.6076 -0.1060  0.5850
 6131SOL     OW29854   1.828   4.580   1.033 -0.0818 -0.2644 -0.0622
 6131SOL    HW129855   1.828   4.575   1.128 -1.0500  3.2699  0.1165
 6131SOL    HW229856   1.775   4.504   1.010 -2.0004  1.2012 -0.4500
 6132SOL     OW29857   0.037   3.113  10.110  0.3092  0.1494  0.1444
 6132SOL    HW129858   4.720   3.027  10.116 -1.2628  1.0158  2.2306
 6132SOL    HW229859   0.131   3.102  10.122  0.4034 -0.1178 -0.8546
 6133SOL     OW29860   1.923   0.348  11.913  0.1148  0.3335  0.3206
 6133SOL    HW129861   1.947   0.437  11.938  0.4871 -0.2166  1.9291
 6133SOL    HW229862   1.975   0.336  11.833  0.6550  2.3014  0.3812
 6134SOL     OW29863   0.878   3.008   3.136 -0.6453 -0.6339 -0.5877
 6134SOL    HW129864   0.894   2.991   3.229 -0.6731 -0.0558 -0.4780
 6134SOL    HW229865   0.839   2.922   3.120  1.4915 -1.8732  0.8779
 6135SOL     OW29866   0.430   3.124   6.203  0.7188 -0.2113  0.1864
 6135SOL    HW129867   0.519   3.143   6.233 -0.4701  1.3453  2.7532
 6135SOL    HW229868   0.442   3.043   6.153 -3.7127 -0.3229 -0.6343
 6136SOL     OW29869   1.050   1.011  11.859 -0.3348 -0.7505 -0.0583
 6136SOL    HW129870   1.048   0.917  11.876  2.3081 -0.3123  2.6094
 6136SOL    HW229871   0.956   1.025  11.869  0.0457 -0.7167  3.5955
 6137SOL     OW29872   2.117   1.314   5.802 -0.0694  0.0658  0.0821
 6137SOL    HW129873   2.090   1.359   5.881 -0.1843 -0.3666  0.2931
 6137SOL    HW229874   2.127   1.379   5.733  1.9229 -1.4118 -1.0309
 6138SOL     OW29875   0.828   2.206   8.712  0.5904  0.0634 -0.4961
 6138SOL    HW129876   0.846   2.202   8.806 -1.4777 -0.5992 -0.1379
 6138SOL    HW229877   0.899   2.151   8.679  1.3799  0.2485  0.8719
 6139SOL     OW29878   0.903   0.130   1.768 -0.1308 -0.3065  0.9133
 6139SOL    HW129879   0.889   0.036   1.778 -0.3550 -0.2567  1.0789
 6139SOL    HW229880   0.994   0.146   1.793 -0.1428  1.3260 -0.0847
 6140SOL     OW29881   1.888   4.274   1.149  0.6055 -0.4287 -0.1656
 6140SOL    HW129882   1.973   4.306   1.119  1.3827 -1.0915  1.3221
 6140SOL    HW229883   1.856   4.216   1.079  2.0783  0.1522 -1.3018
 6141SOL     OW29884   2.895   0.092   0.497  0.7365 -0.8214  0.0385
 6141SOL    HW129885   2.885   0.184   0.518  0.2241 -0.5378 -1.3975
 6141SOL    HW229886   2.840   0.096   0.418 -0.8234  0.9870  1.2367
 6142SOL     OW29887   1.234   0.841   6.588 -0.4100  0.2515 -0.3841
 6142SOL    HW129888   1.160   0.901   6.574 -0.3208  0.2224 -0.9889
 6142SOL    HW229889   1.255   0.813   6.499 -1.3928  0.9305 -0.8260
 6143SOL     OW29890   2.355   0.581   6.043 -0.4861  0.4484 -0.0110
 6143SOL    HW129891   2.353   0.572   5.947  1.3747 -3.0166  0.3084
 6143SOL    HW229892   2.366   0.676   6.044  0.8932  0.3090 -3.0719
 6144SOL     OW29893   1.412   1.628   8.384 -0.0215  0.5202 -0.3825
 6144SOL    HW129894   1.502   1.638   8.414 -0.7223  1.5013  1.3991
 6144SOL    HW229895   1.381   1.715   8.408 -1.5308  0.6804 -2.9556
 6145SOL     OW29896   3.248   2.523   9.311  0.0842  0.2175 -0.2793
 6145SOL    HW129897   3.249   2.592   9.245  3.4313  0.3022 -0.1347
 6145SOL    HW229898   3.342   2.508   9.320  0.4377  1.4365 -1.9542
 6146SOL     OW29899   1.531   3.568  16.002  0.1045 -0.0590 -0.4470
 6146SOL    HW129900   1.584   3.495  16.034 -0.6463 -0.7928 -0.8844
 6146SOL    HW229901   1.532   3.626  16.079 -0.5519  1.1861 -1.3843
 6147SOL     OW29902   1.490   2.708   4.152 -0.2576 -0.1369 -0.0879
 6147SOL    HW129903   1.460   2.674   4.236 -1.0610  0.6083 -0.0783
 6147SOL    HW229904   1.480   2.623   4.109  0.2690 -0.9255  1.3541
 6148SOL     OW29905   1.851   1.347   3.543 -0.3018 -0.0781 -0.2362
 6148SOL    HW129906   1.769   1.394   3.528 -0.5354 -0.1534  0.7869
 6148SOL    HW229907   1.917   1.415   3.537  0.2802 -0.7464 -1.2102
 6149SOL     OW29908   1.538   0.510   5.959 -0.5519 -1.0783  0.4749
 6149SOL    HW129909   1.536   0.605   5.955  3.3443 -1.0143 -0.6560
 6149SOL    HW229910   1.628   0.484   5.980  0.2056  0.6782 -0.5334
 6150SOL     OW29911   3.708   4.413  11.068  0.0816  0.1416  0.0079
 6150SOL    HW129912   3.794   4.449  11.045  1.0859 -0.9009  2.1474
 6150SOL    HW229913   3.654   4.421  10.989 -0.5989 -0.3790  0.4201
 6151SOL     OW29914   4.125   1.511   3.886  0.4434 -0.5443  0.2354
 6151SOL    HW129915   4.168   1.443   3.835 -3.0747 -1.6666 -1.2514
 6151SOL    HW229916   4.179   1.501   3.964  0.9312  1.1142  0.0944
 6152SOL     OW29917   1.022   1.030   4.785 -0.3903  0.5347 -0.3617
 6152SOL    HW129918   0.980   1.071   4.860  1.2859  1.1422  0.2397
 6152SOL    HW229919   0.977   1.076   4.714  1.4966 -0.1370 -1.9917
 6153SOL     OW29920   0.248   0.759   8.346 -0.0990 -0.1575  0.2722
 6153SOL    HW129921   0.279   0.816   8.416 -3.0777 -0.3560  1.7443
 6153SOL    HW229922   0.158   0.737   8.370 -0.0276 -1.4271 -0.6440
 6154SOL     OW29923   4.407   1.922   3.324 -0.5713  0.0436 -0.7155
 6154SOL    HW129924   4.494   1.882   3.318 -0.7606 -0.6230  0.8476
 6154SOL    HW229925   4.373   1.896   3.239  0.5779 -1.3986 -0.7425
 6155SOL     OW29926   0.249   4.156   1.982  0.2085 -0.2844 -0.3815
 6155SOL    HW129927   0.207   4.081   2.026 -0.4934  0.9829  1.0852
 6155SOL    HW229928   0.199   4.229   2.018 -0.3505  0.5670 -2.8756
 6156SOL     OW29929   1.499   4.211   1.981  0.3728  0.2387 -0.2828
 6156SOL    HW129930   1.498   4.259   1.898 -1.8909  0.7954  0.0787
 6156SOL    HW229931   1.418   4.161   1.989  1.1910 -1.1138 -0.3534
 6157SOL     OW29932   0.197   0.203   8.572  0.3155 -0.3062  0.2107
 6157SOL    HW129933   0.205   0.295   8.599 -1.4553  0.3922 -1.6655
 6157SOL    HW229934   0.202   0.157   8.656 -1.2319  1.4148  1.2407
 6158SOL     OW29935   0.415   0.671   7.530 -0.2424 -0.0712 -0.1771
 6158SOL    HW129936   0.478   0.625   7.585 -0.5967 -1.3694 -0.8378
 6158SOL    HW229937   0.456   0.668   7.443 -0.6261  1.0003 -0.3913
 6159SOL     OW29938   2.586   2.075   2.265 -0.3729 -0.4742 -0.1724
 6159SOL    HW129939   2.629   1.992   2.242  1.2546 -0.1382  1.5726
 6159SOL    HW229940   2.587   2.121   2.181 -0.1140 -0.8515 -0.3744
 6160SOL     OW29941   4.110   2.199  11.173  0.0046  0.8943 -0.4071
 6160SOL    HW129942   4.167   2.244  11.236  0.0307  0.9425 -0.4653
 6160SOL    HW229943   4.170   2.186  11.100  0.9142  1.2374  0.2773
 6161SOL     OW29944   0.773   0.724  17.526  0.1348  0.1245 -0.0946
 6161SOL    HW129945   0.788   0.759  17.614  1.3875 -0.0351 -0.2441
 6161SOL    HW229946   0.845   0.661  17.518 -0.3504 -0.5614  0.9229
 6162SOL     OW29947   0.690   0.728  16.997  0.1092  0.0391  0.3026
 6162SOL    HW129948   0.681   0.780  17.077 -1.2661 -1.1854  0.9258
 6162SOL    HW229949   0.730   0.782  16.928 -0.0166  1.0389  1.0225
 6163SOL     OW29950   0.347   4.699   7.683 -0.2844  0.1787  1.1415
 6163SOL    HW129951   0.378   4.703   7.774  0.5276  0.0055  0.8798
 6163SOL    HW229952   0.379   0.058   7.647 -1.3192  0.8449  1.7323
 6164SOL     OW29953   3.871   2.947   0.707 -0.5379 -0.6127 -0.0791
 6164SOL    HW129954   3.804   2.937   0.640 -1.0844 -0.8918  0.5171
 6164SOL    HW229955   3.829   2.941   0.793  1.4458  2.5255  1.1294
 6165SOL     OW29956   3.682   1.851   3.616 -0.1478 -0.1790 -0.0320
 6165SOL    HW129957   3.624   1.916   3.578 -0.2537 -0.4389 -0.3201
 6165SOL    HW229958   3.690   1.798   3.536  1.5806 -1.5193  1.0033
 6166SOL     OW29959   0.299   4.556  11.009 -0.2367 -0.1139  0.6823
 6166SOL    HW129960   0.383   4.571  11.054  0.2833  1.3242 -0.7691
 6166SOL    HW229961   0.239   4.618  11.052 -0.7049  1.3637 -2.1157
 6167SOL     OW29962   1.876   1.302   9.479  0.4020 -0.5899 -0.6703
 6167SOL    HW129963   1.838   1.215   9.469  0.4634 -0.4177 -2.3525
 6167SOL    HW229964   1.803   1.338   9.530 -0.2611 -1.9357 -0.6668
 6168SOL     OW29965   1.389   1.556   7.034 -0.8256  0.6716 -0.0206
 6168SOL    HW129966   1.326   1.493   7.068  0.9682 -1.4013 -0.5405
 6168SOL    HW229967   1.438   1.580   7.112 -0.3887  0.5677 -0.2639
 6169SOL     OW29968   4.481   2.501   6.013  0.4117 -0.0215 -0.2628
 6169SOL    HW129969   4.472   2.408   6.032  1.3679  0.0209  0.3864
 6169SOL    HW229970   4.540   2.526   6.084 -0.7557  2.1145 -0.0515
 6170SOL     OW29971   4.309   1.686  10.351 -0.6998  0.0578 -0.2765
 6170SOL    HW129972   4.386   1.711  10.403 -0.3407 -0.9164 -0.3482
 6170SOL    HW229973   4.272   1.613  10.400  1.1240 -0.8821 -0.2971
 6171SOL     OW29974   4.314   2.974   7.359  0.0915  0.0046 -0.3465
 6171SOL    HW129975   4.367   2.895   7.349  0.0902 -0.0371 -0.0165
 6171SOL    HW229976   4.382   3.040   7.374 -0.1276 -0.1404  1.2861
 6172SOL     OW29977   0.721   4.713   8.203  0.0161 -0.6478 -0.5319
 6172SOL    HW129978   0.739   0.079   8.234  1.5499 -1.0817 -0.2107
 6172SOL    HW229979   0.712   0.005   8.109  1.5475  0.7839 -0.4497
 6173SOL     OW29980   0.378   1.388   0.987  1.1093  0.1242 -0.2194
 6173SOL    HW129981   0.407   1.330   0.916 -2.9401 -2.3686  0.1335
 6173SOL    HW229982   0.451   1.448   0.999 -1.1529  2.5756  1.3125
 6174SOL     OW29983   2.371   3.258   8.847  0.2111 -0.5328 -0.2683
 6174SOL    HW129984   2.342   3.238   8.936  0.2887 -1.1714 -0.3885
 6174SOL    HW229985   2.345   3.348   8.828 -0.4921 -0.9943 -1.4900
 6175SOL     OW29986   0.771   2.546   4.906 -0.5717 -0.1706 -0.4871
 6175SOL    HW129987   0.677   2.563   4.905 -0.8165 -1.6418 -1.8087
 6175SOL    HW229988   0.783   2.531   5.000  0.7887 -1.2264 -0.8367
 6176SOL     OW29989   2.249   1.236   2.510 -0.0432  0.3642 -0.0637
 6176SOL    HW129990   2.322   1.269   2.562  2.3834 -0.9400 -2.6454
 6176SOL    HW229991   2.289   1.218   2.425  0.1744 -1.7185  0.4794
 6177SOL     OW29992   2.341   4.397   2.745 -0.4537 -0.0171 -0.3229
 6177SOL    HW129993   2.317   4.304   2.736 -0.1249 -0.0074 -1.3776
 6177SOL    HW229994   2.321   4.419   2.654 -1.7136 -1.0316 -0.3014
 6178SOL     OW29995   1.966   2.240  10.033 -0.3563 -0.0870 -0.5292
 6178SOL    HW129996   1.996   2.275   9.949  0.0119  0.9922  0.0554
 6178SOL    HW229997   2.046   2.193  10.056 -0.8668  0.2307  1.9235
 6179SOL     OW29998   1.584   3.617   5.864  0.0482 -0.2069 -0.3869
 6179SOL    HW129999   1.631   3.700   5.863  0.0213 -0.1740  1.4961
 6179SOL    HW230000   1.551   3.616   5.774 -2.8681 -1.7967  0.6856
 6180SOL     OW30001   4.598   1.531   6.416  0.0476  0.2178  0.5069
 6180SOL    HW130002   4.593   1.488   6.501  0.6004  2.8423  1.8910
 6180SOL    HW230003   4.512   1.513   6.379 -0.2046 -0.7666  1.5489
 6181SOL     OW30004   3.051   1.395  11.952  0.3114 -0.4680 -0.3711
 6181SOL    HW130005   3.143   1.395  11.926 -0.1270 -1.4765 -1.9866
 6181SOL    HW230006   3.009   1.342  11.884  1.1574 -1.6526  0.0349
 6182SOL     OW30007   2.535   3.099   5.268  0.5571 -0.5410  0.2900
 6182SOL    HW130008   2.591   3.043   5.213  1.9568 -1.4230  2.5996
 6182SOL    HW230009   2.600   3.164   5.296  0.7365 -1.1146  1.1981
 6183SOL     OW30010   3.961   4.283   0.520  0.0718  0.1014  0.4690
 6183SOL    HW130011   3.932   4.253   0.606 -1.1742 -1.4592 -0.4929
 6183SOL    HW230012   3.969   4.377   0.538 -0.2077  0.3329 -0.5920
 6184SOL     OW30013   3.519   2.571  11.645 -0.1860 -0.1433  0.1488
 6184SOL    HW130014   3.513   2.561  11.550  1.0184 -1.8263  0.2307
 6184SOL    HW230015   3.432   2.606  11.662  0.5415  0.8319  1.9356
 6185SOL     OW30016   3.262   3.293   9.251 -0.1150  0.2909  1.2013
 6185SOL    HW130017   3.322   3.254   9.188  2.0756  1.0459  2.8459
 6185SOL    HW230018   3.298   3.254   9.331  2.6574  1.5959  0.5722
 6186SOL     OW30019   2.629   1.174   2.418 -0.0004 -0.4876  0.1667
 6186SOL    HW130020   2.717   1.192   2.451  0.7840 -1.5365 -1.3450
 6186SOL    HW230021   2.572   1.197   2.491 -0.2333  1.6551 -0.7150
 6187SOL     OW30022   2.058   2.184   2.175 -0.7633  0.6985  0.5205
 6187SOL    HW130023   2.133   2.213   2.227  0.2656  1.7686 -1.5657
 6187SOL    HW230024   2.012   2.132   2.241  0.6596  0.0370  0.9858
 6188SOL     OW30025   1.574   2.595  12.020  0.6363 -0.6031 -0.0377
 6188SOL    HW130026   1.550   2.654  11.948  2.5627  0.5545  0.2902
 6188SOL    HW230027   1.641   2.541  11.977  0.8478 -0.4088  0.0501
 6189SOL     OW30028   1.405   2.710   8.734 -0.1134 -0.3552 -0.1691
 6189SOL    HW130029   1.394   2.795   8.691  2.4967 -0.5307 -1.1724
 6189SOL    HW230030   1.497   2.686   8.719  0.4142  0.8469  1.1831
 6190SOL     OW30031   1.481   0.768   8.686 -0.5688  0.4292  0.5283
 6190SOL    HW130032   1.413   0.818   8.641  0.5892 -0.5645 -2.3267
 6190SOL    HW230033   1.454   0.677   8.676 -0.4352  0.5627 -1.1287
 6191SOL     OW30034   4.689   2.910   6.674 -1.1160  0.2434  0.4531
 6191SOL    HW130035   0.052   2.950   6.684 -0.9657 -0.4731  2.0491
 6191SOL    HW230036   4.661   2.944   6.589  5.0377  1.8697 -0.8891
 6192SOL     OW30037   1.587   0.062   0.815 -0.0060  0.5733 -0.0574
 6192SOL    HW130038   1.546   0.075   0.901  3.8298  0.9472  1.7208
 6192SOL    HW230039   1.628   0.148   0.812  0.4279  0.4072  0.9943
 6193SOL     OW30040   2.522   3.803   1.302  0.1741 -0.0759 -0.2235
 6193SOL    HW130041   2.531   3.716   1.261  1.8837 -0.0464  0.1254
 6193SOL    HW230042   2.512   3.858   1.224  2.9200  0.2662 -0.3169
 6194SOL     OW30043   4.320   4.013  13.470  0.2505 -0.7600  0.1090
 6194SOL    HW130044   4.383   4.001  13.399  0.0284  0.9022 -0.3555
 6194SOL    HW230045   4.340   4.098  13.509 -1.8496 -0.9893  1.6729
 6195SOL     OW30046   3.805   2.158   0.779  0.0942  0.7177 -0.2168
 6195SOL    HW130047   3.836   2.245   0.753 -0.9131  1.5829  1.4718
 6195SOL    HW230048   3.867   2.128   0.845  1.4088  1.1508 -1.2562
 6196SOL     OW30049   2.172   0.406   2.907  0.2200 -0.5024 -0.5263
 6196SOL    HW130050   2.213   0.357   2.978 -0.4273  0.0101  0.2062
 6196SOL    HW230051   2.085   0.421   2.946  1.1936  1.5061  0.9314
 6197SOL     OW30052   4.108   0.211  15.696 -0.4129 -0.6028  0.9058
 6197SOL    HW130053   4.026   0.211  15.745 -1.1695  2.4527 -0.3483
 6197SOL    HW230054   4.095   0.216  15.601 -1.2397  0.2993  1.0729
 6198SOL     OW30055   0.730   3.214  11.511 -0.0411  0.1733  0.3400
 6198SOL    HW130056   0.660   3.165  11.469  0.4466  0.5935 -0.9618
 6198SOL    HW230057   0.813   3.168  11.495  0.2691  0.1549  1.9433
 6199SOL     OW30058   0.651   0.582   5.721 -0.3037  0.1749 -0.0489
 6199SOL    HW130059   0.692   0.496   5.737 -0.9781 -0.4204 -1.4628
 6199SOL    HW230060   0.565   0.573   5.761 -0.4704 -0.9101 -0.6446
 6200SOL     OW30061   1.531   1.630   7.261 -0.5806  0.1538 -0.4154
 6200SOL    HW130062   1.508   1.624   7.354 -2.7928 -0.5847 -1.0004
 6200SOL    HW230063   1.608   1.574   7.260  0.2540  1.3468 -1.7369
 6201SOL     OW30064   0.738   2.877   0.161 -0.2245  0.0446 -0.7179
 6201SOL    HW130065   0.694   2.952   0.203 -0.2983  1.0225 -2.5550
 6201SOL    HW230066   0.660   2.833   0.129 -1.0667  0.7619  0.3365
 6202SOL     OW30067   2.291   1.420   9.227  0.4012 -0.3099  0.2314
 6202SOL    HW130068   2.333   1.504   9.242 -0.8850 -0.0896  2.6320
 6202SOL    HW230069   2.363   1.363   9.253  0.0277 -1.0886 -0.4182
 6203SOL     OW30070   0.428   1.362  17.484  0.1664 -0.0647  0.4280
 6203SOL    HW130071   0.448   1.406  17.566  0.0968  0.3875  0.2029
 6203SOL    HW230072   0.336   1.382  17.469  0.0829  0.5141  1.7291
 6204SOL     OW30073   1.157   1.431   0.598  0.0950 -0.2779  0.1071
 6204SOL    HW130074   1.145   1.461   0.508  1.5944  1.7367  0.5937
 6204SOL    HW230075   1.249   1.406   0.594  0.2859  0.1356  1.9209
 6205SOL     OW30076   4.492   4.329   1.919  0.0921 -0.0007  0.3149
 6205SOL    HW130077   4.425   4.261   1.918 -0.9868  1.0706 -1.7357
 6205SOL    HW230078   4.534   4.296   1.840 -2.3747  1.6519 -1.7056
 6206SOL     OW30079   4.353   4.332   4.906 -0.0538 -0.6145  0.1876
 6206SOL    HW130080   4.278   4.299   4.955 -0.5176  1.0985  0.6379
 6206SOL    HW230081   4.324   4.326   4.815  2.2487 -0.1756 -0.5790
 6207SOL     OW30082   1.280   1.156   8.521 -0.1421  0.4226 -0.1357
 6207SOL    HW130083   1.189   1.185   8.525  0.2014  1.4140  0.5127
 6207SOL    HW230084   1.315   1.216   8.455 -0.5490  0.3295 -0.4355
 6208SOL     OW30085   3.001   2.043   4.338  0.3624 -0.2782  0.1378
 6208SOL    HW130086   2.931   2.026   4.274  0.1839 -0.8428  0.4798
 6208SOL    HW230087   2.976   1.992   4.415 -0.7059 -0.2185 -0.1641
 6209SOL     OW30088   3.473   1.535   0.763 -0.0041 -0.1400 -0.2299
 6209SOL    HW130089   3.529   1.605   0.798  0.2952 -0.0731 -0.8296
 6209SOL    HW230090   3.538   1.484   0.715  1.6850  0.3504  1.5077
 6210SOL     OW30091   4.126   4.680   6.612 -0.1072  0.0891 -0.1014
 6210SOL    HW130092   4.150   0.008   6.689 -1.0263  0.4300 -0.0413
 6210SOL    HW230093   4.083   0.028   6.565 -1.0413 -0.9906 -0.8846
 6211SOL     OW30094   2.010   4.675   1.466 -0.1596  0.4174  0.0783
 6211SOL    HW130095   1.917   4.665   1.488 -0.2796  0.3366 -0.4683
 6211SOL    HW230096   2.020   4.723   1.384 -0.5861 -0.1236 -0.2872
 6212SOL     OW30097   0.912   1.878   2.350 -0.2476  0.3463  0.3600
 6212SOL    HW130098   1.000   1.841   2.348 -1.3768 -2.3879 -0.2208
 6212SOL    HW230099   0.878   1.848   2.266  0.6085  0.3485  0.0138
 6213SOL     OW30100   0.351   3.879   5.758  0.2257 -0.4000  0.3559
 6213SOL    HW130101   0.295   3.907   5.831  0.7324 -0.4425  0.7641
 6213SOL    HW230102   0.434   3.867   5.806 -0.6068 -1.2744  1.5965
 6214SOL     OW30103   0.963   3.904   4.803 -0.3314  0.3157  0.1445
 6214SOL    HW130104   0.910   3.946   4.871  0.1348 -0.3370  0.9128
 6214SOL    HW230105   0.975   3.817   4.839  0.3445  0.3174 -0.0683
 6215SOL     OW30106   2.154   2.804   5.122  0.1572 -0.6096 -0.2367
 6215SOL    HW130107   2.190   2.769   5.040 -1.5686 -3.5148  0.2280
 6215SOL    HW230108   2.107   2.732   5.163 -2.2677  0.8481 -0.4835
 6216SOL     OW30109   1.144   2.458  14.851 -0.3192 -0.0474 -0.3908
 6216SOL    HW130110   1.076   2.394  14.872  0.1336 -0.8527 -1.3701
 6216SOL    HW230111   1.153   2.444  14.757 -0.0448 -0.4424 -0.3052
 6217SOL     OW30112   2.497   3.469  10.739  0.2072  0.2113 -0.5568
 6217SOL    HW130113   2.538   3.542  10.785  0.9020 -1.3069  1.2752
 6217SOL    HW230114   2.568   3.435  10.685 -1.1186 -0.2052 -2.0334
 6218SOL     OW30115   0.909   4.274   9.063  0.1021  0.4161 -0.0295
 6218SOL    HW130116   0.818   4.261   9.037 -0.3321  1.0262  1.2306
 6218SOL    HW230117   0.901   4.324   9.144 -1.5505 -1.2726  0.8723
 6219SOL     OW30118   2.860   0.656   9.651 -0.0322  0.1543 -0.1332
 6219SOL    HW130119   2.858   0.565   9.680  1.9972  0.6107  1.4469
 6219SOL    HW230120   2.951   0.681   9.669 -0.6651  2.8671 -0.6263
 6220SOL     OW30121   2.987   2.234   5.499  0.4013  0.5061  0.0671
 6220SOL    HW130122   3.045   2.170   5.540 -2.3401 -1.4547  0.8640
 6220SOL    HW230123   2.942   2.269   5.576  0.9907 -0.5066  0.8781
 6221SOL     OW30124   4.004   4.057   6.388 -0.7433 -0.0991 -0.7376
 6221SOL    HW130125   4.063   4.133   6.392 -0.5520 -0.2161 -1.4978
 6221SOL    HW230126   4.066   3.985   6.374  0.3119  0.3445  1.5302
 6222SOL     OW30127   2.614   0.434   7.994  0.3375  0.2057 -0.1830
 6222SOL    HW130128   2.596   0.380   8.071  0.7592 -2.8722 -2.2412
 6222SOL    HW230129   2.537   0.427   7.938  1.9597  0.6854 -2.4706
 6223SOL     OW30130   0.137   0.615   7.519  0.6785 -0.5666  0.0368
 6223SOL    HW130131   0.125   0.621   7.614 -0.7806 -1.5485 -0.0991
 6223SOL    HW230132   0.226   0.579   7.518  0.9610  0.1152  0.7392
 6224SOL     OW30133   2.572   2.136  10.250  0.0697  0.2235  0.3171
 6224SOL    HW130134   2.634   2.198  10.211  0.0037  0.7019  0.9580
 6224SOL    HW230135   2.601   2.130  10.342  1.2493 -0.2610 -0.0833
 6225SOL     OW30136   3.105   1.429   8.986 -0.1003  0.1682  0.1233
 6225SOL    HW130137   3.062   1.401   9.067 -1.0833  2.2227  0.3175
 6225SOL    HW230138   3.155   1.350   8.964  1.9690  1.5264 -0.1253
 6226SOL     OW30139   0.320   1.650   8.893 -0.0130  0.0485 -0.3298
 6226SOL    HW130140   0.239   1.691   8.865 -0.1472 -1.2118 -1.7894
 6226SOL    HW230141   0.363   1.645   8.808 -0.4323 -2.2456 -0.4065
 6227SOL     OW30142   4.286   0.274  15.880 -0.2209 -0.1810 -0.3179
 6227SOL    HW130143   4.226   0.253  15.808 -0.0823  0.1497 -0.5293
 6227SOL    HW230144   4.240   0.236  15.955  3.3256  1.0628  2.4607
 6228SOL     OW30145   0.490   0.345  13.435 -0.2105  0.1982 -0.1393
 6228SOL    HW130146   0.529   0.425  13.469 -0.6274  0.3922 -0.1204
 6228SOL    HW230147   0.549   0.312  13.367  0.8830  1.7469  0.0590
 6229SOL     OW30148   1.780   0.711   4.826 -0.2660  0.9311 -0.1843
 6229SOL    HW130149   1.770   0.794   4.780 -1.5069  0.4149 -0.8356
 6229SOL    HW230150   1.695   0.670   4.813 -0.0986  0.2289  0.9000
 6230SOL     OW30151   3.487   3.171   1.310 -0.2142  0.9047 -0.5125
 6230SOL    HW130152   3.480   3.212   1.224 -2.1215 -0.7021 -1.1270
 6230SOL    HW230153   3.580   3.151   1.326 -0.4842  2.0426  2.5540
 6231SOL     OW30154   4.478   2.148   3.523  0.2008 -0.0806 -0.1375
 6231SOL    HW130155   4.516   2.173   3.438 -1.2826  1.4567 -0.3622
 6231SOL    HW230156   4.395   2.111   3.493 -0.0997  3.2016 -3.4864
 6232SOL     OW30157   1.579   0.753   8.942 -0.3773  0.0980 -0.3815
 6232SOL    HW130158   1.577   0.796   8.857 -1.0787 -0.4411 -0.6402
 6232SOL    HW230159   1.616   0.816   9.004  0.1290  0.1323 -0.7216
 6233SOL     OW30160   1.514   2.102   4.511  0.1803 -0.4210 -0.4821
 6233SOL    HW130161   1.497   2.085   4.418 -1.8510 -1.8150  0.1348
 6233SOL    HW230162   1.440   2.159   4.531  0.3835 -1.0294  2.0083
 6234SOL     OW30163   1.747   3.831   0.660 -0.2008  0.2201 -0.5287
 6234SOL    HW130164   1.683   3.897   0.687  1.0012  1.3901 -0.4856
 6234SOL    HW230165   1.829   3.877   0.679 -0.4595  0.9356 -1.1135
 6235SOL     OW30166   1.153   0.629  10.488 -0.6277 -0.4108 -0.0330
 6235SOL    HW130167   1.212   0.660  10.420 -1.1134 -1.8224 -1.0976
 6235SOL    HW230168   1.155   0.533  10.494  0.6378 -0.4402 -0.9833
 6236SOL     OW30169   3.374   4.313   7.479 -0.2571  0.2267  0.9080
 6236SOL    HW130170   3.459   4.326   7.438 -0.0565 -0.6592  1.0545
 6236SOL    HW230171   3.326   4.276   7.404  1.3248  2.6445 -1.2988
 6237SOL     OW30172   1.387   1.870   5.936 -0.0853 -0.2509 -0.3191
 6237SOL    HW130173   1.401   1.958   5.903  2.4365 -1.0556 -1.3788
 6237SOL    HW230174   1.441   1.812   5.881  1.3590  0.6273  0.1714
 6238SOL     OW30175   0.081   0.783   4.899  0.3004  0.2619 -0.4113
 6238SOL    HW130176   0.062   0.727   4.823 -1.0941 -1.4477  1.1887
 6238SOL    HW230177   0.103   0.870   4.866 -1.3270  0.7737 -0.1337
 6239SOL     OW30178   0.026   1.883   4.201 -0.4716  0.2538  0.5329
 6239SOL    HW130179   0.042   1.832   4.121 -1.7734 -2.1616  1.8108
 6239SOL    HW230180   0.113   1.920   4.218 -1.0473  1.4496  0.8537
 6240SOL     OW30181   3.755   3.325   5.135  0.6245 -0.1563 -0.3153
 6240SOL    HW130182   3.731   3.278   5.214  1.7252  0.7424  0.5453
 6240SOL    HW230183   3.825   3.380   5.170 -0.8427  2.1519 -0.9429
 6241SOL     OW30184   3.141   3.750   4.642  0.0388 -0.1929 -0.0015
 6241SOL    HW130185   3.123   3.700   4.721 -2.3312 -1.3327 -1.2669
 6241SOL    HW230186   3.070   3.815   4.640  1.0049  0.9343  2.2913
 6242SOL     OW30187   2.113   3.760   1.646  0.3140  0.1282 -0.3871
 6242SOL    HW130188   2.060   3.757   1.566 -1.5630  0.3783  0.8350
 6242SOL    HW230189   2.192   3.806   1.618  1.1344 -1.0489  0.0004
 6243SOL     OW30190   0.757   3.130   1.933 -0.2674  0.1226 -0.3847
 6243SOL    HW130191   0.742   3.218   1.968  4.6026  0.4772  0.8765
 6243SOL    HW230192   0.780   3.088   2.016 -2.8847  0.4324  0.5020
 6244SOL     OW30193   2.366   3.256   5.893 -0.0556 -0.3486  0.9536
 6244SOL    HW130194   2.448   3.210   5.876  1.8799  2.2077  3.2919
 6244SOL    HW230195   2.408   3.342   5.896 -0.2104 -0.1638 -2.1560
 6245SOL     OW30196   3.168   2.274   9.190 -0.0735 -0.0373 -0.1621
 6245SOL    HW130197   3.179   2.369   9.196  0.9430 -0.1419 -0.2136
 6245SOL    HW230198   3.163   2.246   9.281  0.7754  0.6825  0.1130
 6246SOL     OW30199   4.128   2.398  14.721 -0.1028  0.1573 -0.2741
 6246SOL    HW130200   4.124   2.364  14.632 -0.4188  0.6877 -0.4607
 6246SOL    HW230201   4.033   2.397  14.735 -0.0819 -1.0060 -0.2669
 6247SOL     OW30202   3.009   0.842   2.759  0.1687  0.5855  0.1363
 6247SOL    HW130203   2.939   0.783   2.786  1.7841 -0.5607  1.8047
 6247SOL    HW230204   3.040   0.807   2.676  2.4463 -0.6366  1.4977
 6248SOL     OW30205   1.389   1.493   1.495  0.2454 -0.3948 -0.0570
 6248SOL    HW130206   1.465   1.504   1.439 -0.4123  0.3417 -0.8115
 6248SOL    HW230207   1.366   1.586   1.499 -0.3026 -0.4995 -0.8036
 6249SOL     OW30208   1.132   0.639   1.147  0.2816 -0.4883  0.2887
 6249SOL    HW130209   1.046   0.678   1.129  0.0781 -1.7972 -1.5351
 6249SOL    HW230210   1.142   0.648   1.242 -0.5249 -3.3137  0.6468
 6250SOL     OW30211   0.752   3.423   7.616 -0.2351  0.5284 -0.1284
 6250SOL    HW130212   0.779   3.332   7.606 -0.7768  0.2229  1.0722
 6250SOL    HW230213   0.837   3.466   7.620 -0.6212  1.1054  2.1420
 6251SOL     OW30214   0.534   2.745  14.641 -0.4243  0.2296  0.9060
 6251SOL    HW130215   0.464   2.685  14.619  0.3940 -0.7319  0.9370
 6251SOL    HW230216   0.512   2.821  14.587  0.6303 -0.1939 -0.1014
 6252SOL     OW30217   2.927   0.789   6.930  0.2877 -0.1629 -0.2372
 6252SOL    HW130218   2.991   0.790   7.002 -0.9426  0.8328  0.8362
 6252SOL    HW230219   2.919   0.697   6.904 -2.3590 -0.2665  0.9211
 6253SOL     OW30220   4.302   1.463   5.972 -0.2740  0.3156 -0.0594
 6253SOL    HW130221   4.322   1.482   6.064  1.0494 -2.6657  0.2609
 6253SOL    HW230222   4.326   1.370   5.971 -1.1660  0.0950 -1.9229
 6254SOL     OW30223   0.861   0.356   4.796 -0.0897  0.2386  0.3763
 6254SOL    HW130224   0.766   0.351   4.783  0.1765 -0.9054 -1.1322
 6254SOL    HW230225   0.875   0.386   4.886  1.5602  1.0159 -0.1478
 6255SOL     OW30226   2.720   3.299  11.989  0.5524 -0.3959  0.2423
 6255SOL    HW130227   2.666   3.378  11.990  0.0576 -0.7417  0.4328
 6255SOL    HW230228   2.810   3.326  12.010  0.4832 -0.6142  0.8134
 6256SOL     OW30229   2.445   2.680   8.924 -0.3055 -0.1821 -0.7317
 6256SOL    HW130230   2.495   2.662   9.004 -0.1733  0.6193 -0.6376
 6256SOL    HW230231   2.446   2.775   8.937  0.9890 -0.1634 -1.0116
 6257SOL     OW30232   4.571   3.889  17.570 -0.2703  0.4340 -0.2981
 6257SOL    HW130233   4.641   3.942  17.607  2.2241 -0.0566 -4.4050
 6257SOL    HW230234   4.499   3.920  17.625 -0.7507 -0.4675 -0.4093
 6258SOL     OW30235   3.941   3.119   3.104 -0.0679  0.0046  0.2758
 6258SOL    HW130236   4.001   3.194   3.104  2.1224 -1.7232 -1.4219
 6258SOL    HW230237   3.978   3.074   3.179  2.7800  0.7643 -0.6546
 6259SOL     OW30238   4.437   2.648   7.113 -0.2929  0.5933 -0.0540
 6259SOL    HW130239   4.460   2.694   7.033 -0.5296  0.6992 -0.0581
 6259SOL    HW230240   4.423   2.554   7.103  2.0730  0.0301  1.6433
 6260SOL     OW30241   1.992   1.692   4.710  0.1251 -0.4074  0.0878
 6260SOL    HW130242   1.908   1.668   4.750  0.5766  0.2238  1.4015
 6260SOL    HW230243   1.984   1.780   4.671 -1.5937 -1.0395 -0.9958
 6261SOL     OW30244   4.074   3.261   3.478  0.3254 -0.3842 -0.3095
 6261SOL    HW130245   3.993   3.218   3.451  1.0872  0.1202 -3.3057
 6261SOL    HW230246   4.077   3.232   3.570  0.9590  0.9800  0.0911
 6262SOL     OW30247   4.205   4.485   5.436 -0.3893  0.2200 -0.6796
 6262SOL    HW130248   4.178   4.554   5.377  2.5020  1.1117 -0.9705
 6262SOL    HW230249   4.250   4.426   5.376  2.2352  0.8043  0.6848
 6263SOL     OW30250   2.994   0.258  12.779 -0.1252  0.3097 -0.3847
 6263SOL    HW130251   2.971   0.234  12.868 -2.8795  3.6030 -0.1780
 6263SOL    HW230252   3.037   0.179  12.745  0.2891  1.9525 -3.7261
 6264SOL     OW30253   1.501   1.215   1.887 -0.0800 -0.9867  0.5562
 6264SOL    HW130254   1.553   1.269   1.827  0.9116 -0.8329  1.5777
 6264SOL    HW230255   1.567   1.188   1.950  1.6498  1.5925 -0.1650
 6265SOL     OW30256   3.212   4.668   4.992 -0.1851  0.0167  0.0760
 6265SOL    HW130257   3.301   4.682   4.960  0.3961 -0.6104  1.3847
 6265SOL    HW230258   3.186   0.035   4.977 -1.8456 -0.6775 -1.1402
 6266SOL     OW30259   1.810   2.047   8.289 -0.1708  0.0819 -0.5411
 6266SOL    HW130260   1.889   2.097   8.270  0.3924 -1.0157 -1.0339
 6266SOL    HW230261   1.845   1.958   8.292  1.1648  0.6629  0.9971
 6267SOL     OW30262   4.251   0.376   5.698 -0.1847  0.1257  0.1661
 6267SOL    HW130263   4.180   0.312   5.685  0.4049 -0.4318 -0.3222
 6267SOL    HW230264   4.251   0.369   5.793  1.1469  2.0614  0.2938
 6268SOL     OW30265   2.584   1.555   8.736  0.1588  0.2636 -0.6004
 6268SOL    HW130266   2.626   1.478   8.774 -1.0731 -0.2576 -0.3051
 6268SOL    HW230267   2.531   1.530   8.661  0.0860 -0.3712 -0.3337
 6269SOL     OW30268   0.145   2.644   6.335 -0.1796 -0.2986  0.2868
 6269SOL    HW130269   0.230   2.602   6.321 -1.0372 -2.3660  1.2468
 6269SOL    HW230270   0.160   2.731   6.300  3.5563 -0.7923  0.5839
 6270SOL     OW30271   0.586   3.166   8.435  0.7326  0.4534 -0.4945
 6270SOL    HW130272   0.654   3.194   8.497 -0.4171  1.8570  0.1457
 6270SOL    HW230273   0.612   3.207   8.353 -0.9746 -0.1256 -1.3121
 6271SOL     OW30274   1.051   4.196   7.620 -0.3796 -0.5225  0.6047
 6271SOL    HW130275   0.975   4.149   7.654 -0.7210 -2.0312 -2.2317
 6271SOL    HW230276   1.063   4.131   7.551  3.2785  2.2764 -1.4204
 6272SOL     OW30277   0.886   2.519   1.600 -0.3042  0.0585 -0.1341
 6272SOL    HW130278   0.907   2.579   1.529 -0.0277 -0.0821 -0.1709
 6272SOL    HW230279   0.791   2.509   1.593 -0.3359  2.0872 -2.3398
 6273SOL     OW30280   2.929   2.861   3.909 -0.1896 -0.3123  0.1345
 6273SOL    HW130281   2.971   2.943   3.936  1.8381 -1.1393 -0.5531
 6273SOL    HW230282   3.000   2.811   3.872 -0.5233 -0.0044 -0.9136
 6274SOL     OW30283   1.677   4.606   3.608 -0.3914  0.1769 -0.0098
 6274SOL    HW130284   1.586   4.601   3.635 -0.7600  2.1099 -0.9008
 6274SOL    HW230285   1.719   4.535   3.657  1.7965  0.5101 -1.3812
 6275SOL     OW30286   3.741   0.267   8.005  0.4381 -0.1931 -0.4321
 6275SOL    HW130287   3.722   0.357   7.978  1.0432 -0.1053 -0.5548
 6275SOL    HW230288   3.714   0.211   7.932  0.6351  1.2011 -1.5679
 6276SOL     OW30289   2.413   0.262   5.950 -0.4803  0.1336 -0.6919
 6276SOL    HW130290   2.464   0.257   5.868  1.1095 -4.0234  0.5360
 6276SOL    HW230291   2.464   0.326   6.000 -0.6093  0.9305 -1.5794
 6277SOL     OW30292   2.160   1.007   9.227  0.0171  0.4466  0.4345
 6277SOL    HW130293   2.074   1.024   9.264 -0.2359  0.3958 -0.1267
 6277SOL    HW230294   2.180   1.084   9.173 -3.2748  0.7392 -0.3650
 6278SOL     OW30295   2.913   2.581   1.553 -0.2389  0.5040 -0.5001
 6278SOL    HW130296   2.900   2.495   1.515 -0.2150  0.1442  0.2952
 6278SOL    HW230297   2.867   2.561   1.635 -0.4938 -1.6185 -1.1680
 6279SOL     OW30298   0.867   1.052   5.795  0.2857  0.3387 -1.1476
 6279SOL    HW130299   0.776   1.021   5.793  0.6828 -0.8261 -0.9317
 6279SOL    HW230300   0.916   0.992   5.739 -0.5023 -0.5823 -0.8690
 6280SOL     OW30301   0.061   1.789   5.006 -0.5984  0.2230  0.6105
 6280SOL    HW130302   0.064   1.693   5.004  2.9109  0.3895 -0.8314
 6280SOL    HW230303   0.102   1.815   4.924 -1.2514  2.7912  1.0924
 6281SOL     OW30304   0.763   0.507   8.636 -0.4761 -0.0608  0.5941
 6281SOL    HW130305   0.827   0.456   8.586  0.6627  2.0451 -0.0717
 6281SOL    HW230306   0.677   0.465   8.629 -0.4561 -0.7003  4.2436
 6282SOL     OW30307   4.255   4.372   3.418  0.3843 -0.1110 -0.3373
 6282SOL    HW130308   4.339   4.397   3.380  0.4503  1.1313  0.6295
 6282SOL    HW230309   4.258   4.277   3.410  0.4516 -0.2248  1.0486
 6283SOL     OW30310   2.681   3.798   8.932 -0.3822  0.2991  0.2640
 6283SOL    HW130311   2.721   3.882   8.954 -1.7032  1.2998 -1.1245
 6283SOL    HW230312   2.745   3.769   8.867 -0.1102 -2.1117  1.6046
 6284SOL     OW30313   0.906   0.096   3.893  0.2293  0.1733 -0.4515
 6284SOL    HW130314   0.961   0.140   3.957 -0.6738 -0.6774  0.9070
 6284SOL    HW230315   0.828   0.151   3.884  0.1312  0.0349 -0.4439
 6285SOL     OW30316   4.402   0.926   8.634  0.1615  0.2067  0.1987
 6285SOL    HW130317   4.352   0.850   8.603  1.0434 -0.4937  0.5112
 6285SOL    HW230318   4.339   0.972   8.690 -2.2558 -1.5356 -1.0621
 6286SOL     OW30319   1.908   1.814   3.339 -0.1925 -0.1316 -0.3126
 6286SOL    HW130320   1.896   1.895   3.389 -1.4287 -0.9287  0.6828
 6286SOL    HW230321   1.908   1.841   3.248  0.4003 -0.4066 -0.3970
 6287SOL     OW30322   4.304   0.005   0.581  0.1356  0.1638 -0.2498
 6287SOL    HW130323   4.323   0.097   0.599  3.3853 -0.6186  0.3490
 6287SOL    HW230324   4.386   4.702   0.539  0.2295  1.2288 -0.7299
 6288SOL     OW30325   0.720   2.477  12.183 -0.3383  0.1408  0.8379
 6288SOL    HW130326   0.674   2.467  12.266 -0.1409 -1.6813  0.7258
 6288SOL    HW230327   0.760   2.390  12.171 -1.9666 -0.5591  0.4974
 6289SOL     OW30328   3.952   2.405  12.298 -0.1799 -0.1312  0.3750
 6289SOL    HW130329   3.958   2.432  12.206  4.4438 -2.1508  0.0760
 6289SOL    HW230330   3.979   2.313  12.296  1.2446  0.3180 -1.5197
 6290SOL     OW30331   4.542   1.094   5.342 -0.1204 -0.5076 -0.5546
 6290SOL    HW130332   4.527   1.165   5.403  2.0694 -0.6942  0.1967
 6290SOL    HW230333   4.522   1.013   5.389  2.3870 -0.7578  0.1030
 6291SOL     OW30334   2.661   1.272   3.099 -0.4270 -0.1687  0.0275
 6291SOL    HW130335   2.703   1.192   3.131  3.0164  2.1007  1.1731
 6291SOL    HW230336   2.739   1.327   3.092 -0.5146  0.2175  1.9666
 6292SOL     OW30337   1.340   3.945   7.172 -0.6000  0.5303  0.7255
 6292SOL    HW130338   1.306   3.856   7.159  1.0000  0.3817 -2.3185
 6292SOL    HW230339   1.419   3.913   7.215  0.2476  0.5552 -0.8434
 6293SOL     OW30340   0.735   2.779   1.898 -0.6236 -0.7767  0.3631
 6293SOL    HW130341   0.682   2.846   1.941 -0.9150  0.2914 -1.6594
 6293SOL    HW230342   0.672   2.708   1.886 -1.0320 -0.1866 -1.0568
 6294SOL     OW30343   0.850   1.274   1.843 -0.0707  0.3018  0.3023
 6294SOL    HW130344   0.810   1.361   1.854 -1.5981 -0.2144 -1.1419
 6294SOL    HW230345   0.940   1.289   1.871  0.1890 -0.1359 -0.3107
 6295SOL     OW30346   3.778   4.342   4.039  0.3895 -0.1043 -0.7356
 6295SOL    HW130347   3.754   4.307   4.125  3.9611  2.1041  1.1381
 6295SOL    HW230348   3.872   4.323   4.035  0.2783 -0.4917 -1.6088
 6296SOL     OW30349   0.093   4.442   4.141 -0.1172  0.2113  0.5767
 6296SOL    HW130350   0.078   4.358   4.185  0.4302  0.6088  1.5231
 6296SOL    HW230351   0.106   4.501   4.215 -0.8163  1.2608 -0.1463
 6297SOL     OW30352   4.322   0.416  11.729  0.4954 -0.7494 -0.0516
 6297SOL    HW130353   4.253   0.404  11.795  0.3934  1.7667  0.3031
 6297SOL    HW230354   4.397   0.372  11.767  0.1183 -0.1834  1.3476
 6298SOL     OW30355   4.140   3.933  12.417  0.1895  0.2121  0.6309
 6298SOL    HW130356   4.103   3.877  12.486  0.4903 -1.3168 -0.4477
 6298SOL    HW230357   4.064   3.990  12.407  0.3972  0.1506 -1.3352
 6299SOL     OW30358   0.534   2.817   0.389  0.2621  0.0944  0.3731
 6299SOL    HW130359   0.563   2.902   0.422 -1.0079  0.7950 -0.3071
 6299SOL    HW230360   0.440   2.832   0.378 -0.2617 -3.5023 -0.1999
 6300SOL     OW30361   4.203   1.936  15.721  0.5258 -0.1190  0.1357
 6300SOL    HW130362   4.130   1.994  15.742  0.1601 -0.3094 -0.6041
 6300SOL    HW230363   4.270   1.972  15.779 -1.3360  0.6338  1.8328
 6301SOL     OW30364   3.352   2.725   5.101  0.3328 -0.2534 -0.0583
 6301SOL    HW130365   3.374   2.696   5.189  0.7583  3.5022  1.0804
 6301SOL    HW230366   3.350   2.642   5.054  1.8757  0.4482 -1.4064
 6302SOL     OW30367   0.420   0.700  13.245 -0.5033 -0.3061 -0.0047
 6302SOL    HW130368   0.447   0.726  13.157  1.5975 -2.0817  0.0957
 6302SOL    HW230369   0.491   0.641  13.272 -1.8915 -1.3667  1.3237
 6303SOL     OW30370   3.119   1.664   0.660  0.1870 -0.1561  0.1717
 6303SOL    HW130371   3.166   1.741   0.692  0.0126 -1.0440  2.5249
 6303SOL    HW230372   3.146   1.595   0.719 -2.3926 -0.1665  1.3222
 6304SOL     OW30373   1.194   3.620  16.745  0.0607  0.2857 -0.3312
 6304SOL    HW130374   1.145   3.698  16.718 -1.8051 -0.4398  0.9771
 6304SOL    HW230375   1.211   3.640  16.837  0.4034 -1.5562  0.0053
 6305SOL     OW30376   1.001   0.027   8.081 -0.2588 -0.2248 -0.1732
 6305SOL    HW130377   1.059   0.062   8.013 -2.4503  0.1403 -1.8565
 6305SOL    HW230378   0.966   4.673   8.037  0.1978 -0.7680  0.4306
 6306SOL     OW30379   4.601   1.113   8.624  0.6819 -0.1557 -0.1831
 6306SOL    HW130380   4.536   1.046   8.643 -0.8951  1.5323  0.4247
 6306SOL    HW230381   4.541   1.165   8.569 -0.2453 -1.8665 -0.7826
 6307SOL     OW30382   2.909   0.597   3.560 -0.1095 -0.2295  0.2365
 6307SOL    HW130383   2.817   0.594   3.585 -0.4241  0.0940 -0.8577
 6307SOL    HW230384   2.932   0.688   3.577  1.6915 -0.5906 -0.2299
 6308SOL     OW30385   2.291   1.051   4.011  0.0252  0.7826  0.2342
 6308SOL    HW130386   2.247   1.021   4.090 -2.3162  0.9425 -1.0208
 6308SOL    HW230387   2.369   1.105   4.030  0.3324  0.4026  0.0538
 6309SOL     OW30388   3.826   3.127   9.684  0.5084  0.2433 -0.1706
 6309SOL    HW130389   3.858   3.193   9.622 -0.0504  1.2110  0.5657
 6309SOL    HW230390   3.892   3.128   9.753  0.3953 -2.1450 -0.0477
 6310SOL     OW30391   4.074   0.544   1.850  0.3909  0.3400  0.0170
 6310SOL    HW130392   3.990   0.509   1.823 -0.2169  0.8366  1.2654
 6310SOL    HW230393   4.075   0.627   1.803  0.3748 -0.3178 -1.1521
 6311SOL     OW30394   1.330   2.006   0.187 -0.0323  0.0544  0.5952
 6311SOL    HW130395   1.412   2.049   0.165  0.3969 -0.9375  0.2684
 6311SOL    HW230396   1.274   2.063   0.135  2.6341  0.9807 -1.2329
 6312SOL     OW30397   1.353   3.859   5.401  0.0705  0.2408  0.1203
 6312SOL    HW130398   1.406   3.906   5.465 -0.8989  0.3668  0.8420
 6312SOL    HW230399   1.268   3.902   5.410  0.1143 -0.0004  1.5942
 6313SOL     OW30400   4.535   1.439  16.440 -0.1764  0.3969 -0.0667
 6313SOL    HW130401   4.522   1.504  16.509  2.1758  1.6458 -0.7836
 6313SOL    HW230402   4.479   1.369  16.472 -0.4094  0.1876 -0.9368
 6314SOL     OW30403   2.562   0.104   6.222  0.2197  0.7277 -0.4817
 6314SOL    HW130404   2.520   0.078   6.304  2.0775  0.6366  0.4496
 6314SOL    HW230405   2.505   0.071   6.152 -1.4536  2.0177  0.2727
 6315SOL     OW30406   2.002   1.822   6.560 -0.0933 -0.9202  0.6457
 6315SOL    HW130407   2.058   1.769   6.618  1.0432  0.2604  0.6376
 6315SOL    HW230408   2.029   1.906   6.597 -2.5497  0.3193 -0.4534
 6316SOL     OW30409   3.063   0.891   7.736 -0.6792 -0.2528 -0.1389
 6316SOL    HW130410   3.042   0.844   7.817  0.9514 -2.3315 -0.9311
 6316SOL    HW230411   3.130   0.954   7.763 -0.1581 -0.5152 -0.8390
 6317SOL     OW30412   0.108   0.860   3.046 -0.3528 -0.0964 -0.2026
 6317SOL    HW130413   0.200   0.833   3.047 -0.9786 -2.2199 -0.5888
 6317SOL    HW230414   0.107   0.956   3.044 -0.1578 -0.0891  0.0539
 6318SOL     OW30415   0.505   1.291   6.021 -0.4915 -0.4248 -0.9611
 6318SOL    HW130416   0.558   1.265   6.096 -1.0162 -0.1276 -0.4893
 6318SOL    HW230417   0.486   1.207   5.980 -3.2389  0.5704 -1.7437
 6319SOL     OW30418   3.559   2.943   6.966 -0.2746  0.5509  0.0045
 6319SOL    HW130419   3.562   2.950   6.871 -2.5007 -1.8149 -0.2243
 6319SOL    HW230420   3.653   2.952   6.981 -0.0745 -3.6594  1.2690
 6320SOL     OW30421   2.445   2.984   7.043 -0.5684  0.1663 -0.2718
 6320SOL    HW130422   2.408   3.071   7.028  1.2037  1.2591  1.7215
 6320SOL    HW230423   2.482   2.995   7.131 -1.5448 -1.3451  0.3448
 6321SOL     OW30424   3.552   1.617   2.050 -0.1668  0.1856 -0.1978
 6321SOL    HW130425   3.490   1.592   2.118 -0.5275  0.5327 -0.4064
 6321SOL    HW230426   3.627   1.572   2.091  1.3725  3.0257  0.0989
 6322SOL     OW30427   1.391   4.384   7.338  0.0037  0.0739  0.5035
 6322SOL    HW130428   1.482   4.401   7.361  0.3705  0.0139 -0.9111
 6322SOL    HW230429   1.337   4.401   7.416  0.9956  1.2359  0.9253
 6323SOL     OW30430   2.235   4.597  14.782  0.4986 -0.0767 -0.0848
 6323SOL    HW130431   2.189   4.657  14.842  1.1171  0.5100 -0.1981
 6323SOL    HW230432   2.266   4.534  14.847  0.2351  1.3150  1.3970
 6324SOL     OW30433   4.159   0.976  13.996 -0.1515 -0.4207  0.6060
 6324SOL    HW130434   4.168   1.034  13.919 -0.1348 -1.5428 -0.2331
 6324SOL    HW230435   4.216   0.908  13.960 -1.9881 -1.9876  0.6844
 6325SOL     OW30436   3.439   0.577   3.457 -0.3267  0.3796  0.4151
 6325SOL    HW130437   3.475   0.643   3.517 -0.6238 -0.0933  1.1146
 6325SOL    HW230438   3.468   0.496   3.499 -0.6010  1.4966  2.7931
 6326SOL     OW30439   4.089   1.238  16.713  0.3378  0.4307 -0.4042
 6326SOL    HW130440   4.043   1.221  16.631  1.0942  0.0111 -0.7379
 6326SOL    HW230441   4.092   1.152  16.754  1.7227 -0.2211 -1.9022
 6327SOL     OW30442   3.392   1.817   8.697 -0.6161  0.5163  0.2609
 6327SOL    HW130443   3.422   1.747   8.755 -0.1109  1.1629  0.7812
 6327SOL    HW230444   3.363   1.878   8.765 -2.2914 -2.4760  2.2284
 6328SOL     OW30445   2.282   0.440   6.273  0.1353 -0.0681  0.2815
 6328SOL    HW130446   2.366   0.398   6.291 -1.6745 -3.6426  0.3475
 6328SOL    HW230447   2.309   0.502   6.205 -0.9968 -0.9097 -0.9434
 6329SOL     OW30448   2.499   4.547   4.087 -0.0154 -0.0743 -0.4658
 6329SOL    HW130449   2.447   4.592   4.021 -1.9173 -0.0369  1.0668
 6329SOL    HW230450   2.432   4.487   4.119  0.2690 -0.4666 -0.6081
 6330SOL     OW30451   0.041   3.632   4.128 -0.4176 -0.3529  0.4447
 6330SOL    HW130452   0.101   3.600   4.196 -0.4354 -0.1729  0.5455
 6330SOL    HW230453   0.001   3.548   4.105 -1.4977  0.5862 -1.0875
 6331SOL     OW30454   1.700   2.403  15.007  0.2415  0.0270  0.7134
 6331SOL    HW130455   1.646   2.459  15.064  0.3080 -1.7009  2.4726
 6331SOL    HW230456   1.788   2.435  15.026  0.4046  0.2201 -0.3945
 6332SOL     OW30457   1.119   0.234  15.600  0.2426 -0.3633  0.3489
 6332SOL    HW130458   1.180   0.266  15.667 -0.7853  1.1293  0.5832
 6332SOL    HW230459   1.069   0.173  15.654 -1.4227 -0.0271 -0.8091
 6333SOL     OW30460   1.986   4.485   7.479 -0.7121 -0.6433  0.1029
 6333SOL    HW130461   1.996   4.493   7.574  0.1354  1.1437 -0.1539
 6333SOL    HW230462   2.061   4.539   7.455 -1.6534  0.5516 -0.1411
 6334SOL     OW30463   4.170   4.196   2.722  0.8517 -0.0731  0.0656
 6334SOL    HW130464   4.198   4.105   2.727  2.3563  0.5189  2.5166
 6334SOL    HW230465   4.152   4.195   2.628 -1.0361 -0.4495  0.4328
 6335SOL     OW30466   1.122   3.404   7.755 -0.3017  0.1611 -0.1417
 6335SOL    HW130467   1.185   3.361   7.813  0.0892  2.8602  1.4138
 6335SOL    HW230468   1.152   3.357   7.677 -0.7119  0.2885 -0.3792
 6336SOL     OW30469   2.467   3.352   8.406  0.9810 -0.4468  0.9192
 6336SOL    HW130470   2.394   3.402   8.371 -0.0710 -2.0669  0.7922
 6336SOL    HW230471   2.511   3.320   8.327 -1.8016  0.2995 -0.9096
 6337SOL     OW30472   0.873   2.708   9.267 -0.1226 -0.0931 -0.0785
 6337SOL    HW130473   0.804   2.653   9.303 -0.1688 -0.5049 -0.7949
 6337SOL    HW230474   0.918   2.753   9.339  0.0784 -0.9067  0.3037
 6338SOL     OW30475   1.892   1.236   0.077  0.0108  0.2978 -0.1799
 6338SOL    HW130476   1.797   1.246   0.087  0.0549  0.8301 -0.3045
 6338SOL    HW230477   1.902   1.325   0.044 -1.2849  1.0480  1.4902
 6339SOL     OW30478   1.041   2.269  16.585  0.7574 -0.3483 -0.4799
 6339SOL    HW130479   1.091   2.228  16.656 -0.3734 -2.4861 -0.9478
 6339SOL    HW230480   0.954   2.268  16.626 -0.1974  0.1340 -2.5147
 6340SOL     OW30481   1.983   0.794   2.596 -0.2200  0.1718  0.1981
 6340SOL    HW130482   2.026   0.817   2.678  0.5416  0.1659 -0.1989
 6340SOL    HW230483   1.960   0.882   2.565 -1.1910  0.9518  3.1565
 6341SOL     OW30484   0.003   2.339   4.182  0.2582  0.1937 -0.0582
 6341SOL    HW130485   4.695   2.295   4.261  2.8361 -0.1101  0.7764
 6341SOL    HW230486   4.711   2.277   4.111  1.2174  0.0340 -0.1117
 6342SOL     OW30487   4.451   4.403   4.139  0.1329 -0.2497  0.0878
 6342SOL    HW130488   4.387   4.415   4.069 -0.4617  4.0727  1.3256
 6342SOL    HW230489   4.493   4.323   4.107  0.5074  0.0233 -0.1093
 6343SOL     OW30490   4.110   1.027   2.425 -0.6471  0.6618  0.3200
 6343SOL    HW130491   4.184   0.975   2.455 -0.0628  0.4101 -1.5503
 6343SOL    HW230492   4.111   1.008   2.331 -0.8766  0.1471  0.4249
 6344SOL     OW30493   0.985   4.256   6.433 -0.1151  0.5474  0.0991
 6344SOL    HW130494   0.960   4.185   6.373 -0.3862 -0.5603  1.5360
 6344SOL    HW230495   1.076   4.259   6.403 -0.4914 -1.9194 -1.3237
 6345SOL     OW30496   4.458   0.655   8.432  0.1133 -0.2998 -0.0257
 6345SOL    HW130497   4.456   0.689   8.342 -1.0148 -1.1049 -0.3080
 6345SOL    HW230498   4.369   0.684   8.451  0.7013 -0.2199  2.5444
 6346SOL     OW30499   2.445   3.421   3.225  0.4672  0.1938  0.4429
 6346SOL    HW130500   2.493   3.504   3.217  0.2335  0.1733 -1.2017
 6346SOL    HW230501   2.514   3.355   3.223 -0.5651 -0.8352 -0.9619
 6347SOL     OW30502   2.445   1.796   8.102 -0.2267 -0.5660  0.0589
 6347SOL    HW130503   2.483   1.848   8.172  2.0404 -1.6064 -0.4025
 6347SOL    HW230504   2.498   1.820   8.026  0.2440 -1.1561  0.1982
 6348SOL     OW30505   0.905   4.308   8.103 -0.0229  0.2719 -0.0370
 6348SOL    HW130506   0.890   4.216   8.127  0.8792  0.0194 -0.4613
 6348SOL    HW230507   0.914   4.346   8.190  0.8012 -1.4947  0.6524
 6349SOL     OW30508   2.433   2.685   6.001 -0.1776 -0.1265  0.8959
 6349SOL    HW130509   2.514   2.635   5.994  0.1163  0.5893 -0.9087
 6349SOL    HW230510   2.455   2.762   6.053 -2.4362  1.1359  0.0187
 6350SOL     OW30511   1.382   1.730  16.870 -0.5492 -0.0858 -0.2760
 6350SOL    HW130512   1.346   1.787  16.802 -2.3232 -1.4111 -0.4530
 6350SOL    HW230513   1.467   1.773  16.873 -1.3097  1.4807 -1.3622
 6351SOL     OW30514   0.810   0.383  14.629  0.4858  0.2130  0.3033
 6351SOL    HW130515   0.752   0.454  14.601  0.7241  0.3571  0.1665
 6351SOL    HW230516   0.780   0.363  14.717 -0.4134 -1.6082 -0.4302
 6352SOL     OW30517   1.279   3.986   4.762 -0.4091  0.3073  0.0100
 6352SOL    HW130518   1.185   3.971   4.748 -0.6421  0.8931  0.9631
 6352SOL    HW230519   1.315   3.912   4.713  0.5680  2.1050 -1.9487
 6353SOL     OW30520   3.925   1.993   5.695  0.2456  0.6378  0.6712
 6353SOL    HW130521   3.953   1.948   5.775  1.6306 -0.2139 -0.3051
 6353SOL    HW230522   3.899   2.072   5.743  2.0224  0.9623  1.0903
 6354SOL     OW30523   3.440   4.393   1.365  0.3432 -0.4039 -0.1674
 6354SOL    HW130524   3.417   4.418   1.454 -0.0512 -1.9095  0.1583
 6354SOL    HW230525   3.381   4.448   1.314  1.4617  0.7191 -0.2581
 6355SOL     OW30526   0.024   3.982   5.785 -0.2849 -0.2521 -0.3234
 6355SOL    HW130527   0.083   3.974   5.860 -0.0496 -0.2002 -0.5019
 6355SOL    HW230528   4.720   3.890   5.780 -1.9047  0.2385 -0.2232
 6356SOL     OW30529   4.573   1.833  13.770 -0.1618  0.0713  0.0616
 6356SOL    HW130530   4.529   1.918  13.782 -0.8729 -0.2185 -0.4851
 6356SOL    HW230531   4.630   1.827  13.847  1.0948  1.3855 -0.7794
 6357SOL     OW30532   3.743   2.333   2.368  0.2018  0.1393 -0.1897
 6357SOL    HW130533   3.737   2.269   2.297 -0.9610 -0.6106  0.5765
 6357SOL    HW230534   3.836   2.349   2.353  0.3108  0.6264  1.0091
 6358SOL     OW30535   4.319   2.541   3.921 -0.4010 -0.2854  0.3020
 6358SOL    HW130536   4.308   2.516   3.829  1.2253  2.5516 -0.6531
 6358SOL    HW230537   4.331   2.462   3.975 -1.7607 -0.2897  0.5848
 6359SOL     OW30538   3.429   0.893  11.034  0.1782  0.5370 -0.1331
 6359SOL    HW130539   3.352   0.911  11.087 -0.9071 -2.7022 -0.6264
 6359SOL    HW230540   3.503   0.925  11.087  0.7048 -0.5303 -0.2279
 6360SOL     OW30541   4.189   2.619  12.941  0.0456  0.0417  0.6982
 6360SOL    HW130542   4.125   2.591  12.876 -0.5164  2.1886  0.3152
 6360SOL    HW230543   4.264   2.561  12.930 -0.2958 -0.3910  0.6388
 6361SOL     OW30544   3.974   1.785   4.808 -0.3440 -0.1190 -0.6189
 6361SOL    HW130545   3.979   1.706   4.754  0.0472 -0.6191  0.1551
 6361SOL    HW230546   3.942   1.851   4.746  0.3506  0.8268  0.0291
 6362SOL     OW30547   4.008   0.502   6.894  0.0051 -0.1754 -0.0699
 6362SOL    HW130548   4.015   0.445   6.817  0.6946 -0.1307 -0.0367
 6362SOL    HW230549   4.099   0.516   6.919 -0.3791  0.2765  1.0933
 6363SOL     OW30550   0.531   2.802   1.562 -0.1930 -0.0386 -0.1770
 6363SOL    HW130551   0.509   2.719   1.519 -1.1084  0.0800  0.0473
 6363SOL    HW230552   0.445   2.827   1.596 -1.0394 -0.9366 -1.6325
 6364SOL     OW30553   1.761   1.240   4.940 -0.1789  0.2794 -1.0111
 6364SOL    HW130554   1.813   1.177   4.891 -3.6449 -2.7499 -0.8177
 6364SOL    HW230555   1.690   1.256   4.877 -0.5117 -0.3430 -0.7915
 6365SOL     OW30556   3.033   1.671   6.937  0.2423  0.1873  0.5253
 6365SOL    HW130557   3.032   1.617   7.016  1.2142  0.9057  1.0220
 6365SOL    HW230558   2.941   1.680   6.911  0.7415 -1.1726 -1.7855
 6366SOL     OW30559   1.428   3.629   8.354 -0.6545 -0.4464 -0.0123
 6366SOL    HW130560   1.392   3.541   8.364  0.0818 -0.6213  1.0239
 6366SOL    HW230561   1.511   3.628   8.400  0.1210  0.5490 -1.3791
 6367SOL     OW30562   2.040   3.119   1.474 -0.5022 -0.3205 -0.6055
 6367SOL    HW130563   2.119   3.066   1.476 -0.3324 -0.0318  0.5518
 6367SOL    HW230564   2.075   3.185   1.535 -1.1451 -0.3749 -0.1802
 6368SOL     OW30565   1.289   4.213   1.655 -0.1387  0.0420  0.0447
 6368SOL    HW130566   1.291   4.224   1.560 -0.3240 -2.4929 -0.2676
 6368SOL    HW230567   1.342   4.287   1.682  0.9133 -0.7390  0.1257
 6369SOL     OW30568   0.375   4.153   0.302 -0.1620 -0.5112  0.3886
 6369SOL    HW130569   0.382   4.211   0.378  0.9614 -1.7730  1.2456
 6369SOL    HW230570   0.433   4.194   0.238 -1.5601 -0.7526 -1.0360
 6370SOL     OW30571   3.253   4.199   3.511  0.1284 -0.0547 -0.3352
 6370SOL    HW130572   3.259   4.132   3.579 -2.2539 -0.2355 -0.2817
 6370SOL    HW230573   3.346   4.209   3.494  0.2017 -0.9459 -0.4317
 6371SOL     OW30574   1.369   1.398   2.901  0.3427  0.2406 -0.0497
 6371SOL    HW130575   1.313   1.373   2.974  0.9150 -1.1919 -0.1189
 6371SOL    HW230576   1.349   1.492   2.911 -0.5863 -0.1524  1.7926
 6372SOL     OW30577   2.669   4.006   5.148 -0.1126  0.0285  0.0099
 6372SOL    HW130578   2.754   4.037   5.119  0.5474 -0.9556  0.8918
 6372SOL    HW230579   2.695   3.949   5.220 -0.2450 -0.4621 -0.3313
 6373SOL     OW30580   4.307   2.961   7.029 -0.3224  0.0613 -0.0377
 6373SOL    HW130581   4.302   2.981   6.935 -2.0997 -2.3271 -0.4542
 6373SOL    HW230582   4.397   2.930   7.034 -0.5429 -0.6127 -0.1224
 6374SOL     OW30583   2.825   0.921   6.270  0.0729 -0.4697  0.0148
 6374SOL    HW130584   2.776   0.965   6.339 -0.5193 -1.2649  0.0944
 6374SOL    HW230585   2.914   0.929   6.306  0.8726  1.0938 -2.3337
 6375SOL     OW30586   1.079   0.030  12.759 -0.0642 -0.3011  0.1004
 6375SOL    HW130587   1.062   4.707  12.841 -1.3994 -1.6092 -0.9242
 6375SOL    HW230588   1.033   0.113  12.764  0.1834 -0.1368 -0.2885
 6376SOL     OW30589   0.710   1.685   4.441  0.5606  0.9802  0.2125
 6376SOL    HW130590   0.676   1.755   4.386 -1.6019 -1.5883 -1.7409
 6376SOL    HW230591   0.657   1.699   4.519  2.2168 -1.6871  1.8206
 6377SOL     OW30592   3.087   3.562  15.907  0.1763 -0.6373  0.2003
 6377SOL    HW130593   3.137   3.569  15.826 -1.2523  0.3377 -0.5903
 6377SOL    HW230594   3.074   3.467  15.909 -0.5434 -0.5283  0.6964
 6378SOL     OW30595   4.443   3.855   0.557 -0.1469  0.2219 -0.1011
 6378SOL    HW130596   4.504   3.783   0.539  0.7605  0.5964  1.4419
 6378SOL    HW230597   4.511   3.918   0.582  0.3209 -0.1051 -0.5456
 6379SOL     OW30598   2.750   2.469   9.196 -0.3761  0.2466  0.2184
 6379SOL    HW130599   2.809   2.405   9.237 -0.6246  0.5651  1.0851
 6379SOL    HW230600   2.699   2.412   9.139 -0.7040  1.2875 -0.5293
 6380SOL     OW30601   0.628   1.303  16.554  0.4266  0.5851 -0.0109
 6380SOL    HW130602   0.666   1.218  16.576 -0.4799 -0.3317 -2.0160
 6380SOL    HW230603   0.662   1.318  16.466  0.6011 -0.3825 -0.1071
 6381SOL     OW30604   1.797   3.384  13.587  0.6861  0.2739 -0.4430
 6381SOL    HW130605   1.787   3.478  13.569 -0.0282 -0.0105 -1.5079
 6381SOL    HW230606   1.795   3.339  13.503  0.6163  0.2741 -0.4418
 6382SOL     OW30607   3.623   1.787   0.547 -0.3635 -0.9500 -0.1905
 6382SOL    HW130608   3.635   1.702   0.504  1.9860 -1.3779  1.2809
 6382SOL    HW230609   3.648   1.763   0.636 -2.8458 -0.6446  0.5869
 6383SOL     OW30610   1.835   0.308   9.471 -0.6734  0.6663  0.0408
 6383SOL    HW130611   1.859   0.316   9.564 -0.1823  0.7444 -0.0906
 6383SOL    HW230612   1.918   0.326   9.426  1.6187 -3.3006  2.6837
 6384SOL     OW30613   3.703   1.886   1.555 -0.0800 -0.3227  0.6660
 6384SOL    HW130614   3.652   1.826   1.610  0.3755 -1.4527 -0.1606
 6384SOL    HW230615   3.694   1.972   1.598 -1.0711  0.3244 -0.8429
 6385SOL     OW30616   3.011   2.054  10.400 -0.1551  0.2583  0.1698
 6385SOL    HW130617   3.019   2.116  10.327  0.6177 -0.8807 -0.7123
 6385SOL    HW230618   3.090   2.006  10.373  1.0104  1.9330  0.6133
 6386SOL     OW30619   4.334   2.797   2.271  0.1089  0.0427  0.1911
 6386SOL    HW130620   4.414   2.832   2.309  0.9572 -1.7094  0.0370
 6386SOL    HW230621   4.326   2.825   2.179  0.7990  0.5958  0.2967
 6387SOL     OW30622   1.761   0.398   6.076 -0.1551 -0.4345 -0.2383
 6387SOL    HW130623   1.792   0.388   5.985 -2.8730 -0.4389 -1.1503
 6387SOL    HW230624   1.844   0.408   6.123 -0.6640 -0.3250  0.6314
 6388SOL     OW30625   3.799   4.534   2.871  0.0225  0.1158  0.3731
 6388SOL    HW130626   3.845   4.524   2.955  1.8056 -0.5402 -0.6988
 6388SOL    HW230627   3.877   4.559   2.821 -0.4545 -1.5016 -1.1552
 6389SOL     OW30628   0.749   1.314   2.771  0.0094 -0.1135  0.0035
 6389SOL    HW130629   0.690   1.278   2.838  1.0808  0.0281  1.0008
 6389SOL    HW230630   0.690   1.314   2.695 -1.1896 -2.0053  0.9097
 6390SOL     OW30631   3.491   0.989  10.773 -0.4653 -0.2151  0.1320
 6390SOL    HW130632   3.586   0.986  10.756 -0.6933  1.2373 -1.4449
 6390SOL    HW230633   3.474   0.975  10.866  3.7754  0.6953  1.0339
 6391SOL     OW30634   4.044   1.773   8.418 -0.2946 -0.0170  0.4046
 6391SOL    HW130635   4.014   1.682   8.421  0.8397 -0.4915 -3.3831
 6391SOL    HW230636   3.969   1.812   8.463 -0.8339  0.9753 -1.3689
 6392SOL     OW30637   2.623   0.443   6.760  0.1930 -0.1504 -0.2369
 6392SOL    HW130638   2.570   0.481   6.690  0.8199 -0.2327 -0.7611
 6392SOL    HW230639   2.705   0.430   6.713  1.2656  0.9318  1.3364
 6393SOL     OW30640   0.441   4.298   0.581 -0.2564 -0.4670  0.6666
 6393SOL    HW130641   0.518   4.345   0.548 -3.2467  2.8526 -1.5085
 6393SOL    HW230642   0.482   4.237   0.642 -0.2786 -0.5843  0.5634
 6394SOL     OW30643   3.081   3.305   1.638  0.2447 -0.3443 -0.2183
 6394SOL    HW130644   3.170   3.289   1.608 -1.0632 -1.5863 -3.4474
 6394SOL    HW230645   3.081   3.400   1.632 -1.2286 -0.2954  0.4712
 6395SOL     OW30646   0.324   2.859  17.686  0.0902 -0.5109 -0.0688
 6395SOL    HW130647   0.313   2.945   0.032  1.4234 -0.3178 -0.1265
 6395SOL    HW230648   0.229   2.855  17.674 -0.1585  1.4157  1.1399
 6396SOL     OW30649   4.086   1.126   6.132  0.0227 -0.3310  0.0210
 6396SOL    HW130650   4.110   1.042   6.170  0.0725 -0.8238 -1.1080
 6396SOL    HW230651   3.991   1.112   6.127  0.3037 -2.3228  0.3313
 6397SOL     OW30652   3.147   4.456  13.172  0.6872  0.0093 -0.1860
 6397SOL    HW130653   3.222   4.401  13.192  0.1296  0.0863  2.1907
 6397SOL    HW230654   3.128   4.493  13.259 -1.5656  0.7444 -0.9785
 6398SOL     OW30655   4.615   3.554   2.280 -0.4735 -0.3232 -0.2637
 6398SOL    HW130656   4.643   3.465   2.257  2.6063  0.8516 -1.0111
 6398SOL    HW230657   4.581   3.548   2.370  2.6119  1.5219  1.0166
 6399SOL     OW30658   2.094   3.182   3.682 -0.1692  0.0174 -0.4270
 6399SOL    HW130659   2.112   3.272   3.711 -0.6395  0.1438 -0.5159
 6399SOL    HW230660   2.105   3.191   3.587 -0.1727  3.0311 -0.1585
 6400SOL     OW30661   2.433   4.056   6.355 -0.5826 -0.0220 -0.6004
 6400SOL    HW130662   2.350   4.082   6.396  0.2266  0.4468  0.7191
 6400SOL    HW230663   2.446   3.978   6.408 -0.8620  0.0901 -0.3690
 6401SOL     OW30664   2.348   4.184   0.788  0.3440  0.0431  0.0637
 6401SOL    HW130665   2.253   4.192   0.787  0.3110 -0.2363  0.7608
 6401SOL    HW230666   2.350   4.104   0.736  1.7406  0.6696 -0.8582
 6402SOL     OW30667   3.423   0.717   7.810 -0.2273  0.0551 -0.0873
 6402SOL    HW130668   3.511   0.739   7.841 -0.2560 -1.3923  1.0154
 6402SOL    HW230669   3.418   0.777   7.736  0.1183 -1.1448 -1.0839
 6403SOL     OW30670   1.025   1.910  16.620 -0.8248 -0.4568 -0.0796
 6403SOL    HW130671   0.949   1.966  16.613 -0.6881 -0.2478  0.0953
 6403SOL    HW230672   1.006   1.875  16.708 -0.3365 -1.2891 -0.2998
 6404SOL     OW30673   3.579   0.664  17.395  0.4429  0.3222 -0.2485
 6404SOL    HW130674   3.512   0.600  17.420 -0.6519  1.3095 -0.6537
 6404SOL    HW230675   3.514   0.727  17.362 -0.2966 -0.4369 -0.2384
 6405SOL     OW30676   2.519   2.294   4.508 -0.2448  0.5924 -0.3233
 6405SOL    HW130677   2.469   2.219   4.474 -1.2006  0.8349  0.5575
 6405SOL    HW230678   2.550   2.250   4.587 -0.2939  0.9891 -0.0866
 6406SOL     OW30679   3.314   0.806   0.523  0.5149 -0.1380  0.5128
 6406SOL    HW130680   3.389   0.757   0.558 -0.8426 -0.9617  2.3045
 6406SOL    HW230681   3.328   0.894   0.557  1.2219  0.2232 -0.7167
 6407SOL     OW30682   4.168   2.725   4.893 -0.2039 -0.4779 -0.4697
 6407SOL    HW130683   4.214   2.745   4.975 -0.4148  0.1591 -0.5048
 6407SOL    HW230684   4.103   2.659   4.917  0.6093 -1.3953 -0.8289
 6408SOL     OW30685   1.523   3.123   4.611  0.7072 -0.2648 -0.7331
 6408SOL    HW130686   1.503   3.030   4.622 -0.9814  0.0999 -0.7123
 6408SOL    HW230687   1.450   3.163   4.563  1.1190  0.9336 -0.3748
 6409SOL     OW30688   2.002   3.555  16.503  0.0048  0.2425  0.1448
 6409SOL    HW130689   2.012   3.482  16.564  0.6876 -1.8474 -2.4694
 6409SOL    HW230690   2.089   3.594  16.514  0.3493 -0.4070 -0.2530
 6410SOL     OW30691   3.786   1.313   7.473 -0.0791  0.2727 -0.1610
 6410SOL    HW130692   3.723   1.383   7.487  0.5618  1.0298 -1.0559
 6410SOL    HW230693   3.868   1.339   7.515  0.1577 -3.3854  1.6961
 6411SOL     OW30694   0.206   2.683   7.659 -0.7019  0.9520  0.6284
 6411SOL    HW130695   0.256   2.725   7.729  0.3502  2.6740 -1.1553
 6411SOL    HW230696   0.155   2.760   7.633 -0.8381 -0.3001 -2.7820
 6412SOL     OW30697   0.952   0.940   7.496  0.2965 -0.2016  0.1224
 6412SOL    HW130698   1.039   0.908   7.517  1.1902  3.2627  1.7307
 6412SOL    HW230699   0.893   0.894   7.556 -1.7247  0.2610 -1.4877
 6413SOL     OW30700   0.809   2.579   3.319  0.3517 -0.3001  0.0429
 6413SOL    HW130701   0.813   2.638   3.394  0.0149  2.4233 -2.0893
 6413SOL    HW230702   0.798   2.642   3.249  0.3497  0.1193  0.4193
 6414SOL     OW30703   2.406   0.423  12.299  0.2816 -0.0384 -0.4579
 6414SOL    HW130704   2.401   0.483  12.374 -0.5010 -2.0608  1.1161
 6414SOL    HW230705   2.331   0.446  12.245  0.5695 -0.0965 -0.8776
 6415SOL     OW30706   2.275   2.238   2.338 -0.0198  0.2250  0.2665
 6415SOL    HW130707   2.368   2.223   2.322  0.2157  1.7673  0.1741
 6415SOL    HW230708   2.271   2.200   2.426  1.3021  0.5610  0.4746
 6416SOL     OW30709   2.297   0.570   7.844 -0.1542 -0.2056  0.2749
 6416SOL    HW130710   2.206   0.541   7.843 -0.9054  2.1880 -0.1834
 6416SOL    HW230711   2.300   0.619   7.926 -3.1711  0.1284  0.1868
 6417SOL     OW30712   4.181   1.831  12.715 -0.2368  0.2426  0.2482
 6417SOL    HW130713   4.179   1.778  12.635  0.3803  1.5937 -0.6625
 6417SOL    HW230714   4.087   1.833  12.733 -0.6974 -0.3666 -2.1260
 6418SOL     OW30715   0.140   2.301   6.670  0.0303  0.2133  0.0584
 6418SOL    HW130716   0.190   2.245   6.612 -1.1775  1.1609 -1.8889
 6418SOL    HW230717   0.201   2.316   6.743  1.2808  0.0595 -0.9663
 6419SOL     OW30718   4.191   4.709   4.460  0.2637 -0.0796  0.5326
 6419SOL    HW130719   4.220   4.662   4.538 -0.4031 -1.0480  0.1978
 6419SOL    HW230720   4.219   0.074   4.483 -0.8131 -0.0360  1.6725
 6420SOL     OW30721   2.415   2.598   3.268  0.2034 -0.3525 -0.0051
 6420SOL    HW130722   2.446   2.569   3.354 -3.5112  0.8338  1.7072
 6420SOL    HW230723   2.507   2.610   3.242 -0.5117 -0.0765 -2.4902
 6421SOL     OW30724   2.592   4.588   6.554 -0.5555 -0.2919  0.0124
 6421SOL    HW130725   2.618   4.552   6.469  1.6971  0.0233  0.5626
 6421SOL    HW230726   2.676   4.629   6.575 -0.7033  0.4725 -0.9267
 6422SOL     OW30727   1.818   0.475   8.423 -0.3702  0.1122  0.2974
 6422SOL    HW130728   1.875   0.461   8.498  1.0370 -1.0874 -1.0046
 6422SOL    HW230729   1.885   0.447   8.360 -1.5788 -0.7398 -0.6100
 6423SOL     OW30730   2.544   3.653  13.388  0.0471 -0.1234  0.0858
 6423SOL    HW130731   2.458   3.653  13.347  0.1887 -2.1157 -0.2240
 6423SOL    HW230732   2.556   3.558  13.387 -0.5623 -0.2246  2.0493
 6424SOL     OW30733   4.580   1.127   5.912 -0.1648  0.0413 -0.0910
 6424SOL    HW130734   4.500   1.138   5.964  0.4707  0.4853  0.7965
 6424SOL    HW230735   4.627   1.209   5.928  1.2746 -0.9576  0.8243
 6425SOL     OW30736   3.971   3.550  17.278 -0.1228  0.1729  0.5990
 6425SOL    HW130737   3.952   3.638  17.247 -1.6906 -1.0126 -1.7797
 6425SOL    HW230738   3.916   3.484  17.235  1.1840 -0.0300 -0.7613
 6426SOL     OW30739   0.973   0.257   6.416 -0.2607 -0.2625  0.2876
 6426SOL    HW130740   0.968   0.332   6.475 -0.2818  0.9059 -1.1716
 6426SOL    HW230741   1.059   0.261   6.374 -1.7111 -0.6070 -2.7684
 6427SOL     OW30742   2.937   1.006  11.222 -0.0429 -0.1173 -0.1026
 6427SOL    HW130743   2.932   0.921  11.265 -0.0486  0.8042  1.7206
 6427SOL    HW230744   2.885   1.051  11.289  0.1966 -1.1842  0.7981
 6428SOL     OW30745   0.777   1.240   7.861 -0.1889  0.7965  0.1316
 6428SOL    HW130746   0.765   1.314   7.921  0.9859 -0.0182  1.3711
 6428SOL    HW230747   0.872   1.237   7.860 -0.1458  2.0502 -0.9618
 6429SOL     OW30748   3.631   1.195  13.040 -0.0074  0.0562  0.3626
 6429SOL    HW130749   3.592   1.270  13.084 -1.5871 -1.1964  1.0718
 6429SOL    HW230750   3.713   1.196  13.089 -0.8966  1.4108  1.8111
 6430SOL     OW30751   4.224   2.777   5.265  0.2965  0.6589  0.0643
 6430SOL    HW130752   4.156   2.725   5.308  1.8750 -1.5039 -0.0636
 6430SOL    HW230753   4.279   2.703   5.239 -1.8797 -0.8556 -0.2008
 6431SOL     OW30754   4.319   2.035   4.523 -0.3953 -1.3362 -0.8043
 6431SOL    HW130755   4.403   2.007   4.488 -1.1066 -2.0029 -1.9517
 6431SOL    HW230756   4.314   1.977   4.599  0.4840 -1.2405 -0.6761
 6432SOL     OW30757   1.228   4.448  17.439  0.4801  0.0041  0.4346
 6432SOL    HW130758   1.239   4.404  17.523 -1.2402 -2.9350 -0.8960
 6432SOL    HW230759   1.237   4.371  17.383  1.1052 -0.1420  0.7335
 6433SOL     OW30760   1.721   3.708   6.554 -0.2936 -0.3621  0.3174
 6433SOL    HW130761   1.809   3.742   6.543 -0.4771 -0.3662 -1.1600
 6433SOL    HW230762   1.736   3.614   6.558  0.7727 -0.2443 -0.8905
 6434SOL     OW30763   0.608   3.510   9.334 -0.0046 -0.5319 -0.1783
 6434SOL    HW130764   0.644   3.564   9.404  0.6743  0.3342 -1.1894
 6434SOL    HW230765   0.679   3.446   9.327 -1.1438 -1.7716 -0.2391
 6435SOL     OW30766   3.588   4.363   5.399 -0.1269 -0.0854  0.0743
 6435SOL    HW130767   3.496   4.389   5.400  0.3538  1.7133 -1.8808
 6435SOL    HW230768   3.631   4.441   5.365  2.1536 -1.8178 -1.0270
 6436SOL     OW30769   3.479   0.186   5.471 -0.0919 -0.8599 -0.0969
 6436SOL    HW130770   3.554   0.169   5.414  0.0559 -2.6062  0.6231
 6436SOL    HW230771   3.514   0.144   5.550  1.0618 -2.8465 -1.6681
 6437SOL     OW30772   4.673   0.551  11.999 -0.2185  0.3268 -0.2808
 6437SOL    HW130773   4.628   0.568  11.916  1.8385 -0.4151 -1.5466
 6437SOL    HW230774   0.027   0.606  11.986  0.2930 -0.3827 -0.2273
 6438SOL     OW30775   1.004   2.794  12.542 -0.0298 -0.9381 -0.1514
 6438SOL    HW130776   1.060   2.773  12.617 -0.1492  3.0607  1.0749
 6438SOL    HW230777   1.069   2.763  12.479 -1.3943  1.3998 -2.7492
 6439SOL     OW30778   3.545   2.816   3.409  0.3684 -0.4361 -0.0702
 6439SOL    HW130779   3.496   2.899   3.411  0.2063 -0.5298 -0.1713
 6439SOL    HW230780   3.475   2.757   3.380 -0.9759 -0.2665  2.8480
 6440SOL     OW30781   4.651   1.839   3.272  0.4123 -0.2738  0.0830
 6440SOL    HW130782   4.717   1.839   3.202  0.1501  2.5677 -0.1366
 6440SOL    HW230783   4.698   1.879   3.345 -1.1642 -0.8639  1.4085
 6441SOL     OW30784   1.760   3.145  10.239 -0.0688 -0.2202  0.1269
 6441SOL    HW130785   1.815   3.068  10.250  1.2802  0.9346  1.5008
 6441SOL    HW230786   1.712   3.128  10.157 -0.2407  2.2116 -0.2839
 6442SOL     OW30787   3.347   1.802   1.899  0.2624 -0.7600  0.2238
 6442SOL    HW130788   3.352   1.773   1.990  0.1493 -0.2949  0.3763
 6442SOL    HW230789   3.265   1.756   1.877 -0.5817 -0.3147  2.4635
 6443SOL     OW30790   0.666   0.449  16.995 -0.8645  0.2715  0.1746
 6443SOL    HW130791   0.656   0.543  17.011  0.0003  0.7310 -1.9843
 6443SOL    HW230792   0.707   0.449  16.909 -0.6088  1.5412  0.2951
 6444SOL     OW30793   2.653   2.873   4.402 -0.1774  0.5071  0.2380
 6444SOL    HW130794   2.700   2.832   4.330 -1.6044  0.8120 -0.8756
 6444SOL    HW230795   2.636   2.796   4.455 -1.3251 -1.5699 -3.1989
 6445SOL     OW30796   4.694   1.898   5.986 -0.2299 -0.0920 -0.2180
 6445SOL    HW130797   4.663   1.933   6.069 -4.4492 -1.3852 -1.2450
 6445SOL    HW230798   0.032   1.964   5.954 -1.5793  1.4239  0.3696
 6446SOL     OW30799   3.560   4.297   7.099  0.2403 -0.3306  0.5496
 6446SOL    HW130800   3.505   4.221   7.118 -1.5824  0.8651  0.0744
 6446SOL    HW230801   3.604   4.305   7.184  1.1990 -1.2402  0.1385
 6447SOL     OW30802   4.026   2.822   6.823 -0.3040  0.1469 -0.3497
 6447SOL    HW130803   4.044   2.759   6.753 -1.7564 -0.5806 -0.0476
 6447SOL    HW230804   4.082   2.792   6.895 -0.7121  3.9968  1.5531
 6448SOL     OW30805   2.359   0.008   6.029  0.2516  0.0320 -0.4215
 6448SOL    HW130806   2.279   4.706   5.982 -0.0511  0.2419 -0.0167
 6448SOL    HW230807   2.370   0.091   5.983 -1.4161 -0.2468 -1.3428
 6449SOL     OW30808   3.689   3.374   4.863  0.8741 -0.0733 -0.2150
 6449SOL    HW130809   3.667   3.437   4.932 -0.8840 -1.0882  0.1509
 6449SOL    HW230810   3.752   3.319   4.910  0.6675  1.3844  1.7637
 6450SOL     OW30811   4.541   0.562   1.397 -0.3841  0.3074  0.1769
 6450SOL    HW130812   4.574   0.535   1.311 -2.5654  1.3076 -0.9832
 6450SOL    HW230813   4.448   0.548   1.381 -0.4226  1.1813 -0.4253
 6451SOL     OW30814   1.147   1.382   7.132  0.2595  0.3700 -0.0046
 6451SOL    HW130815   1.153   1.321   7.205  1.0539  0.6703  0.1855
 6451SOL    HW230816   1.182   1.328   7.061 -0.1280  1.6162 -1.1522
 6452SOL     OW30817   0.618   3.093   9.263 -0.5111  0.6695 -0.6320
 6452SOL    HW130818   0.680   3.022   9.247  1.7377  2.2671  1.0977
 6452SOL    HW230819   0.606   3.099   9.357  0.0555 -2.4139 -0.3613
 6453SOL     OW30820   2.015   2.882   3.222  0.2725  0.0745 -0.0405
 6453SOL    HW130821   2.027   2.807   3.280 -0.3359  0.3432  0.4301
 6453SOL    HW230822   2.107   2.908   3.215 -0.2731  2.0477  0.2724
 6454SOL     OW30823   3.497   2.467  13.160  0.3541 -0.1008 -0.3916
 6454SOL    HW130824   3.450   2.385  13.147  0.0731  0.0388 -0.2638
 6454SOL    HW230825   3.450   2.526  13.101 -0.8341  0.5774  1.2412
 6455SOL     OW30826   1.072   2.012   0.447 -0.1310  0.3250 -0.0673
 6455SOL    HW130827   1.044   1.957   0.520 -1.1678 -0.3671 -0.9940
 6455SOL    HW230828   1.013   2.087   0.447 -0.0866  0.3607 -0.3818
 6456SOL     OW30829   3.356   3.281  14.023 -0.0385  0.4968  0.0873
 6456SOL    HW130830   3.419   3.273  13.952  0.3976 -1.8681  0.7702
 6456SOL    HW230831   3.368   3.197  14.066 -1.4871  0.1907 -0.1058
 6457SOL     OW30832   2.281   2.438   5.933  0.3564  0.0273  0.2437
 6457SOL    HW130833   2.259   2.521   5.974 -0.5149 -0.9618  1.7560
 6457SOL    HW230834   2.215   2.387   5.979 -0.9080 -0.4835 -2.1279
 6458SOL     OW30835   0.346   3.781   2.241  0.2171  0.2281  0.1133
 6458SOL    HW130836   0.346   3.779   2.145  1.7356 -0.7188  0.1120
 6458SOL    HW230837   0.347   3.876   2.249 -1.6130  0.4188 -2.0915
 6459SOL     OW30838   3.321   2.581  12.986 -0.2811  0.1538 -0.2101
 6459SOL    HW130839   3.256   2.592  13.055 -0.0106 -0.1461  0.0945
 6459SOL    HW230840   3.274   2.515  12.935 -1.1371 -1.3344  2.4660
 6460SOL     OW30841   0.820   4.318   7.473 -0.1076 -0.0549  0.2407
 6460SOL    HW130842   0.835   4.254   7.543  0.6753  0.1911  0.2921
 6460SOL    HW230843   0.823   4.262   7.396  1.2772  0.1803  0.1279
 6461SOL     OW30844   0.666   0.690   1.550  0.0344  0.5159  0.2197
 6461SOL    HW130845   0.713   0.656   1.625  0.1236  1.1623  0.4495
 6461SOL    HW230846   0.738   0.719   1.494 -2.0598  0.7389 -2.4203
 6462SOL     OW30847   0.585   1.604   2.288  0.0278  0.5737 -0.5043
 6462SOL    HW130848   0.537   1.648   2.358  0.2919  1.6838 -1.0247
 6462SOL    HW230849   0.553   1.653   2.212 -0.7699 -1.7050 -1.6409
 6463SOL     OW30850   1.468   4.718  17.593  0.2993 -0.3652  0.1358
 6463SOL    HW130851   1.475   4.648  17.658 -0.3872  0.8512  1.5316
 6463SOL    HW230852   1.375   4.710  17.570  0.2480 -1.5205  0.7651
 6464SOL     OW30853   3.162   0.029   0.509  0.0004  0.3102  0.6801
 6464SOL    HW130854   3.153   4.680   0.447  2.2461  0.6394  0.0017
 6464SOL    HW230855   3.073   0.061   0.491 -0.2013 -0.5081  0.2137
 6465SOL     OW30856   0.253   4.141   4.415 -0.8832  0.3502  0.4686
 6465SOL    HW130857   0.289   4.147   4.327  1.0666  0.1254  1.2511
 6465SOL    HW230858   0.309   4.073   4.450 -1.0102  0.6986  1.3635
 6466SOL     OW30859   3.969   0.384   3.373  0.2809  0.3336  0.2230
 6466SOL    HW130860   3.959   0.392   3.468  2.2870  0.1336  0.4523
 6466SOL    HW230861   3.892   0.426   3.335 -0.2328 -1.2862 -0.5293
 6467SOL     OW30862   0.612   0.065   4.437  0.2048 -0.0701  0.7323
 6467SOL    HW130863   0.649   4.722   4.378  0.4503  0.6097  0.1194
 6467SOL    HW230864   0.683   0.128   4.423  1.1216 -1.2245  0.1575
 6468SOL     OW30865   4.298   0.776   1.196  0.0399 -0.5845  0.5020
 6468SOL    HW130866   4.271   0.777   1.104 -0.4615  0.2710  0.6538
 6468SOL    HW230867   4.288   0.681   1.196 -1.5064 -0.4300  1.5955
 6469SOL     OW30868   0.303   2.601   6.006 -0.8927 -0.3077 -0.2434
 6469SOL    HW130869   0.395   2.574   6.013 -0.9939 -0.3167  0.9931
 6469SOL    HW230870   0.327   2.694   6.003 -3.0414  0.2988  1.8342
 6470SOL     OW30871   2.438   3.495  16.338  0.0374 -0.1452  0.0263
 6470SOL    HW130872   2.523   3.452  16.336 -0.7783 -1.8432  1.1016
 6470SOL    HW230873   2.379   3.441  16.392  0.7559  1.4047  2.3476
 6471SOL     OW30874   1.568   1.443   6.328 -0.0636  0.2521 -0.0195
 6471SOL    HW130875   1.524   1.488   6.400  0.7374  1.9812 -0.6122
 6471SOL    HW230876   1.661   1.465   6.331  0.9195 -3.7770 -0.8204
 6472SOL     OW30877   4.098   0.582  10.646 -0.3167  0.1005  0.4353
 6472SOL    HW130878   4.029   0.608  10.585  0.6845 -0.8130 -1.0758
 6472SOL    HW230879   4.163   0.552  10.583 -0.1846 -0.8378  1.0176
 6473SOL     OW30880   2.325   1.144  16.805 -0.6197 -0.5774  0.0965
 6473SOL    HW130881   2.264   1.131  16.877 -1.6977 -0.2089 -0.7507
 6473SOL    HW230882   2.358   1.230  16.833  0.9605 -0.6844 -1.4654
 6474SOL     OW30883   2.326   1.335   6.653  0.0798  0.1224  0.0245
 6474SOL    HW130884   2.275   1.272   6.705 -1.1064  1.1147  0.0631
 6474SOL    HW230885   2.307   1.421   6.690 -1.5807  0.0850 -0.7469
 6475SOL     OW30886   0.221   3.465  12.962 -0.0997 -0.0711  0.3436
 6475SOL    HW130887   0.312   3.483  12.985  0.0173 -0.6211  0.3061
 6475SOL    HW230888   0.191   3.488  13.050 -0.7106  0.5459 -0.0211
 6476SOL     OW30889   1.160   1.888   7.152  0.9020  0.3957 -0.3996
 6476SOL    HW130890   1.137   1.798   7.131  2.5293  0.1148 -0.9469
 6476SOL    HW230891   1.122   1.930   7.075  0.2299 -0.4917 -0.5431
 6477SOL     OW30892   1.311   1.848   3.279  0.0630  0.0156  0.3837
 6477SOL    HW130893   1.316   1.910   3.206  1.1979  0.2262  0.6387
 6477SOL    HW230894   1.277   1.771   3.232 -0.8029  0.5109  0.1864
 6478SOL     OW30895   3.597   1.073   8.043 -0.0397  0.1354  0.2097
 6478SOL    HW130896   3.651   1.015   7.989 -0.9050  0.5634 -1.1215
 6478SOL    HW230897   3.589   1.151   7.989 -1.4509  0.3400  0.7012
 6479SOL     OW30898   0.694   4.402   6.565  0.0211 -0.7911 -0.2182
 6479SOL    HW130899   0.748   4.482   6.555 -0.5711 -0.2597  0.8831
 6479SOL    HW230900   0.708   4.375   6.656 -1.0195 -0.7027 -0.0311
 6480SOL     OW30901   3.703   3.930   5.147  0.5991 -0.1574 -0.6444
 6480SOL    HW130902   3.679   4.023   5.156  1.5825  0.1294 -1.0324
 6480SOL    HW230903   3.643   3.897   5.214  1.1024 -0.9571 -0.5942
 6481SOL     OW30904   2.651   3.348  15.190  0.3276 -0.5880 -0.5900
 6481SOL    HW130905   2.745   3.344  15.176  0.0292  0.3298 -2.7711
 6481SOL    HW230906   2.634   3.434  15.229 -0.4396 -1.3425  0.7701
 6482SOL     OW30907   2.176   2.883   7.477 -0.2277  0.0127  0.1872
 6482SOL    HW130908   2.095   2.866   7.525  0.2862  1.5676  1.6140
 6482SOL    HW230909   2.211   2.795   7.492 -0.6098  0.1892  2.1867
 6483SOL     OW30910   0.969   2.796   7.123 -0.0574  0.4214  0.1312
 6483SOL    HW130911   1.052   2.757   7.097 -1.6657 -3.2577  0.5662
 6483SOL    HW230912   0.904   2.743   7.077 -0.0099 -1.0827  1.7715
 6484SOL     OW30913   3.017   1.832   5.217 -0.4839  0.4509 -0.7040
 6484SOL    HW130914   3.077   1.850   5.289 -0.0773 -1.8742 -0.4573
 6484SOL    HW230915   3.003   1.915   5.170 -0.2730  0.7291 -0.2684
 6485SOL     OW30916   3.390   3.633   6.390 -0.0103  0.2424 -0.3185
 6485SOL    HW130917   3.303   3.672   6.395 -0.4784 -0.5470 -2.1373
 6485SOL    HW230918   3.446   3.701   6.427  2.0303 -1.5697 -0.0300
 6486SOL     OW30919   3.932   3.193  11.151  0.1675  0.0600 -0.5850
 6486SOL    HW130920   3.888   3.157  11.075 -0.6590  0.1831 -0.1645
 6486SOL    HW230921   3.860   3.211  11.211  1.8645 -1.0312  1.7936
 6487SOL     OW30922   3.950   3.154   2.563 -0.4124 -0.2400 -0.7116
 6487SOL    HW130923   4.021   3.218   2.558 -1.2404  0.8378  1.3719
 6487SOL    HW230924   3.878   3.211   2.536 -1.1693 -1.0779 -0.4869
 6488SOL     OW30925   2.508   4.046   6.869 -0.8335  0.4201  0.3841
 6488SOL    HW130926   2.571   4.114   6.893 -0.3111  0.1517 -0.2221
 6488SOL    HW230927   2.464   4.100   6.804  0.8515  3.0705  1.4429
 6489SOL     OW30928   2.458   0.860   4.434 -0.6551 -0.2880  0.1861
 6489SOL    HW130929   2.485   0.804   4.507 -0.7062  1.0987  1.2723
 6489SOL    HW230930   2.411   0.929   4.481 -1.9421 -0.3941 -0.9504
 6490SOL     OW30931   2.118   1.904   2.431 -0.0292 -0.4710  0.6347
 6490SOL    HW130932   2.184   1.904   2.362 -0.2910 -0.0720  0.3853
 6490SOL    HW230933   2.052   1.849   2.389  2.0807 -0.6238 -2.4417
 6491SOL     OW30934   4.310   1.958  14.178  0.5825 -0.7081 -0.4007
 6491SOL    HW130935   4.345   1.881  14.133 -0.1441 -2.7083  2.4729
 6491SOL    HW230936   4.388   2.013  14.175 -0.5202  0.8436 -0.5390
 6492SOL     OW30937   2.084   4.623   6.253 -0.0007  0.4716  0.6336
 6492SOL    HW130938   2.071   4.670   6.335 -0.2334  2.1199 -0.3530
 6492SOL    HW230939   2.063   4.691   6.189 -0.0001 -1.1214 -1.0574
 6493SOL     OW30940   2.566   3.344   8.163 -0.5584  0.8199 -0.4569
 6493SOL    HW130941   2.662   3.345   8.159 -0.5377 -1.4756 -0.2400
 6493SOL    HW230942   2.553   3.414   8.098 -0.0763  0.4971 -0.9050
 6494SOL     OW30943   1.357   1.752   1.000  0.9037  0.4515  0.1680
 6494SOL    HW130944   1.268   1.719   1.006  0.1982  2.2414 -0.3652
 6494SOL    HW230945   1.363   1.800   1.082 -1.1096 -0.1099  0.6319
 6495SOL     OW30946   0.820   1.484   8.305 -0.3847  0.0720 -0.5253
 6495SOL    HW130947   0.762   1.431   8.252  1.3700 -1.9456 -0.4172
 6495SOL    HW230948   0.774   1.568   8.302  0.0687  0.3268 -0.4518
 6496SOL     OW30949   4.001   1.927   5.453  0.2938 -0.5362 -0.2548
 6496SOL    HW130950   4.088   1.966   5.461  0.5218 -1.2583  0.7906
 6496SOL    HW230951   3.965   1.949   5.539  1.6301 -1.6174  0.5890
 6497SOL     OW30952   0.339   2.955   8.676 -0.2380 -0.5902  0.1306
 6497SOL    HW130953   0.308   2.908   8.753 -2.6114  1.4853  0.4419
 6497SOL    HW230954   0.260   3.010   8.681 -1.2311 -1.9817 -0.2767
 6498SOL     OW30955   0.206   4.264   8.301 -0.4518  0.1203  0.0542
 6498SOL    HW130956   0.132   4.241   8.357 -0.3848 -0.1507  0.0330
 6498SOL    HW230957   0.183   4.354   8.277 -0.1215 -0.6229 -3.1020
 6499SOL     OW30958   3.436   0.861   8.549  0.1063  0.5882 -0.8153
 6499SOL    HW130959   3.376   0.914   8.602 -0.3993 -0.5397 -0.2598
 6499SOL    HW230960   3.396   0.876   8.464 -3.4666  0.6172  0.8511
 6500SOL     OW30961   4.010   1.558   2.667 -0.4257 -0.6212 -0.4053
 6500SOL    HW130962   3.933   1.504   2.688  1.4180 -2.5349  1.4875
 6500SOL    HW230963   3.989   1.587   2.579  1.3953 -0.8659 -0.9051
 6501SOL     OW30964   0.131   1.830   2.930  0.0186 -0.3578 -0.0593
 6501SOL    HW130965   0.091   1.908   2.892 -0.3366  0.1283  1.2810
 6501SOL    HW230966   0.220   1.867   2.929  0.2934 -1.0640 -1.8997
 6502SOL     OW30967   3.325   0.498   8.285 -0.1014  0.3718  0.5325
 6502SOL    HW130968   3.257   0.565   8.276  0.5103  0.6590 -2.0223
 6502SOL    HW230969   3.400   0.544   8.245 -1.7747 -0.3721 -3.4667
 6503SOL     OW30970   2.394   0.860   6.089  0.4272  0.6479 -0.3637
 6503SOL    HW130971   2.398   0.904   6.174  0.8847  0.4912 -0.3031
 6503SOL    HW230972   2.437   0.921   6.029  0.3255  0.6331 -0.4514
 6504SOL     OW30973   3.543   0.006  14.359  0.2776  0.4237  0.3281
 6504SOL    HW130974   3.555   4.668  14.287 -0.3939  1.3802 -0.6075
 6504SOL    HW230975   3.598   0.077  14.326 -1.0892  1.5867  0.5221
 6505SOL     OW30976   0.216   1.594   2.775 -0.4822 -0.5915  0.2067
 6505SOL    HW130977   0.169   1.631   2.700  0.0280  0.5729  0.4576
 6505SOL    HW230978   0.165   1.637   2.843  0.3583 -2.1270  1.8038
 6506SOL     OW30979   1.102   1.899   6.018  0.0094  0.6302 -0.6988
 6506SOL    HW130980   1.108   1.993   6.036 -0.5835  0.5913 -0.3122
 6506SOL    HW230981   1.196   1.888   6.003 -0.0713 -1.9020  0.7321
 6507SOL     OW30982   3.832   3.221   7.381 -0.4423 -1.0173  0.0494
 6507SOL    HW130983   3.903   3.250   7.324 -0.5828  1.1806  0.9593
 6507SOL    HW230984   3.794   3.140   7.348 -2.6821  0.5958 -1.3384
 6508SOL     OW30985   3.816   2.597   3.465 -0.5587  0.2043 -0.3021
 6508SOL    HW130986   3.831   2.671   3.524  2.4313 -1.6989  1.3476
 6508SOL    HW230987   3.902   2.597   3.422 -1.4084 -2.6977 -1.9622
 6509SOL     OW30988   2.424   3.936  11.184  0.8836 -0.3029 -0.0284
 6509SOL    HW130989   2.430   4.029  11.163 -0.8949 -0.0737  0.5370
 6509SOL    HW230990   2.424   3.895  11.097 -1.2552 -1.1531  0.3658
 6510SOL     OW30991   2.239   2.559   2.515 -0.0815  0.2218 -0.4011
 6510SOL    HW130992   2.320   2.609   2.521 -2.1425  3.3723  1.2399
 6510SOL    HW230993   2.183   2.624   2.557 -0.9214  0.7441 -2.3607
 6511SOL     OW30994   2.726   1.594  17.595 -0.2787  0.3419  0.1325
 6511SOL    HW130995   2.727   1.664  17.530 -1.0652  0.0416 -0.2035
 6511SOL    HW230996   2.820   1.580  17.608 -0.2265 -0.5747 -1.3377
 6512SOL     OW30997   4.118   0.856   6.205 -0.0794  0.0186  0.3435
 6512SOL    HW130998   4.205   0.815   6.203 -0.6188 -0.9105 -3.0816
 6512SOL    HW230999   4.103   0.847   6.299 -0.0695  2.0430  0.5300
 6513SOL     OW31000   0.891   2.215   1.566  0.3586 -0.1556  1.2147
 6513SOL    HW131001   0.877   2.310   1.574  0.9356 -0.0476  0.9350
 6513SOL    HW231002   0.904   2.198   1.473  1.2446  0.5988  1.1981
 6514SOL     OW31003   2.411   2.144   1.692  0.2799  0.5359  0.2087
 6514SOL    HW131004   2.354   2.089   1.639 -0.0676  0.2901  0.8381
 6514SOL    HW231005   2.366   2.228   1.692 -0.5140  0.1048  0.7437
 6515SOL     OW31006   2.635   2.061   4.646  0.2659 -0.1091 -0.5092
 6515SOL    HW131007   2.543   2.046   4.669  0.2914  1.7451  0.8709
 6515SOL    HW231008   2.671   2.068   4.734  3.0546  1.1235 -1.7372
 6516SOL     OW31009   3.012   3.249   1.903  0.3074 -0.1124  0.3794
 6516SOL    HW131010   3.050   3.288   1.825  1.5725 -0.9455  0.5750
 6516SOL    HW231011   3.067   3.280   1.975 -0.5549  1.0780  0.5154
 6517SOL     OW31012   3.136   2.686   7.865  0.1879  0.3656  0.3062
 6517SOL    HW131013   3.143   2.735   7.783  2.7663  0.2951  0.4695
 6517SOL    HW231014   3.097   2.601   7.845  0.9135 -0.3783  2.0504
 6518SOL     OW31015   4.511   1.446   9.431 -0.8052 -0.2218  0.5891
 6518SOL    HW131016   4.559   1.483   9.357 -0.2041 -3.2736 -0.5520
 6518SOL    HW231017   4.427   1.489   9.416 -0.6201 -0.3163 -0.7535
 6519SOL     OW31018   0.645   3.335   4.770  0.2037  0.2733 -0.6792
 6519SOL    HW131019   0.689   3.419   4.782 -1.0126  0.9777 -1.1570
 6519SOL    HW231020   0.557   3.344   4.806  0.8643 -2.1842  1.5238
 6520SOL     OW31021   2.711   4.568  16.704 -0.1190 -0.2204 -0.0318
 6520SOL    HW131022   2.797   4.548  16.668 -0.5598 -0.2235 -1.0780
 6520SOL    HW231023   2.720   4.662  16.722  1.0438 -0.8696  2.7425
 6521SOL     OW31024   0.446   2.072  16.794  0.0529 -0.1936  0.0929
 6521SOL    HW131025   0.423   2.067  16.701 -1.4872 -1.5951  0.5500
 6521SOL    HW231026   0.379   2.016  16.833 -2.0539  1.5173 -1.0948
 6522SOL     OW31027   0.668   4.427   1.362 -0.5077 -0.0336 -0.1202
 6522SOL    HW131028   0.611   4.460   1.293 -0.0630  1.1956  0.1128
 6522SOL    HW231029   0.644   4.488   1.431  1.6133  2.5839 -1.6998
 6523SOL     OW31030   2.146   3.865   8.903 -0.2616  0.5832 -0.2332
 6523SOL    HW131031   2.124   3.772   8.904  1.6538  0.1300 -1.3690
 6523SOL    HW231032   2.065   3.904   8.869 -0.9250 -0.9650 -0.4536
 6524SOL     OW31033   1.552   1.885   7.096  0.4809  0.4746 -0.0949
 6524SOL    HW131034   1.542   1.796   7.130  3.7235  0.2714  0.2948
 6524SOL    HW231035   1.558   1.874   7.001 -1.1362  1.9520 -0.3795
 6525SOL     OW31036   1.527   4.315   4.706  0.6093 -0.1268 -0.5394
 6525SOL    HW131037   1.469   4.281   4.775  0.5374  1.7086  0.3181
 6525SOL    HW231038   1.531   4.246   4.641 -0.2621 -0.3730 -0.3286
 6526SOL     OW31039   4.231   2.252   7.566 -0.6069 -0.1031  0.1598
 6526SOL    HW131040   4.276   2.322   7.614  3.3180 -2.0313 -0.6662
 6526SOL    HW231041   4.313   2.204   7.551 -1.3121 -0.0790 -3.7904
 6527SOL     OW31042   3.631   3.532  10.932 -0.1456 -0.2363  0.2978
 6527SOL    HW131043   3.603   3.459  10.878 -0.8267  0.5237 -0.3820
 6527SOL    HW231044   3.657   3.480  11.008  0.3745  0.1262  0.3677
 6528SOL     OW31045   4.075   0.762  16.888 -0.3889  0.0378 -0.3739
 6528SOL    HW131046   4.100   0.727  16.973  0.5694  0.8764 -0.3080
 6528SOL    HW231047   3.989   0.720  16.879 -0.3359  0.2024 -1.6244
 6529SOL     OW31048   3.369   1.944   2.713 -0.0012 -0.6594  0.4373
 6529SOL    HW131049   3.337   1.856   2.696  0.5899 -1.1139  1.7246
 6529SOL    HW231050   3.330   1.948   2.800 -1.6963  0.2569 -0.3648
 6530SOL     OW31051   4.105   4.008   0.811  0.0890 -0.6280 -0.8297
 6530SOL    HW131052   4.128   3.978   0.723 -0.1339  1.1922 -1.4931
 6530SOL    HW231053   4.170   3.959   0.861 -1.9864 -2.7571 -0.2255
 6531SOL     OW31054   4.260   2.162   2.559  0.1086  0.0957  0.7748
 6531SOL    HW131055   4.289   2.233   2.501 -1.9067 -0.8995 -1.4650
 6531SOL    HW231056   4.268   2.087   2.501  0.9706  2.0277 -1.6454
 6532SOL     OW31057   2.636   3.341   4.276  0.3725 -0.4403 -0.0823
 6532SOL    HW131058   2.566   3.277   4.266 -0.8967  0.9181  0.0394
 6532SOL    HW231059   2.599   3.394   4.347 -0.6810  1.2855 -1.9335
 6533SOL     OW31060   3.885   3.260   6.754 -0.0496 -0.0328  0.1616
 6533SOL    HW131061   3.908   3.344   6.714  1.6417 -0.1113  0.9755
 6533SOL    HW231062   3.879   3.194   6.685 -0.0960  1.1131 -0.9238
 6534SOL     OW31063   3.081   1.102  10.937 -0.1751 -0.7164 -0.4577
 6534SOL    HW131064   3.137   1.062  10.870 -1.1145 -2.0093 -0.4684
 6534SOL    HW231065   3.124   1.069  11.015 -0.8111 -1.2138 -0.3192
 6535SOL     OW31066   2.248   4.712   4.775  0.3376 -0.1984 -0.2721
 6535SOL    HW131067   2.203   0.016   4.695 -1.6778 -1.2823  0.5023
 6535SOL    HW231068   2.188   4.648   4.814  0.4357 -0.0467  0.1301
 6536SOL     OW31069   4.287   3.553   6.688 -0.3622 -0.0351  0.4105
 6536SOL    HW131070   4.262   3.513   6.771  2.1531  1.6844  2.0161
 6536SOL    HW231071   4.371   3.598   6.696  0.2084 -1.0527  0.1461
 6537SOL     OW31072   4.506   1.414   2.277 -0.6340  0.7654  0.1652
 6537SOL    HW131073   4.436   1.458   2.229 -0.3764 -1.0269 -1.8415
 6537SOL    HW231074   4.579   1.470   2.251 -1.8379  2.2505 -0.0219
 6538SOL     OW31075   3.906   4.289   5.713  0.0932 -0.0607  0.1730
 6538SOL    HW131076   3.941   4.371   5.679  0.1770 -0.6059 -1.0505
 6538SOL    HW231077   3.983   4.233   5.706 -0.5752 -0.8645 -0.8463
 6539SOL     OW31078   2.237   1.475   3.512  0.5156  0.1994  0.2500
 6539SOL    HW131079   2.155   1.507   3.473  0.9782  1.0830  0.0053
 6539SOL    HW231080   2.204   1.396   3.554  0.5060 -1.0871 -2.2089
 6540SOL     OW31081   2.589   2.535   4.153 -0.1170 -0.1902  0.2812
 6540SOL    HW131082   2.637   2.616   4.171 -0.1541 -0.3310  1.0140
 6540SOL    HW231083   2.571   2.569   4.066  0.4590 -0.2244  0.1478
 6541SOL     OW31084   3.443   3.106   2.873 -0.7100 -0.1351  0.9807
 6541SOL    HW131085   3.355   3.121   2.907 -0.7263 -0.1916  0.9630
 6541SOL    HW231086   3.493   3.174   2.919 -0.8755  1.0279 -0.5421
 6542SOL     OW31087   1.959   0.759  17.518 -0.1744  0.1899  0.1972
 6542SOL    HW131088   1.879   0.739  17.470 -1.3357  1.1352  1.7591
 6542SOL    HW231089   1.942   0.746  17.611 -3.1637 -3.4293 -0.8596
 6543SOL     OW31090   0.907   4.498  13.329 -0.2984  0.3231 -0.1307
 6543SOL    HW131091   0.986   4.464  13.288 -1.8682 -1.9791 -1.2145
 6543SOL    HW231092   0.934   4.583  13.363  0.9460  0.3726 -1.2371
 6544SOL     OW31093   1.170   1.313   9.375  0.1139  0.2698  0.1622
 6544SOL    HW131094   1.180   1.256   9.451  1.0035 -0.6585 -0.6373
 6544SOL    HW231095   1.101   1.378   9.390  0.5683  0.4925  1.2199
 6545SOL     OW31096   0.554   2.338   2.837  0.5503  0.1403  0.0534
 6545SOL    HW131097   0.469   2.338   2.794 -0.8214 -1.3894  2.7716
 6545SOL    HW231098   0.599   2.328   2.753  2.0010  2.5126  0.5494
 6546SOL     OW31099   1.674   2.126   0.954  0.5157  0.0928  0.1592
 6546SOL    HW131100   1.625   2.072   0.892  0.8943 -0.8822  0.7149
 6546SOL    HW231101   1.621   2.138   1.032  0.9448 -0.5785  0.5600
 6547SOL     OW31102   1.731   4.179   7.598 -0.6430  0.3928 -0.0350
 6547SOL    HW131103   1.787   4.212   7.527 -2.4663 -1.0905 -2.1358
 6547SOL    HW231104   1.681   4.256   7.626  0.2140  0.6184  0.8749
 6548SOL     OW31105   4.326   0.002   9.112  0.3921  0.0958 -0.1258
 6548SOL    HW131106   4.315   0.037   9.024 -2.1025  0.1470  0.2087
 6548SOL    HW231107   4.238   4.699   9.137 -1.0955  2.9722 -2.2859
 6549SOL     OW31108   2.759   3.524   4.489  0.1964  0.1654 -0.1005
 6549SOL    HW131109   2.666   3.533   4.466  0.6647  2.1700 -1.2234
 6549SOL    HW231110   2.770   3.574   4.570 -0.5706 -0.1753  0.2150
 6550SOL     OW31111   2.162   0.895   0.229 -0.2233 -0.1946  0.3986
 6550SOL    HW131112   2.132   0.986   0.236 -0.4854 -0.3846  1.8432
 6550SOL    HW231113   2.128   0.870   0.315 -1.4799 -0.9957 -0.3191
 6551SOL     OW31114   2.614   2.251   4.899  0.0520 -0.7187  0.6715
 6551SOL    HW131115   2.609   2.175   4.957 -1.7683 -1.8889 -1.0391
 6551SOL    HW231116   2.663   2.317   4.948  1.3367 -0.3203 -1.1604
 6552SOL     OW31117   0.683   0.914   2.747 -0.0679 -0.2595  0.1717
 6552SOL    HW131118   0.756   0.927   2.687  1.9606  0.8773  2.8888
 6552SOL    HW231119   0.717   0.919   2.836 -0.8687  0.3475  0.4525
 6553SOL     OW31120   4.194   3.014  10.148  0.6185 -0.6376  0.2706
 6553SOL    HW131121   4.114   2.965  10.130  0.6954  0.0314 -1.7996
 6553SOL    HW231122   4.193   3.019  10.244  0.7587  1.4925  0.1617
 6554SOL     OW31123   0.507   4.075  15.428 -0.0686 -0.4525 -0.1914
 6554SOL    HW131124   0.503   4.161  15.385  2.2679 -1.7027 -2.8561
 6554SOL    HW231125   0.416   4.072  15.460 -0.2546 -2.8807 -0.9326
 6555SOL     OW31126   4.203   1.036   5.511 -0.3288  0.0234  0.5275
 6555SOL    HW131127   4.219   0.947   5.479  0.1918  0.0557  0.6937
 6555SOL    HW231128   4.108   1.045   5.511 -0.5372 -2.1515  0.8483
 6556SOL     OW31129   2.748   2.359   2.936 -0.6638 -0.4849 -0.2941
 6556SOL    HW131130   2.713   2.359   3.025 -0.6641 -0.4318 -0.2946
 6556SOL    HW231131   2.791   2.443   2.920  1.5740 -1.7218 -0.7799
 6557SOL     OW31132   0.626   4.565   2.011  0.2102  0.0037 -0.3801
 6557SOL    HW131133   0.567   4.640   2.002 -0.0386  0.0821  1.7371
 6557SOL    HW231134   0.711   4.605   1.994 -0.4616  1.6105 -0.0173
 6558SOL     OW31135   3.914   2.498   4.653  0.0009  0.5294  0.6098
 6558SOL    HW131136   3.887   2.476   4.742  3.3799  1.0419  1.7656
 6558SOL    HW231137   3.917   2.593   4.642 -0.3978  0.5155  0.3883
 6559SOL     OW31138   3.178   2.399  12.394  0.7605 -0.1666 -0.2928
 6559SOL    HW131139   3.193   2.466  12.460 -1.5546  0.1327 -0.0512
 6559SOL    HW231140   3.117   2.447  12.337 -3.0051 -0.3067  3.5975
 6560SOL     OW31141   1.164   1.171  17.363 -0.1436  0.4863 -0.2319
 6560SOL    HW131142   1.213   1.252  17.377  1.3167 -0.5392  0.6719
 6560SOL    HW231143   1.076   1.206  17.348  0.2286  1.1225 -0.9404
 6561SOL     OW31144   2.844   4.574   1.120 -0.0264  0.0874 -0.0660
 6561SOL    HW131145   2.792   4.577   1.040 -1.1586  0.2848  0.6778
 6561SOL    HW231146   2.826   4.487   1.154 -0.3838 -1.0158 -3.1081
 6562SOL     OW31147   3.751   1.733   8.449 -0.5272  0.1055  0.4924
 6562SOL    HW131148   3.667   1.769   8.421 -0.4343  0.0286  0.1188
 6562SOL    HW231149   3.765   1.774   8.535 -0.8416 -0.0880  0.6376
 6563SOL     OW31150   4.128   3.459  14.856  0.3425 -0.6854 -0.3510
 6563SOL    HW131151   4.074   3.416  14.790 -0.1764 -0.5418 -0.0151
 6563SOL    HW231152   4.134   3.550  14.827  0.3363  0.1061  2.0964
 6564SOL     OW31153   2.737   4.018   9.965 -0.0210  0.0589  0.8964
 6564SOL    HW131154   2.670   4.004   9.898 -0.6212  0.7647  1.3476
 6564SOL    HW231155   2.802   3.955   9.933 -0.4220 -0.6560  1.5058
 6565SOL     OW31156   0.647   2.076   3.156  0.0910  0.1205 -0.5784
 6565SOL    HW131157   0.582   2.120   3.101 -0.7500 -1.5956 -0.9661
 6565SOL    HW231158   0.715   2.047   3.095 -1.9222 -4.0721 -0.8499
 6566SOL     OW31159   1.313   4.240   5.486  0.1526 -0.3139 -0.4000
 6566SOL    HW131160   1.252   4.166   5.491  0.3875 -0.3142  2.3115
 6566SOL    HW231161   1.245   4.308   5.484  0.9463  0.5066  0.9217
 6567SOL     OW31162   0.578   4.337  10.822  0.2430 -0.0117 -0.2893
 6567SOL    HW131163   0.504   4.393  10.798 -1.7552 -0.8491  3.8395
 6567SOL    HW231164   0.565   4.276  10.749  3.0655 -0.0703 -0.7449
 6568SOL     OW31165   1.130   4.287   8.449  0.0559 -0.1353 -0.1519
 6568SOL    HW131166   1.215   4.248   8.433  1.4810  2.5310  0.9176
 6568SOL    HW231167   1.132   4.271   8.543 -0.9752  1.5679  0.1663
 6569SOL     OW31168   0.658   3.494   8.659  0.2910  0.1150 -0.0668
 6569SOL    HW131169   0.626   3.532   8.577 -1.5034 -1.2975 -0.0069
 6569SOL    HW231170   0.670   3.404   8.628 -0.4689  0.0769 -0.2426
 6570SOL     OW31171   1.615   2.281   3.428  0.1956  0.3022  0.8135
 6570SOL    HW131172   1.599   2.369   3.394  2.9870  1.3698  2.2560
 6570SOL    HW231173   1.561   2.235   3.364  0.8637  0.1676  0.3476
 6571SOL     OW31174   0.819   3.501   6.938 -0.4396  0.3124  0.4019
 6571SOL    HW131175   0.770   3.437   6.887  1.1219 -0.4423 -0.1390
 6571SOL    HW231176   0.781   3.587   6.919 -1.5680 -0.6721 -1.7531
 6572SOL     OW31177   0.616   1.985   8.381  0.4026  0.5605  0.0236
 6572SOL    HW131178   0.655   2.018   8.300  0.3519 -3.4278 -1.6497
 6572SOL    HW231179   0.626   2.064   8.433  0.9929 -0.4174  1.3767
 6573SOL     OW31180   1.518   2.355   8.782  0.8027 -0.3613  0.1141
 6573SOL    HW131181   1.484   2.351   8.871  1.0629 -1.4295  0.1625
 6573SOL    HW231182   1.607   2.387   8.802  0.2895  0.3587  1.2469
 6574SOL     OW31183   2.965   3.633   7.149 -0.3164  0.0071  0.4107
 6574SOL    HW131184   2.908   3.556   7.155 -1.0929  0.7498  2.2325
 6574SOL    HW231185   2.909   3.707   7.127 -0.0023  0.0110 -0.3730
 6575SOL     OW31186   2.183   4.554   2.951  0.4836  0.6046  0.0677
 6575SOL    HW131187   2.231   4.523   3.027  2.2667  0.5108 -1.0845
 6575SOL    HW231188   2.196   4.482   2.889  0.3634 -1.7243  2.7715
 6576SOL     OW31189   1.678   2.250   9.102 -0.4348  0.1696 -0.1918
 6576SOL    HW131190   1.725   2.333   9.094 -2.0938  1.2787  1.3647
 6576SOL    HW231191   1.589   2.286   9.099 -1.1114 -1.4549  0.0775
 6577SOL     OW31192   4.686   3.449   9.428 -0.1737  0.1226 -0.2508
 6577SOL    HW131193   4.682   3.361   9.466 -0.0005  0.1048 -0.2710
 6577SOL    HW231194   4.592   3.466   9.434 -0.3638 -1.2090  0.6273
 6578SOL     OW31195   1.405   0.267   0.292 -0.3887 -0.5288  0.2982
 6578SOL    HW131196   1.338   0.200   0.284 -0.9144  0.0372 -0.0546
 6578SOL    HW231197   1.371   0.343   0.244 -0.8636 -0.6764  0.4045
 6579SOL     OW31198   0.051   1.750   8.882 -0.1282 -0.1649 -0.2259
 6579SOL    HW131199   0.021   1.764   8.972  0.9184  0.7593 -0.0074
 6579SOL    HW231200   0.041   1.837   8.843  1.5630  0.2101  0.1950
 6580SOL     OW31201   4.382   4.513   2.787 -0.4898 -0.7082 -0.1445
 6580SOL    HW131202   4.356   4.509   2.879  0.4859 -1.0467  0.1214
 6580SOL    HW231203   4.345   4.600   2.774 -2.0247 -1.2254  0.7696
 6581SOL     OW31204   0.885   1.195  14.576 -0.5184  0.2135 -0.1215
 6581SOL    HW131205   0.928   1.143  14.509  0.3524 -0.2633  0.7982
 6581SOL    HW231206   0.902   1.285  14.548  0.5362  0.2062  0.4897
 6582SOL     OW31207   1.438   0.048  12.826  0.2374  0.0626  0.7866
 6582SOL    HW131208   1.519   0.085  12.793  0.6737 -1.3754  0.2227
 6582SOL    HW231209   1.389   0.046  12.743 -1.4114 -0.0738  1.7649
 6583SOL     OW31210   1.571   0.415   3.364 -0.0462 -0.0656 -0.4796
 6583SOL    HW131211   1.576   0.398   3.458 -0.1325  0.0408 -0.4566
 6583SOL    HW231212   1.477   0.403   3.349 -0.0114  1.2156 -1.6865
 6584SOL     OW31213   1.229   4.617   4.370 -0.3159 -0.1870  0.2257
 6584SOL    HW131214   1.202   4.552   4.436 -0.3579 -2.1598 -1.7517
 6584SOL    HW231215   1.284   4.668   4.429  1.1574 -1.2381 -0.2550
 6585SOL     OW31216   2.265   1.828  15.917  0.6394  0.2029 -0.6808
 6585SOL    HW131217   2.355   1.828  15.885  0.0503 -0.4102 -2.3358
 6585SOL    HW231218   2.258   1.735  15.937 -0.5324 -0.2821 -3.3833
 6586SOL     OW31219   0.067   0.405   3.824 -0.0154 -0.0691 -0.1217
 6586SOL    HW131220   4.713   0.443   3.782  1.3739  0.6237 -2.0528
 6586SOL    HW231221   0.047   0.312   3.823  0.0317 -0.0792 -0.1034
 6587SOL     OW31222   3.659   0.875   1.910  0.0479  0.0314  0.6931
 6587SOL    HW131223   3.576   0.923   1.904  0.3710  0.6376  1.0602
 6587SOL    HW231224   3.700   0.913   1.832  0.0355 -1.7029 -0.1500
 6588SOL     OW31225   4.188   1.943  16.796  0.1392  0.0788 -0.0001
 6588SOL    HW131226   4.201   1.947  16.701  0.7408 -1.5616  0.0156
 6588SOL    HW231227   4.095   1.927  16.811 -0.1051  0.7192 -0.8209
 6589SOL     OW31228   1.772   4.654  11.840 -0.3811 -0.4922 -0.4405
 6589SOL    HW131229   1.722   0.009  11.861 -0.7910 -0.3254 -2.0580
 6589SOL    HW231230   1.732   4.633  11.755 -0.7274 -1.5152 -0.0193
 6590SOL     OW31231   1.766   2.905   2.781  0.5219  0.2299 -0.3680
 6590SOL    HW131232   1.771   2.813   2.756 -0.1227 -0.3920  1.7992
 6590SOL    HW231233   1.824   2.941   2.714  2.6012  0.1326  1.3886
 6591SOL     OW31234   3.699   3.699   8.890  0.1729 -0.3650  0.4371
 6591SOL    HW131235   3.694   3.624   8.949 -2.3507 -0.4927  0.0543
 6591SOL    HW231236   3.669   3.768   8.949 -1.4083 -0.8030  0.1537
 6592SOL     OW31237   4.416   1.060   8.095  0.5509  0.2276 -0.0550
 6592SOL    HW131238   4.427   0.971   8.128  0.7122  0.4137  0.4017
 6592SOL    HW231239   4.486   1.074   8.032 -0.1754  1.1719 -0.6538
 6593SOL     OW31240   4.439   1.034  14.699  0.0981  0.2377  0.0246
 6593SOL    HW131241   4.394   1.118  14.708 -2.1230 -0.8324 -1.1632
 6593SOL    HW231242   4.446   1.034  14.604  0.3902 -1.8657  0.0414
 6594SOL     OW31243   1.076   1.276   8.271 -0.1050 -0.2219  0.3268
 6594SOL    HW131244   1.162   1.315   8.290 -0.5910  0.5960  0.8328
 6594SOL    HW231245   1.012   1.346   8.257  0.3231 -0.0726 -0.8454
 6595SOL     OW31246   1.006   2.015   4.671 -0.1780  0.7360 -0.2607
 6595SOL    HW131247   0.967   1.979   4.591  1.0058  2.1227 -1.4523
 6595SOL    HW231248   1.021   2.103   4.638 -1.9793  0.8807 -0.6862
 6596SOL     OW31249   2.987   1.837   2.866 -0.0365  0.2194  0.0544
 6596SOL    HW131250   2.900   1.803   2.844  0.8097 -2.0292  0.1668
 6596SOL    HW231251   3.012   1.875   2.782 -3.6967 -0.5839 -1.4187
 6597SOL     OW31252   3.721   0.954   8.522 -0.5354 -0.0464 -0.3831
 6597SOL    HW131253   3.717   0.938   8.428 -0.4796 -0.8255 -0.2547
 6597SOL    HW231254   3.629   0.945   8.545 -0.5896 -0.0462 -0.5989
 6598SOL     OW31255   4.272   1.207   0.760 -0.0838  0.6667 -0.9604
 6598SOL    HW131256   4.318   1.138   0.808 -2.6639 -0.4527 -0.1109
 6598SOL    HW231257   4.197   1.227   0.815 -0.1758  0.6618 -1.0851
 6599SOL     OW31258   0.896   1.762  17.486 -0.0065  0.5959 -0.2991
 6599SOL    HW131259   0.825   1.780  17.425 -0.6023  1.7483  0.7327
 6599SOL    HW231260   0.917   1.669  17.472  1.2101  0.7561  0.4089
 6600SOL     OW31261   0.728   2.738  12.786 -0.4702 -0.6101  0.6042
 6600SOL    HW131262   0.756   2.655  12.747 -0.5027 -0.6879  0.7473
 6600SOL    HW231263   0.731   2.709  12.877 -1.1411 -0.4314  0.6856
 6601SOL     OW31264   4.665   2.374   3.307  0.4999  0.1875  0.0815
 6601SOL    HW131265   4.599   2.306   3.292  0.3386  0.3596  0.0188
 6601SOL    HW231266   4.661   2.414   3.220  1.6326 -2.7508 -1.3184
 6602SOL     OW31267   3.919   1.960  16.260 -0.4235 -0.0020 -0.2293
 6602SOL    HW131268   3.896   2.042  16.216 -0.6696 -0.5665 -1.1476
 6602SOL    HW231269   3.894   1.978  16.351  1.0722  1.4157 -0.0964
 6603SOL     OW31270   1.261   0.579  16.951  0.4038  0.1193  0.1145
 6603SOL    HW131271   1.260   0.590  17.046  0.1450 -1.1646  0.2638
 6603SOL    HW231272   1.342   0.528  16.947  1.2361  1.5051 -0.6866
 6604SOL     OW31273   0.291   3.133   7.015 -0.7319  0.5766 -0.8733
 6604SOL    HW131274   0.339   3.050   7.011 -3.6865 -1.1998  1.3246
 6604SOL    HW231275   0.333   3.171   6.937 -0.9034  0.5797 -0.9649
 6605SOL     OW31276   1.277   4.540  16.816 -0.6574 -0.4542 -0.3494
 6605SOL    HW131277   1.279   4.448  16.790  2.4031 -1.2528  2.7164
 6605SOL    HW231278   1.280   4.543  16.912 -0.2638 -1.7224 -0.3238
 6606SOL     OW31279   1.007   0.686   0.335  0.3183 -0.2908  0.2978
 6606SOL    HW131280   1.036   0.645   0.417  1.7739 -0.5620 -0.3534
 6606SOL    HW231281   0.973   0.771   0.364 -0.7894 -0.4598 -0.4919
 6607SOL     OW31282   4.715   4.658   7.728  0.1239 -0.5622  0.0717
 6607SOL    HW131283   4.634   4.693   7.691 -1.1631 -1.8849  1.5913
 6607SOL    HW231284   0.064   4.699   7.681  0.0102  1.1543  1.4137
 6608SOL     OW31285   0.792   2.965   9.683 -0.2380  0.7503  0.2140
 6608SOL    HW131286   0.805   2.957   9.778 -2.0578 -2.1724  0.2147
 6608SOL    HW231287   0.790   3.061   9.674 -0.2252  0.6487 -0.8112
 6609SOL     OW31288   1.453   0.716  15.346 -0.0142  0.5825 -0.0000
 6609SOL    HW131289   1.391   0.649  15.317  1.5194 -0.7284 -0.2590
 6609SOL    HW231290   1.473   0.691  15.437 -0.5511  1.1816  0.2791
 6610SOL     OW31291   2.308   2.507   4.743  0.1390 -0.1867  0.5803
 6610SOL    HW131292   2.348   2.554   4.670  3.0421 -3.8694 -0.2473
 6610SOL    HW231293   2.364   2.532   4.816  1.4474 -0.4099 -0.3412
 6611SOL     OW31294   4.383   0.101   3.187  0.4315  0.3410  0.6704
 6611SOL    HW131295   4.364   0.042   3.260 -1.7067 -1.2537 -1.2048
 6611SOL    HW231296   4.297   0.112   3.147  0.4511  0.2452  0.6038
 6612SOL     OW31297   1.665   1.559   1.288 -0.0820 -0.2433 -0.0154
 6612SOL    HW131298   1.671   1.623   1.359 -2.1193  1.0848 -1.0331
 6612SOL    HW231299   1.746   1.578   1.241 -0.0967  0.0561  0.0803
 6613SOL     OW31300   0.875   1.721   3.379  0.1002 -0.1437  0.1339
 6613SOL    HW131301   0.958   1.699   3.338  0.8317  0.1589  1.4760
 6613SOL    HW231302   0.863   1.816   3.373  0.0876 -0.1991 -0.7492
 6614SOL     OW31303   0.417   3.685  17.234 -0.2704  0.0891  0.0059
 6614SOL    HW131304   0.495   3.738  17.250  1.3033 -1.9607 -0.9206
 6614SOL    HW231305   0.441   3.611  17.290  0.4141  1.5976  1.6945
 6615SOL     OW31306   2.278   4.389   4.201 -0.0123 -0.3869  0.4453
 6615SOL    HW131307   2.203   4.438   4.169  1.1460  0.0502 -1.5423
 6615SOL    HW231308   2.243   4.371   4.288 -2.5786  0.0036 -0.5242
 6616SOL     OW31309   2.863   3.585   9.343  0.1591  0.4062 -0.2781
 6616SOL    HW131310   2.813   3.650   9.293 -0.7527 -0.7608 -0.8712
 6616SOL    HW231311   2.820   3.582   9.428 -0.7168 -0.4660 -0.7568
 6617SOL     OW31312   2.793   2.767   6.730  0.8965  0.3969 -0.5534
 6617SOL    HW131313   2.712   2.791   6.685  0.6792  0.7961  0.0552
 6617SOL    HW231314   2.747   2.742   6.810 -0.5430  4.0161 -0.2797
 6618SOL     OW31315   1.609   1.682   2.839 -0.1358  0.1052  0.0305
 6618SOL    HW131316   1.660   1.674   2.758 -0.4276  2.0673 -0.3465
 6618SOL    HW231317   1.616   1.593   2.873  0.0140  0.6059  1.3325
 6619SOL     OW31318   2.574   4.343  10.798  0.8002  0.6270 -0.4132
 6619SOL    HW131319   2.656   4.294  10.799  0.5858  0.3078  0.9353
 6619SOL    HW231320   2.520   4.285  10.745  1.4301  0.3116 -0.7079
 6620SOL     OW31321   2.670   0.618  12.826  0.8831  0.3061 -0.2425
 6620SOL    HW131322   2.575   0.621  12.814  0.7094 -1.5791  0.6764
 6620SOL    HW231323   2.670   0.560  12.902 -0.0172 -0.9216 -1.1730
 6621SOL     OW31324   1.980   1.600   3.509  0.7238 -0.4325  0.4204
 6621SOL    HW131325   1.952   1.660   3.441  3.8775  0.6819  0.1074
 6621SOL    HW231326   1.947   1.655   3.580  0.1003 -2.5130  1.7485
 6622SOL     OW31327   0.928   0.519   3.643 -0.2659 -0.5142  0.0611
 6622SOL    HW131328   0.905   0.572   3.567  2.6355 -1.1465 -1.2741
 6622SOL    HW231329   1.013   0.559   3.660 -1.0067  0.9175  0.3606
 6623SOL     OW31330   0.880   2.608   6.712  0.8714 -0.5363 -0.0919
 6623SOL    HW131331   0.853   2.561   6.791 -1.4002 -0.7382 -0.9644
 6623SOL    HW231332   0.821   2.563   6.652 -1.1549  1.0495  0.6864
 6624SOL     OW31333   2.304   4.460   5.381 -0.5162 -0.2582  0.0669
 6624SOL    HW131334   2.295   4.516   5.304  1.7731  1.9279  1.4268
 6624SOL    HW231335   2.211   4.442   5.397 -0.4225 -0.7731  0.0361
 6625SOL     OW31336   2.442   4.200   6.640 -0.2363  0.5026 -0.0941
 6625SOL    HW131337   2.531   4.205   6.605 -0.3536 -1.6982 -0.6667
 6625SOL    HW231338   2.388   4.249   6.578 -0.5518  1.1826  0.7158
 6626SOL     OW31339   4.426   2.157   3.798  0.1955  0.1744  0.0371
 6626SOL    HW131340   4.350   2.103   3.780 -1.7379  2.4016  1.4845
 6626SOL    HW231341   4.477   2.147   3.717 -1.7193 -0.7410 -1.0337
 6627SOL     OW31342   2.259   0.386   0.114 -0.7573 -0.3233 -0.5630
 6627SOL    HW131343   2.256   0.446   0.188  1.5385 -2.2840  1.0932
 6627SOL    HW231344   2.164   0.370   0.111 -1.0648  1.1135  1.3417
 6628SOL     OW31345   0.874   2.322  15.994 -0.3697  0.1023 -0.2308
 6628SOL    HW131346   0.845   2.372  15.917 -0.7168 -1.9344 -1.4102
 6628SOL    HW231347   0.898   2.388  16.059  0.2250 -1.1077  0.7747
 6629SOL     OW31348   3.982   0.842   0.931 -0.1207  0.3894 -0.4032
 6629SOL    HW131349   3.975   0.852   0.836  1.1192 -0.6553 -0.6053
 6629SOL    HW231350   4.035   0.914   0.964 -1.6845  1.1217  0.5316
 6630SOL     OW31351   0.733   1.023  16.922  0.1963  0.2757  0.2020
 6630SOL    HW131352   0.732   1.118  16.927  2.4003  0.2866  0.1682
 6630SOL    HW231353   0.821   1.012  16.887 -0.1344 -1.6700 -0.0490
 6631SOL     OW31354   0.112   2.368  13.944 -0.4566  0.2564  0.5820
 6631SOL    HW131355   0.022   2.400  13.953 -0.5857 -0.0109  0.2081
 6631SOL    HW231356   0.158   2.414  14.014  0.1941  1.3851 -0.5996
 6632SOL     OW31357   3.908   3.873   0.516 -0.3232  0.4993  0.5103
 6632SOL    HW131358   3.992   3.837   0.486  0.8452  0.6052  3.6024
 6632SOL    HW231359   3.942   3.946   0.569 -0.0783 -0.4805  1.6998
 6633SOL     OW31360   0.427   1.238  16.752  0.0901 -0.2464 -0.7935
 6633SOL    HW131361   0.510   1.269  16.717  0.0203  2.6409  1.5548
 6633SOL    HW231362   0.434   1.146  16.727  0.7593 -0.3888 -0.0911
 6634SOL     OW31363   3.168   2.249  14.998  0.3873 -0.4240 -0.3000
 6634SOL    HW131364   3.211   2.189  15.059 -2.8989 -2.5442 -0.0774
 6634SOL    HW231365   3.076   2.228  15.016 -0.3791  2.0709 -1.2392
 6635SOL     OW31366   2.199   3.654   7.296 -0.3970  0.7110 -0.8239
 6635SOL    HW131367   2.244   3.576   7.328 -1.1077  0.4418 -0.4837
 6635SOL    HW231368   2.265   3.718   7.321  0.1709  0.6722 -2.2051
 6636SOL     OW31369   4.242   4.113   7.766 -0.1624  0.3546 -0.2201
 6636SOL    HW131370   4.268   4.024   7.788 -0.3570  1.0426  2.7871
 6636SOL    HW231371   4.166   4.130   7.823 -0.4318  2.4909 -1.2041
 6637SOL     OW31372   3.063   2.041  12.180 -0.0204 -0.6602  0.5697
 6637SOL    HW131373   3.150   2.013  12.207  1.5704  2.9901 -0.8076
 6637SOL    HW231374   3.029   2.083  12.259  1.2864  1.0638  0.2192
 6638SOL     OW31375   2.169   1.514  10.126  0.4606  0.2852  0.2912
 6638SOL    HW131376   2.234   1.582  10.142  0.5185 -0.4171  3.1144
 6638SOL    HW231377   2.187   1.492  10.035  2.3935  6.1890 -0.7232
 6639SOL     OW31378   4.300   3.065   3.499  0.3247  0.3607  0.0723
 6639SOL    HW131379   4.217   3.111   3.508 -0.2738 -0.4551 -1.3570
 6639SOL    HW231380   4.295   2.972   3.520  1.4065  0.0272 -1.1219
 6640SOL     OW31381   0.803   2.856   1.624 -0.2618 -0.1751  0.2741
 6640SOL    HW131382   0.709   2.840   1.616 -0.5780  1.0629  1.3169
 6640SOL    HW231383   0.825   2.800   1.698  0.4937 -1.7663 -1.1740
 6641SOL     OW31384   1.587   3.980  15.550 -0.4165  0.3079  0.2051
 6641SOL    HW131385   1.494   3.975  15.572 -1.4246  0.6202 -3.9956
 6641SOL    HW231386   1.612   3.916  15.618 -1.5126 -1.2722 -0.8803
 6642SOL     OW31387   0.360   4.023  11.540  0.2159 -0.1266 -0.7570
 6642SOL    HW131388   0.307   4.103  11.537  0.3932  0.0152 -0.0083
 6642SOL    HW231389   0.403   4.018  11.455  1.5428  0.9154 -0.1588
 6643SOL     OW31390   1.143   2.881  17.590  0.3033  0.8041 -0.0444
 6643SOL    HW131391   1.211   2.815  17.590  0.2286  0.7272 -0.3031
 6643SOL    HW231392   1.109   2.879  17.500 -3.4876  2.4032  1.3189
 6644SOL     OW31393   1.417   4.543   0.869  0.1359  0.0069 -0.5604
 6644SOL    HW131394   1.355   4.595   0.920  0.5310  0.1364 -0.2166
 6644SOL    HW231395   1.456   4.599   0.802 -2.5358  1.5801 -0.8446
 6645SOL     OW31396   1.471   3.763  14.072  0.3583  0.3707  0.1551
 6645SOL    HW131397   1.403   3.704  14.039 -0.4887 -0.8148  3.9059
 6645SOL    HW231398   1.538   3.733  14.012 -1.5046 -3.6820  0.0612
 6646SOL     OW31399   3.816   1.943  14.399  0.3600 -0.5562  0.2172
 6646SOL    HW131400   3.735   1.943  14.348 -0.4438  0.4496  1.4996
 6646SOL    HW231401   3.835   1.851  14.379  0.5037 -0.4913  0.0658
 6647SOL     OW31402   0.310   2.896   3.257 -0.1314  0.2698  0.1454
 6647SOL    HW131403   0.277   2.892   3.167  0.4884 -0.8019 -0.0325
 6647SOL    HW231404   0.400   2.928   3.252 -0.0678  0.2206  1.0861
 6648SOL     OW31405   2.048   4.105   4.370  0.4137  0.1955  0.1285
 6648SOL    HW131406   2.020   4.050   4.443 -0.8820 -0.3798 -0.7839
 6648SOL    HW231407   2.130   4.060   4.350  0.3076  0.1700 -0.2684
 6649SOL     OW31408   3.762   2.689   6.472 -0.0043 -1.0284 -0.0832
 6649SOL    HW131409   3.772   2.744   6.549 -1.0874  0.5049 -1.0454
 6649SOL    HW231410   3.708   2.622   6.513 -0.4589 -0.5272  0.1353
 6650SOL     OW31411   4.203   0.373   2.648 -0.1260  0.0945  0.4230
 6650SOL    HW131412   4.282   0.320   2.653  1.4186  2.2835 -0.3681
 6650SOL    HW231413   4.242   0.459   2.629  2.8880 -1.1261  1.1864
 6651SOL     OW31414   3.086   1.410   8.062 -0.0227  0.4395 -0.3216
 6651SOL    HW131415   3.077   1.411   8.157  1.4518 -1.8658 -0.1803
 6651SOL    HW231416   3.035   1.333   8.037  0.3403  0.5983 -1.5628
 6652SOL     OW31417   0.224   1.744  17.538 -0.0240  0.2802 -0.4829
 6652SOL    HW131418   0.174   1.807  17.590 -3.1554 -0.5159 -2.4859
 6652SOL    HW231419   0.278   1.701  17.604  1.3702  1.1566 -1.0465
 6653SOL     OW31420   1.260   0.471   7.395 -0.8285  0.9048 -0.1857
 6653SOL    HW131421   1.308   0.406   7.344 -0.2534  1.1694  0.0149
 6653SOL    HW231422   1.332   0.510   7.446 -0.7168 -0.8886  1.0501
 6654SOL     OW31423   0.455   2.255  12.279  0.9137 -0.2982 -0.3549
 6654SOL    HW131424   0.537   2.224  12.240  0.7648  1.1766 -1.8535
 6654SOL    HW231425   0.479   2.345  12.303  3.2245 -0.7570 -0.9014
 6655SOL     OW31426   1.648   4.261  16.245  0.0645 -0.2367  0.8363
 6655SOL    HW131427   1.571   4.204  16.233  0.9708 -1.2559 -0.1110
 6655SOL    HW231428   1.683   4.224  16.326 -0.7314  0.5241  1.5260
 6656SOL     OW31429   1.410   0.429   9.977 -0.1593  0.4797  0.0130
 6656SOL    HW131430   1.498   0.424  10.013 -0.9133  0.5553  1.8575
 6656SOL    HW231431   1.425   0.423   9.882 -0.5726  2.4434 -0.1829
 6657SOL     OW31432   1.813   1.149   7.807  0.9843  0.3687 -0.0861
 6657SOL    HW131433   1.858   1.146   7.722 -2.2097 -2.4896 -1.7017
 6657SOL    HW231434   1.740   1.087   7.797 -0.1492  1.4468  1.5719
 6658SOL     OW31435   0.061   4.370   0.892 -0.3531 -0.2309  0.1434
 6658SOL    HW131436   0.130   4.358   0.958 -1.4838 -3.1776  0.8249
 6658SOL    HW231437   0.104   4.331   0.816 -1.4759 -1.4515  0.1448
 6659SOL     OW31438   3.984   2.112   8.874  0.2580  0.1960  0.3796
 6659SOL    HW131439   4.033   2.194   8.872  1.0751 -0.2699  1.4489
 6659SOL    HW231440   3.894   2.144   8.880  0.6214  1.6653 -1.9160
 6660SOL     OW31441   2.227   3.683   6.236  0.4623  0.2245 -0.1548
 6660SOL    HW131442   2.284   3.619   6.279 -0.3059 -0.0186  0.4960
 6660SOL    HW231443   2.252   3.671   6.144 -1.0284  2.7301 -0.8907
 6661SOL     OW31444   2.172   2.403  10.264  0.0323 -0.2053 -0.4818
 6661SOL    HW131445   2.183   2.309  10.283 -1.0988 -0.3314 -0.4491
 6661SOL    HW231446   2.263   2.430  10.276 -0.5074  0.9424  1.0189
 6662SOL     OW31447   4.616   0.777  12.387  0.0218  0.4633  0.0140
 6662SOL    HW131448   4.640   0.688  12.413  0.9165  1.1818  1.6258
 6662SOL    HW231449   4.556   0.761  12.314  0.4126  0.2675 -0.2630
 6663SOL     OW31450   0.787   2.506   9.747  0.0164  0.0094 -0.0796
 6663SOL    HW131451   0.745   2.543   9.669  1.5049  0.7023 -0.5405
 6663SOL    HW231452   0.714   2.449   9.772  0.5449 -0.9393 -0.7124
 6664SOL     OW31453   3.010   3.832   8.453 -0.0674 -0.3099 -0.1344
 6664SOL    HW131454   2.940   3.772   8.479 -1.0493  1.7952  2.0208
 6664SOL    HW231455   3.082   3.776   8.481  0.8269 -0.7255 -3.1659
 6665SOL     OW31456   0.616   3.550  11.726  0.5683 -0.5308 -0.0935
 6665SOL    HW131457   0.663   3.557  11.643 -3.2372  0.2142 -2.1683
 6665SOL    HW231458   0.669   3.479  11.762 -0.6592 -1.0237  0.7782
 6666SOL     OW31459   0.734   0.325   5.768  0.0537 -0.2042  0.0782
 6666SOL    HW131460   0.795   0.318   5.841  0.4878  0.3662 -0.2244
 6666SOL    HW231461   0.651   0.288   5.795  0.8337 -0.4695  2.1031
 6667SOL     OW31462   0.470   0.742   3.946  0.6012  0.0080 -0.0195
 6667SOL    HW131463   0.452   0.827   3.985 -2.0974  0.0404 -1.3688
 6667SOL    HW231464   0.541   0.719   4.007 -0.0573 -2.2651 -0.0859
 6668SOL     OW31465   2.789   1.134   5.559  0.4797  0.6805 -0.0844
 6668SOL    HW131466   2.704   1.166   5.528  0.2841 -0.3355 -0.6053
 6668SOL    HW231467   2.775   1.046   5.524 -0.5252  0.5969  0.5184
 6669SOL     OW31468   0.146   0.598   1.507  0.1795 -0.2311 -0.4799
 6669SOL    HW131469   0.229   0.597   1.555 -0.5359 -1.8765  0.7166
 6669SOL    HW231470   0.159   0.513   1.465 -1.5644 -0.4308 -0.6208
 6670SOL     OW31471   1.852   1.336   9.174 -0.3109  0.0132 -0.2705
 6670SOL    HW131472   1.872   1.286   9.253  0.5908  0.6027 -0.1199
 6670SOL    HW231473   1.864   1.270   9.105  1.5377  0.1322 -0.0599
 6671SOL     OW31474   3.875   2.640   3.009 -0.0357  0.0286 -0.2894
 6671SOL    HW131475   3.807   2.623   2.944  0.6551  0.4272 -1.1166
 6671SOL    HW231476   3.831   2.699   3.070  1.3828  1.5510 -0.7281
 6672SOL     OW31477   0.234   3.752   2.596  0.0779  0.6535  0.5761
 6672SOL    HW131478   0.179   3.807   2.539  2.2345  2.3174  0.0909
 6672SOL    HW231479   0.182   3.672   2.597  0.4034  0.4493  1.1474
 6673SOL     OW31480   4.528   2.066  14.736 -0.4806  0.4435 -0.2750
 6673SOL    HW131481   4.577   2.131  14.787 -1.1463  0.6335  0.1337
 6673SOL    HW231482   4.438   2.095  14.752 -1.0788 -1.4017 -0.2794
 6674SOL     OW31483   1.963   1.681   5.510 -0.1108 -0.6685  0.5744
 6674SOL    HW131484   1.901   1.662   5.581 -0.2541  1.1737  0.9640
 6674SOL    HW231485   1.986   1.589   5.507  3.1303  0.1446  1.1590
 6675SOL     OW31486   3.098   0.208  12.367 -0.0040  0.2302  0.5625
 6675SOL    HW131487   3.145   0.283  12.404 -1.2134  0.6279  1.2945
 6675SOL    HW231488   3.086   0.246  12.280 -0.6701 -0.8907  0.1684
 6676SOL     OW31489   3.196   0.729  14.177 -0.2046  0.2793 -0.5212
 6676SOL    HW131490   3.206   0.818  14.210  0.3928 -0.0918  0.3094
 6676SOL    HW231491   3.271   0.683  14.215 -0.0330  0.3726 -0.7438
 6677SOL     OW31492   2.873   3.157   0.360 -0.2277  0.2260 -0.1241
 6677SOL    HW131493   2.912   3.100   0.293  1.3463  0.4374  0.6162
 6677SOL    HW231494   2.912   3.126   0.441  1.0891  2.3862  0.0828
 6678SOL     OW31495   0.305   1.241   8.129  0.4574 -0.0806 -0.1062
 6678SOL    HW131496   0.228   1.197   8.166 -0.3804  1.3950 -0.1042
 6678SOL    HW231497   0.275   1.330   8.112 -0.7042 -0.7812 -1.7883
 6679SOL     OW31498   4.216   1.558  15.773  0.0100 -0.7938  0.3387
 6679SOL    HW131499   4.267   1.618  15.718 -1.0390 -1.0921 -0.9869
 6679SOL    HW231500   4.132   1.605  15.774  1.1252  1.1996  1.0871
 6680SOL     OW31501   3.861   0.227   3.836 -0.7873  0.1889  0.1862
 6680SOL    HW131502   3.884   0.285   3.764 -0.8989  1.6982  1.3691
 6680SOL    HW231503   3.941   0.207   3.884  0.1758 -0.1353 -1.5578
 6681SOL     OW31504   3.280   1.122  10.022  0.1525 -0.1578 -0.0333
 6681SOL    HW131505   3.336   1.090  10.092 -0.9624 -0.5581  0.6754
 6681SOL    HW231506   3.200   1.135  10.073  0.7588 -0.4106  0.9737
 6682SOL     OW31507   0.319   3.888  17.518 -0.0263 -0.0406 -0.2743
 6682SOL    HW131508   0.294   3.797  17.501 -0.8631  0.4915 -1.9652
 6682SOL    HW231509   0.271   3.919  17.594 -0.3282 -0.1287 -0.4264
 6683SOL     OW31510   2.084   2.431   7.155  0.1873 -0.2457 -0.5955
 6683SOL    HW131511   2.024   2.403   7.086  0.7936 -4.0512  0.3706
 6683SOL    HW231512   2.157   2.369   7.149  0.3147  0.1747 -3.0365
 6684SOL     OW31513   4.222   3.546   2.316 -0.5120 -0.0670  0.4700
 6684SOL    HW131514   4.247   3.454   2.325  1.0924  0.0958 -2.4337
 6684SOL    HW231515   4.246   3.558   2.225 -1.5364 -2.1640 -0.0897
 6685SOL     OW31516   2.771   4.285  10.028  0.1971 -0.1183  0.0972
 6685SOL    HW131517   2.771   4.196   9.992  1.6483  0.4151 -1.2375
 6685SOL    HW231518   2.680   4.289  10.058 -0.4629 -3.9821 -1.3617
 6686SOL     OW31519   0.538   2.587   3.051  0.6039 -0.3719 -0.3965
 6686SOL    HW131520   0.578   2.550   2.972 -1.5620 -1.8999 -0.8055
 6686SOL    HW231521   0.455   2.538   3.050 -0.6693  1.7720  0.4942
 6687SOL     OW31522   0.232   4.540   6.315 -0.3208  0.0621 -0.5649
 6687SOL    HW131523   0.320   4.515   6.285  0.5238  0.7075  1.3128
 6687SOL    HW231524   0.253   4.548   6.409  0.9131  1.2116 -0.9287
 6688SOL     OW31525   4.576   0.913   5.772 -1.2624  0.2906  0.1092
 6688SOL    HW131526   4.591   0.999   5.812 -0.2914  0.0475  0.2715
 6688SOL    HW231527   4.506   0.881   5.829 -1.6881  1.4553  0.2335
 6689SOL     OW31528   1.931   0.071   7.661  0.1919  0.3564  0.3055
 6689SOL    HW131529   1.976   0.004   7.712  0.5281  0.0137 -0.4449
 6689SOL    HW231530   1.971   0.145   7.708  0.6589 -0.4014  1.1134
 6690SOL     OW31531   3.064   2.336  12.060  0.0993 -0.2517  0.3296
 6690SOL    HW131532   3.159   2.331  12.061  0.0760 -0.5993  1.1530
 6690SOL    HW231533   3.040   2.244  12.050 -0.2646 -0.2237  0.9110
 6691SOL     OW31534   4.542   4.582  15.379  0.1586  0.7273  0.0672
 6691SOL    HW131535   4.562   4.533  15.458  0.6105 -0.0816 -0.5423
 6691SOL    HW231536   4.458   4.537  15.369  0.8881 -0.6912  0.3392
 6692SOL     OW31537   2.405   0.934  16.639 -0.6647  0.1730 -0.3312
 6692SOL    HW131538   2.496   0.926  16.666 -0.7445  1.7373  0.3683
 6692SOL    HW231539   2.366   0.989  16.707 -1.2369  1.1567 -1.4381
 6693SOL     OW31540   1.422   2.587  11.494 -0.0571  0.2515 -0.5306
 6693SOL    HW131541   1.507   2.614  11.528 -1.1771  2.5558  0.5073
 6693SOL    HW231542   1.446   2.559  11.405  0.6980  0.8471 -0.5140
 6694SOL     OW31543   0.247   0.455   1.981 -0.1183  0.2829  0.3161
 6694SOL    HW131544   0.285   0.425   2.064 -3.2437 -2.2146  0.8726
 6694SOL    HW231545   0.320   0.505   1.947 -0.4258  0.8240  0.4433
 6695SOL     OW31546   2.799   3.058   8.733  0.3590 -0.6124  0.6839
 6695SOL    HW131547   2.877   3.014   8.766  2.0887  0.3856 -2.1569
 6695SOL    HW231548   2.748   2.977   8.728 -1.6239  0.6510  0.4239
 6696SOL     OW31549   3.203   1.306  16.937  0.1633  0.0298  0.2012
 6696SOL    HW131550   3.176   1.215  16.919 -0.2925  0.6615 -2.3119
 6696SOL    HW231551   3.276   1.295  16.998 -1.0358 -0.5424  1.5449
 6697SOL     OW31552   1.580   1.396   7.679 -0.4152 -0.1517 -0.5792
 6697SOL    HW131553   1.552   1.377   7.769 -0.4958 -1.3751 -0.8584
 6697SOL    HW231554   1.674   1.410   7.687 -0.2000 -1.4040 -0.8062
 6698SOL     OW31555   0.922   3.791   6.253 -0.5565  0.0781 -0.1193
 6698SOL    HW131556   0.958   3.790   6.341 -0.1798  2.8135 -0.2500
 6698SOL    HW231557   0.933   3.884   6.233 -2.7562  0.4264  0.2651
 6699SOL     OW31558   1.155   0.614   1.992  0.8273 -0.3017  0.2556
 6699SOL    HW131559   1.206   0.637   1.914 -1.2983 -1.3786 -1.4800
 6699SOL    HW231560   1.195   0.679   2.049 -2.1983  1.3113  0.5603
 6700SOL     OW31561   1.144   2.855   8.946 -0.3696  0.4378 -0.0247
 6700SOL    HW131562   1.051   2.845   8.924  0.2790 -2.4199 -1.4680
 6700SOL    HW231563   1.170   2.767   8.919 -1.0104  0.5433 -1.0399
 6701SOL     OW31564   3.906   1.628  11.764 -0.2671 -1.0752  0.0787
 6701SOL    HW131565   3.972   1.670  11.820 -1.0264  0.4222 -0.1423
 6701SOL    HW231566   3.958   1.610  11.685 -1.1340  0.9622 -0.9555
 6702SOL     OW31567   1.148   0.036   7.607 -0.5434  0.1095  0.0803
 6702SOL    HW131568   1.237   0.029   7.573 -0.3352  1.5047  0.3240
 6702SOL    HW231569   1.123   0.118   7.565  0.5794 -0.5413 -1.8592
 6703SOL     OW31570   3.052   1.278  12.208 -0.7391 -0.1515  0.2159
 6703SOL    HW131571   3.045   1.311  12.119 -0.2906 -1.4763 -0.3172
 6703SOL    HW231572   2.967   1.239  12.228 -0.3280 -1.3227 -0.3176
 6704SOL     OW31573   0.487   3.274   5.176  0.6764  0.0223 -0.2780
 6704SOL    HW131574   0.501   3.312   5.263  2.1590 -0.2889 -0.3858
 6704SOL    HW231575   0.405   3.227   5.194  1.4698 -1.0812  0.5315
 6705SOL     OW31576   3.745   3.864  11.674  0.2788  0.1691 -0.7800
 6705SOL    HW131577   3.680   3.888  11.608 -3.0898 -1.1730  2.0449
 6705SOL    HW231578   3.816   3.926  11.660  0.5012  0.1446  0.2649
 6706SOL     OW31579   2.216   1.782   2.802  0.0998 -0.0245 -0.3155
 6706SOL    HW131580   2.237   1.715   2.737 -0.9892  0.6016 -1.3211
 6706SOL    HW231581   2.193   1.726   2.876 -1.2163  0.7467 -0.1291
 6707SOL     OW31582   1.201   4.318   9.001 -0.4103 -0.1621 -0.3398
 6707SOL    HW131583   1.232   4.338   9.089 -0.9635 -0.3151 -0.1042
 6707SOL    HW231584   1.107   4.315   9.019 -0.3904  0.5431 -0.1190
 6708SOL     OW31585   0.414   1.071   0.938  1.1409 -0.2228 -0.0246
 6708SOL    HW131586   0.439   1.113   0.856  0.9042  2.1946  1.1336
 6708SOL    HW231587   0.415   0.976   0.926 -0.7358 -0.6142  2.7508
 6709SOL     OW31588   2.489   3.183  16.511  0.8287 -0.3470 -0.1119
 6709SOL    HW131589   2.402   3.218  16.494  0.2044 -0.6904  2.4468
 6709SOL    HW231590   2.505   3.145  16.425 -0.7940  3.2026 -1.9672
 6710SOL     OW31591   0.586   1.905   8.915  0.4304  0.3061 -0.0132
 6710SOL    HW131592   0.681   1.905   8.904  0.5510  0.6839  1.0433
 6710SOL    HW231593   0.551   1.867   8.834  1.4832  1.4567 -1.0035
 6711SOL     OW31594   2.912   1.177   8.821  0.3515  0.1181 -0.3466
 6711SOL    HW131595   2.822   1.147   8.811 -0.1432  1.0605  1.2680
 6711SOL    HW231596   2.910   1.182   8.917  0.4002  1.6242 -0.4215
 6712SOL     OW31597   2.412   2.537  10.331 -0.1134 -0.1028 -0.1631
 6712SOL    HW131598   2.443   2.508  10.417 -1.5074  0.4504  0.5380
 6712SOL    HW231599   2.408   2.631  10.352  0.2455  0.1675 -1.3244
 6713SOL     OW31600   1.630   1.266   0.166 -0.0802 -0.1212  0.9679
 6713SOL    HW131601   1.542   1.248   0.131  0.3164  0.6027 -0.4133
 6713SOL    HW231602   1.610   1.341   0.222 -0.8378 -0.1765  0.7730
 6714SOL     OW31603   1.128   1.368  11.639  0.3180  0.5033 -0.4091
 6714SOL    HW131604   1.147   1.459  11.617 -0.2706  0.8139  0.4024
 6714SOL    HW231605   1.071   1.371  11.715  1.9333  1.4019  0.7784
 6715SOL     OW31606   4.241   2.070  10.966 -0.3538 -0.4340  0.0771
 6715SOL    HW131607   4.303   2.132  10.928  2.5526 -2.0371  2.1969
 6715SOL    HW231608   4.284   1.986  10.950 -0.7868 -1.1943  3.0686
 6716SOL     OW31609   3.620   1.217   4.267 -0.0394  0.3287  0.4373
 6716SOL    HW131610   3.716   1.213   4.274  0.2057 -0.5539 -3.6632
 6716SOL    HW231611   3.601   1.206   4.360 -1.5369  0.7121  0.1790
 6717SOL     OW31612   0.313   3.953   1.609  0.6795  0.3011  0.1240
 6717SOL    HW131613   0.344   3.874   1.564 -2.0943 -0.5175 -0.3492
 6717SOL    HW231614   0.243   3.981   1.551 -1.5014 -0.8911  2.2105
 6718SOL     OW31615   0.753   2.639   5.716  0.1585  0.2031  0.6665
 6718SOL    HW131616   0.791   2.706   5.660 -0.4901 -0.1769 -0.2210
 6718SOL    HW231617   0.777   2.680   5.800  1.5130  0.7434  0.0170
 6719SOL     OW31618   0.684   1.639   0.285 -0.5989  0.6656  0.4296
 6719SOL    HW131619   0.693   1.720   0.336  1.2439  1.4435 -1.1382
 6719SOL    HW231620   0.706   1.672   0.198  0.0475  3.7369  1.7395
 6720SOL     OW31621   0.190   2.004   3.218 -0.6496 -0.6453  0.0875
 6720SOL    HW131622   0.232   2.043   3.295  0.1988  0.5190 -0.9718
 6720SOL    HW231623   0.257   1.942   3.192 -0.9053 -0.6612 -0.5311
 6721SOL     OW31624   3.812   4.136   9.463  0.6308  0.3115  0.3288
 6721SOL    HW131625   3.760   4.182   9.529  0.7575 -1.5309  1.7156
 6721SOL    HW231626   3.899   4.170   9.485 -0.4806  3.2937  0.0743
 6722SOL     OW31627   1.881   0.358   5.838  0.4564 -0.1412  0.0939
 6722SOL    HW131628   1.976   0.349   5.842  0.6128  0.4833 -2.2262
 6722SOL    HW231629   1.885   0.449   5.808  1.8502 -0.0422  0.6028
 6723SOL     OW31630   0.548   1.392   1.871 -0.7799 -0.4883 -0.4449
 6723SOL    HW131631   0.621   1.454   1.883  1.0337 -2.4434 -1.4604
 6723SOL    HW231632   0.480   1.436   1.922  0.5872 -0.5715  1.4791
 6724SOL     OW31633   2.035   2.664   9.261 -0.0645 -0.3732 -1.1343
 6724SOL    HW131634   2.067   2.687   9.174 -2.2675  0.1769 -1.7928
 6724SOL    HW231635   1.977   2.737   9.281 -0.2714 -0.9731  0.4236
 6725SOL     OW31636   1.730   3.251   7.690 -0.2438  0.4802  0.3494
 6725SOL    HW131637   1.804   3.304   7.720 -0.1496  0.9106 -0.6342
 6725SOL    HW231638   1.718   3.281   7.600 -0.9998 -0.9479 -0.0264
 6726SOL     OW31639   0.181   2.671   2.312 -0.4112  0.6699  0.1940
 6726SOL    HW131640   0.183   2.677   2.407 -2.2020  0.4341  0.2468
 6726SOL    HW231641   0.185   2.762   2.281  1.5630  0.4468 -0.2177
 6727SOL     OW31642   2.880   2.794   8.336 -0.1479 -0.3157 -0.4645
 6727SOL    HW131643   2.930   2.753   8.407  3.1688  1.9982 -1.4319
 6727SOL    HW231644   2.947   2.769   8.271 -0.5355 -2.3402 -0.0845
 6728SOL     OW31645   1.458   0.950   0.890 -0.1052  0.2500 -0.0718
 6728SOL    HW131646   1.476   1.038   0.858 -0.4779  0.4228  0.1958
 6728SOL    HW231647   1.364   0.954   0.905 -0.2256 -0.8553 -0.5442
 6729SOL     OW31648   1.587   0.805   0.124 -0.3483  0.4342  0.0564
 6729SOL    HW131649   1.612   0.731   0.180 -0.6056  0.8821  0.7616
 6729SOL    HW231650   1.492   0.794   0.126 -0.0311 -1.9938  1.4836
 6730SOL     OW31651   4.229   2.605  14.137  0.1611  0.0972 -0.2654
 6730SOL    HW131652   4.307   2.653  14.107  0.0672 -0.8487 -2.0091
 6730SOL    HW231653   4.165   2.633  14.072 -1.1878 -0.7909  0.7030
 6731SOL     OW31654   4.589   0.147   0.545  0.0601  0.3301  0.4330
 6731SOL    HW131655   4.542   0.156   0.628 -2.1474  1.3885 -0.9559
 6731SOL    HW231656   4.680   0.166   0.569  0.5568 -1.6074  0.0782
 6732SOL     OW31657   0.520   0.409  16.437 -0.2083 -0.3751 -0.3097
 6732SOL    HW131658   0.438   0.383  16.394  0.9306 -0.8842 -2.1328
 6732SOL    HW231659   0.577   0.332  16.433 -0.9188 -0.9581  0.6914
 6733SOL     OW31660   1.184   0.114   0.331 -0.2018  0.7171  0.0160
 6733SOL    HW131661   1.126   0.184   0.301 -2.3388  0.6274  3.9392
 6733SOL    HW231662   1.125   0.052   0.374 -2.7506  0.4483 -3.9598
 6734SOL     OW31663   0.859   4.447   4.546 -0.1746  0.1978 -0.2739
 6734SOL    HW131664   0.889   4.410   4.629 -1.1176  1.7479  0.7679
 6734SOL    HW231665   0.907   4.530   4.551  0.6954 -0.3656  0.7769
 6735SOL     OW31666   1.296   1.822   0.399 -0.2797  0.4826  0.6101
 6735SOL    HW131667   1.310   1.851   0.309 -1.5292 -1.2468 -0.1281
 6735SOL    HW231668   1.238   1.893   0.428 -0.2153  1.6514 -2.1458
 6736SOL     OW31669   3.560   1.445   2.655 -0.1201  0.5664 -0.4052
 6736SOL    HW131670   3.650   1.413   2.643  0.0304  0.3776  1.2966
 6736SOL    HW231671   3.520   1.435   2.568 -0.5264 -1.0760 -0.0260
 6737SOL     OW31672   0.025   0.435   9.253  0.1086  0.5418 -0.2287
 6737SOL    HW131673   4.716   0.404   9.338 -0.1466  0.4882 -0.3449
 6737SOL    HW231674   0.051   0.357   9.204 -0.7663 -0.9076  1.5994
 6738SOL     OW31675   3.743   3.138  16.337  0.0456  0.2749  0.6691
 6738SOL    HW131676   3.694   3.106  16.413  1.7719 -1.0247  1.2261
 6738SOL    HW231677   3.758   3.055  16.292 -0.8635 -0.4162  1.6263
 6739SOL     OW31678   0.720   4.407  15.022 -0.1217 -0.3343  0.0112
 6739SOL    HW131679   0.808   4.382  15.051  1.6005  2.2105 -2.9529
 6739SOL    HW231680   0.701   4.346  14.950  2.2490  0.5140 -1.3520
 6740SOL     OW31681   3.666   3.405   7.171  0.3801 -0.1184  0.1096
 6740SOL    HW131682   3.585   3.372   7.132  0.9177 -1.8553  0.4311
 6740SOL    HW231683   3.729   3.347   7.129 -0.4199 -0.4494 -0.6329
 6741SOL     OW31684   0.062   0.856   5.209 -0.0409 -0.5372  0.2028
 6741SOL    HW131685   0.074   0.851   5.114  1.7550 -0.6041  0.4324
 6741SOL    HW231686   0.001   0.784   5.221 -1.1688  0.5657  1.1007
 6742SOL     OW31687   2.584   3.429  13.118  0.1945 -0.2157 -0.2099
 6742SOL    HW131688   2.608   3.337  13.129 -2.1352 -0.9091 -0.9586
 6742SOL    HW231689   2.663   3.463  13.160 -0.0007 -1.7070  1.3750
 6743SOL     OW31690   4.355   3.357  15.973 -0.5471 -0.3762  0.7025
 6743SOL    HW131691   4.450   3.348  15.979 -0.5102 -1.5847 -1.4413
 6743SOL    HW231692   4.337   3.313  15.890  0.2193 -0.7129  0.7080
 6744SOL     OW31693   3.804   3.548   6.215  0.0408 -0.0113 -0.2898
 6744SOL    HW131694   3.757   3.605   6.154 -0.2367  1.2993  1.1522
 6744SOL    HW231695   3.783   3.579   6.303  3.1523  1.5405 -0.1026
 6745SOL     OW31696   1.871   3.338  10.392  0.1508 -0.0261  0.1714
 6745SOL    HW131697   1.966   3.340  10.398  0.2256  2.3820 -1.7940
 6745SOL    HW231698   1.857   3.274  10.322  2.8691  2.1274 -2.3292
 6746SOL     OW31699   2.337   3.882   5.370  0.0471  0.0338 -0.2663
 6746SOL    HW131700   2.319   3.926   5.287  0.7450  1.1493  0.1662
 6746SOL    HW231701   2.292   3.934   5.436 -0.4063 -0.3518 -0.2780
 6747SOL     OW31702   0.631   2.972  16.064 -0.4582  0.3193 -0.0229
 6747SOL    HW131703   0.559   2.957  16.003  1.3118  1.4259 -2.3784
 6747SOL    HW231704   0.679   3.042  16.019 -0.7825 -0.3436 -1.3851
 6748SOL     OW31705   3.900   4.197  11.373 -0.2642  0.0923  0.1794
 6748SOL    HW131706   3.822   4.252  11.375 -0.5707 -0.4758  3.5656
 6748SOL    HW231707   3.912   4.160  11.460  4.0373  0.9088 -0.0405
 6749SOL     OW31708   3.136   3.426   5.062 -0.0995  0.3202  0.2485
 6749SOL    HW131709   3.121   3.366   4.989 -4.6806 -0.4137  1.8167
 6749SOL    HW231710   3.231   3.418   5.070 -0.5840 -3.0851  2.6446
 6750SOL     OW31711   2.859   3.280   0.747 -0.0807 -0.7550  0.3426
 6750SOL    HW131712   2.867   3.247   0.837  2.4988 -1.8130 -0.2501
 6750SOL    HW231713   2.931   3.343   0.742  1.0664 -2.0490  0.4614
 6751SOL     OW31714   2.989   0.248   4.325 -0.6977  0.3550  0.1785
 6751SOL    HW131715   2.907   0.212   4.292  0.8796 -1.9678 -1.1806
 6751SOL    HW231716   3.048   0.176   4.302  1.1469  1.2263  2.0923
 6752SOL     OW31717   1.018   4.179   3.124  0.0783  0.2693  0.3635
 6752SOL    HW131718   1.074   4.115   3.168  1.0475  0.5130 -0.5150
 6752SOL    HW231719   1.078   4.200   3.053 -0.9634  3.8870  0.5692
 6753SOL     OW31720   4.389   4.579   1.982  0.3533 -0.0643  0.0404
 6753SOL    HW131721   4.316   4.609   1.928  2.0951  1.0817 -1.6743
 6753SOL    HW231722   4.410   4.494   1.941 -2.2512 -2.0441  2.8416
 6754SOL     OW31723   4.672   0.464   6.249  0.1779 -0.3606 -0.0691
 6754SOL    HW131724   4.716   0.391   6.293  1.2291  0.1034 -0.3377
 6754SOL    HW231725   4.698   0.543   6.296  1.2859 -1.7746  1.6905
 6755SOL     OW31726   0.507   2.680   9.731  0.1920 -0.1361 -0.5886
 6755SOL    HW131727   0.443   2.751   9.730  2.0569  1.5823  1.3874
 6755SOL    HW231728   0.466   2.604   9.690 -0.0938 -0.2078 -0.1733
 6756SOL     OW31729   4.718   0.663   5.788 -0.5416 -0.6016 -0.1239
 6756SOL    HW131730   4.669   0.742   5.766 -0.7698 -0.2776  1.5437
 6756SOL    HW231731   4.685   0.609   5.717  3.0626 -3.1437  0.1291
 6757SOL     OW31732   1.376   4.507  14.906  0.0756 -0.8464  0.5539
 6757SOL    HW131733   1.466   4.499  14.938  0.4009  1.4406  0.2027
 6757SOL    HW231734   1.357   4.600  14.920  1.6797 -0.3620 -0.5722
 6758SOL     OW31735   1.157   0.376  10.545  0.0681 -0.0497  0.8806
 6758SOL    HW131736   1.110   0.342  10.621  0.0939 -1.2807  0.3450
 6758SOL    HW231737   1.236   0.322  10.552  0.0032  0.1409  2.9942
 6759SOL     OW31738   2.956   2.298   5.225  0.5885 -0.5583 -0.5882
 6759SOL    HW131739   3.048   2.324   5.221  0.4123 -0.2435 -2.9987
 6759SOL    HW231740   2.944   2.298   5.320 -2.1125 -0.0848 -0.9154
 6760SOL     OW31741   1.790   1.170   6.647  0.5794 -0.2465  0.2639
 6760SOL    HW131742   1.701   1.156   6.616  0.5324 -0.8508  0.6742
 6760SOL    HW231743   1.789   1.263   6.667 -1.3017 -0.0995 -0.5497
 6761SOL     OW31744   3.628   2.128   6.312  0.3832 -0.1329 -0.1439
 6761SOL    HW131745   3.680   2.081   6.248  0.3937 -0.4519  0.0999
 6761SOL    HW231746   3.688   2.201   6.331  0.2399 -0.2501  0.7783
 6762SOL     OW31747   0.682   1.217   2.467 -0.3541  0.0676  0.4756
 6762SOL    HW131748   0.619   1.148   2.445 -0.3990  0.4610 -0.6555
 6762SOL    HW231749   0.622   1.279   2.509  0.1710 -0.4147  1.9414
 6763SOL     OW31750   3.569   0.640  16.354 -0.1247  0.2436 -0.6525
 6763SOL    HW131751   3.638   0.589  16.312  0.0264 -2.1889  2.5692
 6763SOL    HW231752   3.599   0.658  16.443  1.9229  0.7438 -1.4427
 6764SOL     OW31753   0.431   2.596   1.394 -0.2181  0.7207  0.1971
 6764SOL    HW131754   0.354   2.545   1.418  0.7034  0.5820  2.8559
 6764SOL    HW231755   0.405   2.655   1.324  1.5406  0.8983 -0.2998
 6765SOL     OW31756   0.430   0.891   5.445  0.4032 -0.3159  0.3810
 6765SOL    HW131757   0.519   0.871   5.473  0.9063  2.0963  0.4795
 6765SOL    HW231758   0.383   0.851   5.518  0.5199 -1.2624 -0.0522
 6766SOL     OW31759   0.930   2.884   7.381  0.2853  0.0957  0.1059
 6766SOL    HW131760   0.946   2.810   7.440  0.5596  0.3171  0.3111
 6766SOL    HW231761   0.934   2.836   7.298  3.1557  1.0149 -0.3101
 6767SOL     OW31762   2.759   3.915  10.903  0.3959  0.2148 -0.4219
 6767SOL    HW131763   2.669   3.915  10.936  0.6194  0.5207  0.1913
 6767SOL    HW231764   2.760   3.839  10.844  1.1915  0.0940 -0.2567
 6768SOL     OW31765   2.686   4.645   3.080 -0.2001 -0.1183  0.6817
 6768SOL    HW131766   2.646   4.577   3.025  1.5761 -0.7641  0.1771
 6768SOL    HW231767   2.770   4.637   3.034  0.4123 -1.6334  2.0563
 6769SOL     OW31768   4.555   2.752   2.522 -0.4672  0.3540  0.3982
 6769SOL    HW131769   4.472   2.793   2.547  0.6384  2.0502  1.3570
 6769SOL    HW231770   4.594   2.820   2.467  0.0805  0.0709  0.4415
 6770SOL     OW31771   4.497   0.630  11.800 -0.4431 -0.3815 -0.0395
 6770SOL    HW131772   4.532   0.615  11.713 -0.3222 -0.6845  0.0594
 6770SOL    HW231773   4.420   0.574  11.788 -0.0820 -1.0723  0.8238
 6771SOL     OW31774   2.882   0.961   7.542 -0.7159  0.3760 -0.1227
 6771SOL    HW131775   2.825   0.886   7.552 -1.1403  0.4480 -2.0879
 6771SOL    HW231776   2.937   0.948   7.619 -2.9625 -0.5367  1.3149
 6772SOL     OW31777   4.369   1.662  13.198 -0.5576  0.2735 -0.2504
 6772SOL    HW131778   4.289   1.705  13.229  0.4666  1.0677  1.2449
 6772SOL    HW231779   4.431   1.725  13.235 -2.2272 -0.5383  3.9483
 6773SOL     OW31780   2.866   3.135   8.445 -0.1699  0.5589  0.1584
 6773SOL    HW131781   2.805   3.064   8.426  2.8101 -2.6717  2.8001
 6773SOL    HW231782   2.855   3.149   8.539  1.9709 -1.2104  0.6553
 6774SOL     OW31783   0.043   1.982   6.320  0.1872 -0.1843 -0.1774
 6774SOL    HW131784   0.094   1.977   6.401  1.9213 -2.8260 -1.4234
 6774SOL    HW231785   4.717   1.901   6.306 -0.9478  0.4426  0.2017
 6775SOL     OW31786   3.719   0.791  17.610 -0.2492  0.0247 -0.7317
 6775SOL    HW131787   3.807   0.817  17.584  0.7870 -0.0016  2.6873
 6775SOL    HW231788   3.683   0.755  17.529 -1.0217 -0.7607 -0.0410
 6776SOL     OW31789   2.500   1.766   9.805 -0.0713 -0.3328  0.2809
 6776SOL    HW131790   2.559   1.822   9.856  2.5133 -0.5481 -2.4418
 6776SOL    HW231791   2.522   1.676   9.832 -0.3623 -1.3538 -2.8137
 6777SOL     OW31792   0.774   1.292   0.579  0.2812 -0.2071  0.0770
 6777SOL    HW131793   0.816   1.332   0.655  0.3423 -0.0678 -0.0310
 6777SOL    HW231794   0.837   1.226   0.549 -1.0356 -1.4235 -0.0235
 6778SOL     OW31795   3.240   4.522   0.642 -0.0050 -0.1182  0.2854
 6778SOL    HW131796   3.192   4.600   0.614  1.3303  0.9725  1.0208
 6778SOL    HW231797   3.320   4.533   0.590 -0.8298  0.9799 -0.7414
 6779SOL     OW31798   1.543   4.124   1.058  0.5338 -0.1739 -0.0703
 6779SOL    HW131799   1.532   4.134   0.963  2.3541 -0.3175 -0.2980
 6779SOL    HW231800   1.529   4.029   1.064  3.7671 -0.6238  0.2519
 6780SOL     OW31801   1.856   1.732  11.431  0.3309  0.2661  0.4055
 6780SOL    HW131802   1.831   1.816  11.470  0.7873  0.9456 -0.7349
 6780SOL    HW231803   1.791   1.725  11.361  0.0354  1.9768  0.5130
 6781SOL     OW31804   4.106   1.332   7.254  0.0998 -0.3268  0.6566
 6781SOL    HW131805   4.011   1.320   7.257  0.0951 -0.4323  0.1485
 6781SOL    HW231806   4.105   1.405   7.193  1.4299 -0.8291  0.0472
 6782SOL     OW31807   4.666   4.305   4.945 -0.1161  0.3325 -0.2964
 6782SOL    HW131808   0.006   4.370   4.913  0.0094  1.5320  2.4034
 6782SOL    HW231809   4.597   4.329   4.884 -1.5781 -0.9045  0.8768
 6783SOL     OW31810   0.989   0.865   3.204  0.2774  0.4262 -0.1642
 6783SOL    HW131811   1.043   0.827   3.135  0.5209  1.2472 -0.4329
 6783SOL    HW231812   1.036   0.852   3.287  0.0856  1.1547  0.0614
 6784SOL     OW31813   4.584   1.206   3.428  0.1752 -0.2343 -0.0208
 6784SOL    HW131814   4.586   1.294   3.466  1.6936  1.1491 -3.3367
 6784SOL    HW231815   4.669   1.172   3.455 -0.7111 -0.6688  2.2177
 6785SOL     OW31816   0.137   4.514   8.237  0.1848 -0.1202 -0.1933
 6785SOL    HW131817   0.186   4.583   8.282  0.4782 -0.9549  0.7598
 6785SOL    HW231818   0.118   4.564   8.157  0.3631  0.5776  0.2046
 6786SOL     OW31819   2.055   3.294   6.557 -0.1356 -0.2069  0.1456
 6786SOL    HW131820   2.141   3.279   6.597  0.4142  1.1554 -0.5246
 6786SOL    HW231821   2.041   3.372   6.611 -1.3735 -1.4931  1.6573
 6787SOL     OW31822   3.226   2.334   5.262  0.0210  0.0315 -0.3434
 6787SOL    HW131823   3.230   2.351   5.356 -0.7300 -0.3770 -0.2399
 6787SOL    HW231824   3.293   2.266   5.253 -0.5647 -0.7183  1.0005
 6788SOL     OW31825   3.224   1.976   0.672 -0.4081 -0.0693  0.4159
 6788SOL    HW131826   3.273   1.966   0.590 -0.0133 -1.2375  0.7839
 6788SOL    HW231827   3.164   2.046   0.649 -0.4175  0.0082  0.6719
 6789SOL     OW31828   3.667   1.308   1.768 -0.1173 -0.6530 -0.3981
 6789SOL    HW131829   3.620   1.391   1.776  0.2701 -0.3645 -1.0821
 6789SOL    HW231830   3.653   1.287   1.676  0.1703  0.9448 -0.8011
 6790SOL     OW31831   4.349   1.751  15.588  0.1975  0.2182  0.1151
 6790SOL    HW131832   4.294   1.822  15.622 -0.6003 -0.1780 -0.3445
 6790SOL    HW231833   4.319   1.742  15.498 -3.1506  0.7820  1.1757
 6791SOL     OW31834   0.297   4.055   2.601  0.1502 -0.5329 -0.2646
 6791SOL    HW131835   0.389   4.039   2.623  0.2597 -2.6216 -2.2774
 6791SOL    HW231836   0.300   4.146   2.571 -2.1422  0.4523  2.5156
 6792SOL     OW31837   1.094   2.097   6.497 -0.2086  0.3437 -0.0291
 6792SOL    HW131838   1.138   2.146   6.428  0.2434  1.3917  1.0079
 6792SOL    HW231839   1.076   2.160   6.566  0.5837 -1.3163  1.6847
 6793SOL     OW31840   1.012   2.012   4.942 -0.2144  0.5104 -0.0303
 6793SOL    HW131841   0.937   2.067   4.966 -0.6603 -0.4124  0.6902
 6793SOL    HW231842   1.022   2.037   4.850  0.5099 -0.3218 -0.1759
 6794SOL     OW31843   0.532   1.929   3.948 -0.0209  0.0135 -0.1138
 6794SOL    HW131844   0.550   1.926   3.854 -0.2932 -1.7208 -0.1192
 6794SOL    HW231845   0.520   2.023   3.956 -0.4715  0.0639 -1.3009
 6795SOL     OW31846   3.579   2.785  14.801  0.1454  0.2576 -0.2667
 6795SOL    HW131847   3.588   2.815  14.710 -2.0698 -2.4575 -1.3665
 6795SOL    HW231848   3.520   2.854  14.832  0.2951  0.4885 -0.4896
 6796SOL     OW31849   0.936   0.283   5.077  0.0303 -0.1183  0.2306
 6796SOL    HW131850   0.895   0.198   5.060  1.0611 -1.0358  2.3476
 6796SOL    HW231851   0.861   0.343   5.085  0.8409  1.0585 -1.0970
 6797SOL     OW31852   1.501   1.487   5.465  0.5319 -0.1859  0.8106
 6797SOL    HW131853   1.538   1.402   5.486 -1.3605 -1.1946  0.1408
 6797SOL    HW231854   1.518   1.493   5.371  1.0192  1.8105  1.0353
 6798SOL     OW31855   0.103   1.328   7.703  0.1689  0.5486 -0.5252
 6798SOL    HW131856   0.166   1.396   7.726  1.8014 -1.4023  0.7700
 6798SOL    HW231857   0.021   1.350   7.746 -0.2952 -1.2715 -0.4768
 6799SOL     OW31858   3.368   2.703   2.871  0.0055  0.2009  0.1521
 6799SOL    HW131859   3.282   2.678   2.838  0.9500 -0.7870 -1.5555
 6799SOL    HW231860   3.418   2.671   2.796 -2.2821  0.9431 -1.6490
 6800SOL     OW31861   3.210   1.260  10.341  0.1332 -0.2575 -0.0853
 6800SOL    HW131862   3.228   1.347  10.304 -0.0967 -0.6880 -1.2212
 6800SOL    HW231863   3.159   1.231  10.265  0.3832  3.2185 -1.5860
 6801SOL     OW31864   4.063   0.113   2.019  0.4588  0.1760  0.4039
 6801SOL    HW131865   3.972   0.102   1.992  0.2282  1.0264  0.8402
 6801SOL    HW231866   4.054   0.103   2.113 -1.7692  0.7637  0.2636
 6802SOL     OW31867   1.177   0.076   7.884  0.2472  0.0675  0.5071
 6802SOL    HW131868   1.271   0.063   7.875  0.0227 -0.3021 -1.2004
 6802SOL    HW231869   1.153   0.064   7.793  0.6463  1.5813  0.2039
 6803SOL     OW31870   1.464   0.364   2.366 -0.2200  0.0054 -0.4952
 6803SOL    HW131871   1.541   0.373   2.309 -0.8237  1.5408 -1.0511
 6803SOL    HW231872   1.498   0.402   2.447  1.0471 -0.2485 -0.9023
 6804SOL     OW31873   1.923   4.498   6.988 -0.0006 -0.5512  0.5763
 6804SOL    HW131874   1.970   4.415   6.979  1.4940  0.0873  2.7244
 6804SOL    HW231875   1.911   4.505   7.082  0.4017  0.2539  0.5675
 6805SOL     OW31876   2.950   3.746  13.300 -0.1839  0.1840  0.3554
 6805SOL    HW131877   2.942   3.693  13.221  0.1917 -1.3160  1.3218
 6805SOL    HW231878   2.911   3.683  13.361 -1.2302 -0.2931 -0.8162
 6806SOL     OW31879   1.966   3.050   8.176  0.2996 -0.5788 -0.0067
 6806SOL    HW131880   1.890   3.082   8.224 -1.2289 -1.1941 -2.0289
 6806SOL    HW231881   2.031   3.098   8.227  0.2509  2.2361 -2.5996
 6807SOL     OW31882   3.161   0.163  13.347 -0.6988 -0.1028  0.0753
 6807SOL    HW131883   3.110   0.184  13.269  0.6102 -0.5750 -0.9078
 6807SOL    HW231884   3.121   0.082  13.377 -0.6991 -0.3947 -0.7187
 6808SOL     OW31885   3.550   1.397   5.600 -0.2505  0.2114  0.6461
 6808SOL    HW131886   3.576   1.476   5.647  1.5150 -0.5628  0.9664
 6808SOL    HW231887   3.532   1.421   5.509 -0.3240 -4.0118 -0.4477
 6809SOL     OW31888   1.112   2.162   2.035  0.5165  0.1476  0.0728
 6809SOL    HW131889   1.143   2.072   2.035  2.1334  0.7060  1.6815
 6809SOL    HW231890   1.017   2.150   2.032  0.4357  0.3676  2.0321
 6810SOL     OW31891   4.423   3.050   9.990 -0.4426 -0.9526  0.6028
 6810SOL    HW131892   4.478   3.033  10.066  3.9171 -0.0135 -2.3320
 6810SOL    HW231893   4.337   3.052  10.032 -0.5919  1.7081  0.2074
 6811SOL     OW31894   0.785   2.268   4.605  0.2396 -0.1251  0.3981
 6811SOL    HW131895   0.810   2.262   4.697  3.6831  1.9203 -0.4060
 6811SOL    HW231896   0.868   2.258   4.558 -0.7728  1.1375 -1.7012
 6812SOL     OW31897   3.673   0.261   4.338  0.6271  0.3033  0.8397
 6812SOL    HW131898   3.596   0.297   4.294  1.4044 -4.0837 -4.0942
 6812SOL    HW231899   3.642   0.195   4.399  0.2535 -0.4598 -0.1726
 6813SOL     OW31900   4.506   4.045   0.166  0.4040  0.0991  0.5043
 6813SOL    HW131901   4.550   4.100   0.101 -1.8483  1.6665  0.3071
 6813SOL    HW231902   4.503   4.095   0.248  1.6112 -2.0952  1.8819
 6814SOL     OW31903   0.458   1.354  15.542  0.6374  0.1735 -0.0704
 6814SOL    HW131904   0.366   1.341  15.518  0.4651 -0.1436  0.7947
 6814SOL    HW231905   0.492   1.311  15.464  1.6515 -0.3716  0.6717
 6815SOL     OW31906   1.015   1.877  10.771 -0.1054 -0.0180  0.0767
 6815SOL    HW131907   1.041   1.953  10.718 -0.6282  0.9081  1.1361
 6815SOL    HW231908   0.986   1.924  10.849 -0.3436  2.5167 -1.5358
 6816SOL     OW31909   0.909   0.377  13.200  0.5628 -0.2100 -0.6962
 6816SOL    HW131910   0.831   0.330  13.230  0.8855  1.0878  2.2189
 6816SOL    HW231911   0.889   0.470  13.216 -0.5993 -0.7004  0.7662
 6817SOL     OW31912   2.856   1.451   3.078  0.1081 -0.8358 -0.3726
 6817SOL    HW131913   2.916   1.487   3.143  0.1920 -0.0071 -0.9117
 6817SOL    HW231914   2.812   1.536   3.076  2.3475  0.3553  1.9000
 6818SOL     OW31915   1.241   3.870  16.115  0.3841 -0.1230  0.4612
 6818SOL    HW131916   1.152   3.873  16.079  0.8888 -2.0223 -0.9170
 6818SOL    HW231917   1.282   3.838  16.035  0.2766  0.2506  0.2564
 6819SOL     OW31918   3.132   3.191   2.631 -0.9099  0.6710 -0.2636
 6819SOL    HW131919   3.217   3.223   2.601 -0.0600 -2.5599 -1.2331
 6819SOL    HW231920   3.116   3.240   2.712  0.2481 -0.3192  0.5776
 6820SOL     OW31921   2.954   2.055   3.619 -0.3408  0.4174 -0.1511
 6820SOL    HW131922   2.870   2.032   3.658  0.1132  1.4455  1.4285
 6820SOL    HW231923   2.989   2.122   3.678  0.3731 -1.0753  1.1376
 6821SOL     OW31924   1.099   3.669   2.381  0.2369  0.0529  0.3843
 6821SOL    HW131925   1.173   3.615   2.409 -0.6160 -1.3958 -0.1442
 6821SOL    HW231926   1.152   3.746   2.360  0.6342 -0.5763 -0.9711
 6822SOL     OW31927   0.580   3.100  17.515  0.3936 -0.3639  0.3042
 6822SOL    HW131928   0.506   3.154  17.543 -0.9025 -1.6025 -0.6818
 6822SOL    HW231929   0.531   3.026  17.480  0.1738  0.2831 -0.7632
 6823SOL     OW31930   2.421   3.854   9.226  0.3431  0.7448  0.1486
 6823SOL    HW131931   2.361   3.781   9.212 -1.1361  2.5865 -3.0710
 6823SOL    HW231932   2.382   3.923   9.172  1.7790  1.6902  0.3161
 6824SOL     OW31933   3.397   4.512   9.901  0.0322 -0.4776  0.0782
 6824SOL    HW131934   3.351   4.433   9.874  1.1325 -0.7672 -0.9344
 6824SOL    HW231935   3.375   4.498   9.993  2.0036 -2.5185  0.2109
 6825SOL     OW31936   0.375   2.244   2.311  0.2595  0.1272  0.4190
 6825SOL    HW131937   0.395   2.322   2.259  2.3072 -2.4115 -2.5791
 6825SOL    HW231938   0.388   2.286   2.396 -2.3377  1.4924  0.1422
 6826SOL     OW31939   0.349   4.263   6.380 -0.3517 -0.0374 -0.0160
 6826SOL    HW131940   0.423   4.320   6.356 -0.2231 -0.1061  0.2121
 6826SOL    HW231941   0.392   4.215   6.451 -1.3441 -3.0909 -1.4964
 6827SOL     OW31942   4.398   3.966   6.363 -0.3473  0.0215 -0.6438
 6827SOL    HW131943   4.395   4.029   6.435 -0.4612  1.6554 -2.0640
 6827SOL    HW231944   4.484   3.981   6.325  0.2038 -1.8795 -0.1292
 6828SOL     OW31945   3.404   3.906   4.690 -1.2238 -0.0682 -0.4438
 6828SOL    HW131946   3.374   3.917   4.781  3.9157  4.8232  0.6594
 6828SOL    HW231947   3.369   3.991   4.665 -1.9549  0.4023  2.1240
 6829SOL     OW31948   3.440   1.446   1.589 -0.1678  0.4522 -0.1798
 6829SOL    HW131949   3.485   1.362   1.586 -0.0138  0.5656 -0.9210
 6829SOL    HW231950   3.411   1.449   1.681 -0.3292 -1.4872 -0.1540
 6830SOL     OW31951   0.978   1.029  17.134  0.3184  0.2313  0.3180
 6830SOL    HW131952   1.050   0.986  17.181  1.5606  0.5607 -1.2869
 6830SOL    HW231953   0.921   1.053  17.207  1.3029 -3.7920  2.3758
 6831SOL     OW31954   1.039   0.275   0.896 -0.2006  0.0990 -0.1127
 6831SOL    HW131955   1.114   0.332   0.914 -0.6794  0.6531  0.1269
 6831SOL    HW231956   0.974   0.344   0.910  0.3779  0.5284  0.4704
 6832SOL     OW31957   1.101   2.461   1.750 -0.3247 -0.0903  0.7342
 6832SOL    HW131958   1.040   2.494   1.684  1.0748  1.7059  0.3481
 6832SOL    HW231959   1.161   2.531   1.776  0.1555 -0.2518  0.0793
 6833SOL     OW31960   1.772   2.161   4.525  0.5368  0.5121 -0.2477
 6833SOL    HW131961   1.676   2.168   4.528  0.4865 -0.7480  1.0060
 6833SOL    HW231962   1.777   2.190   4.434  2.5466  0.6988 -0.0681
 6834SOL     OW31963   2.706   3.841   9.276 -0.0382 -0.1987 -0.4799
 6834SOL    HW131964   2.615   3.850   9.247 -0.7486  0.1317  1.8547
 6834SOL    HW231965   2.745   3.919   9.236 -0.4451  0.8772  1.2164
 6835SOL     OW31966   0.786   0.037  15.103  0.4198 -0.6807 -0.1941
 6835SOL    HW131967   0.821   0.113  15.151 -1.0730 -0.7483  0.9758
 6835SOL    HW231968   0.697   0.025  15.136  0.5071  1.5657  0.9333
 6836SOL     OW31969   1.328   3.933  16.416  0.0489 -0.0617 -0.0023
 6836SOL    HW131970   1.360   3.984  16.490  0.2705  0.1889 -0.2748
 6836SOL    HW231971   1.307   3.849  16.458  1.1202 -1.0815 -1.4961
 6837SOL     OW31972   0.392   2.784  13.667 -0.1118  0.3048 -0.1594
 6837SOL    HW131973   0.386   2.834  13.585  1.3492 -0.6745 -0.8689
 6837SOL    HW231974   0.371   2.699  13.628 -1.7735 -0.2795  2.0264
 6838SOL     OW31975   4.541   2.288   7.470 -0.8665  0.6163 -0.3301
 6838SOL    HW131976   4.529   2.226   7.398  1.2284 -1.7947  1.3864
 6838SOL    HW231977   4.612   2.345   7.440  0.2287  0.1588  1.3783
 6839SOL     OW31978   2.689   2.655   4.565 -0.1210 -0.0765  0.2338
 6839SOL    HW131979   2.780   2.677   4.585 -0.7172  1.5396  1.1977
 6839SOL    HW231980   2.697   2.560   4.573  1.9768  0.0430 -0.3998
 6840SOL     OW31981   3.629   4.186  10.469 -0.1441  0.1939  0.4066
 6840SOL    HW131982   3.603   4.228  10.386 -1.0871 -1.8808 -0.3480
 6840SOL    HW231983   3.687   4.258  10.494  2.0449 -0.8293 -1.6533
 6841SOL     OW31984   2.469   1.752   3.827 -0.3300  0.3281 -0.0923
 6841SOL    HW131985   2.488   1.736   3.735 -1.2403  0.6015 -0.3262
 6841SOL    HW231986   2.420   1.677   3.860 -0.2428  0.2545 -0.1276
 6842SOL     OW31987   0.368   2.019   4.448  0.2339 -0.2816  0.0578
 6842SOL    HW131988   0.458   2.008   4.479 -0.1504 -0.7230  1.0019
 6842SOL    HW231989   0.371   2.001   4.354  0.1527  0.8003 -0.1505
 6843SOL     OW31990   0.547   2.171   6.604  0.2434 -0.0645 -0.2215
 6843SOL    HW131991   0.603   2.094   6.592  1.2142  0.6658 -0.2996
 6843SOL    HW231992   0.548   2.179   6.700  1.6312  0.8808 -0.3255
 6844SOL     OW31993   0.220   4.151   6.600  0.2264  0.4941 -0.0069
 6844SOL    HW131994   0.237   4.201   6.520  1.5826  0.3485  0.1929
 6844SOL    HW231995   0.246   4.205   6.675 -0.2488 -2.9948  2.6270
 6845SOL     OW31996   3.218   1.213  12.535  0.1047  0.5648 -0.0229
 6845SOL    HW131997   3.306   1.229  12.501 -1.0470  2.9989 -1.8651
 6845SOL    HW231998   3.169   1.183  12.458 -0.3627  1.9038 -0.2501
 6846SOL     OW31999   4.287   0.600  12.148  0.6407  0.1568  0.4125
 6846SOL    HW132000   4.255   0.537  12.083  4.3640 -0.3191 -0.9395
 6846SOL    HW232001   4.219   0.605  12.215 -0.6028 -0.9429 -0.7666
 6847SOL     OW32002   3.113   1.275   4.879  0.7214 -0.3920  0.2887
 6847SOL    HW132003   3.108   1.281   4.974 -1.4998  0.0827  0.1310
 6847SOL    HW232004   3.171   1.199   4.869  1.0804 -0.0860  0.0373
 6848SOL     OW32005   4.662   0.490   6.779 -0.2047 -0.1079  0.1265
 6848SOL    HW132006   0.030   0.496   6.807 -0.6890  2.1128  1.1817
 6848SOL    HW232007   4.653   0.399   6.749 -0.6147  0.1736 -0.6058
 6849SOL     OW32008   1.327   1.661   4.817  1.1239 -0.0300 -0.0564
 6849SOL    HW132009   1.401   1.696   4.767  1.4434  1.6972  1.6154
 6849SOL    HW232010   1.255   1.715   4.784 -0.2687 -1.6066  0.4190
 6850SOL     OW32011   3.707   1.178  12.378  0.2897  0.4713  0.4231
 6850SOL    HW132012   3.654   1.119  12.324  1.3422 -0.2817  0.1920
 6850SOL    HW232013   3.769   1.207  12.311 -0.1629  0.8017  0.1480
 6851SOL     OW32014   2.945   1.184  11.815  0.1180  0.0261  0.0660
 6851SOL    HW132015   2.980   1.125  11.882 -0.8918 -0.1922  0.4040
 6851SOL    HW232016   2.853   1.164  11.798  0.8390 -1.8798 -1.5578
 6852SOL     OW32017   0.792   4.478  14.667 -0.3381  0.2750  0.4120
 6852SOL    HW132018   0.755   4.470  14.579 -0.0751  2.5693  0.0776
 6852SOL    HW232019   0.736   4.420  14.718  1.1679 -0.8203  0.7961
 6853SOL     OW32020   4.482   1.275   9.000 -0.5040 -0.1947  0.5590
 6853SOL    HW132021   4.577   1.267   9.003 -0.3860  0.8419 -0.3836
 6853SOL    HW232022   4.473   1.368   8.981  0.3529  0.0001  1.1212
 6854SOL     OW32023   3.858   2.156   8.576  0.9962 -0.1369  0.0201
 6854SOL    HW132024   3.777   2.173   8.624  1.5847 -0.0594  0.9837
 6854SOL    HW232025   3.892   2.080   8.623  0.0122 -1.1296 -0.8955
 6855SOL     OW32026   2.124   0.901   6.068 -0.8329  0.5760  0.0525
 6855SOL    HW132027   2.132   0.955   5.990 -1.2219 -3.1509 -2.5988
 6855SOL    HW232028   2.218   0.888   6.084 -0.4002  1.0504 -2.0880
 6856SOL     OW32029   3.609   4.243   4.258 -0.0139 -0.4930  0.2119
 6856SOL    HW132030   3.594   4.174   4.323 -1.6634 -0.8765 -0.5772
 6856SOL    HW232031   3.585   4.197   4.178  0.4955  2.1781 -1.4689
 6857SOL     OW32032   4.011   0.682   1.211 -0.1427 -0.3175 -0.2994
 6857SOL    HW132033   3.999   0.739   1.135 -2.8558 -0.0188  0.3389
 6857SOL    HW232034   4.081   0.623   1.183 -0.9176 -1.0193 -0.7477
 6858SOL     OW32035   2.455   4.297   1.716  0.3657 -0.3797 -0.4948
 6858SOL    HW132036   2.506   4.357   1.771  0.0472 -1.3538  0.8822
 6858SOL    HW232037   2.427   4.227   1.776 -0.2606 -0.6032 -1.0532
 6859SOL     OW32038   4.014   0.001   7.144  0.2336 -0.1487  0.3355
 6859SOL    HW132039   3.989   0.057   7.217 -0.5509 -0.0959  0.0311
 6859SOL    HW232040   3.999   0.065   7.075  2.0229 -0.1513 -0.0563
 6860SOL     OW32041   4.378   4.014   7.340 -0.4346 -0.6147  0.4983
 6860SOL    HW132042   4.350   3.989   7.252 -1.1468 -3.0911  1.4371
 6860SOL    HW232043   4.415   4.102   7.326  0.2917 -0.6990  1.9710
 6861SOL     OW32044   1.257   1.025  13.887  0.5104  0.0188  0.4681
 6861SOL    HW132045   1.246   0.940  13.844 -0.8471 -0.3994  1.6475
 6861SOL    HW232046   1.164   1.043  13.899  0.6596 -0.0234  1.6565
 6862SOL     OW32047   2.512   1.693   3.560 -0.4088  0.2977 -0.4027
 6862SOL    HW132048   2.459   1.621   3.525  1.1648 -1.7861  1.5011
 6862SOL    HW232049   2.532   1.739   3.478  2.3446 -1.6074 -0.8170
 6863SOL     OW32050   2.375   1.391  11.940  0.2231 -0.3857  0.0853
 6863SOL    HW132051   2.296   1.340  11.959  0.0500 -0.1771 -0.0665
 6863SOL    HW232052   2.441   1.337  11.983 -1.4740 -3.3402 -1.0920
 6864SOL     OW32053   0.796   2.426   5.545 -0.5096 -0.5639 -0.1217
 6864SOL    HW132054   0.738   2.460   5.476  1.7816  1.8397 -0.8493
 6864SOL    HW232055   0.783   2.498   5.606  1.6786  0.6416 -1.0696
 6865SOL     OW32056   2.627   1.153   0.089  0.2063  0.2403  0.0904
 6865SOL    HW132057   2.582   1.100   0.155  2.8236 -1.1878  0.7151
 6865SOL    HW232058   2.679   1.082   0.051 -1.3235  0.2660 -2.0622
 6866SOL     OW32059   4.458   3.263   4.757 -0.2047 -0.6395 -0.1368
 6866SOL    HW132060   4.537   3.215   4.781  0.0823  0.9206  2.1010
 6866SOL    HW232061   4.501   3.349   4.761 -2.1782  0.2583  1.7130
 6867SOL     OW32062   0.778   2.561  11.438  0.4011  0.1327  0.0899
 6867SOL    HW132063   0.874   2.560  11.445  0.3499  1.5982  1.0952
 6867SOL    HW232064   0.766   2.598  11.351 -0.3509 -1.1182 -0.3403
 6868SOL     OW32065   3.123   4.069   8.092  0.4540  0.9670  0.1942
 6868SOL    HW132066   3.148   4.028   8.009  2.7162  0.7460  0.9861
 6868SOL    HW232067   3.188   4.136   8.115 -0.0840  1.0845  1.3383
 6869SOL     OW32068   2.699   1.630   8.199  0.3959 -0.3830  0.0303
 6869SOL    HW132069   2.708   1.573   8.123  1.4117 -2.1201  1.4427
 6869SOL    HW232070   2.731   1.570   8.267 -0.7850  0.2881  1.1799
 6870SOL     OW32071   0.564   0.082   2.434  0.0616 -0.0743  0.1302
 6870SOL    HW132072   0.602   4.720   2.455 -1.4523 -0.6033  0.7333
 6870SOL    HW232073   0.625   0.123   2.373 -1.2631 -0.0902 -1.2242
 6871SOL     OW32074   2.788   1.453  10.799 -0.0088 -0.2539  0.1517
 6871SOL    HW132075   2.764   1.534  10.754 -0.1687 -0.2720  0.2024
 6871SOL    HW232076   2.879   1.456  10.829  0.2563  0.1023 -0.6981
 6872SOL     OW32077   1.254   3.547   7.488  0.1745 -0.1495  0.0118
 6872SOL    HW132078   1.297   3.540   7.403  1.1033  0.8736  0.3946
 6872SOL    HW232079   1.293   3.475   7.538 -1.5735 -0.2593  1.1883
 6873SOL     OW32080   1.657   4.639   4.488 -0.4027  0.3366 -0.1128
 6873SOL    HW132081   1.633   4.552   4.455 -1.0310  0.4806 -0.0334
 6873SOL    HW232082   1.667   4.615   4.580 -0.6682 -0.2804 -0.2457
 6874SOL     OW32083   4.312   0.690   0.908 -0.0557  0.3632 -0.9414
 6874SOL    HW132084   4.255   0.629   0.955 -0.4473  0.1306 -1.7260
 6874SOL    HW232085   4.362   0.627   0.856  0.7782 -0.2930  0.6566
 6875SOL     OW32086   2.605   4.542   5.938  0.3401  0.2521 -0.2724
 6875SOL    HW132087   2.592   4.511   6.028  2.0992  0.4406  0.0434
 6875SOL    HW232088   2.517   4.520   5.907  0.3739  2.8849 -2.2153
 6876SOL     OW32089   0.601   2.396  13.159 -0.2346  0.1279 -0.4940
 6876SOL    HW132090   0.675   2.455  13.144 -0.0470  0.4998  1.9098
 6876SOL    HW232091   0.653   2.316  13.158 -2.5785 -1.3776 -0.7770
 6877SOL     OW32092   0.673   0.222   1.352 -0.2262  0.4985  0.2106
 6877SOL    HW132093   0.619   0.295   1.321  0.1104 -0.3781 -2.4330
 6877SOL    HW232094   0.736   0.271   1.404  0.4461  0.3347 -0.4502
 6878SOL     OW32095   2.042   4.409   6.071 -0.0057 -0.0129  0.2249
 6878SOL    HW132096   2.061   4.470   6.142  1.2825  0.3843 -0.4620
 6878SOL    HW232097   1.969   4.366   6.116 -2.0768  2.9470 -0.2510
 6879SOL     OW32098   1.556   3.415  10.409  0.4995  0.1920  0.4336
 6879SOL    HW132099   1.587   3.394  10.320 -1.3302 -0.1975 -0.1186
 6879SOL    HW232100   1.473   3.458  10.390 -0.8600 -2.8464 -0.4544
 6880SOL     OW32101   0.988   1.648   0.065  0.1673  0.1699 -0.4266
 6880SOL    HW132102   1.078   1.624   0.086 -0.2525  1.0635  2.4585
 6880SOL    HW232103   0.961   1.682   0.150  1.0021  1.9823 -0.8756
 6881SOL     OW32104   3.326   1.325  12.231  0.1008 -0.1458 -0.3563
 6881SOL    HW132105   3.231   1.324  12.226 -0.0994  1.9465  2.7910
 6881SOL    HW232106   3.340   1.261  12.301 -4.2497  0.8992  1.4753
 6882SOL     OW32107   1.377   0.945   4.783 -0.0452 -0.1362 -0.1096
 6882SOL    HW132108   1.295   0.989   4.807 -0.4025 -2.7115  3.3219
 6882SOL    HW232109   1.425   0.947   4.865  0.0532  2.0927 -0.2135
 6883SOL     OW32110   0.789   4.000   7.441 -0.0631  0.7229 -0.3905
 6883SOL    HW132111   0.806   4.019   7.533  1.0138  0.3019 -0.4986
 6883SOL    HW232112   0.708   3.950   7.432  0.8079 -0.1574 -3.2125
 6884SOL     OW32113   2.877   4.283   4.051 -0.3002 -0.1017  0.0595
 6884SOL    HW132114   2.880   4.237   3.967 -0.0580  0.5535 -0.2941
 6884SOL    HW232115   2.806   4.347   4.041 -1.1143 -1.1713 -0.9792
 6885SOL     OW32116   1.251   2.969  17.179 -0.5003 -0.5183 -0.4336
 6885SOL    HW132117   1.302   3.050  17.180 -0.4020 -0.5787 -1.7297
 6885SOL    HW232118   1.164   2.996  17.149  0.1848  2.7343  0.4611
 6886SOL     OW32119   3.211   2.168   1.772  0.2144  0.0312 -0.5058
 6886SOL    HW132120   3.278   2.231   1.745  0.2508 -0.5464 -1.7801
 6886SOL    HW232121   3.170   2.199   1.852 -0.0098  0.1086 -0.6486
 6887SOL     OW32122   0.845   1.186   9.923  0.2869  0.8237 -0.1078
 6887SOL    HW132123   0.854   1.276   9.953 -0.0619  1.2747 -1.3205
 6887SOL    HW232124   0.824   1.216   9.834 -0.6494  0.8616  0.1216
 6888SOL     OW32125   1.725   4.047   6.826  0.2697 -0.1941  0.0076
 6888SOL    HW132126   1.649   4.016   6.777  0.3600 -0.4524  0.0285
 6888SOL    HW232127   1.690   4.036   6.915  0.9746 -0.9827  0.1893
 6889SOL     OW32128   1.569   2.886   5.656  0.0478 -0.3726 -0.3012
 6889SOL    HW132129   1.534   2.797   5.655  1.1122 -0.7935  2.8113
 6889SOL    HW232130   1.663   2.873   5.652 -0.0369 -1.2075  0.3253
 6890SOL     OW32131   2.757   4.425   5.465 -0.3987 -0.6119 -0.5903
 6890SOL    HW132132   2.712   4.483   5.527 -0.4419 -2.6648  1.3040
 6890SOL    HW232133   2.842   4.468   5.464 -1.5488  1.6751  1.3201
 6891SOL     OW32134   3.026   0.636   4.999  0.2637 -0.6301 -0.1501
 6891SOL    HW132135   3.008   0.572   5.068  0.6624 -2.0310 -1.3516
 6891SOL    HW232136   2.935   0.650   4.970 -0.3301 -1.0882  1.5229
 6892SOL     OW32137   1.793   3.260   3.713 -0.3839 -0.0052 -0.1134
 6892SOL    HW132138   1.784   3.184   3.770  1.2676 -0.7757 -0.8982
 6892SOL    HW232139   1.885   3.283   3.726 -0.3023  0.4616 -1.4722
 6893SOL     OW32140   3.470   3.179   3.830 -0.4385  0.1923  0.3641
 6893SOL    HW132141   3.476   3.131   3.913 -0.5398 -0.2679  0.1034
 6893SOL    HW232142   3.542   3.240   3.847  0.4171 -0.5234 -0.6623
 6894SOL     OW32143   0.799   2.104   5.124 -0.5348 -0.2003 -0.0170
 6894SOL    HW132144   0.867   2.154   5.170 -1.5055 -1.3586  2.6940
 6894SOL    HW232145   0.771   2.059   5.204 -1.2881  1.0292  0.3942
 6895SOL     OW32146   1.287   1.211   0.387  0.3556 -0.0719 -0.1665
 6895SOL    HW132147   1.347   1.268   0.435 -0.4173  1.3412 -0.8850
 6895SOL    HW232148   1.299   1.236   0.296 -1.4100 -0.7036 -0.5602
 6896SOL     OW32149   3.071   1.434  12.484 -0.2879  0.7547 -0.4012
 6896SOL    HW132150   3.045   1.424  12.393 -0.4459 -2.4073 -0.0114
 6896SOL    HW232151   3.125   1.359  12.507  0.2679  1.6339  1.1779
 6897SOL     OW32152   0.373   0.175   2.949  0.0504  0.4982 -0.4208
 6897SOL    HW132153   0.397   0.130   2.869 -1.6813 -0.8493 -0.1978
 6897SOL    HW232154   0.447   0.233   2.961  0.5403  0.1181 -1.6783
 6898SOL     OW32155   3.674   0.653   6.030  0.1806  0.2745 -0.8062
 6898SOL    HW132156   3.754   0.706   6.021  1.7213 -2.1939 -1.5166
 6898SOL    HW232157   3.612   0.721   6.004 -0.4771  0.8329  2.2891
 6899SOL     OW32158   3.147   4.092   7.754  0.6993  0.2818 -0.3066
 6899SOL    HW132159   3.198   4.173   7.752  1.4347 -0.2352 -1.8608
 6899SOL    HW232160   3.154   4.057   7.666 -4.0292 -0.9252 -0.2070
 6900SOL     OW32161   0.611   3.498  16.148  0.1125 -0.2513  0.2151
 6900SOL    HW132162   0.606   3.509  16.243 -2.1279 -2.5108  0.3336
 6900SOL    HW232163   0.697   3.529  16.120 -0.6045 -0.8166 -2.6219
 6901SOL     OW32164   0.766   2.695  16.937  0.0334 -0.0536 -0.3278
 6901SOL    HW132165   0.680   2.653  16.938  0.3545 -0.7183 -0.6130
 6901SOL    HW232166   0.823   2.625  16.969  0.6490  0.0055 -1.2821
 6902SOL     OW32167   1.809   0.475   1.052  0.0865  0.2532  0.3225
 6902SOL    HW132168   1.781   0.549   0.998 -1.4323 -2.3043 -2.4199
 6902SOL    HW232169   1.803   0.401   0.991  0.5352 -0.6835  1.4266
 6903SOL     OW32170   1.222   1.725   3.008 -0.8486  0.1923  0.6880
 6903SOL    HW132171   1.138   1.751   3.047 -0.8037  3.3420 -1.3276
 6903SOL    HW232172   1.214   1.743   2.915 -2.3351 -1.7766  0.4325
 6904SOL     OW32173   4.569   3.807   5.470  0.3397 -0.1856  0.2737
 6904SOL    HW132174   4.528   3.740   5.414 -1.1269  0.3833  0.6623
 6904SOL    HW232175   4.600   3.864   5.400 -1.1091 -0.9409 -0.9855
 6905SOL     OW32176   0.165   4.262  14.714  0.5443 -1.0041 -0.3599
 6905SOL    HW132177   0.250   4.306  14.710  0.9254 -1.9200 -2.2551
 6905SOL    HW232178   0.142   4.262  14.807 -0.8990 -0.1405 -0.7122
 6906SOL     OW32179   4.562   0.855  11.924 -0.4747 -0.2858 -0.1827
 6906SOL    HW132180   4.525   0.770  11.899  1.0798 -0.9725 -0.1832
 6906SOL    HW232181   4.574   0.895  11.838  1.0972  1.3471  0.7933
 6907SOL     OW32182   2.253   2.918   6.718 -0.6210  0.4768 -0.2798
 6907SOL    HW132183   2.323   2.966   6.674 -0.3415 -0.0878 -0.4585
 6907SOL    HW232184   2.293   2.831   6.723 -0.8166  0.5067  1.6686
 6908SOL     OW32185   0.960   3.320   8.767  0.2216 -0.1087  0.5187
 6908SOL    HW132186   1.001   3.407   8.763 -3.1143  1.3652 -1.3953
 6908SOL    HW232187   0.938   3.316   8.860 -3.0601  0.5363 -0.2435
 6909SOL     OW32188   4.050   0.676  14.262  0.1147  0.5723 -0.2374
 6909SOL    HW132189   3.988   0.686  14.190 -0.1307 -1.0852 -0.2435
 6909SOL    HW232190   4.033   0.599  14.316 -1.5190  1.4943  0.5588
 6910SOL     OW32191   1.147   0.605   8.811  0.1017  0.3063  0.3308
 6910SOL    HW132192   1.133   0.597   8.717 -1.6198  2.3428  0.3949
 6910SOL    HW232193   1.058   0.585   8.840  0.5348 -1.6981  0.2410
 6911SOL     OW32194   0.990   2.694   3.773  0.3754  0.6033 -0.4359
 6911SOL    HW132195   0.990   2.783   3.738 -0.9134  0.0598 -1.8567
 6911SOL    HW232196   0.997   2.644   3.692  0.1161  2.9882 -1.9423
 6912SOL     OW32197   0.959   2.382   2.775 -0.1630  0.3223  0.0003
 6912SOL    HW132198   1.002   2.427   2.703 -1.3525  0.2113 -0.7820
 6912SOL    HW232199   0.873   2.368   2.734 -0.8916 -1.9436  2.3033
 6913SOL     OW32200   4.148   3.188   5.015  0.0039 -0.0578  0.3644
 6913SOL    HW132201   4.157   3.161   4.924 -1.7438 -1.9818  0.7705
 6913SOL    HW232202   4.205   3.123   5.057 -0.7246 -1.1922 -0.3923
 6914SOL     OW32203   4.638   0.744  13.911  0.2314  0.2478  0.2289
 6914SOL    HW132204   4.658   0.686  13.985  2.6585  0.9053  0.0829
 6914SOL    HW232205   4.672   0.694  13.836 -0.5147 -0.3085  0.2665
 6915SOL     OW32206   0.443   2.812  15.669  0.5227 -0.5261  0.1637
 6915SOL    HW132207   0.484   2.873  15.731 -1.0978  1.0276 -0.2937
 6915SOL    HW232208   0.349   2.827  15.667  0.5406 -0.1778  1.9187
 6916SOL     OW32209   4.420   0.534   2.819 -0.7210 -0.2930  0.0198
 6916SOL    HW132210   4.404   0.618   2.862 -0.5671  0.6358 -1.7244
 6916SOL    HW232211   4.516   0.530   2.815 -0.6381  3.1740 -1.6933
 6917SOL     OW32212   2.058   0.959   4.454  0.0972  0.4394 -0.1839
 6917SOL    HW132213   1.982   0.939   4.401  0.4805 -2.1504  0.2718
 6917SOL    HW232214   2.085   0.871   4.479  0.0822  0.4442 -0.1509
 6918SOL     OW32215   1.200   0.496   0.942  0.3997 -0.3862  0.0478
 6918SOL    HW132216   1.178   0.568   0.883  0.2480  0.0782  0.6746
 6918SOL    HW232217   1.184   0.548   1.021  0.5203  0.3620 -0.4262
 6919SOL     OW32218   3.121   3.165   4.436  0.4546  0.0349 -0.5872
 6919SOL    HW132219   3.144   3.128   4.521 -1.0091 -1.1990 -0.7243
 6919SOL    HW232220   3.046   3.219   4.458 -0.8572 -1.4466 -1.4515
 6920SOL     OW32221   1.113   0.440   6.105  0.5494  0.3718 -0.1711
 6920SOL    HW132222   1.130   0.535   6.106  1.8877  0.1148  0.5022
 6920SOL    HW232223   1.156   0.416   6.023 -0.6267 -1.0543 -0.3679
 6921SOL     OW32224   0.207   1.751   5.285  0.6535 -0.0743 -0.0494
 6921SOL    HW132225   0.154   1.827   5.309  0.6793  0.0955 -0.5244
 6921SOL    HW232226   0.197   1.749   5.189 -2.2124 -2.3227  0.3201
 6922SOL     OW32227   4.592   3.425   2.986  0.1965 -0.6528  0.5161
 6922SOL    HW132228   4.594   3.400   3.079 -2.3853 -1.7718  0.2859
 6922SOL    HW232229   4.664   3.372   2.953  1.4741  1.0061  0.6812
 6923SOL     OW32230   1.037   1.489  17.499 -0.1749 -0.4362 -0.3497
 6923SOL    HW132231   1.098   1.531  17.439 -1.3643 -1.4019 -2.2330
 6923SOL    HW232232   1.057   1.516  17.589  0.3591 -1.2402 -0.2300
 6924SOL     OW32233   2.343   2.003   3.453  0.3102  0.0957 -0.0441
 6924SOL    HW132234   2.424   2.051   3.435  1.3646 -1.0083  1.7756
 6924SOL    HW232235   2.289   2.052   3.391 -0.6251 -1.3357 -0.3655
 6925SOL     OW32236   2.322   0.115   2.441  0.2560  0.5482  0.0973
 6925SOL    HW132237   2.290   0.174   2.373  2.3430  1.5931  0.0158
 6925SOL    HW232238   2.259   0.043   2.443  1.3392 -0.4309 -0.6427
 6926SOL     OW32239   2.423   0.856  11.089 -0.4045 -0.3636 -0.1129
 6926SOL    HW132240   2.393   0.943  11.062 -0.7051 -0.2118  0.7126
 6926SOL    HW232241   2.467   0.878  11.172  0.3383  0.2487 -0.6720
 6927SOL     OW32242   1.715   0.155   2.076  0.4080 -0.7567  0.9496
 6927SOL    HW132243   1.755   0.180   2.159 -0.8131 -0.6041  1.4962
 6927SOL    HW232244   1.743   0.064   2.062  1.5140 -0.1762 -0.5639
 6928SOL     OW32245   1.966   2.313   1.602  0.3125 -0.3251 -0.3685
 6928SOL    HW132246   1.930   2.234   1.642  0.7483 -0.4246 -0.1786
 6928SOL    HW232247   1.927   2.374   1.664 -0.4562 -0.9839 -0.2018
 6929SOL     OW32248   3.621   2.630   1.588  0.0306  0.2861 -0.1108
 6929SOL    HW132249   3.556   2.694   1.560 -1.4338 -0.7347  0.9508
 6929SOL    HW232250   3.682   2.619   1.515  1.6071  0.7484  1.1339
 6930SOL     OW32251   3.610   3.326   8.022 -0.2002  0.3508 -0.7637
 6930SOL    HW132252   3.619   3.260   8.090 -0.4337  0.2551 -0.8258
 6930SOL    HW232253   3.686   3.300   7.971  0.4443 -0.1689  0.4684
 6931SOL     OW32254   2.725   2.082   6.063  0.0297 -0.0561 -0.0127
 6931SOL    HW132255   2.749   2.137   5.988 -1.4864 -1.3383 -1.4607
 6931SOL    HW232256   2.636   2.112   6.082  0.9471  1.5242  1.8013
 6932SOL     OW32257   3.482   1.873   7.300 -0.8083 -0.4424 -0.2373
 6932SOL    HW132258   3.428   1.818   7.243 -1.2714 -0.3728  0.1348
 6932SOL    HW232259   3.489   1.954   7.249  0.2955  0.0401  0.6766
 6933SOL     OW32260   1.422   1.817  16.345  0.5746 -0.3531 -0.0946
 6933SOL    HW132261   1.511   1.781  16.350  0.3657 -0.7815  0.6583
 6933SOL    HW232262   1.401   1.819  16.438  2.2133  0.7309  0.2454
 6934SOL     OW32263   0.979   0.131  16.134  0.1239  0.7576  0.0352
 6934SOL    HW132264   0.940   0.149  16.219  1.5392  0.9112  0.6460
 6934SOL    HW232265   0.950   0.040  16.126  1.3402  0.5968 -2.6980
 6935SOL     OW32266   2.927   1.608   5.073 -0.3902  0.0244  0.0006
 6935SOL    HW132267   3.003   1.568   5.031  0.7313  0.7286  1.3529
 6935SOL    HW232268   2.972   1.681   5.116 -1.2215 -0.5932  1.9319
 6936SOL     OW32269   2.381   3.132   7.856 -0.3777 -0.1689 -0.2827
 6936SOL    HW132270   2.353   3.107   7.944 -1.3062  1.5223 -0.0991
 6936SOL    HW232271   2.474   3.111   7.858 -0.1744  0.9298  1.7872
 6937SOL     OW32272   3.819   0.465  14.319  0.1049 -0.1853 -0.0493
 6937SOL    HW132273   3.732   0.484  14.284  0.1082  0.1263  0.1165
 6937SOL    HW232274   3.804   0.377  14.353  2.0579  0.3938  2.3115
 6938SOL     OW32275   1.520   4.197   2.242 -0.2075 -0.1657 -0.3424
 6938SOL    HW132276   1.555   4.280   2.274  0.6020 -0.8447  0.5268
 6938SOL    HW232277   1.490   4.215   2.153  0.7984  0.8793 -0.4527
 6939SOL     OW32278   0.966   3.803   1.804  0.5805 -0.7880  0.7260
 6939SOL    HW132279   0.893   3.858   1.776  0.6958 -1.1272 -0.2408
 6939SOL    HW232280   1.042   3.861   1.798 -1.8118  2.1927 -0.2475
 6940SOL     OW32281   3.601   0.062   9.218  0.4356  0.5803 -0.1367
 6940SOL    HW132282   3.537   0.060   9.289  0.2107  1.1421 -0.3198
 6940SOL    HW232283   3.640   4.700   9.233  1.0944  1.2431  2.0219
 6941SOL     OW32284   3.627   1.454   9.036  0.0979 -0.4485  0.2514
 6941SOL    HW132285   3.563   1.491   9.098 -0.9183  0.3538 -1.2736
 6941SOL    HW232286   3.629   1.362   9.062 -0.6646  0.0795  2.1874
 6942SOL     OW32287   0.447   1.324   3.730  0.0249 -0.3901 -0.5379
 6942SOL    HW132288   0.390   1.259   3.772 -0.6335  0.4748 -0.1155
 6942SOL    HW232289   0.390   1.400   3.728  2.3361  1.3404  0.0761
 6943SOL     OW32290   2.843   2.604  12.457 -0.0812  0.4072  0.0652
 6943SOL    HW132291   2.897   2.584  12.381 -0.0853 -0.1180  0.2042
 6943SOL    HW232292   2.904   2.670  12.490  0.2028 -0.0664  0.4849
 6944SOL     OW32293   3.520   0.860   6.108 -1.2217 -0.7622  0.7592
 6944SOL    HW132294   3.562   0.817   6.183 -0.2533 -0.0032  0.6499
 6944SOL    HW232295   3.433   0.890   6.136 -0.9807  0.8585 -0.2084
 6945SOL     OW32296   1.704   4.033   0.054 -0.3406 -0.4510  0.0609
 6945SOL    HW132297   1.799   4.042   0.052 -0.3631  0.7100  2.8501
 6945SOL    HW232298   1.686   3.968  17.681 -1.3398  0.1282 -0.2273
 6946SOL     OW32299   0.138   3.758   6.773 -0.1621  0.1788 -0.1119
 6946SOL    HW132300   0.200   3.816   6.819 -0.2310  0.1737 -0.0133
 6946SOL    HW232301   0.173   3.757   6.684  1.8851  2.0601  0.6590
 6947SOL     OW32302   1.751   2.927   3.619 -0.0813  0.3668 -0.0089
 6947SOL    HW132303   1.664   2.950   3.588  0.4752  1.9718 -0.4165
 6947SOL    HW232304   1.757   2.979   3.700  4.0042 -0.3595  0.1766
 6948SOL     OW32305   0.282   1.970  14.111 -0.0392  0.0031 -0.3244
 6948SOL    HW132306   0.215   1.956  14.178 -0.0450  1.8855  0.0693
 6948SOL    HW232307   0.237   1.919  14.044  1.0943  0.5620 -1.5222
 6949SOL     OW32308   0.955   2.589   8.617  0.1090  0.0647 -0.2338
 6949SOL    HW132309   0.925   2.599   8.526 -1.1265 -1.4744  0.0010
 6949SOL    HW232310   1.050   2.590   8.612  0.1044 -2.1385 -0.6526
 6950SOL     OW32311   0.648   4.136   1.505  0.0311 -0.0649 -0.3701
 6950SOL    HW132312   0.667   4.217   1.458 -0.3020  0.3114  0.1499
 6950SOL    HW232313   0.563   4.160   1.540  0.5167 -0.9382  1.4274
 6951SOL     OW32314   0.326   2.334   1.916  1.0611  0.1983  0.0370
 6951SOL    HW132315   0.260   2.271   1.945  1.4989  0.6323  1.9791
 6951SOL    HW232316   0.349   2.371   2.001 -1.7648  2.4739 -0.2085
 6952SOL     OW32317   2.609   2.559  13.774  0.0923 -0.5879 -0.1575
 6952SOL    HW132318   2.518   2.587  13.781  0.2229  0.4577 -2.6131
 6952SOL    HW232319   2.597   2.482  13.719 -2.7318  0.7848 -1.4376
 6953SOL     OW32320   1.392   1.608   6.482 -0.0902  0.3752  0.2926
 6953SOL    HW132321   1.414   1.658   6.403  0.4575  0.9319  0.8015
 6953SOL    HW232322   1.408   1.662   6.559  0.5666  1.1055 -0.3520
 6954SOL     OW32323   1.478   1.613   7.532 -0.5930  0.0340 -0.0885
 6954SOL    HW132324   1.538   1.548   7.567 -1.0381 -0.9998 -1.2490
 6954SOL    HW232325   1.400   1.598   7.586 -0.1465 -2.1730 -0.0535
 6955SOL     OW32326   0.881   3.120  10.633 -0.3262  0.0422 -0.2465
 6955SOL    HW132327   0.874   3.175  10.555 -1.9192  0.9919  0.5810
 6955SOL    HW232328   0.917   3.040  10.594 -2.3902 -0.0525 -1.9361
 6956SOL     OW32329   4.544   1.562   8.968  0.0024 -0.2354  0.3445
 6956SOL    HW132330   4.631   1.575   8.930 -0.1316  1.1430  0.5175
 6956SOL    HW232331   4.501   1.647   8.959 -0.1671 -0.2577  0.9192
 6957SOL     OW32332   3.320   2.220   4.017  0.3469  0.2178 -0.2535
 6957SOL    HW132333   3.329   2.126   4.000 -1.9927  0.1518 -1.0925
 6957SOL    HW232334   3.262   2.214   4.093  1.7723  1.7973  0.9538
 6958SOL     OW32335   3.616   3.678   8.086 -0.4496 -0.1469  0.0878
 6958SOL    HW132336   3.534   3.663   8.132 -0.8384 -0.7276 -0.8043
 6958SOL    HW232337   3.629   3.770   8.110 -0.8232 -0.0364 -0.1290
 6959SOL     OW32338   2.937   4.470   6.600  0.5811  0.2168  0.1096
 6959SOL    HW132339   2.949   4.548   6.546  0.9153 -0.0167 -0.1649
 6959SOL    HW232340   2.999   4.412   6.555  0.9925  0.1339  0.7896
 6960SOL     OW32341   2.358   1.167   5.111 -0.7358 -0.3053  0.1380
 6960SOL    HW132342   2.369   1.081   5.152  1.4232  0.5193  1.2859
 6960SOL    HW232343   2.439   1.208   5.141 -1.0951 -0.3606  1.1802
 6961SOL     OW32344   4.361   0.287  10.977 -0.1203 -0.4359 -0.1747
 6961SOL    HW132345   4.383   0.370  11.018 -1.5957  0.0691 -0.3873
 6961SOL    HW232346   4.291   0.260  11.037 -1.3767 -0.5216 -1.6608
 6962SOL     OW32347   0.558   2.311   6.335 -0.3514 -0.0294 -0.3665
 6962SOL    HW132348   0.581   2.229   6.291  1.1123 -0.2322  0.7771
 6962SOL    HW232349   0.527   2.273   6.417  1.0530  0.9587  0.6271
 6963SOL     OW32350   1.551   0.803   6.987  0.5174  0.1136 -0.4931
 6963SOL    HW132351   1.613   0.772   6.921  2.1908 -0.3887  1.2949
 6963SOL    HW232352   1.483   0.846   6.935  1.8361 -0.0719 -2.3770
 6964SOL     OW32353   4.201   1.903   3.499  0.5862 -0.0764 -0.0106
 6964SOL    HW132354   4.227   1.811   3.507 -1.1272 -0.4055  1.7335
 6964SOL    HW232355   4.259   1.924   3.426 -0.1662  1.8310 -0.0619
 6965SOL     OW32356   1.617   1.926   4.892  0.1552  0.0578  0.1688
 6965SOL    HW132357   1.588   1.859   4.831 -1.8975  1.8158 -0.7678
 6965SOL    HW232358   1.572   1.915   4.976  0.9716 -0.9018  0.4872
 6966SOL     OW32359   1.719   0.553   3.802 -0.2605  0.3775 -0.3991
 6966SOL    HW132360   1.701   0.554   3.708 -0.3309  0.8141 -0.3817
 6966SOL    HW232361   1.673   0.633   3.827  1.3683  1.5963 -1.3877
 6967SOL     OW32362   1.729   4.195   8.832 -0.7655 -0.6726 -0.4367
 6967SOL    HW132363   1.722   4.274   8.886  1.0230 -0.9228  0.1487
 6967SOL    HW232364   1.653   4.146   8.863 -0.8326 -1.4535 -1.8001
 6968SOL     OW32365   1.554   3.317   8.440  0.8457  0.1417  0.0950
 6968SOL    HW132366   1.461   3.294   8.442  0.6101  1.0414 -0.6882
 6968SOL    HW232367   1.590   3.257   8.505  2.1213  0.5117 -0.2674
 6969SOL     OW32368   1.759   4.205  13.427 -0.7048  0.4689  0.0455
 6969SOL    HW132369   1.781   4.277  13.485  0.8824  0.4694 -0.5450
 6969SOL    HW232370   1.785   4.129  13.480 -0.3583  2.2256  2.3909
 6970SOL     OW32371   2.318   0.706   4.240  0.6816  0.0124 -0.7346
 6970SOL    HW132372   2.386   0.639   4.233 -0.3401 -1.3238  2.1331
 6970SOL    HW232373   2.359   0.768   4.300  1.9065  0.0512 -1.6068
 6971SOL     OW32374   3.273   0.936   8.776 -0.1370  0.1435  0.4722
 6971SOL    HW132375   3.226   1.019   8.771 -0.1228  0.2850  2.3769
 6971SOL    HW232376   3.307   0.944   8.865  0.6424 -0.2140  0.2079
 6972SOL     OW32377   2.556   0.854  11.310  0.0912 -0.1345  0.0099
 6972SOL    HW132378   2.629   0.795  11.290  0.0977 -0.1985  0.2212
 6972SOL    HW232379   2.612   0.921  11.350  1.4251 -1.1860 -0.0835
 6973SOL     OW32380   1.554   0.721   3.960 -0.1292  0.0175  0.5024
 6973SOL    HW132381   1.607   0.783   4.010 -1.4012  1.5057 -0.0053
 6973SOL    HW232382   1.526   0.762   3.878  0.3876 -1.7455 -0.5530
 6974SOL     OW32383   3.890   0.715   5.358 -0.3603 -0.0606  0.7892
 6974SOL    HW132384   3.824   0.781   5.379  0.4892  1.2769 -0.8035
 6974SOL    HW232385   3.868   0.699   5.267  3.7138  1.7593 -0.5205
 6975SOL     OW32386   1.850   2.060   1.615  0.3904  0.0390 -0.0614
 6975SOL    HW132387   1.877   2.050   1.524  0.0610  0.2264 -0.1800
 6975SOL    HW232388   1.758   2.036   1.615  0.4333 -0.1152 -1.0264
 6976SOL     OW32389   3.884   3.538  11.412  0.2970  0.0897  0.1498
 6976SOL    HW132390   3.822   3.481  11.458  2.1978 -1.5982  0.6260
 6976SOL    HW232391   3.932   3.573  11.487 -1.2204  0.9649  0.7302
 6977SOL     OW32392   3.307   2.624  12.554 -0.0949  0.7906  0.1125
 6977SOL    HW132393   3.333   2.692  12.491  1.3447  0.2644  0.1244
 6977SOL    HW232394   3.393   2.597  12.585 -0.4512 -0.8242 -0.2881
 6978SOL     OW32395   2.486   0.900   1.995  0.1706 -0.3890 -0.2576
 6978SOL    HW132396   2.552   0.897   1.926  1.3745 -1.8957  0.9600
 6978SOL    HW232397   2.521   0.971   2.049  1.9868 -1.2208 -0.3526
 6979SOL     OW32398   2.675   2.403   5.108 -0.5100 -0.3391 -0.2266
 6979SOL    HW132399   2.748   2.404   5.170 -2.2076 -0.0028  1.7451
 6979SOL    HW232400   2.640   2.489   5.131  1.9523  0.3220  1.0372
 6980SOL     OW32401   0.848   3.377   2.485  0.0778 -0.3085 -0.3925
 6980SOL    HW132402   0.846   3.343   2.574  3.6511  2.3382  0.6941
 6980SOL    HW232403   0.779   3.324   2.444  1.0587 -1.1645 -0.9467
 6981SOL     OW32404   0.655   4.598   5.345 -0.6703 -0.1185 -0.0338
 6981SOL    HW132405   0.615   4.670   5.297 -1.1254  0.5806  1.3906
 6981SOL    HW232406   0.739   4.639   5.364 -1.3225  1.7143 -1.1078
 6982SOL     OW32407   1.409   1.517   9.067 -0.8342  0.2608 -0.0696
 6982SOL    HW132408   1.471   1.472   9.010 -1.0856 -1.5544  1.0856
 6982SOL    HW232409   1.391   1.438   9.118  0.1477 -0.3281 -0.6262
 6983SOL     OW32410   3.213   4.340  17.562 -0.4842 -0.2778  0.2608
 6983SOL    HW132411   3.277   4.284  17.518 -1.0732 -0.3887 -0.4453
 6983SOL    HW232412   3.179   4.383  17.484  0.0682  0.5250  0.4604
 6984SOL     OW32413   4.452   4.210   6.528  0.5625 -0.5099 -0.4546
 6984SOL    HW132414   4.477   4.252   6.447 -0.3638  0.8245 -0.0552
 6984SOL    HW232415   4.531   4.181   6.573 -0.0125 -2.4118 -0.6667
 6985SOL     OW32416   2.226   3.590  16.200 -0.0863  0.0903 -0.0353
 6985SOL    HW132417   2.295   3.561  16.260  1.2476  1.0948 -1.1038
 6985SOL    HW232418   2.213   3.678  16.236 -0.3921  0.1388 -0.2676
 6986SOL     OW32419   2.811   0.273   5.706  0.0529  0.7631 -0.2345
 6986SOL    HW132420   2.858   0.325   5.640  2.0486 -1.9816 -0.9850
 6986SOL    HW232421   2.819   0.185   5.669 -0.4735 -0.5663  2.8266
 6987SOL     OW32422   0.742   2.812   4.173  0.0061 -0.3783 -0.1900
 6987SOL    HW132423   0.684   2.829   4.099  0.1674 -0.0397 -0.2390
 6987SOL    HW232424   0.736   2.888   4.232  2.4462  1.9299 -2.8922
 6988SOL     OW32425   0.960   2.888   4.593  0.2376 -0.0314  0.5627
 6988SOL    HW132426   0.889   2.840   4.635 -0.1178 -0.6150 -0.7174
 6988SOL    HW232427   0.972   2.837   4.513 -0.2501  1.9173 -0.7678
 6989SOL     OW32428   0.267   2.803  14.320  0.0598  0.0118 -0.2356
 6989SOL    HW132429   0.309   2.872  14.371 -1.1311  0.8478 -0.3574
 6989SOL    HW232430   0.262   2.740  14.392  1.1872  3.0467  2.4735
 6990SOL     OW32431   2.976   1.691   2.273 -0.0174  0.2057  0.5368
 6990SOL    HW132432   2.910   1.627   2.300 -0.2369  0.3283  0.2922
 6990SOL    HW232433   2.980   1.670   2.179  0.0694  1.0890  0.3415
 6991SOL     OW32434   0.444   0.870  11.926 -0.0850 -0.0752 -0.0881
 6991SOL    HW132435   0.478   0.922  11.854  1.1466  1.5824  1.6831
 6991SOL    HW232436   0.465   0.785  11.888  0.5938 -0.6784  1.6252
 6992SOL     OW32437   3.103   1.079  15.034 -0.0394 -0.2354 -0.0418
 6992SOL    HW132438   3.068   1.028  14.961 -1.1841  1.9093 -0.9853
 6992SOL    HW232439   3.044   1.154  15.025 -1.1268 -1.1791 -0.6826
 6993SOL     OW32440   0.763   2.199  14.001 -0.5638  0.1857 -0.3407
 6993SOL    HW132441   0.783   2.106  14.008 -1.0512  0.1456  0.5573
 6993SOL    HW232442   0.673   2.204  13.970 -0.4375  1.7506 -0.4562
 6994SOL     OW32443   4.594   3.375  11.951 -1.0056 -0.1754  0.4567
 6994SOL    HW132444   4.657   3.321  11.998 -0.5819  0.7201  0.9063
 6994SOL    HW232445   4.590   3.458  11.998 -0.0113  0.6022 -0.8296
 6995SOL     OW32446   2.371   3.260  11.518 -0.0199  0.3183 -0.0123
 6995SOL    HW132447   2.448   3.249  11.463 -1.9101 -1.8796 -2.2470
 6995SOL    HW232448   2.304   3.215  11.465  1.1732  0.0180 -1.2693
 6996SOL     OW32449   0.050   3.134   0.298 -0.2482  0.4129  0.1030
 6996SOL    HW132450   0.059   3.070   0.227 -1.2953 -0.2307  0.5438
 6996SOL    HW232451   0.088   3.079   0.367  0.3947 -1.1451 -1.4708
 6997SOL     OW32452   2.233   3.026   1.777  0.3619 -0.1986 -0.2936
 6997SOL    HW132453   2.219   3.006   1.684 -1.7226 -0.0331 -0.0305
 6997SOL    HW232454   2.311   3.081   1.780  0.4902 -0.5331  2.2897
 6998SOL     OW32455   2.765   0.953   4.827 -0.3159  0.2970 -0.5192
 6998SOL    HW132456   2.770   1.010   4.750 -0.5210  0.6675 -0.2592
 6998SOL    HW232457   2.670   0.958   4.840  0.3443  2.7286  3.1812
 6999SOL     OW32458   3.700   3.406   4.575  0.2043  0.0540  0.4817
 6999SOL    HW132459   3.613   3.432   4.544 -0.2045 -1.4053  0.4075
 6999SOL    HW232460   3.679   3.391   4.667 -1.4525  2.1751  0.4363
 7000SOL     OW32461   3.742   0.715  11.907  0.4225  0.4972 -0.2569
 7000SOL    HW132462   3.793   0.709  11.988  0.8260 -2.1737 -0.7283
 7000SOL    HW232463   3.793   0.644  11.868 -1.5383 -1.9053  1.6172
 7001SOL     OW32464   1.967   0.170   6.915  0.1188  0.3241 -0.6450
 7001SOL    HW132465   1.909   0.123   6.855 -3.2659  2.0889  1.2113
 7001SOL    HW232466   2.053   0.171   6.872  0.0745  1.5346 -0.6886
 7002SOL     OW32467   4.289   3.303   5.959 -0.2190 -0.0339 -0.2991
 7002SOL    HW132468   4.256   3.362   6.027  0.5345  2.8020 -2.4257
 7002SOL    HW232469   4.301   3.216   5.998 -0.7543 -1.0325 -2.3488
 7003SOL     OW32470   3.460   3.110   9.802 -0.0789 -0.1197 -0.2093
 7003SOL    HW132471   3.519   3.041   9.833  0.5161 -0.2227 -1.5497
 7003SOL    HW232472   3.418   3.055   9.735 -1.4643  0.4938  0.1484
 7004SOL     OW32473   1.282   2.808   5.438 -0.2667  0.3083 -0.0673
 7004SOL    HW132474   1.340   2.732   5.443  2.2169  2.4375  3.0253
 7004SOL    HW232475   1.224   2.779   5.509 -0.9878 -2.0943 -1.6269
 7005SOL     OW32476   1.442   1.347  12.919  0.5924 -0.0950 -0.3312
 7005SOL    HW132477   1.522   1.295  12.912  1.2615  1.3386 -3.2780
 7005SOL    HW232478   1.444   1.379  13.010 -2.3149 -1.4521  0.2195
 7006SOL     OW32479   3.589   0.186  10.385 -0.5707 -0.0425  0.3788
 7006SOL    HW132480   3.641   0.106  10.395  0.9508  0.5814 -2.7194
 7006SOL    HW232481   3.653   0.256  10.377 -1.5534  1.2812  3.8687
 7007SOL     OW32482   4.386   1.753   7.273  0.0935 -0.3206  0.3432
 7007SOL    HW132483   4.326   1.691   7.232 -0.1282  0.5456 -0.6182
 7007SOL    HW232484   4.385   1.736   7.368  2.3912  2.3186  0.8389
 7008SOL     OW32485   1.390   4.406   7.820 -0.0951  0.4964 -0.3358
 7008SOL    HW132486   1.320   4.342   7.833  1.1003 -0.6551  0.3554
 7008SOL    HW232487   1.369   4.446   7.904 -0.6683  0.1324 -0.3037
 7009SOL     OW32488   0.545   4.306  13.839 -0.0737  0.3713  0.2193
 7009SOL    HW132489   0.491   4.386  13.838 -1.0261 -0.2661  0.9238
 7009SOL    HW232490   0.507   4.258  13.766 -0.1569 -0.5885  0.8956
 7010SOL     OW32491   1.056   0.900  13.493  0.2097 -0.5191  0.3411
 7010SOL    HW132492   0.995   0.964  13.530 -0.8459 -1.5322  0.3529
 7010SOL    HW232493   1.129   0.957  13.469 -0.5274 -0.0782 -0.8620
 7011SOL     OW32494   4.535   3.034   4.272  0.5221 -0.1342 -0.0644
 7011SOL    HW132495   4.516   3.115   4.320  0.5708 -0.6422  0.8158
 7011SOL    HW232496   4.526   2.969   4.342 -0.0018 -1.2335 -1.1563
 7012SOL     OW32497   2.167   1.771   8.215 -1.0583  0.0301 -0.0194
 7012SOL    HW132498   2.155   1.831   8.288 -1.9267 -1.1766  0.8315
 7012SOL    HW232499   2.246   1.808   8.175 -0.1132 -0.4280  1.4262
 7013SOL     OW32500   0.328   0.806   5.190 -0.3666  0.1263  1.1082
 7013SOL    HW132501   0.235   0.807   5.211 -0.6613 -1.2133 -0.1597
 7013SOL    HW232502   0.366   0.848   5.267 -1.9844  2.1642  0.7798
 7014SOL     OW32503   2.417   1.457   4.947  0.2310  0.0004  0.2126
 7014SOL    HW132504   2.411   1.455   4.852  0.7858  2.0105  0.1284
 7014SOL    HW232505   2.494   1.403   4.960  0.1007 -0.1610  0.3108
 7015SOL     OW32506   1.189   3.322   4.258 -0.4098 -0.3373  0.0027
 7015SOL    HW132507   1.109   3.318   4.206 -0.4654  2.0144 -0.0518
 7015SOL    HW232508   1.202   3.416   4.263  0.5602 -0.5025  0.5705
 7016SOL     OW32509   3.477   2.915   8.183 -0.5226 -0.5011  0.0145
 7016SOL    HW132510   3.473   2.862   8.104  1.6358  1.2890 -1.2969
 7016SOL    HW232511   3.395   2.885   8.221 -0.5656 -0.4725 -0.0557
 7017SOL     OW32512   0.591   0.813   0.602 -0.2193 -0.2236 -0.3657
 7017SOL    HW132513   0.615   0.850   0.517 -1.8637 -1.9993 -1.6034
 7017SOL    HW232514   0.534   0.739   0.584 -0.5161 -0.2888  0.8284
 7018SOL     OW32515   3.645   0.440   5.372  0.4950 -0.1755 -0.3423
 7018SOL    HW132516   3.730   0.473   5.403 -0.6627 -0.2636  2.9270
 7018SOL    HW232517   3.685   0.368   5.322  0.2023 -1.2388  0.9447
 7019SOL     OW32518   3.924   4.044  12.652  0.1399  0.1564  0.1787
 7019SOL    HW132519   4.011   4.018  12.681  0.0333  0.3499  0.6729
 7019SOL    HW232520   3.867   4.008  12.721  1.9096 -2.7159  0.1290
 7020SOL     OW32521   4.463   2.744   6.860  0.1151  0.4693  0.0161
 7020SOL    HW132522   4.370   2.738   6.836  0.5394 -1.9116 -1.1357
 7020SOL    HW232523   4.494   2.822   6.815 -0.7469 -0.0229 -1.4363
 7021SOL     OW32524   3.033   4.363   7.425  0.1573  0.5433  0.7306
 7021SOL    HW132525   3.064   4.422   7.494  3.2934 -2.2452  1.6895
 7021SOL    HW232526   3.032   4.430   7.356  1.2168 -1.4586 -1.2210
 7022SOL     OW32527   1.124   0.055  16.913  0.1307 -0.0120  0.1238
 7022SOL    HW132528   1.177   4.705  16.945 -0.7595 -0.4830  0.5164
 7022SOL    HW232529   1.143   0.126  16.974 -1.3271 -0.0651  0.6442
 7023SOL     OW32530   4.301   1.650   3.567  0.3669 -0.1791  0.5125
 7023SOL    HW132531   4.224   1.593   3.568  1.5931 -1.8053  1.9357
 7023SOL    HW232532   4.368   1.585   3.549  1.4088  1.7680 -2.7242
 7024SOL     OW32533   0.943   4.423  12.224  0.0262 -0.2476 -0.1202
 7024SOL    HW132534   1.011   4.443  12.289  0.2931 -0.1366 -0.4367
 7024SOL    HW232535   0.865   4.392  12.271  1.7439 -1.6952  1.7769
 7025SOL     OW32536   0.258   0.604   3.368 -0.1220 -0.2356  0.3926
 7025SOL    HW132537   0.276   0.632   3.279  0.0939 -0.2429  0.4350
 7025SOL    HW232538   0.350   0.609   3.394  0.3279 -3.1967 -0.6095
 7026SOL     OW32539   2.159   2.101   8.906  0.2693  0.7982 -0.1386
 7026SOL    HW132540   2.072   2.108   8.867  0.4640 -0.1637 -0.7491
 7026SOL    HW232541   2.214   2.166   8.863 -0.2714  0.0893 -1.8922
 7027SOL     OW32542   2.202   0.573  16.181 -0.1751 -0.1343 -0.2031
 7027SOL    HW132543   2.205   0.612  16.268  0.3421 -1.4569  0.3705
 7027SOL    HW232544   2.240   0.643  16.128 -0.8506  1.4313  1.4040
 7028SOL     OW32545   2.121   0.358  16.394  1.0349  0.1191  0.6401
 7028SOL    HW132546   2.212   0.369  16.421  1.4916 -2.3805  0.0781
 7028SOL    HW232547   2.080   0.341  16.478 -0.5153  0.9127  0.0452
 7029SOL     OW32548   4.574   1.334  17.275  0.0241  0.2282  0.3685
 7029SOL    HW132549   4.596   1.329  17.368 -3.2036 -1.1908  1.0403
 7029SOL    HW232550   4.494   1.387  17.276 -1.4862 -2.0480 -0.0648
 7030SOL     OW32551   2.818   3.912   5.387  0.4173  0.0507 -0.4897
 7030SOL    HW132552   2.885   3.848   5.365  1.2233  0.7149  0.0040
 7030SOL    HW232553   2.866   3.994   5.372 -1.5758  1.2049 -0.6216
 7031SOL     OW32554   2.133   4.249   3.039 -0.2064 -0.3419 -0.2091
 7031SOL    HW132555   2.111   4.287   2.954 -0.7080  2.1717  1.0536
 7031SOL    HW232556   2.191   4.175   3.019 -3.2495 -2.6738 -0.3771
 7032SOL     OW32557   2.147   0.400   0.888  0.1954  0.5972  0.0182
 7032SOL    HW132558   2.161   0.492   0.909 -1.1473  0.3676  1.9272
 7032SOL    HW232559   2.166   0.399   0.794  0.0138 -1.3510 -0.0013
 7033SOL     OW32560   1.855   1.323  13.899  0.3499 -0.3533  0.7466
 7033SOL    HW132561   1.890   1.257  13.840  0.3024 -0.8592  1.2881
 7033SOL    HW232562   1.776   1.343  13.850 -0.1726  0.1011  1.7657
 7034SOL     OW32563   1.030   4.660   6.131 -0.0026 -0.1519  0.3339
 7034SOL    HW132564   1.104   4.653   6.191 -0.4715 -2.7076  0.6344
 7034SOL    HW232565   1.074   4.693   6.053  0.5002  1.9230  1.5092
 7035SOL     OW32566   4.273   1.210   0.486 -0.4249 -0.0814 -0.0821
 7035SOL    HW132567   4.334   1.144   0.453  2.5779  3.0180 -0.7225
 7035SOL    HW232568   4.297   1.217   0.578 -4.3194  1.8990  0.7901
 7036SOL     OW32569   2.465   2.756   9.623 -0.0778 -0.2352  0.4564
 7036SOL    HW132570   2.482   2.667   9.591 -1.2847 -0.1397 -0.4397
 7036SOL    HW232571   2.370   2.749   9.620 -0.0662  0.6822 -1.7207
 7037SOL     OW32572   0.642   4.709   1.458 -0.0893  0.2013 -0.4765
 7037SOL    HW132573   0.576   4.719   1.527  2.0148  0.8704  1.4806
 7037SOL    HW232574   0.645   0.073   1.419 -0.4436 -0.3780 -1.7780
 7038SOL     OW32575   2.730   1.497   4.016  0.0844  0.0669 -0.2177
 7038SOL    HW132576   2.656   1.523   4.071  0.1217 -0.4431  0.0715
 7038SOL    HW232577   2.773   1.435   4.074 -0.5967  0.0947  0.3098
 7039SOL     OW32578   1.424   3.134   5.886  1.1022 -0.0658 -0.7688
 7039SOL    HW132579   1.498   3.149   5.945 -0.0725 -1.5334  1.0519
 7039SOL    HW232580   1.417   3.045   5.921  1.4151 -0.4012 -1.5471
 7040SOL     OW32581   2.395   1.701   0.912  0.0992 -0.5421  0.2674
 7040SOL    HW132582   2.474   1.722   0.862 -0.1177 -3.4681 -1.2989
 7040SOL    HW232583   2.423   1.615   0.940  1.1576 -0.1057  0.5424
 7041SOL     OW32584   2.548   1.403   9.689  0.0913 -0.3619 -0.0986
 7041SOL    HW132585   2.598   1.448   9.756  0.1175 -0.6620  0.0835
 7041SOL    HW232586   2.562   1.312   9.717 -0.6311 -0.4562 -0.0483
 7042SOL     OW32587   1.463   1.370   2.620 -0.0046  0.7049  0.0562
 7042SOL    HW132588   1.386   1.372   2.563 -0.7088  0.7356  1.0033
 7042SOL    HW232589   1.432   1.379   2.710 -0.3166  0.2881 -0.0085
 7043SOL     OW32590   1.451   2.075   6.250  0.5408 -0.2759 -0.2497
 7043SOL    HW132591   1.410   2.099   6.167  2.9819  2.8188 -0.5606
 7043SOL    HW232592   1.539   2.079   6.214  1.3122  1.0579  1.7867
 7044SOL     OW32593   3.382   0.344   8.527  0.7966 -0.0585  0.2265
 7044SOL    HW132594   3.436   0.401   8.582  1.7336  1.5027 -2.2534
 7044SOL    HW232595   3.314   0.399   8.487  0.1440 -1.0826 -0.0499
 7045SOL     OW32596   1.328   2.432   6.153 -0.1604  0.3158 -0.0183
 7045SOL    HW132597   1.308   2.522   6.127 -2.5474 -1.0001 -2.7079
 7045SOL    HW232598   1.424   2.429   6.146 -0.1241  0.7698  0.2627
 7046SOL     OW32599   1.521   2.391  15.366 -0.2478  0.0862  0.0595
 7046SOL    HW132600   1.481   2.402  15.279  0.6471  2.3893 -0.0686
 7046SOL    HW232601   1.558   2.475  15.394  1.1133 -0.2165 -0.8348
 7047SOL     OW32602   4.060   2.504   4.181 -0.4986  0.4480 -0.4566
 7047SOL    HW132603   4.154   2.490   4.171 -0.2925  0.4082  1.4874
 7047SOL    HW232604   4.018   2.419   4.166 -1.3733  0.5946  1.1554
 7048SOL     OW32605   0.677   1.808  10.704 -0.0534  0.5014  0.4614
 7048SOL    HW132606   0.653   1.867  10.631  0.2700  0.5204  0.3705
 7048SOL    HW232607   0.772   1.812  10.703 -0.0644  0.7939  0.8977
 7049SOL     OW32608   2.924   3.390   5.242  0.2980 -0.1904  0.2461
 7049SOL    HW132609   2.847   3.431   5.202  0.1986  0.9044  1.5963
 7049SOL    HW232610   2.987   3.397   5.169  0.8313 -3.1792  0.4332
 7050SOL     OW32611   0.410   0.013   7.981  0.5487  0.1366  0.4996
 7050SOL    HW132612   0.426   4.668   8.046  4.1718  0.4632 -0.0612
 7050SOL    HW232613   0.501   0.024   7.953  0.3148  4.1979  1.2978
 7051SOL     OW32614   3.979   2.493   8.168  0.0563 -0.5152 -0.2983
 7051SOL    HW132615   3.981   2.584   8.197 -1.2346 -0.7432  0.4902
 7051SOL    HW232616   4.070   2.462   8.168  0.7788  1.5993  1.0254
 7052SOL     OW32617   3.130   1.675   6.682  0.3809  0.1461 -0.5615
 7052SOL    HW132618   3.099   1.673   6.772  0.8135  1.6108 -0.3797
 7052SOL    HW232619   3.138   1.584   6.652  1.0607  0.0896 -0.2202
 7053SOL     OW32620   0.755   1.566   6.088 -0.0143  0.1733  0.2317
 7053SOL    HW132621   0.791   1.653   6.106  0.8803 -0.1702  0.1203
 7053SOL    HW232622   0.833   1.530   6.045 -1.4562  0.3570 -2.5807
 7054SOL     OW32623   2.273   4.543   8.150 -0.8687 -0.4547 -0.4944
 7054SOL    HW132624   2.237   4.508   8.069 -1.3356  2.4668 -1.5346
 7054SOL    HW232625   2.211   4.521   8.219  0.5726 -1.5083  0.4743
 7055SOL     OW32626   1.282   3.334   9.291 -0.1795  0.6339  0.1458
 7055SOL    HW132627   1.324   3.419   9.304 -0.8026  1.3401 -2.4922
 7055SOL    HW232628   1.251   3.347   9.201 -2.8014 -1.1575  0.7935
 7056SOL     OW32629   0.515   3.317  17.275 -0.5819  0.5821 -0.1900
 7056SOL    HW132630   0.479   3.343  17.190 -0.7691  1.1499  0.0588
 7056SOL    HW232631   0.522   3.222  17.275  0.2136  0.6396  0.1084
 7057SOL     OW32632   2.546   0.368  15.035 -1.2335  0.1578  0.2214
 7057SOL    HW132633   2.556   0.324  14.951 -3.4204 -0.1932  0.1250
 7057SOL    HW232634   2.502   0.309  15.097 -0.0500 -1.1705 -0.2058
 7058SOL     OW32635   1.216   0.759   7.965  0.7138 -0.2471 -0.5493
 7058SOL    HW132636   1.306   0.752   7.999 -0.4501 -1.0051  2.4052
 7058SOL    HW232637   1.176   0.819   8.028 -0.5565 -4.3061  2.4807
 7059SOL     OW32638   0.876   1.937   4.430 -0.3751 -0.6300 -0.0216
 7059SOL    HW132639   0.858   1.934   4.336 -1.4118  1.3356  0.1182
 7059SOL    HW232640   0.900   1.845   4.441  0.0545 -0.4277  0.7252
 7060SOL     OW32641   1.679   1.669   8.438 -0.4431 -0.1944 -0.2213
 7060SOL    HW132642   1.735   1.716   8.375 -3.0039 -1.5940 -3.5298
 7060SOL    HW232643   1.689   1.717   8.521  1.1184 -0.0415 -0.4983
 7061SOL     OW32644   4.443   3.218  10.509  0.4681 -0.3573 -0.1036
 7061SOL    HW132645   4.466   3.151  10.445 -2.7910 -2.1571  0.6077
 7061SOL    HW232646   4.526   3.230  10.557 -0.2376  0.6528  0.8585
 7062SOL     OW32647   3.737   4.110  10.721  0.4022  0.3445  0.4576
 7062SOL    HW132648   3.671   4.080  10.659 -0.2045 -0.0031  1.2669
 7062SOL    HW232649   3.800   4.038  10.731  0.6265  0.6131  0.9801
 7063SOL     OW32650   4.697   3.349  10.510  0.3148  0.1945  0.6180
 7063SOL    HW132651   0.016   3.360  10.425  0.8858 -1.1298  0.7361
 7063SOL    HW232652   0.042   3.295  10.550  0.4755  0.9503  1.3491
 7064SOL     OW32653   4.384   2.794   1.655  0.2409 -0.2947  0.0301
 7064SOL    HW132654   4.318   2.838   1.603  1.3006  0.9390 -0.2798
 7064SOL    HW232655   4.459   2.792   1.596  0.6461 -0.3273  0.5436
 7065SOL     OW32656   0.699   2.448   4.370 -0.2919 -0.7233 -0.0710
 7065SOL    HW132657   0.629   2.510   4.392 -0.4625 -0.9310 -0.0247
 7065SOL    HW232658   0.719   2.400   4.450  3.3864 -0.8741 -1.1125
 7066SOL     OW32659   4.419   2.446   6.298 -0.4891 -0.4078  0.1024
 7066SOL    HW132660   4.511   2.447   6.324 -0.3031 -1.3985 -0.5167
 7066SOL    HW232661   4.393   2.354   6.301  2.1235 -1.1400  0.7153
 7067SOL     OW32662   4.088   0.027   5.892 -0.1480  0.4829 -0.3603
 7067SOL    HW132663   4.156   0.085   5.927  0.2308 -0.5826  0.6679
 7067SOL    HW232664   4.134   4.668   5.904  2.7816  2.1578  0.0404
 7068SOL     OW32665   4.313   0.314   4.218  0.1262  0.3893  0.4016
 7068SOL    HW132666   4.358   0.253   4.160 -1.3783  1.2937 -1.7034
 7068SOL    HW232667   4.385   0.361   4.260  1.2424  0.7919 -2.0002
 7069SOL     OW32668   1.848   0.685   5.201  0.3249 -0.3080 -0.1869
 7069SOL    HW132669   1.804   0.696   5.286 -0.0215  1.1354 -0.5548
 7069SOL    HW232670   1.770   0.704   5.150 -1.9489 -2.3680  2.4927
 7070SOL     OW32671   1.857   3.024   5.841  0.4734 -0.2914 -0.3481
 7070SOL    HW132672   1.785   3.082   5.868  0.4078 -0.5666  0.0644
 7070SOL    HW232673   1.934   3.080   5.831  1.0252 -0.5905  2.2268
 7071SOL     OW32674   2.497   3.449   7.567 -0.2050  0.1508  0.1500
 7071SOL    HW132675   2.446   3.519   7.606 -1.4365 -0.4575 -0.3634
 7071SOL    HW232676   2.568   3.442   7.631 -0.3335  2.0836  0.4859
 7072SOL     OW32677   1.879   2.804   4.206 -0.2197  0.1788  0.2366
 7072SOL    HW132678   1.965   2.784   4.170 -1.2804  0.7081 -2.5608
 7072SOL    HW232679   1.870   2.889   4.163 -0.3363 -0.7011 -1.4817
 7073SOL     OW32680   1.397   0.950   0.619 -0.0734 -0.3103  0.2475
 7073SOL    HW132681   1.492   0.936   0.611 -0.1505 -0.4299 -0.4861
 7073SOL    HW232682   1.364   0.916   0.536 -1.4910  0.3461  0.5451
 7074SOL     OW32683   1.371   2.734  17.609  0.2634  0.5066 -0.3146
 7074SOL    HW132684   1.391   2.675  17.682 -1.7769  0.6413  0.3505
 7074SOL    HW232685   1.443   2.716  17.547  0.6883 -2.2294  0.9570
 7075SOL     OW32686   4.433   0.700  17.360 -0.6648 -0.1286 -0.4470
 7075SOL    HW132687   4.414   0.743  17.277 -0.5002 -0.9543 -0.9139
 7075SOL    HW232688   4.528   0.709  17.374 -0.4966 -1.1426 -0.9082
 7076SOL     OW32689   0.245   0.182   0.006 -0.1817 -0.1320 -0.0867
 7076SOL    HW132690   0.325   0.212  17.657  0.0916 -1.2059 -0.3386
 7076SOL    HW232691   0.199   0.137  17.629 -2.7188 -0.5763  1.8142
 7077SOL     OW32692   1.873   4.623   8.175 -0.1338  0.0353 -0.0090
 7077SOL    HW132693   1.887   4.695   8.113 -1.7632  0.3169 -0.0465
 7077SOL    HW232694   1.863   4.672   8.257 -2.9019 -2.0629  0.9105
 7078SOL     OW32695   4.102   0.769   5.507 -0.2837 -0.0507 -0.0926
 7078SOL    HW132696   4.055   0.780   5.590 -0.8781  1.7767 -0.6669
 7078SOL    HW232697   4.035   0.754   5.440  0.5593  0.7429 -1.1240
 7079SOL     OW32698   2.303   1.651   5.657  0.1473 -0.1863  0.8605
 7079SOL    HW132699   2.269   1.739   5.646 -0.7684 -0.4376  1.6410
 7079SOL    HW232700   2.250   1.620   5.731 -0.5268 -0.3866  0.2927
 7080SOL     OW32701   4.106   1.361   9.402  0.2799 -0.6195  0.4722
 7080SOL    HW132702   4.159   1.440   9.395 -0.5622  0.0058  1.1686
 7080SOL    HW232703   4.147   1.321   9.479 -0.7806 -0.9849  0.8554
 7081SOL     OW32704   0.904   0.666  13.342  0.0926  0.5924 -0.6681
 7081SOL    HW132705   0.846   0.728  13.386 -1.2265 -0.2183 -1.2475
 7081SOL    HW232706   0.989   0.707  13.355  0.5777 -0.6826  0.2348
 7082SOL     OW32707   1.093   3.982   3.344  0.0174 -0.3297 -0.1815
 7082SOL    HW132708   1.147   4.026   3.410 -1.5357  0.3993  0.5978
 7082SOL    HW232709   1.076   3.896   3.381  2.0403 -0.5603  0.2314
 7083SOL     OW32710   4.687   0.569  15.144  0.0997 -0.4551  0.3575
 7083SOL    HW132711   4.654   0.498  15.090  1.2532 -0.3817 -0.4540
 7083SOL    HW232712   4.710   0.528  15.227  0.1732  1.3369  1.2215
 7084SOL     OW32713   2.206   0.971  16.434  0.1611 -0.0653  0.3625
 7084SOL    HW132714   2.288   0.984  16.482 -0.0733  0.0881  0.7192
 7084SOL    HW232715   2.164   1.055  16.447 -2.0649 -1.2418  0.8233
 7085SOL     OW32716   4.573   2.746   4.015  0.3467 -0.0051 -0.2992
 7085SOL    HW132717   4.487   2.708   4.033  1.7815 -1.4100  3.4913
 7085SOL    HW232718   4.623   2.693   4.076 -1.2502 -1.0671  0.1087
 7086SOL     OW32719   2.286   2.870   8.580 -0.0073  0.2601 -0.7268
 7086SOL    HW132720   2.343   2.946   8.585 -1.3181  1.2388 -0.6182
 7086SOL    HW232721   2.204   2.917   8.592 -0.5585 -1.0393  0.6831
 7087SOL     OW32722   3.737   1.481   6.092  0.2207  0.6518 -0.4216
 7087SOL    HW132723   3.712   1.500   6.001 -0.6842  0.4664 -0.2120
 7087SOL    HW232724   3.659   1.494   6.147 -0.1589  1.3770 -1.1281
 7088SOL     OW32725   0.117   2.120   8.420 -0.3038 -1.0684 -0.2499
 7088SOL    HW132726   0.035   2.106   8.466 -0.4834  1.0124  0.0670
 7088SOL    HW232727   0.181   2.111   8.491  0.1372 -0.1749 -0.5411
 7089SOL     OW32728   2.021   3.425   4.370 -0.0224 -0.9248 -0.0965
 7089SOL    HW132729   2.040   3.513   4.401  0.5884 -1.2975  0.5739
 7089SOL    HW232730   2.020   3.380   4.455  0.0304  0.1080  0.4557
 7090SOL     OW32731   0.516   0.217   5.490  0.6598  0.0063 -0.3912
 7090SOL    HW132732   0.440   0.267   5.520  1.6673  1.0247  0.4727
 7090SOL    HW232733   0.540   0.168   5.569 -1.7127  1.7602  1.4598
 7091SOL     OW32734   2.836   3.450  13.239  0.2881 -0.3348  0.7162
 7091SOL    HW132735   2.832   3.460  13.334  4.2592 -2.3491  1.0732
 7091SOL    HW232736   2.928   3.477  13.228 -0.3909  0.8430 -1.9598
 7092SOL     OW32737   0.842   3.025   5.832  0.2689  0.1172  0.3231
 7092SOL    HW132738   0.938   3.025   5.840  0.3907 -1.5550 -1.3364
 7092SOL    HW232739   0.831   3.120   5.843 -0.4177  0.5120 -3.9278
 7093SOL     OW32740   2.634   1.174   8.812 -0.6640  0.0938  0.2274
 7093SOL    HW132741   2.581   1.124   8.874  0.4102 -1.8948 -0.4625
 7093SOL    HW232742   2.582   1.167   8.731  1.2109 -0.3752 -0.9237
 7094SOL     OW32743   2.570   4.487   6.793 -0.0750  0.5658  0.2066
 7094SOL    HW132744   2.556   4.507   6.700  3.3506 -0.0783 -0.4487
 7094SOL    HW232745   2.603   4.567   6.832  0.4192  1.1200 -1.3401
 7095SOL     OW32746   3.740   0.242   2.813  0.0125  0.2060  0.2454
 7095SOL    HW132747   3.784   0.209   2.891 -1.0052 -1.3499  0.1618
 7095SOL    HW232748   3.818   0.230   2.758 -1.4969 -0.2426 -1.7856
 7096SOL     OW32749   4.705   2.120   7.974 -0.5977 -0.2420 -0.1823
 7096SOL    HW132750   0.066   2.165   7.971 -0.7793  0.1563  0.6194
 7096SOL    HW232751   4.678   2.111   7.883  0.6594 -1.0867 -0.4837
 7097SOL     OW32752   1.044   0.043   8.930 -0.0085  0.0601  0.7650
 7097SOL    HW132753   1.009   4.717   9.004  1.3667  0.9003  1.9920
 7097SOL    HW232754   1.134   0.047   8.962 -0.2059 -1.4885  1.4997
 7098SOL     OW32755   1.765   0.550   7.360 -0.0518 -0.3519  0.2008
 7098SOL    HW132756   1.789   0.612   7.429  0.3001 -0.9318  0.6115
 7098SOL    HW232757   1.702   0.605   7.314  0.8017 -0.2769 -0.8784
 7099SOL     OW32758   0.438   2.998   2.213  0.1578  0.2800 -0.3248
 7099SOL    HW132759   0.412   3.004   2.121  1.9668  0.6853 -0.7936
 7099SOL    HW232760   0.353   2.982   2.256  0.5093  0.2223  0.3522
 7100SOL     OW32761   3.179   2.352   4.848 -0.1797  0.1671 -0.4863
 7100SOL    HW132762   3.105   2.411   4.832 -1.0157 -0.1912  1.9194
 7100SOL    HW232763   3.237   2.383   4.779  0.6000 -1.4591 -0.5654
 7101SOL     OW32764   2.551   2.561   5.724  0.6712 -0.3191  0.1969
 7101SOL    HW132765   2.591   2.543   5.809  0.4037 -1.2030  0.1393
 7101SOL    HW232766   2.461   2.539   5.747  0.9197  1.0731  2.5097
 7102SOL     OW32767   1.746   0.994   5.482  0.1298 -0.0033 -0.0608
 7102SOL    HW132768   1.736   0.967   5.574 -0.9140  1.9379  0.3847
 7102SOL    HW232769   1.719   0.911   5.442  0.6931  0.5074 -1.4889
 7103SOL     OW32770   3.920   2.306  11.505 -0.6566  0.2748 -0.1557
 7103SOL    HW132771   3.862   2.272  11.437  2.2352 -0.6708 -2.1931
 7103SOL    HW232772   3.884   2.250  11.573  0.3041  0.4134  0.4580
 7104SOL     OW32773   0.731   2.991  14.952  0.0631 -0.4812  0.3346
 7104SOL    HW132774   0.806   3.035  14.911 -1.0318  2.7077  1.7756
 7104SOL    HW232775   0.761   2.969  15.040  0.9057 -2.1419 -0.3665
 7105SOL     OW32776   2.737   2.549   5.498  0.0560  0.6345  0.4012
 7105SOL    HW132777   2.797   2.495   5.549 -0.5991 -1.0644 -0.5951
 7105SOL    HW232778   2.680   2.579   5.569  0.1924 -1.9116  1.5832
 7106SOL     OW32779   0.983   4.502   1.200  0.2861 -0.3129 -0.4656
 7106SOL    HW132780   0.889   4.494   1.189  0.2787 -1.3159  0.2478
 7106SOL    HW232781   1.020   4.550   1.126 -2.5087  2.9332  0.2751
 7107SOL     OW32782   1.725   2.517   8.868 -0.2037 -0.0270  0.2132
 7107SOL    HW132783   1.704   2.593   8.814  0.7378 -0.4216 -0.7104
 7107SOL    HW232784   1.708   2.546   8.957  0.9252 -0.0231  0.4181
 7108SOL     OW32785   1.988   1.269   1.210 -0.2952  0.3582  0.2031
 7108SOL    HW132786   2.013   1.290   1.120 -0.0520  0.4906  0.3007
 7108SOL    HW232787   1.908   1.220   1.192 -1.3581  1.5051  1.7358
 7109SOL     OW32788   3.072   0.355   8.847  0.4549 -0.1186 -0.2675
 7109SOL    HW132789   3.148   0.412   8.855  0.1542  0.1877  0.4961
 7109SOL    HW232790   3.053   0.330   8.938  0.9726 -0.4746 -0.2528
 7110SOL     OW32791   3.194   3.189  17.678  0.1029  0.2708 -0.0848
 7110SOL    HW132792   3.276   3.234   0.003  1.3752 -1.7077 -0.7900
 7110SOL    HW232793   3.157   3.186   0.072 -0.5589  0.7949 -0.3432
 7111SOL     OW32794   2.868   2.925   5.380  0.0449 -1.2322 -0.2425
 7111SOL    HW132795   2.887   2.847   5.328  1.5620  0.8191 -2.7327
 7111SOL    HW232796   2.799   2.898   5.441  1.7176  0.1630  2.2772
 7112SOL     OW32797   3.985   3.112  17.080 -0.0870 -0.6316 -0.1703
 7112SOL    HW132798   3.934   3.068  17.012  1.9547  1.0081 -2.8013
 7112SOL    HW232799   4.072   3.094  17.043  0.3832 -0.1322  0.6851
 7113SOL     OW32800   4.308   1.297  16.551 -0.1379  0.2816  1.0328
 7113SOL    HW132801   4.226   1.291  16.601 -0.1386 -1.1531  0.8614
 7113SOL    HW232802   4.348   1.211  16.563  0.2775  0.5397  1.4718
 7114SOL     OW32803   1.883   0.332   9.758  0.4903 -0.2405  0.1407
 7114SOL    HW132804   1.926   0.398   9.814  3.8696  0.6106 -3.4708
 7114SOL    HW232805   1.914   0.253   9.803  1.7023  0.2750  0.1955
 7115SOL     OW32806   3.040   1.229  17.418 -0.1299  0.2232 -0.2879
 7115SOL    HW132807   3.123   1.205  17.377 -0.6696 -3.6209  0.8276
 7115SOL    HW232808   3.071   1.212  17.507  1.2438 -1.2963 -1.0551
 7116SOL     OW32809   4.587   3.941   3.378  0.8246 -0.2708 -0.0162
 7116SOL    HW132810   4.614   3.868   3.323 -1.8596 -1.7929  0.7167
 7116SOL    HW232811   4.494   3.928   3.396  0.7092 -0.8442 -1.0775
 7117SOL     OW32812   3.114   1.761   3.324 -0.3322  0.4408  0.5621
 7117SOL    HW132813   3.079   1.765   3.413  0.9796 -0.3360  1.1143
 7117SOL    HW232814   3.086   1.848   3.294  1.4348  0.6810 -0.3961
 7118SOL     OW32815   3.375   1.083   2.400  0.0881 -0.1083  0.3294
 7118SOL    HW132816   3.305   1.077   2.464  0.3672  0.4477  0.6908
 7118SOL    HW232817   3.350   1.006   2.349 -1.5445  1.5758 -1.3970
 7119SOL     OW32818   1.331   1.754   4.437 -0.3431  0.5433 -0.2623
 7119SOL    HW132819   1.329   1.850   4.442 -0.5941  0.5892 -1.1334
 7119SOL    HW232820   1.240   1.724   4.440  0.0269 -0.3678  1.4667
 7120SOL     OW32821   0.088   3.024   1.483 -0.3157 -0.5700  0.2519
 7120SOL    HW132822   0.089   2.935   1.520 -2.4996 -1.4081 -1.6722
 7120SOL    HW232823   0.181   3.020   1.463 -0.5997  0.1340 -1.1797
 7121SOL     OW32824   3.737   1.868  13.193 -0.2635 -0.6613 -0.2661
 7121SOL    HW132825   3.743   1.781  13.153  1.6278 -1.6877  2.2768
 7121SOL    HW232826   3.648   1.875  13.226  0.1488 -2.5187  1.2256
 7122SOL     OW32827   2.276   4.042   5.855 -0.0894 -0.4174  0.1966
 7122SOL    HW132828   2.219   4.116   5.836  1.8802  0.9089 -0.5054
 7122SOL    HW232829   2.278   4.058   5.950  0.4372  3.2512 -0.4517
 7123SOL     OW32830   2.333   0.554   9.875  0.5194 -0.6260  0.1191
 7123SOL    HW132831   2.293   0.493   9.937 -1.1573 -1.4503 -1.7524
 7123SOL    HW232832   2.414   0.503   9.861 -0.1101 -1.1136 -1.7798
 7124SOL     OW32833   3.060   0.936   3.767  0.3451  0.0387 -0.6270
 7124SOL    HW132834   3.038   0.900   3.681 -3.6021  0.8363  0.0357
 7124SOL    HW232835   3.072   0.851   3.810 -1.0237  0.3070  0.2934
 7125SOL     OW32836   1.298   0.297  15.802  0.3604 -0.8063 -0.0883
 7125SOL    HW132837   1.292   0.240  15.878  0.5119  0.2989  0.7655
 7125SOL    HW232838   1.362   0.363  15.830 -0.3369  0.2170 -0.9022
 7126SOL     OW32839   1.952   3.734   5.260  0.1984  0.4412  0.5825
 7126SOL    HW132840   1.969   3.640   5.250  1.7341  0.6649  1.1446
 7126SOL    HW232841   1.932   3.756   5.168 -0.5424  0.4400  0.7421
 7127SOL     OW32842   4.485   4.695  10.016 -1.1612  0.3545  0.7862
 7127SOL    HW132843   4.542   4.618  10.017  0.0319  1.2132  0.3103
 7127SOL    HW232844   4.480   4.711   9.921  1.9519  0.5590  0.6470
 7128SOL     OW32845   2.101   2.819   2.837 -0.0428 -0.2452  0.4574
 7128SOL    HW132846   2.023   2.775   2.871  0.5078 -0.9526  0.8098
 7128SOL    HW232847   2.161   2.809   2.911 -0.3364 -1.4186  0.5387
 7129SOL     OW32848   4.325   1.109   4.129  0.2287 -0.3251 -0.6923
 7129SOL    HW132849   4.356   1.188   4.085  0.7145 -1.5992 -2.6433
 7129SOL    HW232850   4.348   1.049   4.058  0.0035  0.3728 -1.3594
 7130SOL     OW32851   1.601   3.695  10.256 -0.0960 -0.2771 -0.4478
 7130SOL    HW132852   1.578   3.641  10.181  3.3449 -0.1907 -1.5650
 7130SOL    HW232853   1.691   3.675  10.282  0.1233  0.3209 -0.7623
 7131SOL     OW32854   2.487   1.018   4.889  0.2879  0.4310 -0.0258
 7131SOL    HW132855   2.515   1.101   4.850  0.8835 -0.4132 -1.4147
 7131SOL    HW232856   2.430   1.054   4.956  1.5380 -1.1015  1.8743
 7132SOL     OW32857   1.659   0.495   5.392 -0.0478 -0.3027  0.7278
 7132SOL    HW132858   1.696   0.427   5.337  0.5988 -0.9747  1.9995
 7132SOL    HW232859   1.600   0.451   5.453  0.0137 -0.4127  0.7078
 7133SOL     OW32860   2.469   0.978   6.334  0.7930  0.3581  0.0536
 7133SOL    HW132861   2.533   0.916   6.368 -0.9334 -1.9601 -0.9345
 7133SOL    HW232862   2.505   1.063   6.361 -0.5374  1.0966 -0.4669
 7134SOL     OW32863   2.965   0.036   3.285 -0.1978 -0.0433  0.1019
 7134SOL    HW132864   2.966   4.670   3.250  0.2134 -0.4133  1.0529
 7134SOL    HW232865   2.956   0.024   3.379 -2.0686 -1.9953 -0.3388
 7135SOL     OW32866   0.366   2.836   7.828 -0.0797  0.5150 -0.0195
 7135SOL    HW132867   0.353   2.818   7.921 -1.7091 -2.7259 -0.8768
 7135SOL    HW232868   0.427   2.910   7.827  1.0002 -0.3980 -1.4055
 7136SOL     OW32869   0.223   0.953   1.265 -0.1503  0.6855 -0.0314
 7136SOL    HW132870   0.279   0.919   1.335  0.4791 -0.3660 -1.0398
 7136SOL    HW232871   0.244   0.907   1.183 -0.0120 -0.3709  0.6046
 7137SOL     OW32872   1.218   0.741   2.360  0.3948  0.1357 -0.0722
 7137SOL    HW132873   1.240   0.758   2.451  2.1676  0.6131 -0.5952
 7137SOL    HW232874   1.261   0.818   2.321 -1.1697  0.9517 -0.1788
 7138SOL     OW32875   0.547   2.122  15.765  0.1416 -0.5513  0.7418
 7138SOL    HW132876   0.542   2.189  15.696 -0.7072 -1.3104  0.0779
 7138SOL    HW232877   0.472   2.151  15.817  0.0628 -0.6927  0.7048
 7139SOL     OW32878   1.337   3.575   4.274  0.3983  0.2163  0.3708
 7139SOL    HW132879   1.420   3.602   4.314 -0.2038 -4.5024  4.7953
 7139SOL    HW232880   1.341   3.645   4.209 -1.3154  1.1847  1.3052
 7140SOL     OW32881   4.287   2.603  14.814 -0.4679 -0.3241  0.3846
 7140SOL    HW132882   4.325   2.624  14.729 -1.7946  2.2243  0.4061
 7140SOL    HW232883   4.226   2.533  14.792  1.0239 -0.6570 -2.7200
 7141SOL     OW32884   3.166   4.483   5.691  0.2334  0.0287  0.5412
 7141SOL    HW132885   3.188   4.576   5.687 -1.2049  0.2705 -1.5906
 7141SOL    HW232886   3.080   4.495   5.731  0.3519 -0.3048  0.8877
 7142SOL     OW32887   0.225   0.969   6.650  0.8985 -0.1323 -0.1431
 7142SOL    HW132888   0.229   1.013   6.565  0.0660 -0.2688 -0.2531
 7142SOL    HW232889   0.287   1.024   6.697 -0.6558  0.0339  1.6803
 7143SOL     OW32890   4.086   0.866   1.411  0.2197 -0.3573 -0.3790
 7143SOL    HW132891   4.035   0.932   1.365  1.0200 -0.1157 -0.9236
 7143SOL    HW232892   4.076   0.802   1.340 -2.1590 -0.1754 -0.1841
 7144SOL     OW32893   1.332   4.588   4.006 -0.0869 -0.6649 -0.0885
 7144SOL    HW132894   1.351   4.660   4.065 -0.0180  1.0508 -2.2302
 7144SOL    HW232895   1.286   4.525   4.062 -0.5238 -1.4205 -1.2872
 7145SOL     OW32896   2.922   3.382   5.508 -0.4775 -0.8041  0.8387
 7145SOL    HW132897   2.927   3.392   5.413  1.6741  0.9839  1.1611
 7145SOL    HW232898   2.885   3.463   5.543 -0.2357  0.1182 -1.0956
 7146SOL     OW32899   0.508   2.946   6.973 -0.0011 -0.1174 -0.0006
 7146SOL    HW132900   0.506   2.889   6.896  0.9067  0.9447 -0.7999
 7146SOL    HW232901   0.499   2.876   7.038 -1.8659  0.8166  0.7312
 7147SOL     OW32902   3.281   2.122   7.405 -0.2488 -0.4059 -0.0473
 7147SOL    HW132903   3.329   2.192   7.448  0.9862 -2.5082  2.0195
 7147SOL    HW232904   3.339   2.114   7.330  0.2380 -0.4956  0.3420
 7148SOL     OW32905   3.835   0.656  14.531 -0.1161  0.2034  0.0107
 7148SOL    HW132906   3.845   0.607  14.613  2.2029  2.9500  1.3797
 7148SOL    HW232907   3.828   0.582  14.470  1.0322  0.3179 -0.2648
 7149SOL     OW32908   2.313   3.263   6.645 -0.3196 -0.1932 -0.3110
 7149SOL    HW132909   2.349   3.177   6.623 -1.1223 -0.5970 -0.0247
 7149SOL    HW232910   2.384   3.326   6.657  0.3068 -1.1811  1.1653
 7150SOL     OW32911   1.595   1.643   3.197  0.3843 -0.2825 -0.1613
 7150SOL    HW132912   1.648   1.585   3.142  1.6098  1.2902 -0.6222
 7150SOL    HW232913   1.636   1.726   3.174 -1.5788  0.9029  0.6216
 7151SOL     OW32914   3.789   2.313   2.879 -0.0035  0.6085 -0.2879
 7151SOL    HW132915   3.869   2.282   2.921 -0.0820  0.5038 -0.2167
 7151SOL    HW232916   3.783   2.250   2.807  0.5940 -0.1153  0.2941
 7152SOL     OW32917   3.298   4.318   7.732  0.5572 -0.3779 -0.0805
 7152SOL    HW132918   3.272   4.411   7.733  2.5702  0.1722  1.7174
 7152SOL    HW232919   3.315   4.313   7.638  1.1378  1.4615 -0.0829
 7153SOL     OW32920   4.054   1.327   3.063 -0.3327  0.4060 -0.5538
 7153SOL    HW132921   3.959   1.319   3.051 -0.4745 -0.6360  1.2769
 7153SOL    HW232922   4.076   1.234   3.068 -0.6538  0.1843 -3.4744
 7154SOL     OW32923   3.438   0.420   4.578  0.0724 -0.6913 -0.0305
 7154SOL    HW132924   3.372   0.441   4.644  0.4792  3.9036 -1.1256
 7154SOL    HW232925   3.383   0.357   4.530  0.7343 -0.2556 -1.3651
 7155SOL     OW32926   0.279   0.813   1.058 -0.0052  0.9712 -0.8153
 7155SOL    HW132927   0.210   0.769   1.008  0.5284 -0.6356 -0.1503
 7155SOL    HW232928   0.337   0.745   1.093 -1.3930 -0.0115 -0.4180
 7156SOL     OW32929   4.111   1.519   3.250 -0.1228  0.1767 -0.5581
 7156SOL    HW132930   4.087   1.439   3.203  0.8677 -0.4481 -0.0002
 7156SOL    HW232931   4.062   1.509   3.331  0.5318 -1.8544 -0.4070
 7157SOL     OW32932   0.886   2.187  16.795 -0.3312  0.4057 -0.0410
 7157SOL    HW132933   0.812   2.231  16.837  0.0377  1.0286 -0.0458
 7157SOL    HW232934   0.834   2.108  16.781 -0.2583  0.2315  0.7048
 7158SOL     OW32935   4.603   1.109   2.314 -0.6818  0.3009 -0.4098
 7158SOL    HW132936   4.581   1.200   2.294  1.5705  0.7022 -1.0636
 7158SOL    HW232937   4.686   1.105   2.267 -1.8700 -0.8142 -2.4658
 7159SOL     OW32938   0.585   3.110   0.302  0.1559 -0.5168 -0.0856
 7159SOL    HW132939   0.545   3.197   0.302  1.0497 -0.0897 -0.7886
 7159SOL    HW232940   0.658   3.147   0.352 -0.0288 -1.1101  0.6183
 7160SOL     OW32941   4.104   4.365  16.572 -0.4315 -0.3333  0.0884
 7160SOL    HW132942   4.084   4.272  16.583 -2.5658  0.0581 -0.5838
 7160SOL    HW232943   4.079   4.378  16.481  1.1105 -0.1792 -0.3238
 7161SOL     OW32944   0.817   2.440   3.688 -0.2006 -0.3946  0.3171
 7161SOL    HW132945   0.775   2.362   3.724 -1.9415  0.9204  1.1039
 7161SOL    HW232946   0.744   2.470   3.634  0.1253  0.1954  0.2046
 7162SOL     OW32947   1.668   1.869   3.071  0.4248  0.0592 -0.3090
 7162SOL    HW132948   1.764   1.862   3.065  0.2282 -2.0228 -0.7884
 7162SOL    HW232949   1.647   1.845   2.981 -0.2966  0.1816 -0.1713
 7163SOL     OW32950   1.742   1.696   6.584 -0.1840  1.2291 -0.3579
 7163SOL    HW132951   1.669   1.757   6.570  0.2683  1.4585 -1.7110
 7163SOL    HW232952   1.823   1.747   6.585  0.2174  0.6100 -1.9796
 7164SOL     OW32953   2.520   3.690   8.631  0.2393  0.0283  0.0318
 7164SOL    HW132954   2.574   3.612   8.628  3.6929  2.3569  1.6692
 7164SOL    HW232955   2.462   3.680   8.707  0.3780 -0.5341  0.0576
 7165SOL     OW32956   2.593   0.377  11.157 -0.3508  0.9499  0.5852
 7165SOL    HW132957   2.544   0.298  11.180  1.2274 -0.3429 -0.4509
 7165SOL    HW232958   2.675   0.329  11.144 -0.2336  0.9784  1.2109
 7166SOL     OW32959   1.877   4.021   2.902  0.1940 -0.1807 -0.1426
 7166SOL    HW132960   1.825   3.942   2.884  1.3061 -1.3173  1.5906
 7166SOL    HW232961   1.926   4.034   2.822 -0.5406 -2.8977 -1.0343
 7167SOL     OW32962   0.641   0.329   7.916  0.3005  0.3602 -0.2660
 7167SOL    HW132963   0.636   0.384   7.995  0.8393 -0.9206  0.6505
 7167SOL    HW232964   0.728   0.362   7.892  0.1913  0.7370 -0.1485
 7168SOL     OW32965   3.138   0.887   4.099  0.0528  0.2214  0.2000
 7168SOL    HW132966   3.158   0.935   4.179 -0.9415 -0.8745  1.0981
 7168SOL    HW232967   3.162   0.952   4.033  1.3882 -1.7146 -1.2434
 7169SOL     OW32968   4.146   4.710   6.275 -0.2589  0.2267 -0.5537
 7169SOL    HW132969   4.057   4.682   6.253 -0.8324  0.5442  1.3330
 7169SOL    HW232970   4.124   0.046   6.347  2.0612 -0.7709  0.9718
 7170SOL     OW32971   2.127   4.320   6.715 -0.0831  0.2730  0.2564
 7170SOL    HW132972   2.175   4.374   6.652 -1.2897  1.0262 -0.0204
 7170SOL    HW232973   2.171   4.344   6.797 -0.8785 -1.1080  1.0883
 7171SOL     OW32974   2.688   3.912   2.660  0.4116  0.3401 -0.2896
 7171SOL    HW132975   2.683   3.835   2.717 -0.9741 -0.1771 -1.0969
 7171SOL    HW232976   2.730   3.860   2.591 -1.4765  0.4811 -1.5598
 7172SOL     OW32977   3.116   0.991   8.142  0.3200 -0.1658  0.5776
 7172SOL    HW132978   3.185   1.057   8.142  1.1171 -0.9914 -0.5755
 7172SOL    HW232979   3.148   0.918   8.088  3.7384  0.7305  1.4082
 7173SOL     OW32980   2.382   1.196   8.228 -0.3289  0.1830  0.0960
 7173SOL    HW132981   2.385   1.277   8.177 -3.6435  1.6440  2.2253
 7173SOL    HW232982   2.437   1.141   8.172  1.8961  1.3119  1.1644
 7174SOL     OW32983   0.037   2.126   6.847 -0.1664  0.3996 -0.3691
 7174SOL    HW132984   4.671   2.117   6.814  0.2130 -1.8911 -0.8039
 7174SOL    HW232985   0.082   2.173   6.777  0.0456 -2.4501 -2.1443
 7175SOL     OW32986   2.698   3.474   7.743  0.5025 -0.2965 -0.2513
 7175SOL    HW132987   2.681   3.513   7.828  0.8948  0.8079 -0.6789
 7175SOL    HW232988   2.763   3.540   7.719 -0.0056  0.3493  0.1817
 7176SOL     OW32989   3.100   3.866   1.756 -0.1856  0.0789  0.2897
 7176SOL    HW132990   3.191   3.879   1.783  0.5582 -2.5976 -0.9271
 7176SOL    HW232991   3.114   3.853   1.662 -0.8523 -0.6262  0.2808
 7177SOL     OW32992   1.587   3.903  16.039  0.3030  0.0244 -0.4263
 7177SOL    HW132993   1.615   3.992  16.016  0.8621 -0.0096  0.1188
 7177SOL    HW232994   1.601   3.857  15.956 -0.7427 -1.3445  0.1646
 7178SOL     OW32995   0.279   2.374  16.257 -0.3292  0.1625  0.0244
 7178SOL    HW132996   0.255   2.355  16.166 -2.9520 -2.0408  1.1696
 7178SOL    HW232997   0.373   2.358  16.243 -0.2429  0.2144  0.5685
 7179SOL     OW32998   3.683   2.212   7.593  0.2690  0.2076 -0.2899
 7179SOL    HW132999   3.668   2.249   7.680  2.9744 -0.8145  0.5895
 7179SOL    HW233000   3.771   2.249   7.590  0.1618  0.4928  0.1911
 7180SOL     OW33001   4.086   2.344   2.722 -0.1119  0.1993 -0.5674
 7180SOL    HW133002   4.010   2.300   2.682 -0.2209  1.9250 -2.2761
 7180SOL    HW233003   4.152   2.316   2.659  0.9077 -2.1033  1.5145
 7181SOL     OW33004   0.771   1.182   0.872 -0.4015  0.2475  0.1407
 7181SOL    HW133005   0.731   1.243   0.933  1.5662  0.2735  1.3970
 7181SOL    HW233006   0.857   1.176   0.915 -0.1813 -0.1826 -0.3520
 7182SOL     OW33007   3.924   2.006  11.377  0.6092 -0.1774 -0.4883
 7182SOL    HW133008   4.002   2.000  11.322  0.0764 -3.0524 -0.9373
 7182SOL    HW233009   3.954   2.043  11.460  0.7405 -1.2442 -0.0641
 7183SOL     OW33010   0.874   3.053   9.374  0.3230 -0.2108 -0.3804
 7183SOL    HW133011   0.944   3.053   9.308  1.1879  2.8086  0.5152
 7183SOL    HW233012   0.854   2.961   9.389  2.0054 -0.2988  1.4151
 7184SOL     OW33013   4.454   3.021   5.425  0.8330 -0.2557  0.7190
 7184SOL    HW133014   4.506   2.946   5.397  0.0538 -0.9640  1.1812
 7184SOL    HW233015   4.453   3.007   5.519 -1.4402  0.5479  0.8321
 7185SOL     OW33016   3.661   1.453   4.737  0.0558  0.6702  0.2682
 7185SOL    HW133017   3.573   1.444   4.700 -0.2848 -0.3609  1.3349
 7185SOL    HW233018   3.700   1.366   4.735 -0.5048  0.4408 -0.6864
 7186SOL     OW33019   2.659   3.794  10.603 -0.0682  0.2128 -0.1624
 7186SOL    HW133020   2.632   3.723  10.545  3.1397  0.2283 -1.6576
 7186SOL    HW233021   2.622   3.754  10.682  0.8316 -0.2591  0.0208
 7187SOL     OW33022   3.808   4.044   6.683  0.5434  0.1472 -0.2855
 7187SOL    HW133023   3.855   4.116   6.640  1.0863 -0.3222 -0.4747
 7187SOL    HW233024   3.820   4.074   6.773  1.9135  1.0584 -0.7698
 7188SOL     OW33025   2.818   4.132  17.188  0.2588 -0.2224 -0.0256
 7188SOL    HW133026   2.757   4.152  17.259 -0.0526 -1.0809 -0.0510
 7188SOL    HW233027   2.759   4.100  17.120 -0.8788 -1.1438  1.3974
 7189SOL     OW33028   0.739   2.387   7.121  0.6182 -0.3558 -0.4460
 7189SOL    HW133029   0.770   2.297   7.119 -1.0228 -0.9482  0.1619
 7189SOL    HW233030   0.707   2.393   7.211 -1.0676 -3.3903 -0.8331
 7190SOL     OW33031   1.214   2.574   4.586  0.1675  0.3372  0.4084
 7190SOL    HW133032   1.267   2.621   4.651 -0.2499 -0.0949  1.0712
 7190SOL    HW233033   1.145   2.529   4.636  1.5125 -0.1560  1.8057
 7191SOL     OW33034   0.377   4.519  10.762 -0.3772 -0.4336 -0.2236
 7191SOL    HW133035   0.354   4.542  10.852 -0.2851 -2.0396  0.2158
 7191SOL    HW233036   0.302   4.462  10.748 -0.5653 -0.0471 -0.7652
 7192SOL     OW33037   0.101   1.834   6.530 -0.3824 -0.1116 -0.7873
 7192SOL    HW133038   0.168   1.768   6.513  1.1962  1.0399  0.8355
 7192SOL    HW233039   0.120   1.845   6.624  0.3212 -0.2412 -0.9154
 7193SOL     OW33040   4.059   0.743   7.180  0.6688  0.2998  0.3822
 7193SOL    HW133041   4.086   0.770   7.267  1.5569  1.4862 -0.2510
 7193SOL    HW233042   4.140   0.745   7.129  0.6076  0.2400  0.2819
 7194SOL     OW33043   4.374   1.079   9.175  0.1102 -0.1820  0.1086
 7194SOL    HW133044   4.387   1.107   9.266 -1.2505 -0.1157  0.2872
 7194SOL    HW233045   4.426   1.142   9.127 -0.3587 -0.1442 -0.3450
 7195SOL     OW33046   0.413   2.140   0.350 -0.2691  0.2790 -0.0105
 7195SOL    HW133047   0.381   2.057   0.383  1.3527  0.0797  1.0626
 7195SOL    HW233048   0.418   2.187   0.433  0.4728 -0.8061  0.5546
 7196SOL     OW33049   2.693   1.135   7.093  0.1066 -0.1879 -0.4495
 7196SOL    HW133050   2.606   1.147   7.056 -0.2987 -0.5511  0.3812
 7196SOL    HW233051   2.688   1.160   7.186  1.7536 -2.1919  0.1919
 7197SOL     OW33052   3.329   3.028   1.610 -0.3531 -0.0504 -0.0899
 7197SOL    HW133053   3.339   3.119   1.582 -1.5576  0.2266  0.4130
 7197SOL    HW233054   3.234   3.021   1.616 -0.4569  0.7384 -1.0113
 7198SOL     OW33055   1.922   1.805   9.748  0.0367  0.1774 -0.1734
 7198SOL    HW133056   2.015   1.807   9.725 -0.3649 -1.5518 -2.0211
 7198SOL    HW233057   1.935   1.844   9.834 -1.1406  0.4935 -0.1386
 7199SOL     OW33058   0.192   0.644   5.983  0.2779  0.4222 -0.4336
 7199SOL    HW133059   0.119   0.662   5.924  0.1197 -0.8103 -0.6266
 7199SOL    HW233060   0.154   0.592   6.054 -1.3995 -0.1791 -1.7643
 7200SOL     OW33061   2.054   3.524   8.083 -0.2244  0.1218 -0.3724
 7200SOL    HW133062   1.988   3.558   8.022 -1.3126 -0.0069  0.7228
 7200SOL    HW233063   2.104   3.475   8.018  0.1994 -1.9674  1.5212
 7201SOL     OW33064   3.120   0.715   8.304 -0.6580  0.3587 -0.1851
 7201SOL    HW133065   3.182   0.787   8.316  1.4634 -1.5419  0.3227
 7201SOL    HW233066   3.053   0.759   8.356  1.1262  1.7072  0.9696
 7202SOL     OW33067   4.680   3.383  13.719  0.3713  0.1174  0.1339
 7202SOL    HW133068   4.719   3.300  13.690 -1.0938 -0.8414  0.9163
 7202SOL    HW233069   4.598   3.338  13.739  1.1786 -1.8862 -1.0792
 7203SOL     OW33070   0.203   3.063   8.111 -0.0620  0.6262 -0.1260
 7203SOL    HW133071   0.184   2.984   8.160  0.5170  0.6726  0.1732
 7203SOL    HW233072   0.243   3.122   8.174 -0.5705 -0.0220  0.7906
 7204SOL     OW33073   4.182   0.210   1.776  0.0225  0.0644 -0.0532
 7204SOL    HW133074   4.107   0.242   1.727  0.5396 -0.4956 -1.2233
 7204SOL    HW233075   4.139   0.158   1.844 -1.6270  0.1198 -1.0608
 7205SOL     OW33076   1.627   0.774   8.454 -0.3994 -0.0296 -0.1102
 7205SOL    HW133077   1.709   0.818   8.475 -1.3176  1.4442  0.4177
 7205SOL    HW233078   1.566   0.777   8.528 -0.8182 -0.2328 -0.4497
 7206SOL     OW33079   4.060   4.439   6.930  0.2559  0.2501  0.1813
 7206SOL    HW133080   4.144   4.484   6.938  1.9960 -2.8155 -1.0669
 7206SOL    HW233081   4.057   4.395   7.015  2.5608  1.0113  0.6552
 7207SOL     OW33082   1.118   1.849   0.713  0.0123 -0.2217  0.6538
 7207SOL    HW133083   1.213   1.862   0.711  0.0439 -0.8250 -1.4763
 7207SOL    HW233084   1.123   1.786   0.786  2.3715  0.4088  1.0413
 7208SOL     OW33085   1.779   3.013   2.210  0.1575  0.2858 -0.3846
 7208SOL    HW133086   1.709   2.988   2.150  2.1534  0.7972 -2.9177
 7208SOL    HW233087   1.856   2.980   2.163  1.4735  0.2418  1.7732
 7209SOL     OW33088   3.126   3.015   5.428 -0.6537 -0.1100 -0.3547
 7209SOL    HW133089   3.037   2.982   5.416 -0.2748 -2.4731  3.1094
 7209SOL    HW233090   3.142   3.039   5.337  0.8361 -0.8739 -0.3047
 7210SOL     OW33091   0.643   3.789   6.193  0.2288  0.1592 -0.7097
 7210SOL    HW133092   0.616   3.701   6.166  2.6653 -1.2934  1.6606
 7210SOL    HW233093   0.738   3.780   6.199  0.4533  0.3337 -3.8779
 7211SOL     OW33094   1.423   0.203   1.920 -0.4443  0.4238 -0.1538
 7211SOL    HW133095   1.500   0.147   1.913 -0.8701 -0.0436 -1.1414
 7211SOL    HW233096   1.384   0.167   1.999 -1.9706 -1.6347 -1.8502
 7212SOL     OW33097   0.592   2.300   5.275  0.1136  0.3844 -0.0130
 7212SOL    HW133098   0.517   2.249   5.307  0.3651  0.1936  0.2673
 7212SOL    HW233099   0.572   2.299   5.181  0.3276 -1.5770 -0.0503
 7213SOL     OW33100   2.467   2.270   6.734 -0.3414 -0.0266  0.1213
 7213SOL    HW133101   2.493   2.225   6.815  2.3008  1.9559  0.3916
 7213SOL    HW233102   2.511   2.353   6.755  0.0387 -0.4140  0.8512
 7214SOL     OW33103   3.522   1.885   8.426 -0.4447  0.5224 -0.1509
 7214SOL    HW133104   3.542   1.979   8.424  0.4345  0.3314 -0.6935
 7214SOL    HW233105   3.481   1.877   8.512 -1.0081  3.3086 -0.1701
 7215SOL     OW33106   3.721   0.773   2.142  0.0695 -0.2664  0.4189
 7215SOL    HW133107   3.710   0.803   2.051  1.7430 -2.0956 -0.4087
 7215SOL    HW233108   3.730   0.858   2.184 -0.9190  0.2415 -0.3891
 7216SOL     OW33109   2.698   4.677   5.715 -0.2790  0.2046  0.5873
 7216SOL    HW133110   2.649   0.030   5.745  1.8182  1.5111  0.7194
 7216SOL    HW233111   2.662   4.611   5.773  0.9446 -0.2685  0.8216
 7217SOL     OW33112   3.071   1.637  12.060  0.6739  0.1269 -0.8231
 7217SOL    HW133113   3.031   1.564  12.013 -0.3296 -0.9305  1.6746
 7217SOL    HW233114   3.162   1.631  12.031  1.6564  0.8430  2.1038
 7218SOL     OW33115   2.650   1.327   1.718 -0.1433 -0.0736  0.0607
 7218SOL    HW133116   2.631   1.290   1.804  1.2077 -0.3754  0.2364
 7218SOL    HW233117   2.591   1.273   1.666 -0.6341  0.3081  0.2152
 7219SOL     OW33118   2.809   1.085   3.242 -0.0258  0.3522  0.0315
 7219SOL    HW133119   2.818   1.131   3.326  3.8048 -1.5812  0.6509
 7219SOL    HW233120   2.818   0.990   3.252 -1.1761  0.0105 -2.0570
 7220SOL     OW33121   1.098   3.417   3.237 -0.4776  0.4432 -0.8798
 7220SOL    HW133122   1.048   3.356   3.184 -0.9855 -1.9687  2.3512
 7220SOL    HW233123   1.183   3.418   3.194  0.2080 -0.9616  0.4385
 7221SOL     OW33124   1.481   1.880   2.714 -0.1953  0.0783 -0.1610
 7221SOL    HW133125   1.521   1.803   2.755 -0.3845 -1.7838 -3.5292
 7221SOL    HW233126   1.514   1.951   2.769 -3.3900  2.1913 -0.9894
 7222SOL     OW33127   2.595   2.237   5.389  0.0790 -0.6538  0.1866
 7222SOL    HW133128   2.518   2.291   5.368  0.1533 -1.0477 -1.0618
 7222SOL    HW233129   2.583   2.241   5.484  0.6360 -0.1979  0.2379
 7223SOL     OW33130   1.586   0.348  14.525  0.4420 -0.4798  0.4641
 7223SOL    HW133131   1.642   0.425  14.536 -0.0895 -0.0038 -0.1134
 7223SOL    HW233132   1.593   0.333  14.430  0.5917 -0.3165  0.4495
 7224SOL     OW33133   1.208   3.545   9.478  0.6150 -0.1626  0.0997
 7224SOL    HW133134   1.219   3.556   9.383  0.0817  1.2050  0.1935
 7224SOL    HW233135   1.227   3.626   9.525 -1.2944  0.4236 -0.1628
 7225SOL     OW33136   4.699   4.389   2.109 -0.4262  0.2297 -0.5799
 7225SOL    HW133137   4.640   4.345   2.048  0.3731 -0.8824 -0.5528
 7225SOL    HW233138   4.702   4.474   2.066  0.7928  0.8874  0.7841
 7226SOL     OW33139   1.168   3.579   5.373 -0.1754  0.6126  0.1198
 7226SOL    HW133140   1.132   3.625   5.298 -0.0659  0.5503  0.0299
 7226SOL    HW233141   1.255   3.619   5.374 -0.7515  1.8557  0.8679
 7227SOL     OW33142   3.331   0.246  10.346 -0.6390  0.8382 -0.2643
 7227SOL    HW133143   3.424   0.224  10.355 -1.2845 -2.1687 -0.9016
 7227SOL    HW233144   3.320   0.194  10.266  1.2282  0.2024 -0.1159
 7228SOL     OW33145   4.209   2.361   8.049 -0.9043  0.0839  0.0924
 7228SOL    HW133146   4.226   2.409   7.968  0.5867  1.5913  1.2999
 7228SOL    HW233147   4.297   2.358   8.086 -0.8541 -2.1414 -0.2061
 7229SOL     OW33148   3.147   0.738   9.658 -0.0287  0.4094 -0.1995
 7229SOL    HW133149   3.230   0.691   9.652 -1.0415 -1.7405  2.5335
 7229SOL    HW233150   3.169   0.825   9.693 -0.2432  0.1502  0.5782
 7230SOL     OW33151   0.420   1.352  12.510  0.5193  0.1858  0.2875
 7230SOL    HW133152   0.483   1.281  12.511 -0.7578 -0.9557 -0.8371
 7230SOL    HW233153   0.337   1.315  12.542 -0.0077 -1.3308 -2.8158
 7231SOL     OW33154   0.159   0.854  13.177 -0.0242  0.3010  0.4527
 7231SOL    HW133155   0.201   0.780  13.221  1.0747  0.1800 -0.8371
 7231SOL    HW233156   0.080   0.811  13.142 -0.2846  2.6824 -1.8474
 7232SOL     OW33157   2.840   0.390   6.575  0.3909  0.4391  0.3921
 7232SOL    HW133158   2.872   0.441   6.501 -2.4308 -0.5011 -1.4780
 7232SOL    HW233159   2.906   0.324   6.594  0.7021  0.6445  0.0177
 7233SOL     OW33160   4.195   3.159   4.743 -0.1960  0.2755 -0.2283
 7233SOL    HW133161   4.190   3.088   4.679  0.3167  0.0247  0.0096
 7233SOL    HW233162   4.280   3.203   4.733 -0.3910  0.2838 -1.8739
 7234SOL     OW33163   1.769   0.572   1.782  0.1955  0.1070  0.1847
 7234SOL    HW133164   1.675   0.567   1.762 -0.2135  2.7635  1.4817
 7234SOL    HW233165   1.800   0.523   1.706 -0.3811  0.8233 -0.5123
 7235SOL     OW33166   4.047   3.855   1.853 -0.2294  0.3583  0.2575
 7235SOL    HW133167   4.104   3.900   1.916  1.7663 -0.0932 -1.2079
 7235SOL    HW233168   4.079   3.885   1.767  1.5800 -1.0172  0.4577
 7236SOL     OW33169   1.455   3.703   1.353 -0.4097 -0.2267 -0.7646
 7236SOL    HW133170   1.380   3.762   1.348  1.0198  1.6912  0.3264
 7236SOL    HW233171   1.426   3.657   1.432  0.4404 -0.2153 -0.4492
 7237SOL     OW33172   0.170   3.322   1.233  0.5673  0.1295  0.0174
 7237SOL    HW133173   0.080   3.290   1.226  1.3775 -2.0671 -0.5056
 7237SOL    HW233174   0.178   3.371   1.152 -0.4744 -1.5259 -1.0799
 7238SOL     OW33175   4.138   0.272   0.096 -0.3568 -0.3954 -0.0973
 7238SOL    HW133176   4.074   0.258   0.026 -0.0815  1.0922 -0.6357
 7238SOL    HW233177   4.091   0.342   0.140  1.5238  1.4352 -1.0193
 7239SOL     OW33178   3.317   2.858   4.811  0.4872 -0.2111 -0.0003
 7239SOL    HW133179   3.382   2.928   4.816  0.0871  0.2071 -0.6230
 7239SOL    HW233180   3.269   2.882   4.890  0.5848  0.3440 -0.1073
 7240SOL     OW33181   1.740   4.271   9.984  0.3066 -0.3291 -0.5967
 7240SOL    HW133182   1.737   4.256  10.079 -1.9743 -0.9653 -0.7683
 7240SOL    HW233183   1.696   4.356   9.980 -1.0302 -1.0558 -1.3171
 7241SOL     OW33184   4.446   2.109  16.661 -0.1757  0.0722 -0.3009
 7241SOL    HW133185   4.509   2.151  16.602 -0.0853  1.1140  0.5247
 7241SOL    HW233186   4.383   2.070  16.602  0.0181 -0.1959 -0.3327
 7242SOL     OW33187   1.911   4.190   8.061 -0.0954 -0.7493  0.1258
 7242SOL    HW133188   1.934   4.132   8.134  0.9169 -0.0691  0.3443
 7242SOL    HW233189   1.820   4.167   8.041 -0.3361  0.1209  0.2009
 7243SOL     OW33190   0.680   3.914   8.121 -0.3607  0.3775 -0.0942
 7243SOL    HW133191   0.773   3.932   8.133 -0.1143  0.2100 -1.8693
 7243SOL    HW233192   0.654   4.000   8.154  2.1822 -0.0176  2.9309
 7244SOL     OW33193   2.047   0.699   4.994  0.5354  0.1091  0.3846
 7244SOL    HW133194   1.975   0.730   4.939 -2.8915 -2.1144  3.5916
 7244SOL    HW233195   2.001   0.666   5.072  1.3122  1.5028  1.4491
 7245SOL     OW33196   4.146   2.008   2.116  0.0654 -0.5723  0.3708
 7245SOL    HW133197   4.078   1.941   2.106 -0.1603 -0.5905  1.9914
 7245SOL    HW233198   4.114   2.083   2.066 -0.9458 -0.7852  0.7002
 7246SOL     OW33199   2.292   0.619  17.270  0.0564  0.1667 -1.2399
 7246SOL    HW133200   2.287   0.705  17.228 -2.4058  1.0719  0.9247
 7246SOL    HW233201   2.279   0.644  17.362  3.3374  0.2146 -0.7915
 7247SOL     OW33202   4.370   2.132   1.953 -0.0568  0.2033 -0.2614
 7247SOL    HW133203   4.314   2.080   2.009 -0.2085 -0.0535 -0.6521
 7247SOL    HW233204   4.331   2.219   1.961  1.1809  0.8272 -0.9496
 7248SOL     OW33205   1.224   0.994  13.014  0.3205  0.2200  0.0223
 7248SOL    HW133206   1.225   0.902  13.042 -0.1858  1.3245  3.5610
 7248SOL    HW233207   1.191   1.035  13.094 -1.0861  3.0719 -2.0188
 7249SOL     OW33208   1.229   2.651   3.422  0.5472  0.1345 -0.0146
 7249SOL    HW133209   1.188   2.640   3.336 -1.9357 -1.0778  1.3135
 7249SOL    HW233210   1.177   2.597   3.482  2.7731 -0.9395  0.9550
 7250SOL     OW33211   1.576   2.677  13.022  0.0580  0.4741 -0.8926
 7250SOL    HW133212   1.594   2.590  12.985 -1.5156  0.3366 -1.3746
 7250SOL    HW233213   1.605   2.666  13.112  2.1980  1.4014 -1.4727
 7251SOL     OW33214   0.953   4.128   4.050  0.1026  0.2627 -0.2080
 7251SOL    HW133215   0.895   4.172   3.988 -2.3639 -1.7606  0.6853
 7251SOL    HW233216   1.032   4.105   4.001 -0.5983 -0.6492 -0.9036
 7252SOL     OW33217   0.488   0.660   6.225  0.5327 -0.2793  0.1894
 7252SOL    HW133218   0.432   0.583   6.226  0.2725 -0.0974 -0.3605
 7252SOL    HW233219   0.424   0.726   6.199  0.3926 -0.6395 -0.3620
 7253SOL     OW33220   0.977   3.896   1.447  0.2666 -0.0397 -0.1763
 7253SOL    HW133221   1.004   3.810   1.479 -0.0180 -0.1802 -0.3115
 7253SOL    HW233222   0.899   3.898   1.501 -0.2119 -1.0644 -0.8146
 7254SOL     OW33223   1.309   0.886   8.535  0.7214 -0.0314 -0.2102
 7254SOL    HW133224   1.242   0.854   8.475  0.1305  0.3750  0.2348
 7254SOL    HW233225   1.315   0.978   8.509 -0.4117 -0.0486 -0.5251
 7255SOL     OW33226   3.177   1.349  14.138  0.0135  0.1983  0.1746
 7255SOL    HW133227   3.172   1.317  14.229 -0.4418 -2.4445 -0.7741
 7255SOL    HW233228   3.094   1.319  14.100 -0.5655  2.0060  0.0389
 7256SOL     OW33229   0.895   3.060   2.198 -0.3277  0.1467  0.4134
 7256SOL    HW133230   0.944   2.993   2.246 -0.1210  0.4057  0.5645
 7256SOL    HW233231   0.945   3.135   2.230  0.2120  0.3737 -0.9803
 7257SOL     OW33232   1.518   4.185   0.756 -0.7924 -0.0449  0.4342
 7257SOL    HW133233   1.574   4.138   0.695  0.1606 -0.2111  1.4398
 7257SOL    HW233234   1.455   4.215   0.690  1.4806 -0.5940 -1.9749
 7258SOL     OW33235   1.705   4.514   6.746 -0.2563 -0.0754 -0.0941
 7258SOL    HW133236   1.748   4.429   6.754 -2.1238 -1.2535 -2.6252
 7258SOL    HW233237   1.647   4.491   6.673  0.7488 -1.0348 -0.5854
 7259SOL     OW33238   0.376   0.578  15.311  0.4386  0.3399  0.2165
 7259SOL    HW133239   0.462   0.620  15.318  0.3388  0.7798 -1.4132
 7259SOL    HW233240   0.401   0.486  15.321  1.2241  0.6678  1.3418
 7260SOL     OW33241   3.336   2.765  15.809 -0.4672  0.0312 -0.3754
 7260SOL    HW133242   3.340   2.859  15.828 -1.4268  0.1769 -0.8744
 7260SOL    HW233243   3.296   2.729  15.888  0.8270 -0.9389 -0.1803
 7261SOL     OW33244   2.169   2.500   2.237  0.2365  0.2713 -0.1423
 7261SOL    HW133245   2.203   2.573   2.289 -1.8506  1.1418  0.0142
 7261SOL    HW233246   2.165   2.428   2.300 -0.9048 -1.5970 -2.3494
 7262SOL     OW33247   1.218   4.473   2.522  0.2607  0.2332  0.0363
 7262SOL    HW133248   1.263   4.433   2.596  1.4936 -0.1726 -0.9176
 7262SOL    HW233249   1.296   4.496   2.472 -0.1190  1.4168 -0.0148
 7263SOL     OW33250   1.029   4.321   0.697 -0.4827 -0.6555 -0.1212
 7263SOL    HW133251   0.968   4.373   0.645 -1.2494 -1.5586 -0.1268
 7263SOL    HW233252   0.992   4.235   0.676  1.0279 -1.4064  0.2822
 7264SOL     OW33253   2.080   3.914   2.204 -0.1400 -0.2830 -0.2359
 7264SOL    HW133254   2.083   3.838   2.263  1.7588 -2.0236 -2.5629
 7264SOL    HW233255   2.046   3.876   2.123  1.8982 -1.4680 -0.5424
 7265SOL     OW33256   0.122   3.312   5.924 -0.0700  0.0812  0.8441
 7265SOL    HW133257   0.038   3.358   5.924  0.6231  1.3100 -1.4333
 7265SOL    HW233258   0.134   3.294   5.831 -0.0530  1.9908  0.4885
 7266SOL     OW33259   3.243   2.611   8.847  0.6334  0.1398  0.1001
 7266SOL    HW133260   3.294   2.531   8.854 -0.7558 -0.8484 -1.0136
 7266SOL    HW233261   3.155   2.574   8.853  0.3064  0.5708 -2.2458
 7267SOL     OW33262   0.270   3.915   8.528  0.3485 -0.1237  0.0631
 7267SOL    HW133263   0.224   3.978   8.472  2.8562  2.1287  0.5193
 7267SOL    HW233264   0.234   3.834   8.493 -2.5970  1.8466 -1.5256
 7268SOL     OW33265   4.611   1.500   2.805 -0.3104 -0.4367  0.2114
 7268SOL    HW133266   4.613   1.509   2.710 -0.7748 -1.8009  0.0730
 7268SOL    HW233267   4.572   1.587   2.819 -1.4453 -0.6085 -1.8055
 7269SOL     OW33268   0.423   4.064   7.988  0.0323  0.1534 -0.1433
 7269SOL    HW133269   0.355   4.131   7.989  0.2987  0.4268 -0.1599
 7269SOL    HW233270   0.507   4.110   7.991  0.2984 -0.2397 -1.8191
 7270SOL     OW33271   3.179   0.564   6.175 -0.1675 -0.0376  0.3622
 7270SOL    HW133272   3.200   0.515   6.097 -0.5439 -0.3340  0.4456
 7270SOL    HW233273   3.256   0.552   6.231  0.5699  1.4671 -0.3351
 7271SOL     OW33274   1.397   4.505  12.251  0.6865  0.7259 -0.0870
 7271SOL    HW133275   1.321   4.544  12.294  0.1079 -0.1278 -0.3262
 7271SOL    HW233276   1.465   4.544  12.306 -0.7985 -0.2222  2.4282
 7272SOL     OW33277   1.472   3.631  14.315 -0.2623  0.4215 -0.2866
 7272SOL    HW133278   1.492   3.695  14.383 -2.4634  0.8854 -0.0704
 7272SOL    HW233279   1.472   3.693  14.242  1.2864  1.8110  0.9053
 7273SOL     OW33280   2.513   1.230   4.321  0.2000 -0.0385 -0.5550
 7273SOL    HW133281   2.555   1.294   4.264 -1.2606  0.2485 -1.3107
 7273SOL    HW233282   2.451   1.288   4.367  1.8405  0.3588  1.1826
 7274SOL     OW33283   4.381   1.412   3.289  0.1694 -0.4870 -0.3321
 7274SOL    HW133284   4.302   1.457   3.259  0.5741  1.1686  1.0578
 7274SOL    HW233285   4.424   1.425   3.204  1.3693 -0.8615  0.2151
 7275SOL     OW33286   4.528   2.719   5.844 -0.3707 -0.0311 -0.5784
 7275SOL    HW133287   4.596   2.753   5.902  0.6455 -2.7048 -0.2147
 7275SOL    HW233288   4.489   2.657   5.905 -0.2351 -0.2436 -0.7050
 7276SOL     OW33289   4.250   3.821   0.898  0.1379  0.3197  0.0227
 7276SOL    HW133290   4.330   3.773   0.877 -1.1115 -1.2668 -1.0955
 7276SOL    HW233291   4.184   3.763   0.861 -0.6513  1.2300 -0.0016
 7277SOL     OW33292   2.098   2.346   1.353  0.0445  0.3181 -0.5605
 7277SOL    HW133293   2.041   2.356   1.430  0.6175  3.0067 -0.5090
 7277SOL    HW233294   2.033   2.364   1.285 -1.6752  0.2490  1.0455
 7278SOL     OW33295   4.322   0.084   6.049  0.1676 -0.1828  0.2835
 7278SOL    HW133296   4.291   0.011   6.103  0.4355 -0.1788  0.4461
 7278SOL    HW233297   4.415   0.059   6.056  0.2879  0.7126  1.9548
 7279SOL     OW33298   2.975   3.744   5.150 -0.0545 -0.1083 -0.2044
 7279SOL    HW133299   3.060   3.770   5.186 -0.8264  1.6342  0.3303
 7279SOL    HW233300   2.955   3.669   5.206 -0.9043 -0.5059 -1.0391
 7280SOL     OW33301   2.282   1.619  14.737 -0.1185  0.5159  0.3298
 7280SOL    HW133302   2.259   1.633  14.829 -1.5311 -0.4548  0.1229
 7280SOL    HW233303   2.355   1.678  14.720 -1.4153  1.4686 -1.9008
 7281SOL     OW33304   4.055   0.216  15.270  0.2636  0.0336  0.4275
 7281SOL    HW133305   4.067   0.133  15.317 -2.1832 -1.6236 -1.8517
 7281SOL    HW233306   4.137   0.225  15.222 -0.0722  0.1462 -0.1228
 7282SOL     OW33307   2.039   3.617  14.162 -0.3257  0.5837  0.2873
 7282SOL    HW133308   2.100   3.653  14.227 -0.8121  1.4143  0.2875
 7282SOL    HW233309   2.095   3.637  14.087  2.4285 -1.1161  1.9020
 7283SOL     OW33310   2.885   3.553   6.716  0.0042 -0.1297  0.2385
 7283SOL    HW133311   2.832   3.552   6.795 -0.4862  2.0765 -0.0587
 7283SOL    HW233312   2.837   3.492   6.659 -0.8293  0.8976 -0.1552
 7284SOL     OW33313   3.101   4.089   2.021  0.1720  0.5376 -0.1993
 7284SOL    HW133314   3.185   4.128   2.046  1.0673 -0.0598 -2.3257
 7284SOL    HW233315   3.137   4.013   1.977 -1.0298  0.0034 -0.2612
 7285SOL     OW33316   2.927   4.592   4.431  0.4464  0.3496  0.1345
 7285SOL    HW133317   3.000   4.638   4.390  0.3683  0.1445 -0.2317
 7285SOL    HW233318   2.873   4.581   4.352  0.4205  0.0798  0.1910
 7286SOL     OW33319   0.238   1.285   5.064  0.1077 -0.0295  0.2654
 7286SOL    HW133320   0.269   1.207   5.019  0.2666 -0.5632  1.3053
 7286SOL    HW233321   0.190   1.242   5.135 -1.4344 -0.7281 -1.1931
 7287SOL     OW33322   1.236   1.787   2.758 -0.3623  0.6191  0.0470
 7287SOL    HW133323   1.225   1.730   2.682 -1.2611 -0.0934  0.7079
 7287SOL    HW233324   1.326   1.818   2.757 -0.5715  1.2550  0.6304
 7288SOL     OW33325   4.367   1.709  14.057  0.3728 -0.4478  0.0849
 7288SOL    HW133326   4.451   1.680  14.022  0.2102 -1.8081  0.8175
 7288SOL    HW233327   4.341   1.620  14.082 -0.2502 -0.5655 -1.0101
 7289SOL     OW33328   4.700   4.403  17.508 -0.1015 -0.0562  0.0457
 7289SOL    HW133329   0.066   4.376  17.488  0.2812  0.0456  1.5562
 7289SOL    HW233330   4.708   4.479  17.566 -1.4526  0.3636 -0.3249
 7290SOL     OW33331   4.134   1.113   1.515 -0.1763 -0.0703 -0.3189
 7290SOL    HW133332   4.049   1.153   1.494 -0.6057 -1.2280 -0.7846
 7290SOL    HW233333   4.114   1.022   1.497  0.6268 -0.4765  0.8336
 7291SOL     OW33334   2.159   0.639   9.528  0.0096 -0.0091  0.5311
 7291SOL    HW133335   2.222   0.684   9.585  0.2152  1.5720 -0.9260
 7291SOL    HW233336   2.082   0.691   9.550  0.4092  0.6320  0.4493
 7292SOL     OW33337   1.936   1.253   5.570 -0.5827  0.1558  0.3282
 7292SOL    HW133338   2.001   1.304   5.617 -0.1562 -1.5337  1.5729
 7292SOL    HW233339   1.852   1.262   5.615  0.3800 -1.4763  2.4439
 7293SOL     OW33340   3.029   2.936   8.770 -0.3776  0.1330  0.5584
 7293SOL    HW133341   3.077   2.931   8.853 -1.1473 -0.3735  0.9744
 7293SOL    HW233342   3.093   2.987   8.721 -0.4972  1.4432  1.7333
 7294SOL     OW33343   1.950   0.441   4.838  0.3821  0.4149  0.3121
 7294SOL    HW133344   1.934   0.525   4.880  2.5094  0.8077  0.3232
 7294SOL    HW233345   1.994   0.466   4.757 -1.1395 -1.1819 -0.9977
 7295SOL     OW33346   3.855   4.483   5.000  0.1524 -0.1397  0.2237
 7295SOL    HW133347   3.950   4.476   5.006  0.0012 -3.1295 -0.9333
 7295SOL    HW233348   3.830   4.394   5.026 -0.4426  0.3564  1.3722
 7296SOL     OW33349   2.846   1.689   9.267  0.0531  0.5993  0.2265
 7296SOL    HW133350   2.909   1.617   9.275 -0.6066 -0.0119 -0.1171
 7296SOL    HW233351   2.896   1.765   9.294  0.6049  0.0745  0.6877
 7297SOL     OW33352   2.541   2.497  10.581 -0.1041 -0.0445 -0.2736
 7297SOL    HW133353   2.595   2.574  10.597  1.7563 -1.7286  1.5675
 7297SOL    HW233354   2.476   2.510  10.649 -0.2146  0.7815 -0.5475
 7298SOL     OW33355   3.313   3.878   5.560  0.0216 -0.0026 -0.3347
 7298SOL    HW133356   3.353   3.877   5.647 -1.3009 -0.5149  0.2667
 7298SOL    HW233357   3.220   3.872   5.581 -0.2532  2.3006 -0.9454
 7299SOL     OW33358   3.953   3.585   4.639 -0.5056 -0.7282 -0.1676
 7299SOL    HW133359   3.923   3.640   4.566 -0.6639  0.0324  0.4743
 7299SOL    HW233360   3.975   3.504   4.593 -3.3630 -1.5435 -0.0320
 7300SOL     OW33361   3.701   1.401   5.168  0.9394  0.1857  0.1498
 7300SOL    HW133362   3.748   1.342   5.108 -2.3969 -3.2622  0.8618
 7300SOL    HW233363   3.749   1.379   5.247 -0.7409  0.7553  1.3266
 7301SOL     OW33364   3.431   4.417   5.066  0.5355 -0.0939  0.2348
 7301SOL    HW133365   3.425   4.360   4.990  0.6070 -1.0609  0.9595
 7301SOL    HW233366   3.339   4.434   5.084  0.3573  1.1426 -1.8286
 7302SOL     OW33367   1.431   2.107   7.076  0.7174 -0.2634 -0.8389
 7302SOL    HW133368   1.485   2.029   7.072  0.7250 -0.3185  0.3758
 7302SOL    HW233369   1.411   2.112   6.983  0.1349  1.5482 -0.6324
 7303SOL     OW33370   1.232   3.257  10.637  0.5183  0.3878 -0.7264
 7303SOL    HW133371   1.190   3.217  10.714 -3.2283  1.0408 -2.3963
 7303SOL    HW233372   1.189   3.215  10.562 -2.7370 -0.2648  1.4767
 7304SOL     OW33373   3.098   4.505   5.185 -0.0706  0.4031 -0.2819
 7304SOL    HW133374   3.021   4.504   5.128 -0.2489 -1.2175 -0.0127
 7304SOL    HW233375   3.153   4.565   5.136  1.4748  0.6039  1.6657
 7305SOL     OW33376   1.037   4.614   2.722 -0.1479  0.2758 -0.2074
 7305SOL    HW133377   1.002   4.534   2.761  1.4943 -1.0032 -1.3654
 7305SOL    HW233378   1.127   4.593   2.698  0.0326 -1.6331  2.1767
 7306SOL     OW33379   1.118   0.457   4.926 -0.3481  0.2043  0.0735
 7306SOL    HW133380   1.055   0.419   4.987 -0.9694  0.2659 -0.5222
 7306SOL    HW233381   1.151   0.386   4.870  0.5614  1.9398 -1.6148
 7307SOL     OW33382   1.472   3.989  11.993 -0.7171  0.2789 -0.1594
 7307SOL    HW133383   1.395   4.033  11.958 -1.4098 -1.0461 -0.3118
 7307SOL    HW233384   1.512   3.945  11.918  0.9848  1.6770 -0.0500
 7308SOL     OW33385   4.658   4.371   5.442  0.5281 -0.0548  0.6393
 7308SOL    HW133386   4.707   4.326   5.373 -0.3978 -0.8768  0.5050
 7308SOL    HW233387   4.694   4.331   5.521  1.6435 -0.8440 -0.2788
 7309SOL     OW33388   0.239   0.554  13.420  0.1818 -0.2210  0.0851
 7309SOL    HW133389   0.169   0.518  13.366 -0.6161  1.5111 -0.0354
 7309SOL    HW233390   0.281   0.626  13.372  0.6470 -0.4993  0.0761
 7310SOL     OW33391   1.998   3.065   4.259  0.1651  0.1255  0.9064
 7310SOL    HW133392   1.908   3.077   4.289  0.7212  1.5049  2.1023
 7310SOL    HW233393   2.025   3.157   4.269  0.4736  0.2937 -1.6567
 7311SOL     OW33394   1.733   0.612   0.700 -0.1828 -0.2033 -0.3025
 7311SOL    HW133395   1.685   0.529   0.698  1.0042 -0.8802 -1.0171
 7311SOL    HW233396   1.674   0.654   0.763 -0.6401  1.4177 -1.8386
 7312SOL     OW33397   1.239   1.118   9.591  0.0253 -0.1414  0.0199
 7312SOL    HW133398   1.308   1.061   9.559  0.4071 -0.0630  0.7025
 7312SOL    HW233399   1.163   1.082   9.546 -1.1118  2.5391 -0.1947
 7313SOL     OW33400   1.285   4.245   0.627 -0.1985 -0.1954 -0.5953
 7313SOL    HW133401   1.243   4.330   0.618 -1.6117 -0.6086  2.1736
 7313SOL    HW233402   1.222   4.191   0.580 -1.6022  0.8197  0.1136
 7314SOL     OW33403   2.767   0.629   1.899 -0.4660 -0.4263 -0.4625
 7314SOL    HW133404   2.680   0.610   1.936 -0.5888  2.2324  0.6094
 7314SOL    HW233405   2.786   0.542   1.864 -2.3351 -0.3706 -1.6044
 7315SOL     OW33406   1.101   0.297   5.296  1.2427  0.0700 -0.3427
 7315SOL    HW133407   1.054   0.262   5.372  0.0209  2.7226  0.1024
 7315SOL    HW233408   1.039   0.276   5.227  0.6367 -2.7992  1.0426
 7316SOL     OW33409   1.784   1.916   7.709  0.1027 -0.3549 -0.9199
 7316SOL    HW133410   1.708   1.926   7.652 -0.1479  0.1425 -0.4966
 7316SOL    HW233411   1.847   1.895   7.640 -0.8561  0.3887 -2.0394
 7317SOL     OW33412   1.964   2.506  15.025  0.1184  0.1828  0.3488
 7317SOL    HW133413   1.973   2.471  15.114  2.7699 -1.4075 -0.5263
 7317SOL    HW233414   2.053   2.488  14.994  0.2379  0.5986  0.4503
 7318SOL     OW33415   2.155   2.238   4.140  0.7199 -0.3748 -0.0045
 7318SOL    HW133416   2.218   2.293   4.187 -0.4116  0.4686  0.5187
 7318SOL    HW233417   2.142   2.294   4.063  0.0848 -0.1424  0.2734
 7319SOL     OW33418   0.206   2.549   4.577  0.2970  0.2004 -0.5064
 7319SOL    HW133419   0.252   2.552   4.493 -1.5486  1.4904 -1.5020
 7319SOL    HW233420   0.203   2.457   4.602 -0.5952  0.0671 -1.0816
 7320SOL     OW33421   1.538   3.626   0.639  0.3008 -0.3807 -0.0485
 7320SOL    HW133422   1.502   3.602   0.554 -3.5787 -0.5059  1.6176
 7320SOL    HW233423   1.610   3.688   0.627  0.4435 -0.7267 -0.9479
 7321SOL     OW33424   4.610   1.829  12.545  0.2537  0.3210  0.6908
 7321SOL    HW133425   4.593   1.742  12.507 -0.0043 -0.3422  2.3359
 7321SOL    HW233426   4.653   1.809  12.628 -0.0025  0.3875  0.8395
 7322SOL     OW33427   0.424   2.016   5.677  0.0646 -0.0424  0.2484
 7322SOL    HW133428   0.431   2.016   5.772 -1.9859  0.2883  0.3981
 7322SOL    HW233429   0.350   1.957   5.662  0.7157 -0.4179 -1.4392
 7323SOL     OW33430   4.722   0.633  13.116 -0.4035 -0.5852 -0.1592
 7323SOL    HW133431   4.721   0.560  13.054  2.0418 -0.8259  0.0735
 7323SOL    HW233432   0.019   0.583  13.195  0.7819  0.4700  0.2130
 7324SOL     OW33433   3.228   0.366   5.560 -0.2952 -0.1107  0.3620
 7324SOL    HW133434   3.227   0.281   5.604 -0.8457 -0.5801 -0.5798
 7324SOL    HW233435   3.314   0.366   5.517  0.0967 -1.3903  1.1588
 7325SOL     OW33436   4.640   1.290  17.552  0.0335  0.7063  0.1874
 7325SOL    HW133437   4.701   1.357  17.582  0.0878  0.0413  1.5467
 7325SOL    HW233438   4.691   1.214  17.580 -0.1897  1.1838  1.9128
 7326SOL     OW33439   0.166   2.228   3.039  0.0809 -0.2413 -0.1021
 7326SOL    HW133440   0.105   2.201   2.971 -0.4806  1.2466 -0.2008
 7326SOL    HW233441   0.142   2.162   3.104  1.9626  0.5383  1.3968
 7327SOL     OW33442   0.216   0.935   4.462 -0.0639 -0.0745  0.1960
 7327SOL    HW133443   0.179   1.013   4.421 -1.0405  0.3290  1.8675
 7327SOL    HW233444   0.136   0.883   4.469  0.7245 -1.2836  0.2152
 7328SOL     OW33445   4.456   3.061  10.295  0.2191  0.5233  0.3544
 7328SOL    HW133446   4.363   3.036  10.298  0.0826  1.1997  1.5233
 7328SOL    HW233447   4.499   2.982  10.262  0.7371 -0.3685  3.1589
 7329SOL     OW33448   1.160   0.274  17.042 -0.0145  0.1319 -0.1155
 7329SOL    HW133449   1.243   0.299  17.082 -1.3833  1.2274  2.0295
 7329SOL    HW233450   1.104   0.351  17.028 -0.8875 -0.3983  0.4758
 7330SOL     OW33451   2.224   2.153   5.333 -0.0069 -0.4043 -0.2589
 7330SOL    HW133452   2.261   2.220   5.277 -2.0406  1.4857  0.6674
 7330SOL    HW233453   2.165   2.123   5.264  2.2474 -0.3970 -2.1774
 7331SOL     OW33454   4.657   3.269   2.534 -0.0011  0.1450  0.6894
 7331SOL    HW133455   4.586   3.204   2.539  2.2740 -2.3358  1.0662
 7331SOL    HW233456   4.673   3.283   2.440  1.4516  1.0850  1.0908
 7332SOL     OW33457   1.420   3.561   2.204  0.3752  0.2200  0.5212
 7332SOL    HW133458   1.356   3.517   2.260 -0.5005  0.2760 -0.4330
 7332SOL    HW233459   1.439   3.488   2.146  0.2745 -1.6053  2.7857
 7333SOL     OW33460   2.573   2.396  11.237 -0.4501  0.3058  0.3017
 7333SOL    HW133461   2.571   2.331  11.167 -0.3399 -2.1411  2.5959
 7333SOL    HW233462   2.541   2.347  11.312 -1.7049  1.5815  0.5982
 7334SOL     OW33463   3.917   4.357  14.573  0.3102 -0.4388  0.4178
 7334SOL    HW133464   3.837   4.318  14.606 -0.2318 -0.2034 -0.6020
 7334SOL    HW233465   3.897   4.342  14.481 -1.6541 -0.4714  0.8587
 7335SOL     OW33466   2.956   1.933  10.930 -0.8749 -0.0267 -0.4879
 7335SOL    HW133467   3.039   1.886  10.940 -0.5908  0.2103 -1.6546
 7335SOL    HW233468   2.937   1.946  10.837 -1.9758 -2.3177 -0.5915
 7336SOL     OW33469   0.742   4.258   5.947  0.1396 -0.3059  0.0570
 7336SOL    HW133470   0.757   4.296   5.860  2.3082  0.9486  0.9953
 7336SOL    HW233471   0.782   4.316   6.012  1.6844 -0.2760 -0.9195
 7337SOL     OW33472   2.643   3.135   4.464  0.1406  0.1727  0.3380
 7337SOL    HW133473   2.548   3.126   4.455  0.3617 -0.7508 -1.1072
 7337SOL    HW233474   2.663   3.042   4.459 -1.8903 -0.2762  0.7302
 7338SOL     OW33475   4.433   0.249   2.812 -0.5056  0.0370 -0.0127
 7338SOL    HW133476   4.523   0.246   2.781 -0.4326 -1.1588  0.3188
 7338SOL    HW233477   4.419   0.343   2.812  1.5215  0.3240 -0.8462
 7339SOL     OW33478   0.860   2.897  11.334  0.4050 -0.3314 -0.3981
 7339SOL    HW133479   0.950   2.931  11.330  0.4031 -0.4325 -1.3168
 7339SOL    HW233480   0.861   2.847  11.416  0.6676  0.9177  0.3543
 7340SOL     OW33481   1.994   4.282  16.296  0.1058 -0.0427  0.2903
 7340SOL    HW133482   1.979   4.351  16.232  1.2997  0.5596  0.6577
 7340SOL    HW233483   1.980   4.339  16.372  1.2769 -1.1905  1.3746
 7341SOL     OW33484   2.234   1.756   3.299 -0.0054  0.3434  0.1730
 7341SOL    HW133485   2.317   1.764   3.346 -0.6132  0.4261  1.2293
 7341SOL    HW233486   2.171   1.764   3.370  1.1048  0.4721  1.1423
 7342SOL     OW33487   1.237   1.435   4.741 -0.2376 -1.0361 -0.3220
 7342SOL    HW133488   1.270   1.519   4.775 -0.6109 -1.4864  1.1723
 7342SOL    HW233489   1.165   1.471   4.689 -0.5865 -2.3999 -0.7669
 7343SOL     OW33490   4.607   0.717   3.184  0.5879  0.7775 -0.0307
 7343SOL    HW133491   4.625   0.810   3.172 -0.9755  1.1693  0.7045
 7343SOL    HW233492   4.678   0.686   3.127 -1.1060 -0.6485 -1.3724
 7344SOL     OW33493   1.229   1.830   8.475 -0.0036  0.3791 -0.0291
 7344SOL    HW133494   1.216   1.902   8.413 -1.5900 -2.5779 -3.1370
 7344SOL    HW233495   1.175   1.766   8.429 -0.3225  0.2527  0.5231
 7345SOL     OW33496   0.522   3.891   8.410  0.3402  0.8658  0.3187
 7345SOL    HW133497   0.542   3.803   8.444 -0.8696 -0.0938 -1.4423
 7345SOL    HW233498   0.432   3.899   8.443 -0.0794 -0.4915 -0.5049
 7346SOL     OW33499   0.307   1.472  13.322 -0.1137  0.2459 -0.0577
 7346SOL    HW133500   0.357   1.412  13.379  2.1607  0.9847 -1.2763
 7346SOL    HW233501   0.379   1.517  13.279  0.5438 -2.2215 -1.5565
 7347SOL     OW33502   1.985   4.392   5.378 -0.6346 -0.0643 -0.5170
 7347SOL    HW133503   1.898   4.429   5.361 -0.3070  1.4118  1.0254
 7347SOL    HW233504   2.004   4.338   5.301 -1.0797  1.5106 -1.7299
 7348SOL     OW33505   0.230   0.570   6.795 -0.0692 -0.2499 -0.0047
 7348SOL    HW133506   0.267   0.517   6.724 -1.1012  0.1097 -0.8151
 7348SOL    HW233507   0.310   0.595   6.841 -0.2877  0.7673 -0.1814
 7349SOL     OW33508   2.147   3.667   3.554  0.4233  0.1860  0.3069
 7349SOL    HW133509   2.212   3.682   3.484 -0.5372  1.8963 -0.2302
 7349SOL    HW233510   2.089   3.607   3.507  1.5075 -0.7881  0.1999
 7350SOL     OW33511   4.675   2.999   8.499  0.3653  0.4328 -0.4096
 7350SOL    HW133512   0.012   2.984   8.571  1.5070  0.4700 -1.3579
 7350SOL    HW233513   4.713   3.077   8.458  0.7363 -0.0430 -0.9643
 7351SOL     OW33514   2.705   2.548   5.976 -0.0275 -0.5325  0.3993
 7351SOL    HW133515   2.770   2.616   5.957  0.7883 -1.3735  0.2353
 7351SOL    HW233516   2.747   2.496   6.044 -1.8192 -0.5276  1.5162
 7352SOL     OW33517   1.073   1.454   2.799 -0.4300  0.2403 -0.8032
 7352SOL    HW133518   1.028   1.380   2.839 -0.6334  0.3900 -0.7513
 7352SOL    HW233519   1.120   1.476   2.879 -1.1308 -0.7771 -0.1042
 7353SOL     OW33520   1.392   3.650  15.033  0.2664 -0.3382 -0.2732
 7353SOL    HW133521   1.377   3.687  14.946  1.6772  0.5985 -0.1069
 7353SOL    HW233522   1.409   3.558  15.014 -0.8968 -0.8278  1.0481
 7354SOL     OW33523   3.753   4.626   2.530 -0.4413 -0.1133  0.5685
 7354SOL    HW133524   3.844   4.655   2.541 -0.3985 -0.5323  1.2608
 7354SOL    HW233525   3.709   4.708   2.553  0.3695 -0.4252  3.1677
 7355SOL     OW33526   2.933   2.066  17.535 -0.2400 -0.0201  0.3779
 7355SOL    HW133527   2.944   2.123  17.459  0.7245 -1.9924 -0.9361
 7355SOL    HW233528   2.896   2.126  17.601 -1.8346 -1.9200  1.2146
 7356SOL     OW33529   0.948   3.957   2.547 -0.4183  0.3075  0.1014
 7356SOL    HW133530   0.859   3.977   2.517 -0.6481 -3.6962 -1.8571
 7356SOL    HW233531   0.935   3.864   2.566  0.1354 -0.1614 -1.7517
 7357SOL     OW33532   0.439   0.566   8.216  0.5200 -0.7390  1.0648
 7357SOL    HW133533   0.413   0.650   8.255 -0.5274  0.2776 -1.7722
 7357SOL    HW233534   0.387   0.498   8.258  0.0302 -0.5371  0.7866
 7358SOL     OW33535   3.713   3.137   2.233  0.0346  0.1734  0.4065
 7358SOL    HW133536   3.728   3.193   2.309  0.3521  1.8157 -0.8842
 7358SOL    HW233537   3.691   3.052   2.272  1.5942  0.1135  1.1905
 7359SOL     OW33538   1.877   1.536   8.152 -0.0454  0.1649  0.2389
 7359SOL    HW133539   1.849   1.453   8.113  2.6630 -0.0676 -1.1450
 7359SOL    HW233540   1.913   1.585   8.079 -0.9048 -2.9250 -2.2384
 7360SOL     OW33541   2.840   1.803   1.651 -0.2039 -0.0626 -0.4716
 7360SOL    HW133542   2.764   1.745   1.657 -0.8536  0.9582  1.0401
 7360SOL    HW233543   2.792   1.886   1.654 -2.7391 -1.5243 -0.5972
 7361SOL     OW33544   2.317   1.625   7.942 -0.4671 -0.0983 -0.0156
 7361SOL    HW133545   2.372   1.678   8.001  2.9563 -2.1645 -1.3360
 7361SOL    HW233546   2.268   1.686   7.887  0.7372 -0.4025 -1.4396
 7362SOL     OW33547   2.982   3.996   4.875 -0.0257 -0.3116 -0.2133
 7362SOL    HW133548   2.998   4.039   4.959  0.5528  0.1545 -0.5572
 7362SOL    HW233549   2.911   3.934   4.887  0.2499 -1.0861 -2.4798
 7363SOL     OW33550   1.681   4.381   5.646 -0.0475 -0.0751 -0.0148
 7363SOL    HW133551   1.597   4.401   5.688 -0.6356  0.3105 -1.3476
 7363SOL    HW233552   1.670   4.288   5.628  1.4789 -0.2442  0.0073
 7364SOL     OW33553   3.836   2.800   5.977 -0.4610 -0.6639  0.0839
 7364SOL    HW133554   3.918   2.771   5.937 -0.1673 -0.7461  0.7512
 7364SOL    HW233555   3.837   2.752   6.060  1.5376 -0.2345  0.3168
 7365SOL     OW33556   2.698   2.942   7.162 -0.0531 -0.2590  0.9274
 7365SOL    HW133557   2.753   2.985   7.227  0.4472 -3.1185  2.3847
 7365SOL    HW233558   2.747   2.860   7.156  0.9829  0.4401 -0.1399
 7366SOL     OW33559   0.736   1.655   7.568  0.8317  0.5374 -0.2218
 7366SOL    HW133560   0.733   1.745   7.601 -0.1341  0.3962  0.0960
 7366SOL    HW233561   0.792   1.663   7.491  0.2303 -1.2197 -0.8272
 7367SOL     OW33562   3.013   0.085   7.364 -0.0042  0.1198 -0.3377
 7367SOL    HW133563   3.098   0.118   7.394 -0.2202  0.1185  0.2740
 7367SOL    HW233564   2.954   0.108   7.436 -0.7218  1.9656 -1.5182
 7368SOL     OW33565   1.001   2.295  14.057  0.1355  0.4950  0.3464
 7368SOL    HW133566   1.001   2.373  14.001 -0.3171  1.5296  1.7754
 7368SOL    HW233567   0.915   2.263  14.033  1.1143 -0.9280 -1.3160
 7369SOL     OW33568   3.876   3.089   5.813 -0.0769 -0.1587  0.0641
 7369SOL    HW133569   3.957   3.084   5.864  0.3149  2.4002 -0.3341
 7369SOL    HW233570   3.826   3.022   5.859  0.4677 -0.9566 -0.5011
 7370SOL     OW33571   1.600   0.997   6.549 -0.1953 -0.0590 -1.0386
 7370SOL    HW133572   1.690   0.965   6.540  0.3331  1.3318 -0.6978
 7370SOL    HW233573   1.568   0.918   6.592  1.0074 -0.5693 -1.0670
 7371SOL     OW33574   1.391   2.735  17.122 -0.3052 -0.0409 -0.5605
 7371SOL    HW133575   1.336   2.805  17.158  1.6660  1.8922 -1.2472
 7371SOL    HW233576   1.411   2.777  17.038  0.6244 -0.6757 -0.6544
 7372SOL     OW33577   4.117   1.161   8.517  0.0619 -0.0061 -0.0240
 7372SOL    HW133578   4.103   1.091   8.453 -0.4820  0.3742 -0.3122
 7372SOL    HW233579   4.028   1.176   8.548 -0.1783  0.4124 -0.9233
 7373SOL     OW33580   2.202   4.559   2.048  0.8562  0.8003 -0.2128
 7373SOL    HW133581   2.231   4.498   2.116 -1.2970 -0.1600 -0.1460
 7373SOL    HW233582   2.255   4.532   1.974  1.1931  0.7820  0.0367
 7374SOL     OW33583   2.383   2.678   4.381 -0.6227  0.4613 -0.1762
 7374SOL    HW133584   2.401   2.604   4.323 -3.8442 -0.7654  0.3405
 7374SOL    HW233585   2.333   2.739   4.326 -0.8439 -1.8136 -2.4915
 7375SOL     OW33586   3.355   2.312  17.589 -0.2481  0.3848 -0.4101
 7375SOL    HW133587   3.286   2.367  17.551 -1.4452 -0.4478  0.5340
 7375SOL    HW233588   3.377   2.246  17.523 -1.4332  0.2895 -0.7248
 7376SOL     OW33589   3.364   3.912   3.093 -0.4194  0.0216 -0.7945
 7376SOL    HW133590   3.279   3.933   3.054 -1.5994  0.2240  1.9555
 7376SOL    HW233591   3.423   3.948   3.026 -0.8233  1.6646 -0.2782
 7377SOL     OW33592   3.561   1.117  12.740 -0.1034  0.3699  0.4670
 7377SOL    HW133593   3.489   1.062  12.770  3.0279 -4.0520  0.0584
 7377SOL    HW233594   3.579   1.172  12.816  0.2420 -0.2177  0.8161
 7378SOL     OW33595   1.555   0.498   1.987  0.1548 -0.3860 -0.4747
 7378SOL    HW133596   1.513   0.412   1.998  0.1513 -0.2817  0.3302
 7378SOL    HW233597   1.595   0.519   2.072 -0.4760 -0.2422 -0.2124
 7379SOL     OW33598   4.052   0.959   6.936  0.2586  0.4403  0.2921
 7379SOL    HW133599   4.082   0.893   6.998  1.9115  0.0810 -0.8821
 7379SOL    HW233600   4.136   0.982   6.895 -0.1864  1.0215 -0.2982
 7380SOL     OW33601   3.825   4.200  16.578 -0.0712  0.1661  0.2105
 7380SOL    HW133602   3.896   4.138  16.562 -0.9049 -1.4032  2.4769
 7380SOL    HW233603   3.823   4.243  16.493  0.0756  0.6344  0.4451
 7381SOL     OW33604   3.183   0.438   5.907  0.2665 -0.3870 -0.2381
 7381SOL    HW133605   3.270   0.448   5.868  0.3465 -0.8945 -0.1984
 7381SOL    HW233606   3.194   0.343   5.903 -1.9465 -0.7447  1.6818
 7382SOL     OW33607   2.835   0.722  12.633  0.2474 -0.4392  0.3375
 7382SOL    HW133608   2.895   0.648  12.642  1.4252  0.6751  1.6987
 7382SOL    HW233609   2.767   0.694  12.695  0.5493 -0.5891  0.5994
 7383SOL     OW33610   3.964   2.137   6.187  0.0790  0.2233 -1.0986
 7383SOL    HW133611   3.947   2.119   6.280  0.3241 -0.8942 -1.2681
 7383SOL    HW233612   4.004   2.054   6.160  0.5876 -0.2793  1.1362
 7384SOL     OW33613   1.812   0.238   1.799 -0.7451 -0.2097  0.1597
 7384SOL    HW133614   1.833   0.278   1.883 -2.2362  0.8987 -0.0107
 7384SOL    HW233615   1.738   0.182   1.822  0.2855 -0.5628  2.5887
 7385SOL     OW33616   1.720   2.876   0.315 -0.2295 -0.2460 -0.0255
 7385SOL    HW133617   1.707   2.852   0.407  0.8686 -0.8376 -0.0262
 7385SOL    HW233618   1.733   2.790   0.274 -2.6296  0.4143 -2.1992
 7386SOL     OW33619   1.255   0.127   9.125  0.5015  0.0819  0.5466
 7386SOL    HW133620   1.313   0.056   9.152 -2.7020 -3.0197 -0.7723
 7386SOL    HW233621   1.234   0.180   9.202  2.6496  0.9443  0.5522
 7387SOL     OW33622   3.383   1.698   4.922 -0.0508  0.0557  0.3043
 7387SOL    HW133623   3.376   1.790   4.895  1.9312  0.6003  1.6614
 7387SOL    HW233624   3.471   1.682   4.955  0.9783  1.8284 -1.6042
 7388SOL     OW33625   3.986   4.261   7.584 -0.0690  0.0220 -0.0938
 7388SOL    HW133626   4.064   4.208   7.566 -0.6152 -0.3745 -1.2648
 7388SOL    HW233627   3.997   4.336   7.525  1.1553  0.6242  0.8837
 7389SOL     OW33628   0.618   0.651   0.869  0.6317 -0.0449 -0.1553
 7389SOL    HW133629   0.619   0.728   0.812 -1.5995  0.0970  0.0242
 7389SOL    HW233630   0.604   0.694   0.953  1.0473  0.6901 -0.4699
 7390SOL     OW33631   2.527   3.755   4.261  0.4210  0.1262  0.0605
 7390SOL    HW133632   2.600   3.692   4.261  2.4922  2.5325 -1.2309
 7390SOL    HW233633   2.549   3.798   4.179  0.7383 -0.8022 -0.3480
 7391SOL     OW33634   3.518   2.178  11.080  0.0688  0.0148  0.3949
 7391SOL    HW133635   3.573   2.146  11.152  1.0860 -1.6616 -1.1344
 7391SOL    HW233636   3.507   2.103  11.022 -0.9633  1.0825 -0.7979
 7392SOL     OW33637   1.069   1.620   6.681  0.5832  0.0484 -0.3203
 7392SOL    HW133638   1.083   1.601   6.589 -1.8360 -0.7308 -0.5502
 7392SOL    HW233639   0.973   1.617   6.675  0.7687 -1.0005 -2.4893
 7393SOL     OW33640   4.562   0.392   4.321  0.2720 -0.3450  0.5432
 7393SOL    HW133641   4.623   0.453   4.280 -2.3128  1.0271 -1.2738
 7393SOL    HW233642   4.584   0.317   4.266  1.3804  0.4258 -0.0653
 7394SOL     OW33643   2.813   0.197  16.145  0.1070  0.0432  0.1681
 7394SOL    HW133644   2.744   0.244  16.191 -1.0668  1.1220 -2.6809
 7394SOL    HW233645   2.882   0.229  16.204  2.1390 -1.5386 -1.3245
 7395SOL     OW33646   1.703   4.387   0.861 -0.6512 -0.1926 -0.0385
 7395SOL    HW133647   1.766   4.316   0.852  0.3735  0.3147  2.9795
 7395SOL    HW233648   1.625   4.348   0.900 -1.7101 -0.7038 -2.6899
 7396SOL     OW33649   2.773   1.495   2.718  0.8639 -0.6426  0.1067
 7396SOL    HW133650   2.678   1.498   2.708  0.6402 -0.8594  2.1313
 7396SOL    HW233651   2.791   1.589   2.724  1.0573 -0.7128  0.6507
 7397SOL     OW33652   0.480   3.426   2.901  0.1274  0.0901 -0.1999
 7397SOL    HW133653   0.386   3.443   2.894  0.0099 -1.1925 -1.7007
 7397SOL    HW233654   0.499   3.380   2.820 -1.7624  0.5335 -0.8905
 7398SOL     OW33655   0.166   3.677  11.441  0.0507 -0.5191  0.2821
 7398SOL    HW133656   0.106   3.745  11.471 -0.7174 -0.9562 -0.2974
 7398SOL    HW233657   0.250   3.705  11.479 -0.2872  0.6395  0.1591
 7399SOL     OW33658   0.857   3.299   2.777 -0.2000 -0.2440 -0.0148
 7399SOL    HW133659   0.906   3.251   2.844 -0.2149 -0.1009  0.0996
 7399SOL    HW233660   0.879   3.388   2.805  1.1271 -0.4610 -0.3702
 7400SOL     OW33661   2.085   1.087   2.659 -0.0050 -0.3180 -0.2256
 7400SOL    HW133662   2.117   1.146   2.590 -1.9927  1.3207  0.2534
 7400SOL    HW233663   2.170   1.061   2.696  0.2525 -0.1984 -0.7407
 7401SOL     OW33664   4.014   4.421   2.698  0.1763  0.4416 -0.7396
 7401SOL    HW133665   3.947   4.360   2.667  0.2189 -0.6356  1.2679
 7401SOL    HW233666   4.065   4.351   2.738 -2.6040  0.6287  3.1595
 7402SOL     OW33667   0.740   4.483   2.636  0.0367 -0.0340 -0.2090
 7402SOL    HW133668   0.804   4.439   2.692 -1.1771  1.0635  2.0204
 7402SOL    HW233669   0.689   4.403   2.619  0.2505  0.0462 -1.2175
 7403SOL     OW33670   1.046   3.055  11.601 -0.0850 -0.1527 -0.3415
 7403SOL    HW133671   1.076   3.087  11.516  2.7726  2.2493  1.5667
 7403SOL    HW233672   1.024   2.965  11.579 -0.6482 -0.5920  2.0423
 7404SOL     OW33673   1.916   3.414  12.452 -0.0979  0.0612  0.4612
 7404SOL    HW133674   1.899   3.505  12.475 -2.9090 -0.1789 -0.6170
 7404SOL    HW233675   1.952   3.431  12.365 -1.5612 -1.3814 -0.4171
 7405SOL     OW33676   4.622   3.460   5.946  0.6099  0.1854 -0.1550
 7405SOL    HW133677   4.540   3.413   5.961  1.6193 -1.7132 -0.6328
 7405SOL    HW233678   4.580   3.544   5.929 -1.3703 -0.4480  1.5269
 7406SOL     OW33679   0.662   1.578  16.437  0.1928 -0.0761  0.2737
 7406SOL    HW133680   0.639   1.545  16.523 -1.2621 -1.1958 -0.5534
 7406SOL    HW233681   0.645   1.502  16.382  0.3085  0.2194 -0.1769
 7407SOL     OW33682   3.376   1.772  14.209 -0.5383 -0.3243 -0.0876
 7407SOL    HW133683   3.390   1.679  14.225 -2.6050 -0.3949  1.2350
 7407SOL    HW233684   3.283   1.785  14.191 -1.0496 -1.0897  2.0934
 7408SOL     OW33685   1.388   2.500   2.969 -0.0166 -0.1210 -0.4675
 7408SOL    HW133686   1.335   2.571   3.005 -0.6962 -0.3278 -1.0619
 7408SOL    HW233687   1.339   2.474   2.891 -0.0560 -0.0463 -0.4676
 7409SOL     OW33688   1.155   4.297   8.717  0.4510 -0.2387  0.0226
 7409SOL    HW133689   1.183   4.291   8.809  0.7523 -0.1512 -0.0608
 7409SOL    HW233690   1.191   4.386   8.709 -2.0591  0.6318 -1.2312
 7410SOL     OW33691   4.207   2.591   6.179 -0.9185  0.0357 -0.0128
 7410SOL    HW133692   4.303   2.591   6.179 -0.9102 -1.0954 -0.4749
 7410SOL    HW233693   4.188   2.502   6.209 -0.7475  0.4190  1.2242
 7411SOL     OW33694   4.096   0.866   7.402 -0.1553  0.3134  0.1262
 7411SOL    HW133695   4.007   0.889   7.376  0.0730  0.6785 -0.3489
 7411SOL    HW233696   4.148   0.940   7.370 -0.1146  0.8939  1.5301
 7412SOL     OW33697   2.199   1.540  15.917 -0.4390  0.7075  0.5200
 7412SOL    HW133698   2.239   1.508  15.836 -0.0472 -0.6857  1.2556
 7412SOL    HW233699   2.217   1.467  15.976  0.7877  3.0627  3.0237
 7413SOL     OW33700   1.548   2.307  12.376 -0.4550 -0.4573  0.2275
 7413SOL    HW133701   1.570   2.400  12.385  1.9483 -1.2983  2.9796
 7413SOL    HW233702   1.464   2.308  12.330 -0.3912  0.5040  0.1377
 7414SOL     OW33703   1.569   4.249   3.725  0.5731 -0.2119 -0.4639
 7414SOL    HW133704   1.613   4.205   3.653  0.9622  0.8529 -0.8799
 7414SOL    HW233705   1.498   4.292   3.679 -0.4348 -0.3145  0.9836
 7415SOL     OW33706   2.630   1.732   6.199 -0.4264 -0.2584 -0.7471
 7415SOL    HW133707   2.700   1.760   6.139 -0.3102  0.1975 -0.3934
 7415SOL    HW233708   2.578   1.685   6.134 -0.8147 -1.9736  0.8166
 7416SOL     OW33709   4.544   2.069  17.108  0.1894 -0.6610 -0.2651
 7416SOL    HW133710   4.509   1.980  17.099 -2.1671  0.3610 -1.1087
 7416SOL    HW233711   4.600   2.074  17.030 -1.5948  2.0181 -1.3842
 7417SOL     OW33712   1.702   0.959   9.071  1.3057 -0.0762  0.0532
 7417SOL    HW133713   1.759   0.999   9.137  0.2083  0.6437  0.5706
 7417SOL    HW233714   1.691   1.025   9.003 -0.3227  1.0703  1.4536
 7418SOL     OW33715   1.852   4.102   5.781 -0.1180  0.1130 -0.2981
 7418SOL    HW133716   1.783   4.131   5.842 -0.1560  2.1660 -1.3112
 7418SOL    HW233717   1.933   4.122   5.830 -0.6822 -1.4038  1.2480
 7419SOL     OW33718   4.117   2.399   4.501  0.6615 -0.4228 -0.0698
 7419SOL    HW133719   4.047   2.427   4.560  1.0458 -0.5052  0.4236
 7419SOL    HW233720   4.062   2.343   4.446  0.0573 -1.0724  1.1927
 7420SOL     OW33721   2.740   3.001   6.517 -0.2250 -0.6867 -0.4474
 7420SOL    HW133722   2.773   2.928   6.465  1.0032 -2.7253  3.1952
 7420SOL    HW233723   2.804   3.000   6.589 -0.3802  1.5560 -0.2804
 7421SOL     OW33724   3.747   1.590   2.996 -0.3352 -0.0613  0.2804
 7421SOL    HW133725   3.698   1.540   2.931  0.6071 -0.8627  0.1917
 7421SOL    HW233726   3.681   1.658   3.011  0.9704  1.6245 -1.7103
 7422SOL     OW33727   1.576   0.343   7.095 -0.0286  0.1863 -0.4916
 7422SOL    HW133728   1.583   0.288   7.017  0.7873 -1.8287  0.9946
 7422SOL    HW233729   1.653   0.313   7.144 -0.3896  0.3532  0.1657
 7423SOL     OW33730   0.762   3.120  10.911 -0.1731  0.2926  0.4905
 7423SOL    HW133731   0.792   3.102  10.822 -0.0710  0.4913  0.4865
 7423SOL    HW233732   0.682   3.066  10.908  0.8356 -1.3452  2.4911
 7424SOL     OW33733   1.234   3.805   8.281 -0.6072  0.0713  0.4507
 7424SOL    HW133734   1.281   3.730   8.318 -1.7321 -0.7194  0.2836
 7424SOL    HW233735   1.153   3.765   8.249  0.1629 -1.0596 -0.0835
 7425SOL     OW33736   2.005   1.255   0.603  0.2458  0.2548 -0.1656
 7425SOL    HW133737   1.989   1.348   0.617 -1.1174 -0.0497  0.3190
 7425SOL    HW233738   1.932   1.219   0.655  0.2803  1.6783  0.8548
 7426SOL     OW33739   0.522   4.567   1.180 -0.8499  0.1163 -0.0527
 7426SOL    HW133740   0.548   4.642   1.232  1.3132 -0.3944 -0.3927
 7426SOL    HW233741   0.433   4.594   1.154 -0.1319  1.0269 -1.6075
 7427SOL     OW33742   3.835   1.674   7.417 -0.3272  0.4743  0.0359
 7427SOL    HW133743   3.879   1.613   7.476 -1.0508 -0.3984 -0.3303
 7427SOL    HW233744   3.784   1.730   7.477  0.5163  0.2655  0.9402
 7428SOL     OW33745   4.222   2.960  10.406 -0.3846 -0.8556 -0.4681
 7428SOL    HW133746   4.139   2.985  10.447  0.7832  1.9953  0.1380
 7428SOL    HW233747   4.240   2.873  10.441  0.2557 -0.3656  0.4422
 7429SOL     OW33748   4.522   4.101   5.462  0.1106  0.2658 -0.2499
 7429SOL    HW133749   4.617   4.085   5.462  0.0193 -0.2725  0.1818
 7429SOL    HW233750   4.527   4.184   5.510 -0.1448 -0.5168  1.1216
 7430SOL     OW33751   0.929   3.708   7.319 -0.1705  0.0834 -0.1854
 7430SOL    HW133752   0.857   3.706   7.256 -1.2574  0.7986  1.0338
 7430SOL    HW233753   0.998   3.732   7.257  1.8886  0.0873  2.0780
 7431SOL     OW33754   1.851   3.381   6.415 -0.0256 -0.0423 -0.0398
 7431SOL    HW133755   1.776   3.336   6.452  1.0827 -1.7868  0.0935
 7431SOL    HW233756   1.928   3.347   6.460  0.9919  2.1485 -0.1397
 7432SOL     OW33757   4.336   1.941   5.955 -0.1278 -0.2870 -0.2199
 7432SOL    HW133758   4.330   1.873   6.022  0.2207 -0.6964 -0.5998
 7432SOL    HW233759   4.244   1.937   5.930  0.0927 -2.5311 -0.7009
 7433SOL     OW33760   2.799   4.541   8.438 -0.1895  0.0176 -0.1821
 7433SOL    HW133761   2.853   4.534   8.359  0.1815  0.4497  0.0310
 7433SOL    HW233762   2.793   4.635   8.452 -0.2511 -0.0563  0.3010
 7434SOL     OW33763   0.973   0.525  12.084 -0.4924 -0.0737 -0.0622
 7434SOL    HW133764   1.005   0.462  12.149 -2.0413 -0.9448 -0.1404
 7434SOL    HW233765   0.927   0.476  12.015 -1.5736 -0.1524  0.7174
 7435SOL     OW33766   2.654   4.405   5.227 -0.0369 -0.1137  0.3776
 7435SOL    HW133767   2.636   4.498   5.219  1.3715  0.0246 -1.2007
 7435SOL    HW233768   2.682   4.401   5.318 -0.0724  0.3041  0.4061
 7436SOL     OW33769   0.440   0.052   9.236 -0.7319 -0.1512 -0.4072
 7436SOL    HW133770   0.506   0.062   9.167  1.1070  1.3254  1.5494
 7436SOL    HW233771   0.430   0.140   9.272 -1.7059 -0.5379  0.2642
 7437SOL     OW33772   1.068   3.032   2.617  0.2019  0.3576 -0.4166
 7437SOL    HW133773   1.037   3.001   2.703 -0.5930  2.0674 -0.0904
 7437SOL    HW233774   1.079   2.952   2.567 -1.9403  0.2630 -0.7374
 7438SOL     OW33775   0.770   2.744   3.114 -0.0886 -0.1044  0.5968
 7438SOL    HW133776   0.679   2.723   3.092  0.1857 -1.8490  1.1135
 7438SOL    HW233777   0.804   2.730   3.026  2.3146  0.6412  1.4196
 7439SOL     OW33778   0.624   0.898   4.793 -0.5000  0.0501 -0.4489
 7439SOL    HW133779   0.661   0.921   4.708 -0.9067  2.8676  0.1288
 7439SOL    HW233780   0.597   0.980   4.834 -0.9575 -0.1765 -0.2936
 7440SOL     OW33781   3.235   0.904  17.404 -0.6272 -0.0147  0.3297
 7440SOL    HW133782   3.268   0.991  17.380  0.1369 -0.5085 -0.4200
 7440SOL    HW233783   3.189   0.923  17.486 -1.9856 -1.9225  0.0027
 7441SOL     OW33784   0.849   0.978  17.392 -0.4993  0.5781  0.2133
 7441SOL    HW133785   0.798   0.899  17.372 -2.6312  1.5344  1.8570
 7441SOL    HW233786   0.781   1.044  17.407  0.8179  1.6240  1.6023
 7442SOL     OW33787   0.399   0.077   2.212 -0.5226  0.6188 -0.5919
 7442SOL    HW133788   0.446   0.062   2.295 -1.9183  0.9395  0.2640
 7442SOL    HW233789   0.315   0.106   2.248 -0.4576 -0.9064  0.8195
 7443SOL     OW33790   2.326   3.268  15.832 -0.0460 -0.0024 -0.1196
 7443SOL    HW133791   2.320   3.268  15.736 -0.9416 -0.1629 -0.0698
 7443SOL    HW233792   2.259   3.333  15.853 -1.7495 -1.2780 -1.6234
 7444SOL     OW33793   3.783   2.006   5.262  0.2551 -0.0277  0.6455
 7444SOL    HW133794   3.860   1.990   5.317  0.7036  0.8685  0.2674
 7444SOL    HW233795   3.805   1.928   5.211 -1.5543 -0.2174  0.1769
 7445SOL     OW33796   0.662   3.213   2.361 -0.0997  0.5892  0.1687
 7445SOL    HW133797   0.658   3.174   2.273  0.4422  0.8563  0.0297
 7445SOL    HW233798   0.588   3.272   2.349  0.6681  1.1842 -1.6147
 7446SOL     OW33799   1.765   0.800   7.202 -0.5963 -0.0091 -0.2413
 7446SOL    HW133800   1.686   0.797   7.148  1.0491  3.4076 -2.8742
 7446SOL    HW233801   1.830   0.772   7.137  0.4000 -0.0025  0.7457
 7447SOL     OW33802   1.852   0.118   2.793 -0.0734 -0.3961 -0.4575
 7447SOL    HW133803   1.846   0.189   2.730  2.3162 -1.2837 -1.6932
 7447SOL    HW233804   1.810   0.155   2.871  0.0900 -1.4632  0.1463
 7448SOL     OW33805   1.340   3.595   9.228  0.2214 -0.3418  0.8731
 7448SOL    HW133806   1.354   3.636   9.142  0.1892  2.5954  2.2871
 7448SOL    HW233807   1.405   3.640   9.282 -2.7079  1.7203  2.6893
 7449SOL     OW33808   4.173   3.749  10.335 -0.1770 -0.2406 -0.3829
 7449SOL    HW133809   4.082   3.746  10.365 -0.3485 -2.1631 -1.0945
 7449SOL    HW233810   4.169   3.799  10.253 -0.4138  1.1959  0.4999
 7450SOL     OW33811   3.109   2.183   6.413  0.4355 -0.1014 -0.1366
 7450SOL    HW133812   3.185   2.146   6.368  1.9084  1.7692  0.8444
 7450SOL    HW233813   3.042   2.137   6.362  0.7359 -1.4073  0.6255
 7451SOL     OW33814   3.844   0.544  13.820 -0.4148  0.1220  0.6001
 7451SOL    HW133815   3.861   0.489  13.743 -2.1862 -0.0760  0.3504
 7451SOL    HW233816   3.868   0.482  13.888 -1.1201 -0.1840  0.5771
 7452SOL     OW33817   2.654   2.203  13.242  0.6389  0.0296 -0.5434
 7452SOL    HW133818   2.649   2.294  13.212 -0.2580 -0.0109 -0.5115
 7452SOL    HW233819   2.749   2.190  13.246  0.5417 -0.5866 -0.3120
 7453SOL     OW33820   4.102   4.492   7.438 -0.1102  0.1717  0.5211
 7453SOL    HW133821   4.085   4.582   7.464  1.1976  0.5750 -0.0281
 7453SOL    HW233822   4.169   4.459   7.497 -2.6911 -3.9475  1.1236
 7454SOL     OW33823   2.660   1.569   7.592 -0.1144  0.3394 -0.0887
 7454SOL    HW133824   2.614   1.489   7.619  1.7120 -1.0659 -1.2077
 7454SOL    HW233825   2.701   1.602   7.672 -2.6703 -2.1611  2.2443
 7455SOL     OW33826   0.844   2.453   5.158 -0.6958  0.3810 -0.1457
 7455SOL    HW133827   0.808   2.366   5.178 -0.4489  0.3606  0.2155
 7455SOL    HW233828   0.935   2.427   5.141 -0.7606  0.5723 -0.7629
 7456SOL     OW33829   2.679   1.446   7.004  0.2720  0.2414 -0.6622
 7456SOL    HW133830   2.699   1.383   7.073  0.4572  0.2112 -0.7433
 7456SOL    HW233831   2.589   1.419   6.990  0.3985 -0.4811 -0.0925
 7457SOL     OW33832   2.399   0.750  12.787  0.1853 -0.1805 -0.2778
 7457SOL    HW133833   2.372   0.745  12.878 -0.7362  1.4331 -0.4659
 7457SOL    HW233834   2.412   0.844  12.777 -2.9391  0.2034 -0.6887
 7458SOL     OW33835   4.143   3.130   7.858 -0.0546 -0.1582  0.2672
 7458SOL    HW133836   4.120   3.046   7.898 -2.2798  0.2174 -0.2167
 7458SOL    HW233837   4.223   3.106   7.812 -0.2302  0.3081 -0.2916
 7459SOL     OW33838   2.464   0.587  12.536 -0.0524 -0.0162  0.1793
 7459SOL    HW133839   2.453   0.618  12.627 -2.5988  0.0060 -0.1368
 7459SOL    HW233840   2.444   0.668  12.490 -2.0271 -0.3987  0.3516
 7460SOL     OW33841   0.716   2.286  13.715  0.4245  0.0362  0.0319
 7460SOL    HW133842   0.658   2.289  13.791  3.4679 -0.0925  2.3542
 7460SOL    HW233843   0.802   2.311  13.749 -0.1873 -0.4111  1.8806
 7461SOL     OW33844   0.093   4.440  15.352  0.4827 -0.0443 -0.0425
 7461SOL    HW133845   0.059   4.351  15.341 -1.0027  0.4853  0.2826
 7461SOL    HW233846   0.106   4.466  15.260  1.4814 -0.9517 -0.1647
 7462SOL     OW33847   3.415   0.125   4.909 -0.5671 -0.0674  0.0822
 7462SOL    HW133848   3.488   0.067   4.890  1.9631  2.9739  0.4490
 7462SOL    HW233849   3.378   0.103   4.824  0.0575 -1.2173  0.1154
 7463SOL     OW33850   0.255   3.283   9.918 -0.0099  0.2572  0.1019
 7463SOL    HW133851   0.258   3.193   9.949 -0.7358  0.8755  1.9299
 7463SOL    HW233852   0.163   3.310   9.921  0.2158  1.0025  0.3620
 7464SOL     OW33853   3.323   1.578   7.550  0.3866  0.1628  0.0345
 7464SOL    HW133854   3.290   1.664   7.575 -0.7622  0.3333 -2.1047
 7464SOL    HW233855   3.250   1.521   7.574  0.0064  0.6385  0.0006
 7465SOL     OW33856   3.468   3.337   9.630  0.3675  0.3776  0.1170
 7465SOL    HW133857   3.397   3.303   9.575 -0.5892  0.4360  1.3411
 7465SOL    HW233858   3.462   3.273   9.701  0.3146  2.1720  1.7151
 7466SOL     OW33859   0.045   0.799   6.782  0.5838 -0.6471  0.4597
 7466SOL    HW133860   0.105   0.863   6.744  2.2288 -2.0300  0.7377
 7466SOL    HW233861   0.099   0.720   6.777  0.1415 -0.8852 -0.5119
 7467SOL     OW33862   1.173   3.717   7.118  0.0974 -0.0979 -0.0016
 7467SOL    HW133863   1.142   3.775   7.049 -0.3676 -1.2654 -0.7745
 7467SOL    HW233864   1.136   3.634   7.087 -0.9727  0.7124 -0.8929
 7468SOL     OW33865   3.068   3.755   7.402  0.4033 -0.1339 -0.0377
 7468SOL    HW133866   3.035   3.706   7.326  0.1804 -0.6260  0.3804
 7468SOL    HW233867   3.163   3.745   7.398  0.4103  0.4115 -1.2721
 7469SOL     OW33868   0.357   1.720   6.627 -0.6093 -0.4635  0.5687
 7469SOL    HW133869   0.416   1.778   6.579 -1.2118 -1.6131 -1.5512
 7469SOL    HW233870   0.405   1.708   6.709 -1.6861 -0.2596  1.2330
 7470SOL     OW33871   2.621   3.859   8.311 -0.1179  0.0446  0.5098
 7470SOL    HW133872   2.692   3.910   8.271 -0.2293  0.3398  0.6841
 7470SOL    HW233873   2.542   3.861   8.257  0.0540  0.5565  0.2727
 7471SOL     OW33874   2.200   4.624   7.351 -0.0712 -0.2367  0.1568
 7471SOL    HW133875   2.157   4.660   7.273 -1.1763 -2.8305 -0.4581
 7471SOL    HW233876   2.273   4.685   7.355 -1.6010  1.6154  0.0118
 7472SOL     OW33877   3.474   1.441   5.330 -0.2550 -0.1549  0.0830
 7472SOL    HW133878   3.539   1.383   5.290  1.0426  0.5753  1.1137
 7472SOL    HW233879   3.394   1.430   5.279 -0.1014 -0.3247 -0.1229
 7473SOL     OW33880   3.292   2.572  10.238 -0.3925 -0.0839  0.2754
 7473SOL    HW133881   3.350   2.646  10.221  0.5641 -0.8028  0.4122
 7473SOL    HW233882   3.216   2.605  10.286 -2.7273  0.9996 -4.2111
 7474SOL     OW33883   3.259   0.977   4.681 -0.3398 -0.9712  0.3279
 7474SOL    HW133884   3.279   1.013   4.767 -1.4718 -0.2834  0.3151
 7474SOL    HW233885   3.165   0.997   4.680  0.0137  0.7884  1.3640
 7475SOL     OW33886   4.173   3.303   2.520  0.4478 -0.6906 -0.6559
 7475SOL    HW133887   4.126   3.321   2.601  0.2386 -0.3119 -0.8655
 7475SOL    HW233888   4.249   3.250   2.546 -0.0654 -1.3270 -0.4425
 7476SOL     OW33889   2.149   3.310   1.635  0.2828 -0.9129  0.1371
 7476SOL    HW133890   2.107   3.394   1.651  1.5778 -0.3866  0.7284
 7476SOL    HW233891   2.174   3.284   1.724  0.1725  1.7004  0.9379
 7477SOL     OW33892   3.790   0.901   8.844 -0.2195 -1.0061  0.0556
 7477SOL    HW133893   3.790   0.818   8.796  0.6434 -0.8818 -0.1527
 7477SOL    HW233894   3.860   0.883   8.907 -2.5492 -0.0841  2.9103
 7478SOL     OW33895   2.217   1.361  17.497 -0.3943  0.9206 -0.1458
 7478SOL    HW133896   2.303   1.320  17.511 -1.2328 -1.1054 -0.9026
 7478SOL    HW233897   2.236   1.453  17.481 -1.0376  1.2846  1.2027
 7479SOL     OW33898   2.445   3.870   4.501  0.1853  0.2378  0.3231
 7479SOL    HW133899   2.360   3.827   4.496 -0.3859  1.6341 -2.2300
 7479SOL    HW233900   2.494   3.823   4.433 -1.4779 -2.0884  0.7634
 7480SOL     OW33901   1.719   3.957   5.085 -0.5179 -0.1777 -0.2449
 7480SOL    HW133902   1.665   4.031   5.111  0.5371  0.8154 -0.8816
 7480SOL    HW233903   1.683   3.897   5.150 -0.4544 -0.1099 -0.1454
 7481SOL     OW33904   2.032   0.543   9.845 -0.6759 -0.0759 -0.2565
 7481SOL    HW133905   2.083   0.505   9.916  0.6954 -0.1396 -1.2646
 7481SOL    HW233906   2.106   0.596   9.815  0.0415 -0.1604  1.3807
 7482SOL     OW33907   2.865   0.300   5.387 -0.0799  0.0668  0.0855
 7482SOL    HW133908   2.817   0.340   5.314  2.5690  2.5167 -0.3018
 7482SOL    HW233909   2.801   0.230   5.402 -0.1195 -0.4835 -2.5421
 7483SOL     OW33910   3.453   1.383   5.052  0.0287  0.3429 -0.0894
 7483SOL    HW133911   3.535   1.415   5.089 -0.4480  0.6542  0.6777
 7483SOL    HW233912   3.476   1.290   5.056 -0.2620  0.2306 -0.8515
 7484SOL     OW33913   1.654   3.387  17.094  0.5980 -0.1324  0.6582
 7484SOL    HW133914   1.600   3.382  17.173  1.9624  2.8167  1.7890
 7484SOL    HW233915   1.629   3.474  17.062  3.9183  0.2863 -0.7330
 7485SOL     OW33916   2.341   0.857   9.123 -0.2980  0.3948  0.1446
 7485SOL    HW133917   2.264   0.899   9.161  0.1225  0.9453  0.3759
 7485SOL    HW233918   2.347   0.773   9.168 -1.1760 -0.2046 -0.8461
 7486SOL     OW33919   3.993   3.755  15.224  0.7603  0.1274  0.2570
 7486SOL    HW133920   3.952   3.724  15.305 -0.4574 -1.4922 -0.9847
 7486SOL    HW233921   4.076   3.710  15.238  1.3793  1.9453  2.5855
 7487SOL     OW33922   0.435   4.720   8.870  0.2263 -0.3387  0.0022
 7487SOL    HW133923   0.462   4.629   8.872  1.1968 -0.0617 -0.4736
 7487SOL    HW233924   0.479   0.032   8.792  1.5638 -2.1957 -0.0694
 7488SOL     OW33925   4.617   2.047  13.164  0.7946  0.0031  0.2868
 7488SOL    HW133926   4.661   2.096  13.095 -0.5291  1.7572  0.6990
 7488SOL    HW233927   4.610   1.960  13.124  0.1903 -0.4077  1.2883
 7489SOL     OW33928   1.071   2.291   6.711 -0.3737  0.0438 -0.0485
 7489SOL    HW133929   1.075   2.269   6.804 -1.8823  0.1106  0.0298
 7489SOL    HW233930   1.076   2.387   6.716 -0.9158  0.1693 -1.8445
 7490SOL     OW33931   1.793   2.389  14.481 -0.4634  0.8357 -0.2022
 7490SOL    HW133932   1.869   2.402  14.425  1.0326  0.1105  1.6702
 7490SOL    HW233933   1.727   2.366  14.415 -0.6414 -0.4537  0.4252
 7491SOL     OW33934   0.153   3.101   0.629 -0.0602 -0.4015 -0.8609
 7491SOL    HW133935   0.157   3.176   0.688 -0.8742 -2.4506  1.8598
 7491SOL    HW233936   0.060   3.080   0.641 -0.1975 -0.0963 -1.3983
 7492SOL     OW33937   0.880   1.837   0.592  0.1651  0.1291  0.3078
 7492SOL    HW133938   0.865   1.905   0.657  0.1575 -0.3646  0.8265
 7492SOL    HW233939   0.968   1.814   0.621  0.2926  2.2943  1.5781
 7493SOL     OW33940   4.165   2.189   3.300 -0.4031 -0.3746  0.1488
 7493SOL    HW133941   4.121   2.220   3.379 -1.8818 -1.2439 -0.3504
 7493SOL    HW233942   4.107   2.118   3.275 -0.7786 -0.2375  0.6496
 7494SOL     OW33943   1.804   2.549   4.303 -0.1278  0.3571 -0.0875
 7494SOL    HW133944   1.831   2.534   4.212 -2.0222 -0.3048 -0.5307
 7494SOL    HW233945   1.817   2.644   4.309 -1.4889  0.4713  1.0095
 7495SOL     OW33946   0.338   3.011   1.368  0.0164  1.0343  0.0671
 7495SOL    HW133947   0.345   2.990   1.275  0.3619 -0.0530  0.3460
 7495SOL    HW233948   0.428   3.039   1.384 -0.5762  1.9020  1.9661
 7496SOL     OW33949   1.870   0.056  17.611 -0.0079 -0.2992 -0.0843
 7496SOL    HW133950   1.939   0.015  17.664  1.8758  3.1023  0.0950
 7496SOL    HW233951   1.872   0.149  17.633 -0.6896 -0.1359 -0.7004
 7497SOL     OW33952   0.501   2.222  13.915 -0.3390 -0.3460  0.4067
 7497SOL    HW133953   0.457   2.173  13.846 -2.1773 -0.7329  1.8322
 7497SOL    HW233954   0.448   2.202  13.993 -0.7486  1.3086  0.5591
 7498SOL     OW33955   3.806   0.807  15.041  0.2809 -0.9729 -0.4263
 7498SOL    HW133956   3.759   0.819  15.123  2.2832 -2.5116  0.9327
 7498SOL    HW233957   3.881   0.759  15.074  0.0235 -1.0233  0.0920
 7499SOL     OW33958   3.906   1.810   6.194 -0.3063 -0.2608  0.4727
 7499SOL    HW133959   3.956   1.847   6.267 -4.3152  0.5133  2.8321
 7499SOL    HW233960   3.897   1.720   6.225 -0.7145  0.6446  2.9593
 7500SOL     OW33961   1.150   2.733   1.841 -0.0526  0.7036  0.0692
 7500SOL    HW133962   1.130   2.770   1.755 -1.2149  1.2870  0.5973
 7500SOL    HW233963   1.072   2.754   1.892 -1.6615  0.1054 -2.1338
 7501SOL     OW33964   4.462   0.683   6.753 -0.6231  0.5819 -0.1443
 7501SOL    HW133965   4.396   0.615   6.766 -0.5723  0.6273  0.3385
 7501SOL    HW233966   4.542   0.636   6.775 -1.9776 -0.9847  1.4369
 7502SOL     OW33967   0.445   4.495  17.673 -0.3133  0.0065  0.5484
 7502SOL    HW133968   0.361   4.501   0.024  0.3519  0.6597  1.6672
 7502SOL    HW233969   0.422   4.409  17.637 -0.1860  1.0862 -2.1298
 7503SOL     OW33970   2.681   1.090   7.382 -0.0249 -0.1545  0.0245
 7503SOL    HW133971   2.739   1.041   7.441  0.0957  0.4010  0.3696
 7503SOL    HW233972   2.597   1.069   7.422  0.6208 -0.4028  1.2567
 7504SOL     OW33973   3.410   4.503  12.552  0.0459  0.7334 -0.1712
 7504SOL    HW133974   3.354   4.562  12.602  1.0643  0.9543  0.7199
 7504SOL    HW233975   3.393   4.527  12.461 -1.6217 -0.0468 -0.0749
 7505SOL     OW33976   3.395   1.752   3.463  0.9000  0.7400  0.0270
 7505SOL    HW133977   3.361   1.722   3.548  1.1880 -1.7495 -0.7168
 7505SOL    HW233978   3.456   1.683   3.438  1.5469  1.4103 -0.2356
 7506SOL     OW33979   3.142   3.104   7.898 -0.4692 -0.0749  0.0303
 7506SOL    HW133980   3.169   3.187   7.858 -0.4974 -0.2946 -0.4436
 7506SOL    HW233981   3.224   3.088   7.944 -1.3175 -0.7232  1.3271
 7507SOL     OW33982   3.362   4.205   4.914  0.0878 -0.4009  0.0461
 7507SOL    HW133983   3.296   4.190   4.846  1.5178 -0.8505 -1.2463
 7507SOL    HW233984   3.418   4.128   4.913 -0.0064 -0.4918  1.4511
 7508SOL     OW33985   2.015   1.523  11.431  0.0775 -0.4602  0.2822
 7508SOL    HW133986   1.947   1.590  11.423  0.0353 -0.7129 -1.5667
 7508SOL    HW233987   2.004   1.502  11.338 -2.1374 -0.6578  0.5780
 7509SOL     OW33988   3.813   1.511   2.152 -0.0734 -0.6573 -0.2059
 7509SOL    HW133989   3.813   1.484   2.244  0.4204 -1.1911 -0.3587
 7509SOL    HW233990   3.867   1.588   2.171  0.1255 -0.1730 -2.6368
 7510SOL     OW33991   0.327   1.935   4.175 -0.0971  0.6284  0.6797
 7510SOL    HW133992   0.294   1.871   4.112  1.3584 -1.3173  1.8858
 7510SOL    HW233993   0.295   2.014   4.132  1.6989  1.3319  0.6615
 7511SOL     OW33994   0.369   4.152   3.772 -0.9064 -0.0837 -0.2618
 7511SOL    HW133995   0.318   4.233   3.763  0.9540  1.0674 -0.4317
 7511SOL    HW233996   0.425   4.175   3.846 -0.7333 -1.7155  0.1141
 7512SOL     OW33997   0.983   1.090   4.296  0.1857  0.5572 -0.7745
 7512SOL    HW133998   1.017   1.025   4.357 -0.1697  1.2061  0.1071
 7512SOL    HW233999   1.045   1.163   4.304  1.5295 -1.1538  4.4260
 7513SOL     OW34000   1.824   2.490   9.127  0.1315  0.7479  0.5821
 7513SOL    HW134001   1.902   2.544   9.137  0.2690  1.0138 -2.1043
 7513SOL    HW234002   1.783   2.503   9.213  1.9963 -0.6985  1.6789
 7514SOL     OW34003   3.547   1.827  12.152 -0.1672 -0.2979  0.1440
 7514SOL    HW134004   3.549   1.877  12.233 -2.1836  0.9835 -0.6059
 7514SOL    HW234005   3.556   1.740  12.191 -0.3149 -0.7196 -0.7499
 7515SOL     OW34006   1.737   1.409   2.700  0.0606  0.3846 -0.3086
 7515SOL    HW134007   1.792   1.352   2.753 -0.7241 -2.6726 -2.7528
 7515SOL    HW234008   1.649   1.372   2.712  0.1946 -0.7292 -2.7364
 7516SOL     OW34009   3.414   3.920   7.466  0.0689 -0.1111 -0.1151
 7516SOL    HW134010   3.404   3.830   7.434 -2.1674 -0.3516  1.2457
 7516SOL    HW234011   3.325   3.949   7.488 -0.3955 -1.7342  0.1521
 7517SOL     OW34012   1.705   2.739   6.404  0.0046  0.1159 -0.1511
 7517SOL    HW134013   1.656   2.806   6.451  0.5997 -0.3069  1.0861
 7517SOL    HW234014   1.714   2.788   6.322 -2.0163  0.3525 -0.2353
 7518SOL     OW34015   1.400   2.439   6.832 -0.2393  0.0254 -0.7012
 7518SOL    HW134016   1.410   2.517   6.778 -0.7371 -1.2004 -2.5895
 7518SOL    HW234017   1.415   2.478   6.917  1.0411 -0.7393 -0.5632
 7519SOL     OW34018   0.960   0.525   4.624 -0.4491  0.0036 -0.4819
 7519SOL    HW134019   0.906   0.478   4.687 -0.0031 -0.1233 -0.1946
 7519SOL    HW234020   0.918   0.611   4.637 -1.1587 -0.4594  0.3250
 7520SOL     OW34021   3.999   1.242   2.527 -0.6935 -0.3031 -0.2389
 7520SOL    HW134022   4.037   1.170   2.478 -2.2100 -0.9596 -0.4405
 7520SOL    HW234023   3.996   1.213   2.618 -2.0903  0.6861  0.0308
 7521SOL     OW34024   1.845   0.979   2.469  0.2370 -0.2063 -0.0299
 7521SOL    HW134025   1.886   0.926   2.400 -1.7103 -1.3100 -0.3221
 7521SOL    HW234026   1.754   0.995   2.445  0.0724  0.3136  0.9628
 7522SOL     OW34027   0.337   2.901   3.580  0.0910  0.5398  0.6035
 7522SOL    HW134028   0.354   2.994   3.567 -0.4197  0.7077  1.1603
 7522SOL    HW234029   0.309   2.922   3.669 -0.6628  0.6698  0.3338
 7523SOL     OW34030   3.965   3.973   2.179 -0.2164 -0.3944  0.2930
 7523SOL    HW134031   4.052   3.945   2.150 -0.2930  0.9311 -1.2243
 7523SOL    HW234032   3.957   4.037   2.108  0.0747 -1.1144 -0.3892
 7524SOL     OW34033   2.530   4.206   5.990 -0.4287 -0.1696  0.7371
 7524SOL    HW134034   2.439   4.234   5.994 -0.7770 -1.5436  2.2762
 7524SOL    HW234035   2.528   4.134   5.927  1.0163 -0.7933  1.4165
 7525SOL     OW34036   2.364   3.937   0.658 -0.0716 -0.4648 -0.2871
 7525SOL    HW134037   2.411   3.869   0.706 -0.5956  1.2535  2.6783
 7525SOL    HW234038   2.287   3.894   0.620 -0.2114 -0.8961  0.4691
 7526SOL     OW34039   3.743   1.972   7.766  0.2715  0.3303 -0.5645
 7526SOL    HW134040   3.835   1.992   7.751  0.4017  2.3456  3.0700
 7526SOL    HW234041   3.701   2.033   7.705 -0.7324 -1.6088 -1.8133
 7527SOL     OW34042   3.181   1.890   7.949  0.3396 -0.3657  0.0044
 7527SOL    HW134043   3.118   1.847   8.006 -0.0283 -1.2054 -1.0206
 7527SOL    HW234044   3.259   1.835   7.946  0.1039 -0.7192  0.4686
 7528SOL     OW34045   1.542   2.005   4.264  0.1891  0.6221  0.0815
 7528SOL    HW134046   1.578   2.013   4.176 -0.1789  1.6608  0.0264
 7528SOL    HW234047   1.452   1.985   4.240  0.5061 -0.8656  0.1088
 7529SOL     OW34048   1.568   3.143  13.334 -0.1549  0.1199 -0.5906
 7529SOL    HW134049   1.658   3.177  13.329 -0.0090 -0.4820 -1.8017
 7529SOL    HW234050   1.538   3.148  13.244 -0.9393 -2.7264 -0.4893
 7530SOL     OW34051   1.966   4.221   1.893 -0.3306 -0.2544 -0.2098
 7530SOL    HW134052   1.956   4.258   1.805 -0.5115 -2.3120 -1.0359
 7530SOL    HW234053   2.006   4.140   1.861  3.4451  1.2527  0.7138
 7531SOL     OW34054   1.838   2.604  13.958  0.5116 -0.0474 -0.1559
 7531SOL    HW134055   1.873   2.693  13.955  0.1776  0.0872  0.0942
 7531SOL    HW234056   1.842   2.576  14.049 -0.2374  0.1006 -0.0781
 7532SOL     OW34057   4.656   3.046   6.454  0.0076  0.1030 -0.2473
 7532SOL    HW134058   4.585   3.110   6.463  0.7280  0.6594  1.4399
 7532SOL    HW234059   4.699   3.073   6.373 -0.1783 -2.5896 -1.2415
 7533SOL     OW34060   1.180   4.416   7.520 -0.1218 -0.2192  0.1095
 7533SOL    HW134061   1.128   4.344   7.556  2.2797 -2.2950 -0.6514
 7533SOL    HW234062   1.185   4.477   7.594 -3.0134  1.5816 -1.1856
 7534SOL     OW34063   2.899   4.291   2.556 -0.0691  0.4053  0.4872
 7534SOL    HW134064   2.843   4.363   2.584 -0.2490  1.4316 -2.5135
 7534SOL    HW234065   2.837   4.224   2.529 -1.0129  0.9120  1.3951
 7535SOL     OW34066   1.055   0.154   8.663  0.0714  0.0658 -0.7665
 7535SOL    HW134067   1.057   0.130   8.755 -0.0095  0.9427 -0.5308
 7535SOL    HW234068   0.982   0.101   8.633  0.8759 -1.9320  0.8480
 7536SOL     OW34069   2.968   1.561   8.678  0.5909  0.1599  0.0220
 7536SOL    HW134070   2.877   1.563   8.649  0.6538 -1.0725 -0.2152
 7536SOL    HW234071   2.994   1.653   8.691  1.2944  0.0889 -0.9065
 7537SOL     OW34072   0.551   3.164   9.719 -0.1395 -0.1626  0.1094
 7537SOL    HW134073   0.519   3.254   9.716  0.7747  0.1554 -0.1256
 7537SOL    HW234074   0.470   3.113   9.726 -0.0809 -0.1089  1.1553
 7538SOL     OW34075   0.050   2.957   3.374  0.1700  0.1490 -0.2018
 7538SOL    HW134076   0.131   2.917   3.344  0.9507  0.6830  1.2077
 7538SOL    HW234077   0.070   2.985   3.464  1.6127 -0.2041 -0.4096
 7539SOL     OW34078   1.525   2.239   4.845  0.0359  0.1763 -1.1104
 7539SOL    HW134079   1.613   2.276   4.851  0.6457 -1.4948  0.2570
 7539SOL    HW234080   1.553   2.148   4.847  1.1225  0.4911 -2.3327
 7540SOL     OW34081   3.760   0.528  16.211 -0.0782  0.6869 -0.1299
 7540SOL    HW134082   3.786   0.545  16.120  0.4543 -0.3839 -0.1779
 7540SOL    HW234083   3.763   0.433  16.199  0.6194  0.4945  1.4771
 7541SOL     OW34084   2.278   1.576   6.268 -0.3901  0.3216  0.1028
 7541SOL    HW134085   2.358   1.545   6.225  0.0968 -0.5950  1.6843
 7541SOL    HW234086   2.302   1.662   6.303  2.4364 -1.8250  3.3047
 7542SOL     OW34087   1.389   0.237   7.249  0.1624  0.4804 -0.3581
 7542SOL    HW134088   1.459   0.264   7.189  0.3421 -1.1932 -0.8950
 7542SOL    HW234089   1.429   0.258   7.333  0.1943  2.6604 -0.9108
 7543SOL     OW34090   3.007   0.720   1.867 -0.0201  0.2772 -0.0039
 7543SOL    HW134091   2.933   0.675   1.908  1.0775 -1.0565  0.5117
 7543SOL    HW234092   2.963   0.759   1.792 -0.1210  2.8857  1.3915
 7544SOL     OW34093   2.301   1.556  17.261 -0.6763 -0.3265  0.1334
 7544SOL    HW134094   2.243   1.491  17.221 -1.1367  0.4973 -0.5235
 7544SOL    HW234095   2.384   1.543  17.216 -0.1891  0.1371  0.8968
 7545SOL     OW34096   2.568   2.283   9.090  0.1987 -0.0040 -0.7012
 7545SOL    HW134097   2.557   2.287   8.995  0.3965  3.9016 -0.5581
 7545SOL    HW234098   2.475   2.280   9.114 -0.6823  1.3441 -3.9418
 7546SOL     OW34099   3.958   0.495   7.267  1.0961  0.1337  0.1128
 7546SOL    HW134100   3.989   0.557   7.201  2.9423  0.6708  1.4892
 7546SOL    HW234101   4.029   0.431   7.268  0.0858 -1.0194 -1.1442
 7547SOL     OW34102   2.134   2.454   6.433  0.1804  0.4668  0.1220
 7547SOL    HW134103   2.175   2.488   6.354 -0.9367  0.9515 -0.2509
 7547SOL    HW234104   2.217   2.431   6.476  0.0116  0.4704  0.4485
 7548SOL     OW34105   2.221   1.767   9.788 -0.0532 -0.4750 -0.0129
 7548SOL    HW134106   2.194   1.682   9.755 -0.8478 -0.4130  0.4623
 7548SOL    HW234107   2.308   1.745   9.821  1.3882  1.3733 -2.6243
 7549SOL     OW34108   3.943   0.508   2.108  0.3404  0.3589  0.4714
 7549SOL    HW134109   4.003   0.527   2.035  0.6114 -0.8478  0.3835
 7549SOL    HW234110   3.995   0.451   2.164  0.4565  2.4163  2.4453
 7550SOL     OW34111   3.131   3.740   9.764  0.4811 -0.4651 -0.3242
 7550SOL    HW134112   3.169   3.653   9.749  0.1947 -0.6341 -0.0817
 7550SOL    HW234113   3.211   3.786   9.788 -1.1536  1.0750  2.1356
 7551SOL     OW34114   0.135   4.405   0.494 -0.0668 -0.2362  0.0090
 7551SOL    HW134115   0.109   4.458   0.419  2.0926  0.9982  0.1285
 7551SOL    HW234116   0.174   4.470   0.553  0.7073 -0.5055 -0.1968
 7552SOL     OW34117   2.441   2.729   2.466  0.4124  0.3037 -0.0721
 7552SOL    HW134118   2.489   2.660   2.419  0.6738 -0.0890  0.7532
 7552SOL    HW234119   2.504   2.801   2.472  1.0182 -0.0892 -1.6777
 7553SOL     OW34120   2.550   3.518  10.427 -0.4586  0.4255 -0.2960
 7553SOL    HW134121   2.598   3.457  10.483 -1.4080  1.1753  1.3298
 7553SOL    HW234122   2.568   3.494  10.336 -2.6996 -0.9111 -0.3738
 7554SOL     OW34123   0.809   2.965  12.688 -0.0731 -0.3005 -0.4766
 7554SOL    HW134124   0.871   2.942  12.619  1.1113 -0.7157  0.7114
 7554SOL    HW234125   0.760   2.885  12.706 -1.9831  0.7187 -1.2202
 7555SOL     OW34126   3.519   1.508   6.255  0.4595 -0.8440 -0.6807
 7555SOL    HW134127   3.540   1.436   6.315  2.7884  0.9007  0.5766
 7555SOL    HW234128   3.427   1.490   6.234 -0.3916  1.2656  1.3759
 7556SOL     OW34129   3.933   0.373   5.180 -0.5674 -0.9537 -0.3680
 7556SOL    HW134130   3.851   0.331   5.208 -0.1937 -0.5024  1.4028
 7556SOL    HW234131   3.903   0.400   5.093  0.3968  0.0914 -0.3589
 7557SOL     OW34132   0.846   0.213   4.424  0.3345  0.1396 -0.4752
 7557SOL    HW134133   0.790   0.290   4.432 -0.0043 -0.2341  0.8800
 7557SOL    HW234134   0.929   0.251   4.396  0.2832  1.5386  1.2811
 7558SOL     OW34135   0.778   2.971   2.509 -0.0334  0.6863  0.2700
 7558SOL    HW134136   0.872   2.960   2.496 -0.4015 -0.9076 -1.0438
 7558SOL    HW234137   0.766   3.045   2.450 -3.0162  1.5019  1.8864
 7559SOL     OW34138   0.582   2.555   5.393 -0.4492  0.0748 -0.0073
 7559SOL    HW134139   0.560   2.478   5.341  1.5551 -1.3650  1.2685
 7559SOL    HW234140   0.527   2.621   5.351  0.0866  0.8918  0.5657
 7560SOL     OW34141   1.036   4.119   0.174 -0.4214  0.3007  0.5548
 7560SOL    HW134142   0.994   4.034   0.174  0.8932 -0.3423  1.2014
 7560SOL    HW234143   0.973   4.158   0.112  0.1743 -0.1388 -0.3285
 7561SOL     OW34144   3.159   3.913   3.699 -0.4967 -0.6180  0.1262
 7561SOL    HW134145   3.247   3.951   3.693 -0.5533 -0.7325 -1.5546
 7561SOL    HW234146   3.144   3.910   3.794  0.3831  1.8293  0.3456
 7562SOL     OW34147   2.739   2.688   4.948  0.1841  0.1049  0.1837
 7562SOL    HW134148   2.805   2.751   4.920  1.7768 -2.2277 -1.2618
 7562SOL    HW234149   2.787   2.610   4.974 -1.2312 -1.1249 -0.9010
 7563SOL     OW34150   3.776   3.546  13.269  0.5104  0.0092  0.5756
 7563SOL    HW134151   3.744   3.518  13.354  1.8136 -2.6936  0.2016
 7563SOL    HW234152   3.699   3.578  13.221  1.3296  0.2416 -0.6041
 7564SOL     OW34153   2.756   1.358  16.168  0.2862 -0.2566 -0.4295
 7564SOL    HW134154   2.677   1.360  16.114  0.1551 -1.7352 -0.2816
 7564SOL    HW234155   2.768   1.271  16.204  1.0306  0.1508  0.3061
 7565SOL     OW34156   3.793   2.270  12.032  0.3915  0.0190 -0.2598
 7565SOL    HW134157   3.727   2.320  11.984 -0.2325 -0.7597 -0.2122
 7565SOL    HW234158   3.750   2.222  12.102  2.1057 -1.1485  0.0121
 7566SOL     OW34159   3.812   1.331   2.349  0.3118  0.2849 -0.4030
 7566SOL    HW134160   3.781   1.245   2.319  0.6096  0.3636 -0.9249
 7566SOL    HW234161   3.843   1.307   2.436 -1.3370  1.0780  0.3997
 7567SOL     OW34162   1.433   0.783   5.338 -0.4851 -0.3079 -0.1897
 7567SOL    HW134163   1.348   0.743   5.356 -0.4812  0.4066  1.4219
 7567SOL    HW234164   1.480   0.722   5.282 -0.3033 -2.0231  1.8268
 7568SOL     OW34165   1.460   3.812   6.327  0.1531 -0.9407  0.1691
 7568SOL    HW134166   1.499   3.856   6.402 -0.1193 -1.2726  0.5028
 7568SOL    HW234167   1.548   3.803   6.288 -0.9233 -2.1554 -1.9883
 7569SOL     OW34168   1.730   2.657   2.611 -0.5458 -0.5961 -0.5346
 7569SOL    HW134169   1.653   2.621   2.567 -0.3955  1.6703 -2.6100
 7569SOL    HW234170   1.738   2.732   2.553  0.0982 -1.0882 -1.0738
 7570SOL     OW34171   3.707   2.417   5.287  0.2814  0.5690 -0.1030
 7570SOL    HW134172   3.675   2.343   5.337  2.6773  1.5513  2.8949
 7570SOL    HW234173   3.795   2.400   5.253 -0.1727 -0.7846 -0.6003
 7571SOL     OW34174   0.986   1.626   3.749 -0.1977 -0.2508 -0.2957
 7571SOL    HW134175   0.939   1.661   3.824 -0.4442 -0.8321 -0.1794
 7571SOL    HW234176   0.974   1.705   3.697  0.1888  0.5924  0.8971
 7572SOL     OW34177   0.827   0.703   3.404 -0.3734  0.3006  0.4473
 7572SOL    HW134178   0.821   0.772   3.338 -2.2493  0.2114  0.5267
 7572SOL    HW234179   0.905   0.729   3.452 -0.7469 -0.1434  1.2918
 7573SOL     OW34180   4.448   1.877   7.043  0.0187  0.1480 -0.6037
 7573SOL    HW134181   4.473   1.819   7.116 -1.8657  0.2971  0.1547
 7573SOL    HW234182   4.402   1.824   6.979  0.2200 -1.1935  0.3489
 7574SOL     OW34183   0.511   2.964   5.081  0.3712  0.4429  0.2658
 7574SOL    HW134184   0.572   2.937   5.013 -0.8777 -1.0466 -0.2655
 7574SOL    HW234185   0.425   2.958   5.038 -0.4032  3.0182  1.4413
 7575SOL     OW34186   4.544   3.792   8.058  0.0751  0.0486 -0.1261
 7575SOL    HW134187   4.510   3.761   7.974  0.7465 -0.9593 -0.0173
 7575SOL    HW234188   4.601   3.852   8.011 -0.7594  0.9694  0.0381
 7576SOL     OW34189   1.890   1.784   3.709  0.4307 -0.5540  0.2669
 7576SOL    HW134190   1.985   1.785   3.719  0.5742 -2.9154 -0.7205
 7576SOL    HW234191   1.882   1.864   3.760  0.0446 -0.9527  0.8268
 7577SOL     OW34192   1.116   0.972   9.161  0.5823  0.4678  0.1030
 7577SOL    HW134193   1.023   0.947   9.162  0.8702 -0.6781 -2.2021
 7577SOL    HW234194   1.155   0.948   9.077  0.4086 -0.1091  0.1880
 7578SOL     OW34195   2.992   2.092   3.362 -0.1182 -0.8275 -0.1129
 7578SOL    HW134196   2.918   2.069   3.306 -1.3270  1.7699  0.3912
 7578SOL    HW234197   2.957   2.074   3.449 -1.3833 -2.2740 -0.9235
 7579SOL     OW34198   3.595   2.152  14.574  0.4666 -0.1122 -0.2441
 7579SOL    HW134199   3.555   2.182  14.492 -1.4205  0.5481  0.9166
 7579SOL    HW234200   3.683   2.183  14.555  0.9288 -0.3174  1.5475
 7580SOL     OW34201   3.857   4.346  16.340 -0.0527 -0.2241 -0.0776
 7580SOL    HW134202   3.857   4.269  16.282  0.0831 -0.3236  0.0568
 7580SOL    HW234203   3.944   4.381  16.323  0.8031 -2.4234 -0.2992
 7581SOL     OW34204   1.775   0.716   7.575 -0.6147 -0.5570 -0.5494
 7581SOL    HW134205   1.809   0.736   7.662  1.5884  2.0002 -2.0020
 7581SOL    HW234206   1.777   0.801   7.532 -0.6825 -0.1073  0.3352
 7582SOL     OW34207   1.854   2.308  10.479  0.9669  0.2224 -0.2496
 7582SOL    HW134208   1.784   2.243  10.487 -0.3099  1.6009 -0.1949
 7582SOL    HW234209   1.937   2.264  10.461 -0.1482 -1.8883 -0.2424
 7583SOL     OW34210   3.261   2.700  12.170 -0.2403  0.2657  0.0551
 7583SOL    HW134211   3.300   2.617  12.144 -0.2107 -0.1098  1.3082
 7583SOL    HW234212   3.321   2.724  12.240 -1.8319  3.3580  0.3648
 7584SOL     OW34213   2.790   3.830   4.966  0.0993  0.1472 -0.0361
 7584SOL    HW134214   2.702   3.806   4.998  0.2768  0.7547  0.9277
 7584SOL    HW234215   2.846   3.785   5.029  2.3931  0.3833 -1.9204
 7585SOL     OW34216   0.974   3.057   1.441  0.3463  0.0358 -0.2994
 7585SOL    HW134217   0.926   3.069   1.360 -0.8087 -1.8317  0.0931
 7585SOL    HW234218   0.909   3.082   1.507  0.0124  0.4961 -0.8129
 7586SOL     OW34219   1.776   2.761   6.007 -0.3346 -0.2525  0.3744
 7586SOL    HW134220   1.817   2.785   5.924 -3.2481  0.5479 -0.8445
 7586SOL    HW234221   1.785   2.667   5.995 -1.4502 -0.1872 -0.9793
 7587SOL     OW34222   0.565   2.557  13.893 -0.1570 -0.1255 -0.2800
 7587SOL    HW134223   0.484   2.510  13.873 -0.8326  1.1911 -0.6239
 7587SOL    HW234224   0.568   2.630  13.832 -0.3741  1.5962  1.7888
 7588SOL     OW34225   2.590   0.245  16.498  0.3561  0.2283 -0.3309
 7588SOL    HW134226   2.513   0.302  16.497  0.1051 -0.0637  1.1974
 7588SOL    HW234227   2.616   0.271  16.410  1.4668 -0.6424 -0.2583
 7589SOL     OW34228   2.130   0.699   3.734 -0.0590  0.0203  0.1211
 7589SOL    HW134229   2.143   0.793   3.737 -1.1727  0.1594  0.4717
 7589SOL    HW234230   2.073   0.687   3.658  0.0035 -0.0290  0.0812
 7590SOL     OW34231   1.977   3.696   4.440 -0.5606  0.0372  0.1958
 7590SOL    HW134232   1.929   3.732   4.365 -0.0755  2.1290  0.8671
 7590SOL    HW234233   1.907   3.718   4.502 -0.5179  1.3324 -0.2141
 7591SOL     OW34234   4.458   4.257   7.486 -0.1774 -0.5565  0.7100
 7591SOL    HW134235   4.414   4.308   7.418 -1.0815 -2.9602 -0.5056
 7591SOL    HW234236   4.418   4.294   7.565  1.2308  3.2104 -0.3035
 7592SOL     OW34237   0.088   3.027   5.948 -0.2953 -0.4136 -0.0523
 7592SOL    HW134238   0.102   2.991   5.860  0.8876 -1.6212  0.6211
 7592SOL    HW234239   0.148   3.101   5.937 -0.8788  0.1085  0.3207
 7593SOL     OW34240   4.276   4.122   3.149  0.2466 -0.4173  0.6397
 7593SOL    HW134241   4.208   4.151   3.087  0.3384  1.3004  1.3221
 7593SOL    HW234242   4.313   4.042   3.111 -1.3282 -1.4044  1.1946
 7594SOL     OW34243   3.115   3.186  11.045 -0.4243 -0.3982 -0.4428
 7594SOL    HW134244   3.108   3.266  11.097  2.8897 -1.3774  1.5127
 7594SOL    HW234245   3.203   3.205  11.011  0.2209  1.9075  2.4817
 7595SOL     OW34246   3.151   0.912   5.714  0.2006 -0.0120  0.2025
 7595SOL    HW134247   3.177   0.898   5.624  1.2487  1.9254  0.1975
 7595SOL    HW234248   3.082   0.848   5.730  1.2213 -1.4132 -1.0337
 7596SOL     OW34249   4.633   2.929  17.120  0.3331 -0.2882  0.1433
 7596SOL    HW134250   4.583   2.891  17.048  1.4489 -0.2365 -0.6700
 7596SOL    HW234251   4.594   3.016  17.119 -0.1302 -0.4343  3.9461
 7597SOL     OW34252   3.593   4.159   9.274 -0.5092  0.1691  0.2014
 7597SOL    HW134253   3.539   4.097   9.323 -1.2767 -0.2793 -1.2034
 7597SOL    HW234254   3.678   4.148   9.317  0.6244  0.9566 -1.7969
 7598SOL     OW34255   3.831   1.292   7.197  0.1162  0.3316 -0.4600
 7598SOL    HW134256   3.802   1.240   7.122  1.3378  1.3110 -1.6136
 7598SOL    HW234257   3.771   1.270   7.268  1.0372  1.6036  0.7114
 7599SOL     OW34258   1.339   1.678   9.308 -0.2389 -0.0867 -0.5832
 7599SOL    HW134259   1.397   1.640   9.241  0.3780  1.7076 -1.0575
 7599SOL    HW234260   1.390   1.653   9.385  0.0902 -0.4082 -0.9031
 7600SOL     OW34261   1.700   4.692   8.555  1.0158  0.0125 -0.0318
 7600SOL    HW134262   1.681   0.020   8.476 -0.3810  0.9968  0.9574
 7600SOL    HW234263   1.793   4.671   8.545  0.8188 -0.0196 -1.8067
 7601SOL     OW34264   0.640   3.381  11.246 -0.3879  0.0662  0.2126
 7601SOL    HW134265   0.625   3.350  11.335  0.0412 -1.7760 -0.3603
 7601SOL    HW234266   0.702   3.316  11.213 -0.7439 -0.2590  0.1879
 7602SOL     OW34267   4.630   0.030   1.915  0.6441 -0.0075 -0.2612
 7602SOL    HW134268   4.600   0.110   1.957 -2.5940 -0.1457 -2.3930
 7602SOL    HW234269   4.561   4.692   1.941  0.3769  0.3376 -0.1625
 7603SOL     OW34270   1.501   3.186   6.772 -0.5196  0.2989 -0.3678
 7603SOL    HW134271   1.582   3.185   6.823  0.0050  0.5684 -1.1985
 7603SOL    HW234272   1.460   3.266   6.806  0.2872  0.1658  0.9051
 7604SOL     OW34273   2.962   3.205  13.068 -0.7149  0.1987  0.0265
 7604SOL    HW134274   2.985   3.280  13.013  0.4162 -0.7006 -0.7160
 7604SOL    HW234275   2.870   3.189  13.050 -0.2547 -0.7760 -1.4391
 7605SOL     OW34276   0.244   0.207   3.597  0.1242 -0.1938 -0.3494
 7605SOL    HW134277   0.175   0.224   3.533  1.2426 -1.8061 -1.9691
 7605SOL    HW234278   0.200   0.244   3.674  1.1746  1.2056 -0.4134
 7606SOL     OW34279   4.036   2.869   7.608  0.6337 -0.7371 -0.2006
 7606SOL    HW134280   4.088   2.882   7.528  0.4469  0.6246 -0.0895
 7606SOL    HW234281   4.107   2.859   7.672  0.8086  1.7057 -0.0046
 7607SOL     OW34282   3.626   4.083   8.757 -0.1405 -1.0342  0.2739
 7607SOL    HW134283   3.630   4.001   8.807  1.7335 -0.5829  0.8576
 7607SOL    HW234284   3.682   4.074   8.680  0.5973  0.5685  0.6276
 7608SOL     OW34285   2.532   3.052   2.955  0.0921  0.1171  0.2446
 7608SOL    HW134286   2.592   2.979   2.940 -0.6415 -0.2362 -0.9487
 7608SOL    HW234287   2.507   3.053   3.048  1.3741  2.0284  0.5523
 7609SOL     OW34288   2.923   1.360  10.466  0.3362 -0.4018 -0.1801
 7609SOL    HW134289   2.973   1.421  10.520  0.3404  0.0761 -0.7150
 7609SOL    HW234290   2.885   1.413  10.395 -0.3175  0.3745  0.7463
 7610SOL     OW34291   3.674   3.367  11.521  0.0957  0.0924  0.6709
 7610SOL    HW134292   3.691   3.422  11.598 -0.1841 -0.0182  0.8137
 7610SOL    HW234293   3.588   3.398  11.493 -0.9314  0.1459  3.8789
 7611SOL     OW34294   0.487   1.152   1.728 -0.1677  0.1853 -0.1807
 7611SOL    HW134295   0.435   1.226   1.699  0.2144  0.2530 -0.6863
 7611SOL    HW234296   0.545   1.200   1.787 -2.4837  0.9918  1.4530
 7612SOL     OW34297   3.059   1.572  15.614  0.3405  0.6348 -0.0705
 7612SOL    HW134298   2.975   1.550  15.574  0.7899  1.6160 -1.5376
 7612SOL    HW234299   3.071   1.499  15.674 -1.4829 -0.2217 -0.7514
 7613SOL     OW34300   4.711   3.752  11.733  0.1003 -0.3056 -0.2872
 7613SOL    HW134301   4.699   3.775  11.825 -1.0862  2.9082 -1.2660
 7613SOL    HW234302   4.663   3.669  11.727 -0.7394  0.3220 -2.3090
 7614SOL     OW34303   0.567   2.218  14.755  0.5451 -0.0016  0.4578
 7614SOL    HW134304   0.662   2.209  14.767  1.0180  3.1873 -0.9918
 7614SOL    HW234305   0.541   2.126  14.757  2.5876 -0.5933  0.7580
 7615SOL     OW34306   4.145   1.097   4.325  0.3132 -0.1941 -0.1823
 7615SOL    HW134307   4.150   1.003   4.343  0.2740  0.2757  2.3286
 7615SOL    HW234308   4.214   1.088   4.260 -0.1082  1.4897 -0.8718
 7616SOL     OW34309   2.728   0.840   8.821  0.5426  0.1245  0.0868
 7616SOL    HW134310   2.745   0.758   8.868  0.9263  0.8478  1.2046
 7616SOL    HW234311   2.676   0.883   8.889  0.8532 -1.1495  1.1233
 7617SOL     OW34312   1.206   2.448   1.076  0.1915  0.1318  0.1270
 7617SOL    HW134313   1.293   2.487   1.067  0.7284 -0.6077  2.0471
 7617SOL    HW234314   1.161   2.484   1.000 -0.1226  1.2335  0.8345
 7618SOL     OW34315   4.577   0.570   1.133 -0.5372 -0.0098 -0.0611
 7618SOL    HW134316   4.510   0.506   1.108  0.3925 -1.2633  0.6611
 7618SOL    HW234317   4.613   0.586   1.046  0.9549  1.0667  0.7660
 7619SOL     OW34318   0.775   0.224   8.319 -0.0487  0.1921 -0.4464
 7619SOL    HW134319   0.848   0.250   8.375 -0.4280  1.4438 -0.5245
 7619SOL    HW234320   0.728   0.166   8.378 -1.5084  0.7742 -1.0140
 7620SOL     OW34321   0.857   2.218   9.263 -0.5727 -0.5480  0.3486
 7620SOL    HW134322   0.785   2.179   9.313 -1.0337  1.0290  0.9221
 7620SOL    HW234323   0.927   2.212   9.329 -0.4184  1.2871  0.3391
 7621SOL     OW34324   1.788   4.670   6.126 -0.1366 -0.3611 -0.8350
 7621SOL    HW134325   1.834   0.027   6.104  2.3489 -1.6453 -0.3358
 7621SOL    HW234326   1.771   4.626   6.043  0.8677 -2.3846  0.0310
 7622SOL     OW34327   4.225   1.061   8.771 -0.5716  0.2374 -0.4835
 7622SOL    HW134328   4.209   1.130   8.835  0.2156  1.1722 -1.2954
 7622SOL    HW234329   4.185   1.095   8.691  0.2394  2.4681  0.0773
 7623SOL     OW34330   0.345   0.274   1.659 -0.5133 -0.2650 -0.0377
 7623SOL    HW134331   0.401   0.201   1.632 -2.2365 -1.7970  0.4918
 7623SOL    HW234332   0.393   0.352   1.632 -1.1501 -0.1137 -0.7428
 7624SOL     OW34333   4.035   1.295  17.140  0.4883  0.1513 -0.2301
 7624SOL    HW134334   3.948   1.255  17.143 -0.4273  2.2168  1.6314
 7624SOL    HW234335   4.086   1.240  17.199  1.2975  3.2668  1.9878
 7625SOL     OW34336   0.237   4.081  17.306 -0.4226  0.1987 -0.0876
 7625SOL    HW134337   0.250   4.042  17.392  2.3368  0.8948 -0.1714
 7625SOL    HW234338   0.252   4.004  17.250  1.5158  0.2314  0.3586
 7626SOL     OW34339   4.080   1.843   0.111  0.6643  0.2235 -0.4399
 7626SOL    HW134340   3.987   1.859   0.129  0.2541 -1.1189 -1.3336
 7626SOL    HW234341   4.078   1.777   0.041  1.1321 -1.1913  0.8868
 7627SOL     OW34342   0.651   4.291  14.783  0.5930  0.2973 -0.7466
 7627SOL    HW134343   0.567   4.334  14.790 -0.4214 -1.7283 -0.4754
 7627SOL    HW234344   0.616   4.205  14.760 -0.6236  0.0161  2.2340
 7628SOL     OW34345   4.192   3.313  16.205 -0.0877 -0.2129 -0.7524
 7628SOL    HW134346   4.117   3.320  16.146 -0.7791  0.7504  0.2297
 7628SOL    HW234347   4.252   3.336  16.135 -1.1858 -4.7301 -3.1746
 7629SOL     OW34348   3.410   2.536  13.736  0.1615  0.4419 -0.0114
 7629SOL    HW134349   3.493   2.578  13.713 -0.0839  0.9113 -0.0364
 7629SOL    HW234350   3.444   2.447  13.748 -0.3196  0.0650 -1.5157
 7630SOL     OW34351   2.982   1.907  11.972 -0.1290 -0.1015  0.5428
 7630SOL    HW134352   2.995   1.963  12.049 -0.6287 -0.8130  1.1480
 7630SOL    HW234353   3.019   1.828  12.012 -1.6863 -0.4147  1.3895
 7631SOL     OW34354   0.396   3.315   0.293  0.0891  0.3826  0.0489
 7631SOL    HW134355   0.343   3.355   0.362 -0.8666 -0.9310  0.0769
 7631SOL    HW234356   0.389   3.383   0.226 -1.5664 -0.6236 -0.7884
 7632SOL     OW34357   4.666   2.791   7.802 -0.1698  0.4667 -0.2598
 7632SOL    HW134358   0.006   2.850   7.762 -0.2757 -0.5843 -1.9541
 7632SOL    HW234359   4.619   2.849   7.861 -2.0894 -0.4719 -0.8558
 7633SOL     OW34360   0.850   4.240   5.483  0.5330 -0.3996  0.2267
 7633SOL    HW134361   0.913   4.184   5.527  1.3111 -0.0033 -0.3771
 7633SOL    HW234362   0.851   4.227   5.388  4.0954 -0.8665  0.3141
 7634SOL     OW34363   1.837   0.629   5.809  0.6622  0.5730  0.2139
 7634SOL    HW134364   1.820   0.671   5.894  0.6907 -2.7627  1.8801
 7634SOL    HW234365   1.933   0.635   5.805  0.6083  0.1715 -1.5991
 7635SOL     OW34366   2.149   1.671   3.043  0.5878 -0.1762  0.3149
 7635SOL    HW134367   2.137   1.577   3.055  3.8262 -0.5922  0.3826
 7635SOL    HW234368   2.210   1.693   3.113 -1.5234  2.9184  1.2145
 7636SOL     OW34369   2.933   2.247   6.775  0.3355  0.0713  0.5294
 7636SOL    HW134370   2.868   2.287   6.718  0.6902 -1.2927 -0.8248
 7636SOL    HW234371   2.931   2.163   6.730 -1.0445  0.6256 -0.4177
 7637SOL     OW34372   0.838   3.127   5.163 -0.0663 -0.3732 -0.1401
 7637SOL    HW134373   0.762   3.108   5.109  0.1779  0.6030 -0.8342
 7637SOL    HW234374   0.913   3.103   5.108  0.1273 -2.8605  1.2036
 7638SOL     OW34375   0.884   1.514   3.067  0.0130 -0.4838  0.3406
 7638SOL    HW134376   0.868   1.581   3.000 -3.4481 -0.3043  1.3261
 7638SOL    HW234377   0.975   1.490   3.049 -0.3079 -1.9363  0.6626
 7639SOL     OW34378   2.885   2.282   0.438 -0.1151 -0.5842  0.1276
 7639SOL    HW134379   2.807   2.263   0.490  0.0924 -1.3475  0.1650
 7639SOL    HW234380   2.878   2.212   0.374 -1.3638 -0.5559  0.2420
 7640SOL     OW34381   0.291   2.841   4.580 -0.1724  0.1173 -0.1632
 7640SOL    HW134382   0.238   2.762   4.586  1.7157 -1.1392 -0.1123
 7640SOL    HW234383   0.351   2.816   4.650  0.5435 -0.7563 -1.1007
 7641SOL     OW34384   0.364   4.676  12.510  0.0415 -0.1658  0.6953
 7641SOL    HW134385   0.335   4.605  12.567 -0.0580 -0.0056  0.8444
 7641SOL    HW234386   0.459   4.669  12.513  0.1119  0.7359  0.7277
 7642SOL     OW34387   1.340   0.129   8.348 -0.0759  0.6270 -0.2396
 7642SOL    HW134388   1.270   0.074   8.382 -0.8315  0.6373 -1.7983
 7642SOL    HW234389   1.383   0.063   8.293  1.4395  0.6129  0.9666
 7643SOL     OW34390   0.976   3.951  12.803  0.1599 -0.4615 -0.5329
 7643SOL    HW134391   0.941   4.039  12.814  0.3715 -0.3175 -1.0058
 7643SOL    HW234392   1.070   3.965  12.789  0.2895 -1.4971 -0.6943
 7644SOL     OW34393   3.273   0.552   0.360  0.4258  0.1737  0.2702
 7644SOL    HW134394   3.265   0.493   0.435  0.1044 -1.0749 -0.7614
 7644SOL    HW234395   3.289   0.634   0.408  3.3050 -0.8472  1.0642
 7645SOL     OW34396   4.434   2.946   5.696 -1.0054 -0.1233 -0.5378
 7645SOL    HW134397   4.356   2.952   5.751 -0.9403 -1.2947 -0.3265
 7645SOL    HW234398   4.468   2.858   5.712 -1.6859 -0.4350 -0.8360
 7646SOL     OW34399   1.881   4.580  11.466 -0.0856  0.6072 -0.2692
 7646SOL    HW134400   1.924   4.550  11.546 -0.3202  0.6607 -0.1254
 7646SOL    HW234401   1.907   4.507  11.410 -0.8732  0.5604 -0.5697
 7647SOL     OW34402   0.127   2.376  14.457  0.2142 -0.5760  0.1401
 7647SOL    HW134403   0.040   2.337  14.467 -0.6878  0.8716 -1.9812
 7647SOL    HW234404   0.103   2.456  14.503  1.8144 -0.3359  0.5507
 7648SOL     OW34405   2.697   2.406  15.943  0.3765 -0.2328 -0.2317
 7648SOL    HW134406   2.770   2.462  15.917  2.4437 -1.8754  2.0082
 7648SOL    HW234407   2.633   2.466  15.981  0.7252 -1.6131  2.5603
 7649SOL     OW34408   2.427   1.317   7.015  0.1527 -0.4808 -0.1349
 7649SOL    HW134409   2.354   1.376   7.032  0.3708  0.3180 -1.9232
 7649SOL    HW234410   2.380   1.236   7.032 -0.3588 -0.3207 -0.7848
 7650SOL     OW34411   4.496   0.824   5.072 -0.0578  0.0751  0.0824
 7650SOL    HW134412   4.495   0.754   5.006  0.7797 -1.6405  1.8854
 7650SOL    HW234413   4.550   0.780   5.137  1.4096  0.5858 -0.7848
 7651SOL     OW34414   2.460   0.153   4.291 -0.0214  0.2128 -0.2418
 7651SOL    HW134415   2.536   0.106   4.258  1.1434  2.2278 -0.4837
 7651SOL    HW234416   2.388   0.094   4.271 -2.6727  2.9878  1.0699
 7652SOL     OW34417   3.226   1.117  16.604 -0.4556 -0.1597 -0.4358
 7652SOL    HW134418   3.277   1.183  16.651  0.1191 -0.3658 -0.7808
 7652SOL    HW234419   3.176   1.160  16.534 -0.6494  0.5065  0.1140
 7653SOL     OW34420   2.261   2.345   1.759 -0.0782  0.4548 -0.4912
 7653SOL    HW134421   2.299   2.427   1.727 -0.5081 -0.5139 -3.5376
 7653SOL    HW234422   2.184   2.374   1.807 -1.4324 -0.9326 -1.8292
 7654SOL     OW34423   2.751   3.831   7.098  0.0439 -0.3054 -0.7137
 7654SOL    HW134424   2.769   3.866   7.010  1.2867 -0.2527 -0.4392
 7654SOL    HW234425   2.662   3.800   7.083 -0.3852  0.1497  0.9224
 7655SOL     OW34426   4.571   3.839   4.171  0.0829  0.2402  0.4146
 7655SOL    HW134427   4.643   3.902   4.183  0.5624 -0.0442 -0.9555
 7655SOL    HW234428   4.632   3.768   4.152 -0.5648 -0.1362 -0.2505
 7656SOL     OW34429   1.054   2.078   8.675 -0.3371  0.4823  0.5069
 7656SOL    HW134430   1.101   2.145   8.725  2.1921 -0.8719 -0.0886
 7656SOL    HW234431   1.081   2.000   8.723  0.4195  0.0265 -0.6757
 7657SOL     OW34432   2.848   3.535   0.252  0.8215 -0.5130 -0.2100
 7657SOL    HW134433   2.805   3.460   0.211 -0.8602  1.2955 -1.7683
 7657SOL    HW234434   2.908   3.563   0.183 -0.9349 -1.5503 -2.1690
 7658SOL     OW34435   0.410   4.552  17.316 -0.2104  0.1238  0.2070
 7658SOL    HW134436   0.347   4.520  17.380  0.4610  2.2072  1.8988
 7658SOL    HW234437   0.379   4.642  17.306 -1.9129 -0.2430  2.3485
 7659SOL     OW34438   3.286   4.214   3.943 -0.9448 -0.3990 -0.0979
 7659SOL    HW134439   3.247   4.251   4.022  0.1776  3.0496 -1.1665
 7659SOL    HW234440   3.351   4.283   3.931 -0.4641 -1.0460 -1.1549
 7660SOL     OW34441   0.247   0.792   0.386 -0.6871 -0.5519 -0.1223
 7660SOL    HW134442   0.281   0.738   0.457  0.7538  1.1623  0.4521
 7660SOL    HW234443   0.155   0.765   0.395 -0.3913 -1.7589 -0.6339
 7661SOL     OW34444   2.145   1.465  11.664  0.0450  0.6583 -0.8041
 7661SOL    HW134445   2.240   1.470  11.657  0.2332 -1.4586  0.1674
 7661SOL    HW234446   2.124   1.517  11.587 -0.2795  1.6169 -0.0627
 7662SOL     OW34447   2.716   2.737   3.788 -0.5106  0.4357 -0.1156
 7662SOL    HW134448   2.794   2.772   3.830  0.1787  0.1880 -1.1869
 7662SOL    HW234449   2.691   2.804   3.724  1.8634  1.6664  0.2555
 7663SOL     OW34450   2.980   2.984   1.353 -0.1209  0.5221  0.3439
 7663SOL    HW134451   3.048   2.937   1.400 -0.3640  0.7504  0.9201
 7663SOL    HW234452   3.031   3.057   1.318  1.8102 -1.7899 -1.6443
 7664SOL     OW34453   4.166   0.939   7.662  0.3678 -0.3205 -0.3476
 7664SOL    HW134454   4.097   0.998   7.690  0.5499  0.2681 -1.1461
 7664SOL    HW234455   4.133   0.900   7.581  3.5842  1.4815 -2.4862
 7665SOL     OW34456   3.074   3.425   6.248 -0.3026  0.8677  0.0101
 7665SOL    HW134457   3.157   3.385   6.222 -2.2379 -2.4363 -1.0505
 7665SOL    HW234458   3.056   3.378   6.330 -0.1820  1.4728  0.3817
 7666SOL     OW34459   4.002   2.269   4.899 -0.0428  0.3513  0.3156
 7666SOL    HW134460   3.986   2.263   4.805 -0.8469 -0.7371  0.5180
 7666SOL    HW234461   4.095   2.246   4.903  0.1636  0.9639 -0.8669
 7667SOL     OW34462   1.748   3.112   4.342 -0.4463  1.0048 -0.2249
 7667SOL    HW134463   1.715   3.189   4.388 -1.2767  0.9905 -0.7891
 7667SOL    HW234464   1.666   3.073   4.311  0.0189 -1.2716  1.4533
 7668SOL     OW34465   0.150   1.678  12.506  0.7478 -0.3407 -0.2240
 7668SOL    HW134466   0.068   1.656  12.551  0.5360  1.2007  0.1761
 7668SOL    HW234467   0.161   1.770  12.530  0.7523 -0.5833  0.7044
 7669SOL     OW34468   2.997   3.477   0.475 -0.1830  0.0205  0.6095
 7669SOL    HW134469   2.941   3.514   0.406 -3.3330 -4.2652  0.8882
 7669SOL    HW234470   3.005   3.386   0.447 -0.1685  0.4083 -0.6254
 7670SOL     OW34471   1.976   4.339   2.834 -0.0013  0.2152 -0.4655
 7670SOL    HW134472   1.983   4.252   2.795  0.9357 -0.1391  0.4851
 7670SOL    HW234473   1.971   4.397   2.758  0.5409  0.9042  0.0262
 7671SOL     OW34474   4.130   2.818   3.521 -0.1573  0.5534 -0.0714
 7671SOL    HW134475   4.113   2.737   3.474  0.5374 -0.0701  0.7422
 7671SOL    HW234476   4.159   2.786   3.607 -3.0335 -1.3139  0.2025
 7672SOL     OW34477   3.670   2.911   2.348 -0.4035 -0.5318 -0.3317
 7672SOL    HW134478   3.747   2.863   2.377  0.9574  3.3710  2.4945
 7672SOL    HW234479   3.594   2.857   2.372  0.5812 -1.6205  0.3190
 7673SOL     OW34480   3.295   2.437   0.143  0.2363 -0.2150 -0.9342
 7673SOL    HW134481   3.320   2.423   0.052 -0.9350  1.1233 -1.4632
 7673SOL    HW234482   3.232   2.365   0.147 -1.1397  0.9580 -1.6724
 7674SOL     OW34483   0.057   3.860   1.732  0.2250  0.7839 -0.2849
 7674SOL    HW134484   4.706   3.843   1.674  0.3654  0.7457 -0.4538
 7674SOL    HW234485   0.135   3.887   1.684 -1.4247  1.5156 -2.5568
 7675SOL     OW34486   2.533   1.316  15.546  0.2617 -0.2017  0.2283
 7675SOL    HW134487   2.540   1.225  15.575  1.6020  0.1210  0.9139
 7675SOL    HW234488   2.625   1.329  15.522 -0.6487  3.0575 -1.4437
 7676SOL     OW34489   1.457   0.975   9.532 -0.5350  0.7461  0.5101
 7676SOL    HW134490   1.452   0.997   9.439  1.2893  0.1395  0.2581
 7676SOL    HW234491   1.434   0.883   9.521  0.8166  0.4989 -0.3277
 7677SOL     OW34492   3.289   4.329   6.747 -0.3769  0.3116  0.0102
 7677SOL    HW134493   3.315   4.243   6.714  1.3811 -0.0119  2.2347
 7677SOL    HW234494   3.367   4.362   6.792 -0.1785  2.4519 -1.9290
 7678SOL     OW34495   4.478   3.316   5.599  0.4223 -0.6946  0.0874
 7678SOL    HW134496   4.420   3.391   5.586  0.3802 -1.0225 -1.6350
 7678SOL    HW234497   4.413   3.255   5.633 -1.6133  0.7605 -1.1137
 7679SOL     OW34498   1.302   2.312  12.621 -0.3714 -0.5843 -0.1386
 7679SOL    HW134499   1.224   2.338  12.574 -0.0167  0.3544 -0.2024
 7679SOL    HW234500   1.374   2.334  12.562 -0.3975  0.3446  0.1730
 7680SOL     OW34501   4.037   0.138   5.062 -0.4914  0.3988  0.0702
 7680SOL    HW134502   4.040   0.227   5.098  1.3861 -0.1829  1.3490
 7680SOL    HW234503   4.122   0.126   5.020 -0.9414 -2.6686  0.0425
 7681SOL     OW34504   4.334   1.128   3.317 -0.1672  0.2357 -0.3024
 7681SOL    HW134505   4.417   1.164   3.347 -0.3156  0.4352 -0.1307
 7681SOL    HW234506   4.278   1.200   3.347 -2.2975 -0.9872 -1.3452
 7682SOL     OW34507   2.093   2.629   4.560  0.2076  0.1963  0.0483
 7682SOL    HW134508   2.053   2.545   4.582 -1.8969  0.3106 -3.4457
 7682SOL    HW234509   2.162   2.608   4.498 -0.1440 -1.8802  0.3651
 7683SOL     OW34510   1.668   2.950   7.674 -0.2260 -0.0728 -0.6776
 7683SOL    HW134511   1.617   3.030   7.667 -3.3379 -1.9297  0.7662
 7683SOL    HW234512   1.589   2.901   7.694 -0.5934  1.3111  1.1756
 7684SOL     OW34513   2.441   2.580  15.772  0.0184 -0.2102  0.4996
 7684SOL    HW134514   2.475   2.621  15.852  1.0211  1.7484 -0.9504
 7684SOL    HW234515   2.401   2.502  15.811  1.1067  0.7974  3.6877
 7685SOL     OW34516   4.023   4.683   2.704  0.2199 -0.2709 -0.0531
 7685SOL    HW134517   4.028   4.588   2.700 -1.3882 -0.4209  1.6366
 7685SOL    HW234518   4.106   4.704   2.747  0.7108 -0.3811 -0.9430
 7686SOL     OW34519   0.852   0.466   0.967  0.2886  0.2260  0.7388
 7686SOL    HW134520   0.762   0.434   0.976  0.4182  0.0402  1.4185
 7686SOL    HW234521   0.843   0.557   0.939 -1.2016  0.3625  1.6314
 7687SOL     OW34522   2.233   1.292   3.849 -0.5394 -0.2523 -0.3868
 7687SOL    HW134523   2.139   1.287   3.832 -1.0864 -0.4672  2.6744
 7687SOL    HW234524   2.253   1.215   3.902 -2.8745 -1.6167 -1.5064
 7688SOL     OW34525   1.086   0.652   4.122  0.2943 -0.0633  0.0894
 7688SOL    HW134526   1.157   0.652   4.057 -0.2560 -0.6479 -0.5157
 7688SOL    HW234527   1.009   0.620   4.076  0.8786  0.0920 -0.9989
 7689SOL     OW34528   0.812   0.537  10.773  0.0908  0.0655  0.0915
 7689SOL    HW134529   0.751   0.531  10.699 -1.2899 -0.5912  1.2767
 7689SOL    HW234530   0.807   0.457  10.825  0.1186 -0.1811 -0.2906
 7690SOL     OW34531   3.806   0.195   8.261 -0.2406 -0.0199  0.2516
 7690SOL    HW134532   3.781   0.233   8.177 -2.5498 -0.4660  0.7261
 7690SOL    HW234533   3.854   0.114   8.244 -1.4464 -0.6178 -0.2898
 7691SOL     OW34534   1.549   0.370   7.439  0.8069  0.6549  0.3050
 7691SOL    HW134535   1.639   0.383   7.409  0.3063  3.2218 -0.0446
 7691SOL    HW234536   1.548   0.417   7.523 -0.7799  0.9728  0.1031
 7692SOL     OW34537   3.505   4.394   3.932 -0.6025 -0.8107  0.7194
 7692SOL    HW134538   3.509   4.459   3.862  0.0091 -1.5891  0.0453
 7692SOL    HW234539   3.599   4.379   3.941 -0.4777 -1.8971 -2.5630
 7693SOL     OW34540   3.680   1.726  11.293 -0.2153 -0.4853 -0.6144
 7693SOL    HW134541   3.704   1.749  11.203  1.8982  0.9511  0.3310
 7693SOL    HW234542   3.682   1.631  11.289  0.0461 -0.5428  0.9558
 7694SOL     OW34543   4.040   3.860  11.338  0.5052 -0.2771  0.6621
 7694SOL    HW134544   4.121   3.905  11.315 -0.3089  0.8180 -0.0563
 7694SOL    HW234545   4.075   3.773  11.360  0.9590 -0.1906  0.2846
 7695SOL     OW34546   0.891   4.591   1.585  0.0271  0.4889  0.5165
 7695SOL    HW134547   0.818   4.631   1.537 -0.0642 -2.3728 -1.7309
 7695SOL    HW234548   0.955   4.581   1.515 -2.4889  0.7173 -1.7998
 7696SOL     OW34549   2.216   2.594  16.105  0.2160 -0.2565  0.4171
 7696SOL    HW134550   2.296   2.627  16.065 -1.5416  1.7233 -1.4936
 7696SOL    HW234551   2.222   2.632  16.193  0.9257  0.6520 -0.0243
 7697SOL     OW34552   1.830   1.222   8.593 -0.2087 -0.0156  0.1149
 7697SOL    HW134553   1.807   1.313   8.614 -0.1661  0.2670 -1.0996
 7697SOL    HW234554   1.759   1.208   8.532  0.0657 -0.7862 -0.0185
 7698SOL     OW34555   4.369   3.727  14.924 -0.7458  0.4759 -0.4966
 7698SOL    HW134556   4.303   3.701  14.860 -1.0925 -0.9014  0.4214
 7698SOL    HW234557   4.356   3.655  14.986 -1.4582 -0.1796 -1.4151
 7699SOL     OW34558   2.115   3.359  12.703 -0.0513  0.3560  0.3387
 7699SOL    HW134559   2.145   3.438  12.658 -0.6592 -1.0239 -2.4818
 7699SOL    HW234560   2.172   3.294  12.661 -1.8288 -2.4846  2.2981
 7700SOL     OW34561   0.582   4.438   7.506 -0.5101  0.4946  0.3967
 7700SOL    HW134562   0.561   4.445   7.599 -1.5794  0.0256  0.1878
 7700SOL    HW234563   0.657   4.378   7.509 -0.1675  0.9037  0.0379
 7701SOL     OW34564   2.316   4.553   3.187 -0.4674  0.6036  0.0526
 7701SOL    HW134565   2.308   4.504   3.269 -0.3348  0.3022 -0.1113
 7701SOL    HW234566   2.378   4.619   3.217  2.7601 -3.1482  1.7296
 7702SOL     OW34567   3.071   4.288   8.788  0.2104  1.0007  0.0975
 7702SOL    HW134568   3.147   4.247   8.746 -1.7523 -1.1231 -1.3660
 7702SOL    HW234569   3.006   4.282   8.718  1.0646 -0.5352 -0.5529
 7703SOL     OW34570   0.020   2.159  12.944 -0.4403 -0.4482  0.0210
 7703SOL    HW134571   0.046   2.186  12.856 -2.1941  0.0530 -0.3480
 7703SOL    HW234572   0.107   2.159  12.983 -0.9076 -0.1832  1.0596
 7704SOL     OW34573   4.686   0.141   7.140 -0.0796  0.1178  0.0463
 7704SOL    HW134574   0.028   0.070   7.144  0.2600  0.3922 -0.6770
 7704SOL    HW234575   0.026   0.213   7.132 -1.3318  1.4153  1.8039
 7705SOL     OW34576   1.322   2.810   3.831  0.2325 -0.1713 -0.4495
 7705SOL    HW134577   1.346   2.870   3.760 -1.9404 -0.9390 -1.7961
 7705SOL    HW234578   1.400   2.792   3.884  1.0513  0.0625 -1.5810
 7706SOL     OW34579   1.938   1.847   3.027  0.5885  0.1303 -0.3620
 7706SOL    HW134580   1.965   1.848   2.935  0.8893  0.1248 -0.2734
 7706SOL    HW234581   2.002   1.781   3.053  0.4125  0.5396  1.1352
 7707SOL     OW34582   1.261   2.530   5.232 -0.3476  0.1273 -0.6504
 7707SOL    HW134583   1.212   2.457   5.194  1.5996 -1.0277 -0.9611
 7707SOL    HW234584   1.203   2.602   5.209  2.1997  1.7257 -2.1571
 7708SOL     OW34585   3.156   2.207   9.858  0.6207  0.2464  0.6944
 7708SOL    HW134586   3.176   2.271   9.927 -1.9810  1.3564  0.4101
 7708SOL    HW234587   3.212   2.242   9.789 -0.2717 -3.9334 -2.1030
 7709SOL     OW34588   0.147   4.636   7.998 -0.4931  0.0038  0.3420
 7709SOL    HW134589   0.215   4.696   7.970 -0.7929 -0.0781 -0.5716
 7709SOL    HW234590   0.080   4.642   7.930 -1.0099  2.6321  1.0835
 7710SOL     OW34591   4.039   1.168  10.998 -0.3257 -0.4910 -0.0172
 7710SOL    HW134592   4.096   1.181  10.922  0.4636 -1.5812  0.3892
 7710SOL    HW234593   3.949   1.179  10.967  0.1156  0.7575 -0.8553
 7711SOL     OW34594   4.503   3.312  10.219 -0.0209  0.0905 -0.1843
 7711SOL    HW134595   4.491   3.221  10.246 -1.6865  0.0402 -1.1071
 7711SOL    HW234596   4.599   3.318  10.216 -0.0619  1.4313  1.4806
 7712SOL     OW34597   2.176   4.033   5.542  0.3036  0.3407 -0.1942
 7712SOL    HW134598   2.166   4.045   5.636 -1.4699  1.2704 -0.5051
 7712SOL    HW234599   2.249   4.092   5.522 -0.2282  1.0392 -0.0815
 7713SOL     OW34600   2.932   4.207  16.264  0.0661  0.6712 -0.2287
 7713SOL    HW134601   2.949   4.294  16.229 -0.6671 -0.1787 -2.6908
 7713SOL    HW234602   2.915   4.152  16.187 -0.9096  0.8959 -0.1673
 7714SOL     OW34603   1.218   1.180  17.642  0.2194 -1.0616  0.1181
 7714SOL    HW134604   1.168   1.112  17.687 -1.5461  0.0965 -0.1036
 7714SOL    HW234605   1.207   1.165  17.548  2.0876 -2.4939  0.1287
 7715SOL     OW34606   1.788   2.542   8.463 -0.2173  0.4731  0.2807
 7715SOL    HW134607   1.828   2.599   8.398  1.1416  0.4505  1.0922
 7715SOL    HW234608   1.721   2.500   8.409  0.3521  0.1002 -0.1339
 7716SOL     OW34609   1.394   0.980   5.101 -0.1608  0.6498  0.6083
 7716SOL    HW134610   1.319   0.947   5.151 -0.1217  1.9271  1.4894
 7716SOL    HW234611   1.465   0.924   5.133 -0.8166 -0.2969  0.4145
 7717SOL     OW34612   1.509   2.024   3.615 -0.2663  0.2187 -0.5620
 7717SOL    HW134613   1.526   2.102   3.563  1.0591 -0.3315 -0.9595
 7717SOL    HW234614   1.524   2.063   3.701 -0.8369  2.8100 -1.6339
 7718SOL     OW34615   0.795   0.908   0.813 -0.0306  0.4520 -0.3145
 7718SOL    HW134616   0.787   1.004   0.816 -2.0742  0.2587 -0.0240
 7718SOL    HW234617   0.766   0.891   0.723 -0.0152 -3.8557  0.4887
 7719SOL     OW34618   1.613   3.254   6.513 -0.5172  0.1518  0.2403
 7719SOL    HW134619   1.557   3.243   6.589  0.7844 -0.4329  1.1099
 7719SOL    HW234620   1.543   3.253   6.447 -0.1893 -2.3512 -0.0968
 7720SOL     OW34621   2.861   0.356   7.858 -0.6303  0.1039 -0.2856
 7720SOL    HW134622   2.795   0.346   7.790  0.0090 -0.6152 -0.7900
 7720SOL    HW234623   2.803   0.338   7.932 -1.1675  0.7054 -0.5558
 7721SOL     OW34624   3.871   2.969   0.113  0.1758 -0.1334 -0.1780
 7721SOL    HW134625   3.808   2.899   0.125  0.4982 -0.3594  0.1892
 7721SOL    HW234626   3.914   2.977   0.198 -1.5925 -2.1044  0.9108
 7722SOL     OW34627   1.070   4.215  12.988  0.3842 -0.6395  0.1680
 7722SOL    HW134628   0.990   4.224  12.936  0.3343 -0.9351  0.1931
 7722SOL    HW234629   1.123   4.180  12.916  0.8630  0.7403 -0.1538
 7723SOL     OW34630   2.169   1.829   7.803 -0.0044  0.3697  0.2983
 7723SOL    HW134631   2.188   1.899   7.741  1.9339 -0.1833  0.2619
 7723SOL    HW234632   2.082   1.847   7.840  0.4326  3.6201 -0.2658
 7724SOL     OW34633   3.552   0.065   4.469 -0.5905  0.1396  0.1337
 7724SOL    HW134634   3.531   4.702   4.433  0.4232  0.3138 -0.8787
 7724SOL    HW234635   3.473   0.084   4.519 -1.2916  0.1432 -0.9700
 7725SOL     OW34636   0.375   2.500  14.284 -0.1195  0.1016 -0.0246
 7725SOL    HW134637   0.317   2.498  14.208  0.3713  1.7658 -0.4503
 7725SOL    HW234638   0.423   2.583  14.281  0.9459 -0.4575  1.5560
 7726SOL     OW34639   4.677   2.518   7.814 -0.5334 -0.3842  0.0832
 7726SOL    HW134640   0.048   2.509   7.807 -0.3269  2.2527 -0.6253
 7726SOL    HW234641   4.670   2.613   7.802 -3.8435 -0.5086  0.9567
 7727SOL     OW34642   1.194   4.080  10.269 -0.5786 -0.2141  0.8184
 7727SOL    HW134643   1.283   4.105  10.297 -0.2753  1.0971 -1.2630
 7727SOL    HW234644   1.143   4.122  10.337 -1.4298 -0.7599  0.5103
 7728SOL     OW34645   0.750   3.979   4.995 -0.0322 -0.0850 -0.1655
 7728SOL    HW134646   0.692   3.924   4.943  1.6177  0.2110 -2.3352
 7728SOL    HW234647   0.727   3.967   5.087  1.3325  3.1760  0.6061
 7729SOL     OW34648   4.713   4.020  11.686 -0.4313 -0.4982 -0.9402
 7729SOL    HW134649   0.008   4.053  11.598  1.8985  0.2340 -0.1666
 7729SOL    HW234650   4.703   3.925  11.680 -2.9472 -0.2470 -1.0725
 7730SOL     OW34651   4.218   4.452   0.333  0.3147  0.0891 -0.4781
 7730SOL    HW134652   4.252   4.466   0.421  3.7831 -0.4171 -1.7353
 7730SOL    HW234653   4.136   4.498   0.316 -0.9330 -1.9353  0.0288
 7731SOL     OW34654   0.864   4.489   0.464  0.4079  0.5111  0.5728
 7731SOL    HW134655   0.778   4.448   0.456  0.5797  0.5703 -1.6590
 7731SOL    HW234656   0.910   4.440   0.395 -0.8850  0.4025 -0.2028
 7732SOL     OW34657   2.124   2.504   5.404  0.1803  0.3745 -0.4802
 7732SOL    HW134658   2.213   2.516   5.371 -0.6186 -0.6653 -2.9915
 7732SOL    HW234659   2.071   2.494   5.325 -0.4126 -0.9115  0.0768
 7733SOL     OW34660   1.046   3.480   7.052  0.0544 -0.1745  0.0436
 7733SOL    HW134661   0.958   3.473   7.015  0.1989  0.6239 -0.4637
 7733SOL    HW234662   1.072   3.388   7.053 -0.4983 -0.3337 -0.2321
 7734SOL     OW34663   4.074   1.540   7.813 -0.1284  0.0576  0.3866
 7734SOL    HW134664   4.166   1.547   7.788 -0.1149  1.3989  0.8006
 7734SOL    HW234665   4.084   1.609   7.879  2.0516  2.8610 -2.8655
 7735SOL     OW34666   3.963   3.056  10.764  0.2243  0.1454  0.1205
 7735SOL    HW134667   4.043   3.014  10.796 -0.3235  0.7788  2.3612
 7735SOL    HW234668   3.915   3.068  10.846  0.8218 -1.7635  0.7401
 7736SOL     OW34669   4.160   1.045   8.009 -0.0845  0.0422 -0.2505
 7736SOL    HW134670   4.112   1.124   7.987 -0.0077  0.3221  0.5785
 7736SOL    HW234671   4.254   1.062   8.012 -0.2310  1.1430 -2.1752
 7737SOL     OW34672   2.834   4.075   6.203 -0.1733  0.3528 -0.2917
 7737SOL    HW134673   2.756   4.129   6.199  1.4410  2.5509 -1.8669
 7737SOL    HW234674   2.811   4.031   6.285 -1.0777  0.7642 -0.3278
 7738SOL     OW34675   2.997   2.642   7.410  0.1142  0.2565 -0.5937
 7738SOL    HW134676   2.927   2.580   7.428  0.4729  0.6944  2.2734
 7738SOL    HW234677   3.073   2.584   7.417 -0.5809 -0.3797  1.8572
 7739SOL     OW34678   1.662   4.003   6.521 -0.2607 -0.1671  0.3313
 7739SOL    HW134679   1.695   3.913   6.523 -1.0565 -0.4575  0.3498
 7739SOL    HW234680   1.746   4.045   6.542 -0.0523 -2.3615  3.8288
 7740SOL     OW34681   3.679   0.443   1.994 -0.4038 -0.2831 -0.7423
 7740SOL    HW134682   3.714   0.455   1.906 -0.0748  0.8838 -0.4505
 7740SOL    HW234683   3.750   0.490   2.037 -0.0258 -0.4606 -1.1672
 7741SOL     OW34684   0.926   1.879   3.655 -0.2671  0.3392 -0.0462
 7741SOL    HW134685   0.924   1.966   3.615 -2.0915  0.9862  1.4635
 7741SOL    HW234686   0.931   1.913   3.744  0.9511  0.5207 -0.1815
 7742SOL     OW34687   1.568   2.334   8.055  0.2634 -0.0791  0.3774
 7742SOL    HW134688   1.549   2.256   8.004  0.2816 -0.4516  0.9498
 7742SOL    HW234689   1.553   2.402   7.989  2.6588 -0.3736 -0.4879
 7743SOL     OW34690   1.933   3.488   5.158  0.5274  0.1483  0.0374
 7743SOL    HW134691   1.969   3.442   5.233 -0.0583 -1.7827 -0.8619
 7743SOL    HW234692   1.859   3.431   5.136  2.2919 -1.7863 -0.8878
 7744SOL     OW34693   3.605   3.768   1.685  0.5185 -0.2735 -0.5217
 7744SOL    HW134694   3.536   3.835   1.684 -0.2228 -0.9490  2.9931
 7744SOL    HW234695   3.633   3.769   1.777  2.0799 -1.4776 -0.9955
 7745SOL     OW34696   0.747   3.734   7.540  0.5085 -0.3713  0.5891
 7745SOL    HW134697   0.814   3.722   7.473  0.7277  2.4513  0.3109
 7745SOL    HW234698   0.800   3.740   7.619 -0.8203 -2.9361  1.6898
 7746SOL     OW34699   3.455   3.690   9.452 -0.3445 -0.0538  0.0415
 7746SOL    HW134700   3.403   3.646   9.385  1.5374  0.5578 -1.8379
 7746SOL    HW234701   3.541   3.648   9.444 -0.6112 -0.4509 -0.7906
 7747SOL     OW34702   1.305   3.107   9.392  0.2874  0.6973 -0.2866
 7747SOL    HW134703   1.293   3.195   9.355  3.6577  0.5091 -1.8093
 7747SOL    HW234704   1.390   3.081   9.359  0.1088  1.1302 -1.0870
 7748SOL     OW34705   2.447   1.648   7.236  0.2919 -0.2876 -0.6288
 7748SOL    HW134706   2.485   1.694   7.310  0.0210  1.9204 -1.8837
 7748SOL    HW234707   2.430   1.567   7.285  0.2033 -0.2731 -0.6353
 7749SOL     OW34708   0.427   4.180   5.869  0.0504  0.0962 -0.2564
 7749SOL    HW134709   0.422   4.089   5.838 -0.7392 -0.4371  1.4604
 7749SOL    HW234710   0.499   4.165   5.931 -1.2882  0.0656  1.2786
 7750SOL     OW34711   3.166   2.209   0.160  0.4942  0.3550  0.4163
 7750SOL    HW134712   3.138   2.143   0.224  0.2687 -0.3552 -0.4119
 7750SOL    HW234713   3.096   2.196   0.096  1.2014  1.0708 -0.4970
 7751SOL     OW34714   3.690   1.190   6.981  0.1729  0.5958  0.1333
 7751SOL    HW134715   3.631   1.131   6.935  0.8735  0.5826 -0.7276
 7751SOL    HW234716   3.632   1.261   7.008  0.4867  0.9022 -0.0026
 7752SOL     OW34717   4.515   4.129  14.778 -0.4461 -0.0541  0.0972
 7752SOL    HW134718   4.511   4.214  14.736 -0.5226  0.1716  0.5574
 7752SOL    HW234719   4.440   4.139  14.837  0.0308  0.7317  0.5697
 7753SOL     OW34720   3.447   0.411   6.572  0.6091  0.4998 -0.1238
 7753SOL    HW134721   3.519   0.352   6.550 -0.8852 -1.3543  0.0614
 7753SOL    HW234722   3.492   0.450   6.647 -0.3865  3.0648 -0.8573
 7754SOL     OW34723   1.153   3.816   3.932 -0.7648 -0.2616 -0.4353
 7754SOL    HW134724   1.137   3.901   3.891  0.4907  0.3152  0.2925
 7754SOL    HW234725   1.064   3.781   3.933 -1.1797  0.8634  1.3564
 7755SOL     OW34726   0.154   4.682   7.124  0.0061 -0.6214  0.1899
 7755SOL    HW134727   0.196   4.647   7.203  0.0761 -1.5327 -0.2471
 7755SOL    HW234728   0.223   4.715   7.066  2.1806 -1.5299  2.2630
 7756SOL     OW34729   4.348   3.707   4.130  0.8668  0.3760  0.7686
 7756SOL    HW134730   4.431   3.755   4.135  0.8739  0.2346  1.8663
 7756SOL    HW234731   4.302   3.747   4.204 -1.9486  0.7986 -1.2114
 7757SOL     OW34732   1.893   2.200   0.795  0.3106  0.5161 -0.4303
 7757SOL    HW134733   1.938   2.219   0.877  2.2229 -1.0792 -1.1031
 7757SOL    HW234734   1.811   2.177   0.839  1.0409 -1.4664 -0.0825
 7758SOL     OW34735   3.961   3.579   9.922  0.2651  0.0697  0.3286
 7758SOL    HW134736   3.949   3.526   9.844  0.4268  1.1261 -0.4221
 7758SOL    HW234737   4.040   3.540   9.959  0.5317 -0.8077 -1.2065
 7759SOL     OW34738   4.599   2.286  12.233  0.0606  0.1617 -0.1815
 7759SOL    HW134739   4.556   2.200  12.233 -2.4483  1.4336  3.4595
 7759SOL    HW234740   4.519   2.338  12.234  2.6810  4.1507  1.7082
 7760SOL     OW34741   1.587   2.578   3.357 -0.5842  0.6920  0.2747
 7760SOL    HW134742   1.535   2.649   3.320  1.6036  0.4652 -3.1463
 7760SOL    HW234743   1.613   2.607   3.444  0.1972  0.5289  0.0889
 7761SOL     OW34744   0.232   3.496   2.836  0.2195  0.1474 -0.1783
 7761SOL    HW134745   0.221   3.585   2.869 -0.3309  0.5911 -1.5876
 7761SOL    HW234746   0.188   3.493   2.751  0.7565  1.9753 -0.5378
 7762SOL     OW34747   3.687   0.047   1.581 -0.2728 -0.8641 -0.4058
 7762SOL    HW134748   3.623   0.112   1.607 -0.4418 -0.5084 -1.6887
 7762SOL    HW234749   3.699   0.083   1.493  0.7139  2.4993  1.1213
 7763SOL     OW34750   2.010   2.914   5.404 -0.2950  0.3840  0.5531
 7763SOL    HW134751   1.965   2.924   5.320 -0.5639  1.1889  0.7920
 7763SOL    HW234752   1.937   2.895   5.464 -1.0253 -2.6464 -1.2641
 7764SOL     OW34753   3.658   0.017  16.027  0.0166 -0.5079  0.0859
 7764SOL    HW134754   3.602   0.054  16.095  0.7086  2.8186 -1.1070
 7764SOL    HW234755   3.599   0.003  15.953 -0.3701 -2.8681  0.8582
 7765SOL     OW34756   1.255   3.425   6.609 -0.2507 -0.3650 -0.2026
 7765SOL    HW134757   1.266   3.439   6.703  0.6486  1.9025 -0.6383
 7765SOL    HW234758   1.341   3.455   6.579  0.2492 -1.2531  0.3472
 7766SOL     OW34759   1.385   4.185   4.893  0.0944  0.1965  0.2445
 7766SOL    HW134760   1.334   4.115   4.850 -1.4599  0.9969  0.7825
 7766SOL    HW234761   1.359   4.172   4.984 -2.8224 -1.1125 -0.7495
 7767SOL     OW34762   2.935   3.885   8.206 -1.0006 -0.7733  0.2923
 7767SOL    HW134763   2.937   3.864   8.299  1.3699  2.8003  1.0378
 7767SOL    HW234764   3.019   3.926   8.182 -0.5945 -1.6306  0.2425
 7768SOL     OW34765   1.834   2.774  14.564  0.7137 -0.2271  0.0090
 7768SOL    HW134766   1.916   2.731  14.544 -0.2727 -2.2540  0.3290
 7768SOL    HW234767   1.820   2.824  14.483 -1.2180 -1.2279 -0.2817
 7769SOL     OW34768   2.125   1.451   4.757 -0.3431 -0.1529  0.6808
 7769SOL    HW134769   2.092   1.525   4.706 -0.7944 -1.4662 -0.9100
 7769SOL    HW234770   2.070   1.455   4.835  1.3268  1.2436  1.8026
 7770SOL     OW34771   2.567   0.426   9.589  0.3997  0.1758 -0.0293
 7770SOL    HW134772   2.609   0.441   9.504  0.6799 -2.3037 -0.3128
 7770SOL    HW234773   2.474   0.404   9.576  0.2494 -0.1749  1.6389
 7771SOL     OW34774   3.153   2.093   7.783  0.1208  0.2636 -0.2031
 7771SOL    HW134775   3.145   2.037   7.861  1.4001  2.7843  1.7214
 7771SOL    HW234776   3.161   2.025   7.716  1.5079  1.5836 -1.3829
 7772SOL     OW34777   2.176   3.766  14.368 -0.2419  0.1097  0.5173
 7772SOL    HW134778   2.248   3.737  14.423 -1.0233 -1.2386  0.8255
 7772SOL    HW234779   2.157   3.853  14.404 -1.7083  0.9743 -2.3161
 7773SOL     OW34780   1.290   1.852  16.656  0.1422  0.0536 -0.3681
 7773SOL    HW134781   1.328   1.937  16.633  0.0454  0.1791 -0.0682
 7773SOL    HW234782   1.199   1.874  16.633  0.1645 -0.2382 -0.7462
 7774SOL     OW34783   4.360   4.619   4.962 -0.6087  0.2034  0.4319
 7774SOL    HW134784   4.324   4.624   4.873 -1.3077  0.3314  0.7229
 7774SOL    HW234785   4.391   4.529   4.975 -0.5562 -0.2601 -2.7548
 7775SOL     OW34786   3.913   2.042   3.461  0.5319 -0.9357  0.3477
 7775SOL    HW134787   3.887   2.107   3.396 -2.3310 -0.6861  1.7309
 7775SOL    HW234788   3.989   1.996   3.426  0.5101 -1.2010  0.6465
 7776SOL     OW34789   2.088   1.212  16.477 -0.0239  0.9325 -0.3158
 7776SOL    HW134790   1.994   1.214  16.455 -0.1615  1.6319  0.3338
 7776SOL    HW234791   2.102   1.281  16.543 -0.2224  0.7680 -0.1015
 7777SOL     OW34792   2.022   1.417   6.559  0.3760  0.8318 -0.1937
 7777SOL    HW134793   1.939   1.451   6.594  0.0784  1.7614 -1.7834
 7777SOL    HW234794   2.083   1.470   6.611  0.0835  0.9529  0.0276
 7778SOL     OW34795   0.234   3.766   5.159  0.2772 -0.1695 -0.1939
 7778SOL    HW134796   0.302   3.727   5.214  0.3007  1.0727  0.6829
 7778SOL    HW234797   0.286   3.835   5.116 -1.3574 -0.3788 -2.4946
 7779SOL     OW34798   1.159   0.792  13.730 -0.2256 -0.2460 -0.4632
 7779SOL    HW134799   1.091   0.785  13.796 -1.4555 -0.3407 -1.7513
 7779SOL    HW234800   1.111   0.811  13.650 -0.0635 -0.2563 -0.5622
 7780SOL     OW34801   1.422   2.946   2.281  0.2054 -0.3459 -0.1683
 7780SOL    HW134802   1.336   2.977   2.252 -0.1164 -0.0763  1.0479
 7780SOL    HW234803   1.464   2.964   2.197 -0.8852 -1.3620 -0.9321
 7781SOL     OW34804   0.727   0.922   5.172 -0.0693  0.0524 -0.5830
 7781SOL    HW134805   0.667   0.987   5.208  1.7644  2.5111 -1.9651
 7781SOL    HW234806   0.697   0.850   5.228  2.2650  0.1862  0.8391
 7782SOL     OW34807   2.631   2.330   2.461  0.2327 -0.1644 -0.4300
 7782SOL    HW134808   2.617   2.259   2.399  3.1413 -0.6515 -0.5356
 7782SOL    HW234809   2.562   2.323   2.526  2.1318  1.9020  1.8273
 7783SOL     OW34810   2.734   0.498   9.360 -0.0744  0.3088 -0.2135
 7783SOL    HW134811   2.816   0.457   9.387 -0.6886 -0.7837  0.0042
 7783SOL    HW234812   2.728   0.439   9.286  0.3963  1.2462 -0.9989
 7784SOL     OW34813   3.568   1.781   3.152 -0.4170  0.3477 -0.4038
 7784SOL    HW134814   3.624   1.767   3.228 -1.2017 -2.5590 -0.3391
 7784SOL    HW234815   3.530   1.863   3.183  2.1546  2.1314 -1.9972
 7785SOL     OW34816   0.316   4.655   5.029  0.1990 -0.0752  0.0406
 7785SOL    HW134817   0.245   4.689   5.083  0.2393 -0.7257  0.5032
 7785SOL    HW234818   0.278   4.616   4.950 -0.0052  0.3150 -0.0543
 7786SOL     OW34819   3.547   1.344   2.905  0.1662 -0.1125 -0.6905
 7786SOL    HW134820   3.572   1.393   2.827  1.5123 -1.1950 -0.9484
 7786SOL    HW234821   3.457   1.319   2.885 -0.0955 -0.0465  0.3771
 7787SOL     OW34822   4.250   1.600   8.199 -0.3304  0.4299  0.4346
 7787SOL    HW134823   4.308   1.525   8.186 -1.5846 -0.0074 -2.6762
 7787SOL    HW234824   4.242   1.586   8.294  0.4135  0.2167  0.4635
 7788SOL     OW34825   1.851   0.194   4.149 -0.3643 -1.0883 -0.1542
 7788SOL    HW134826   1.804   0.135   4.089 -0.9562 -0.7369 -0.0372
 7788SOL    HW234827   1.830   0.276   4.105 -1.6084 -0.8810  0.8113
 7789SOL     OW34828   3.839   4.203   7.787 -0.2685  0.4893 -0.0351
 7789SOL    HW134829   3.770   4.268   7.769 -2.3339 -1.3121  1.4938
 7789SOL    HW234830   3.892   4.226   7.711 -0.6061  0.5218 -0.2613
 7790SOL     OW34831   1.942   4.624   3.068  0.6606 -0.1882 -0.5135
 7790SOL    HW134832   1.961   4.712   3.099 -1.4533  0.0437  0.1582
 7790SOL    HW234833   2.009   4.621   3.000 -1.4794  0.2556 -2.6378
 7791SOL     OW34834   0.483   1.598   3.230  0.0880 -0.3515  0.2178
 7791SOL    HW134835   0.506   1.527   3.169  0.2385  0.3236 -0.5097
 7791SOL    HW234836   0.490   1.563   3.319 -0.7102  0.5588  0.6407
 7792SOL     OW34837   1.781   4.496   4.749  0.7011  0.5198  0.1441
 7792SOL    HW134838   1.721   4.422   4.746  0.3129  0.8948 -1.4135
 7792SOL    HW234839   1.785   4.514   4.843 -0.8363  1.4020  0.0436
 7793SOL     OW34840   3.831   0.692   5.097 -1.0534  0.2932 -0.2964
 7793SOL    HW134841   3.865   0.713   5.010  0.9767  1.4894  0.7775
 7793SOL    HW234842   3.786   0.611   5.072 -0.4023  0.4692 -2.0370
 7794SOL     OW34843   3.398   0.847   7.329 -0.2949  0.3565 -0.1356
 7794SOL    HW134844   3.459   0.893   7.271  0.9955  1.2285  1.8994
 7794SOL    HW234845   3.310   0.857   7.294  0.9019 -0.9288 -3.5199
 7795SOL     OW34846   2.744   4.339   7.430 -0.4790 -0.1632  0.0658
 7795SOL    HW134847   2.833   4.336   7.466  0.0344  3.0990 -0.9808
 7795SOL    HW234848   2.719   4.247   7.430 -4.0077  0.7890  1.2885
 7796SOL     OW34849   3.891   4.700  14.553 -0.7115  0.1151  0.1594
 7796SOL    HW134850   3.886   4.645  14.474 -3.0402 -1.1551  1.1666
 7796SOL    HW234851   3.906   4.639  14.625  7.4010  0.1516 -1.5681
 7797SOL     OW34852   2.342   0.731   6.621 -0.0085 -0.8347 -0.0224
 7797SOL    HW134853   2.358   0.750   6.713  0.6544  0.8116 -0.4786
 7797SOL    HW234854   2.326   0.823   6.600  0.8510 -1.0007 -1.4170
 7798SOL     OW34855   1.326   3.462   3.853  0.3528 -0.4584 -0.4478
 7798SOL    HW134856   1.322   3.550   3.815  0.8426  1.7364  4.5862
 7798SOL    HW234857   1.406   3.471   3.905 -1.2011 -1.3618  2.1147
 7799SOL     OW34858   4.495   4.126   8.018 -0.1198 -0.2217 -0.1026
 7799SOL    HW134859   4.425   4.062   8.004 -0.1590  0.1565 -1.6648
 7799SOL    HW234860   4.575   4.090   7.978 -0.1387  1.6954 -1.8858
 7800SOL     OW34861   4.494   1.700  15.840 -0.4000 -0.5292 -0.3836
 7800SOL    HW134862   4.549   1.631  15.802  0.0118  0.3550 -1.3808
 7800SOL    HW234863   4.439   1.731  15.768  0.8547  0.4941 -0.8951
 7801SOL     OW34864   3.294   4.353   2.357  0.2309 -0.5892  0.4317
 7801SOL    HW134865   3.295   4.265   2.319 -0.6396 -1.0785  1.5274
 7801SOL    HW234866   3.367   4.395   2.312  1.2204  0.5910  3.1393
 7802SOL     OW34867   4.467   2.684   7.619  0.0070  0.1571  0.4860
 7802SOL    HW134868   4.533   2.729   7.672  2.9620 -1.7269 -1.5779
 7802SOL    HW234869   4.485   2.714   7.530 -0.6760 -1.4259 -0.1862
 7803SOL     OW34870   4.708   0.548   7.292 -0.0699  0.3056 -0.1430
 7803SOL    HW134871   4.654   0.498   7.353 -0.3187  2.3415  1.3080
 7803SOL    HW234872   0.050   0.574   7.357  0.0300 -0.6920  0.1555
 7804SOL     OW34873   1.421   1.014   5.978 -0.1401 -0.1404  0.2347
 7804SOL    HW134874   1.421   1.075   6.052 -2.8742  0.8385 -0.5553
 7804SOL    HW234875   1.428   1.072   5.902  0.3160  0.7115  0.9409
 7805SOL     OW34876   2.584   0.558   4.171 -0.1756  0.1333 -0.2088
 7805SOL    HW134877   2.605   0.487   4.110 -2.5733 -0.1507 -0.7352
 7805SOL    HW234878   2.637   0.633   4.143 -1.6217  1.2735  0.0834
 7806SOL     OW34879   2.604   2.631  17.457 -0.1021  0.3968 -0.1278
 7806SOL    HW134880   2.594   2.701  17.522  2.3589  0.4438  0.1860
 7806SOL    HW234881   2.687   2.588  17.474  0.6045  1.5124 -0.7554
 7807SOL     OW34882   2.289   1.171   7.473 -0.1841 -0.1704 -0.6223
 7807SOL    HW134883   2.217   1.177   7.412 -1.4135 -2.2607  0.5958
 7807SOL    HW234884   2.277   1.084   7.512 -0.3650 -0.5916 -1.6377
 7808SOL     OW34885   4.687   2.160  10.842  1.0455 -0.2018  0.0679
 7808SOL    HW134886   4.660   2.092  10.780 -1.6973  1.9577 -1.1060
 7808SOL    HW234887   0.023   2.105  10.893  0.4131 -0.6006  0.3740
 7809SOL     OW34888   4.178   3.649  10.596  0.1484  0.2951  0.3031
 7809SOL    HW134889   4.190   3.672  10.504 -1.8733 -0.8772 -0.2688
 7809SOL    HW234890   4.167   3.554  10.595 -1.3355  0.4692  1.5105
 7810SOL     OW34891   4.283   1.779   6.156  0.6538  0.4426  0.3173
 7810SOL    HW134892   4.264   1.845   6.222  1.0199  2.3391 -1.4668
 7810SOL    HW234893   4.201   1.733   6.174  1.5256 -1.5550 -0.7899
 7811SOL     OW34894   3.772   1.765   5.616  0.3573 -0.3743  0.6212
 7811SOL    HW134895   3.791   1.752   5.523  0.5661 -1.0350  0.7573
 7811SOL    HW234896   3.814   1.849   5.638  2.1341 -1.4259  1.2843
 7812SOL     OW34897   1.554   2.551   2.455  0.1922  0.5342  0.4842
 7812SOL    HW134898   1.463   2.551   2.427  0.2656 -0.6697  0.2472
 7812SOL    HW234899   1.588   2.584   2.372  1.6327 -0.2356  0.7753
 7813SOL     OW34900   4.471   2.265   8.590  0.0147  0.1132 -0.3209
 7813SOL    HW134901   4.427   2.286   8.508 -1.8239 -0.2716  0.5723
 7813SOL    HW234902   4.546   2.324   8.585 -0.5411  0.7003 -1.7670
 7814SOL     OW34903   3.269   4.456  14.921  0.0764 -0.3685 -0.4380
 7814SOL    HW134904   3.235   4.379  14.967  1.8505 -0.6841  0.3561
 7814SOL    HW234905   3.361   4.457  14.946  0.2617  0.8069 -1.2106
 7815SOL     OW34906   1.564   0.307   8.359 -0.2423  0.8603 -0.0495
 7815SOL    HW134907   1.507   0.231   8.362  0.2666  0.3025 -4.2140
 7815SOL    HW234908   1.654   0.275   8.364 -0.5159  0.0511 -0.4075
 7816SOL     OW34909   2.890   4.035   2.290 -0.2602  0.1453  0.2716
 7816SOL    HW134910   2.810   4.057   2.338  0.6617  2.9073  0.5369
 7816SOL    HW234911   2.901   4.109   2.231 -3.1234 -0.3318 -0.8759
 7817SOL     OW34912   0.393   2.064   7.916  0.1152 -0.1082  0.5746
 7817SOL    HW134913   0.322   2.056   7.853 -0.1544  1.6171  0.6661
 7817SOL    HW234914   0.345   2.080   7.997 -1.0511  1.9153 -0.5168
 7818SOL     OW34915   3.057   1.952   9.029  0.4663 -0.3690  0.2510
 7818SOL    HW134916   3.049   1.861   8.999  1.1767 -0.0009 -1.0874
 7818SOL    HW234917   3.042   1.957   9.123  0.4339 -0.8837  0.2756
 7819SOL     OW34918   1.375   0.348  16.111 -0.2129  0.2783  0.0445
 7819SOL    HW134919   1.345   0.269  16.066 -0.3516  0.2198  0.2399
 7819SOL    HW234920   1.391   0.308  16.197  0.8534 -3.2041 -1.7682
 7820SOL     OW34921   2.550   2.109   3.673 -0.0979 -0.2346 -0.0713
 7820SOL    HW134922   2.568   2.161   3.751  1.2984  0.2895 -0.7276
 7820SOL    HW234923   2.455   2.109   3.683 -0.1427 -0.0665 -0.4831
 7821SOL     OW34924   0.466   1.523   2.814  0.2759 -0.0870  0.3702
 7821SOL    HW134925   0.371   1.533   2.807  0.1467 -1.3890  0.2912
 7821SOL    HW234926   0.496   1.492   2.899  0.1478 -1.6283 -0.1540
 7822SOL     OW34927   1.333   1.712   5.575 -0.0595  0.2490  0.0873
 7822SOL    HW134928   1.362   1.632   5.532 -1.5108 -1.6563  2.6947
 7822SOL    HW234929   1.395   1.719   5.648 -1.0861 -0.6832  1.0369
 7823SOL     OW34930   3.124   1.099   2.514 -0.1498  0.0479 -0.2934
 7823SOL    HW134931   3.115   1.194   2.502  0.6065  0.1808  0.2280
 7823SOL    HW234932   3.120   1.088   2.609  3.1485  2.0254  0.0857
 7824SOL     OW34933   0.102   2.766   1.338 -0.3528 -0.4302 -0.2334
 7824SOL    HW134934   0.178   2.747   1.283 -0.3948  0.8193 -0.7099
 7824SOL    HW234935   0.154   2.783   1.416  0.1833  0.2898 -0.7471
 7825SOL     OW34936   0.103   3.694   6.250  0.1970  0.3371 -0.1135
 7825SOL    HW134937   0.165   3.702   6.322 -1.3633 -0.6374  1.3514
 7825SOL    HW234938   0.064   3.608   6.263 -0.3302  0.7310  0.9262
 7826SOL     OW34939   1.660   0.107   7.705 -0.4373  0.7246  0.0009
 7826SOL    HW134940   1.693   0.160   7.778 -0.3106  2.1606 -1.0850
 7826SOL    HW234941   1.741   0.067   7.673 -1.3715 -1.9958  1.0861
 7827SOL     OW34942   1.705   0.369   4.735 -0.0074 -0.2723  0.0777
 7827SOL    HW134943   1.792   0.398   4.762  0.5395 -0.4653 -1.4627
 7827SOL    HW234944   1.710   0.274   4.730 -0.2374 -0.3451  1.3612
 7828SOL     OW34945   4.622   1.799   2.525 -0.2662  0.3654  0.1874
 7828SOL    HW134946   4.609   1.866   2.458 -0.7683  1.4931  1.4121
 7828SOL    HW234947   4.717   1.794   2.532 -0.3163 -1.1914 -0.3515
 7829SOL     OW34948   3.059   0.515   7.402 -0.2490  0.2278  0.2611
 7829SOL    HW134949   3.034   0.515   7.494  1.8498  1.1290  0.8207
 7829SOL    HW234950   3.113   0.594   7.408  0.9450 -0.5958  0.3401
 7830SOL     OW34951   2.427   4.675   7.930  0.2710  0.3004 -0.1221
 7830SOL    HW134952   2.509   4.626   7.935  2.1769  3.8600  3.1477
 7830SOL    HW234953   2.395   4.655   8.018  1.0390 -0.0764  0.0741
 7831SOL     OW34954   0.438   4.386   4.893  0.1435  0.2988  0.2681
 7831SOL    HW134955   0.346   4.371   4.871  0.3526 -0.4939 -0.0918
 7831SOL    HW234956   0.473   4.359   4.808  0.0273  0.6571  0.1084
 7832SOL     OW34957   3.137   0.545   6.778 -0.5531  0.0906  0.6201
 7832SOL    HW134958   3.081   0.494   6.837 -0.3992 -0.2315  0.4849
 7832SOL    HW234959   3.213   0.486   6.776 -1.1791 -0.6376 -1.5425
 7833SOL     OW34960   3.938   2.639   8.701 -0.1388 -0.1219  0.3848
 7833SOL    HW134961   3.968   2.698   8.771 -0.2443  1.1051 -0.6009
 7833SOL    HW234962   4.025   2.618   8.667 -0.4278  0.8069 -0.9095
 7834SOL     OW34963   2.492   4.171  11.088 -0.7722 -0.0206  0.1557
 7834SOL    HW134964   2.572   4.221  11.101 -1.6057  1.4025 -0.1122
 7834SOL    HW234965   2.486   4.165  10.992 -0.5936  0.2261  0.1283
 7835SOL     OW34966   0.812   0.039   2.707 -0.3817 -0.0244 -0.1430
 7835SOL    HW134967   0.901   0.002   2.711 -1.4902 -2.5730  0.4975
 7835SOL    HW234968   0.772   4.687   2.664 -0.9510  0.0479  0.2643
 7836SOL     OW34969   3.060   2.095   7.238  0.0973  0.2267  0.0341
 7836SOL    HW134970   2.997   2.059   7.301  0.9843 -1.8621 -0.2475
 7836SOL    HW234971   3.133   2.119   7.295 -0.7043 -1.0018  1.5877
 7837SOL     OW34972   2.425   3.921   8.536  0.5154  0.4437 -0.1697
 7837SOL    HW134973   2.353   3.863   8.513  0.5538  0.6936 -0.9203
 7837SOL    HW234974   2.478   3.851   8.574  0.1049 -0.1675 -0.7251
 7838SOL     OW34975   1.300   4.439   5.136  0.6178  0.5033  0.4761
 7838SOL    HW134976   1.273   4.518   5.089  0.5060  0.7306  0.9168
 7838SOL    HW234977   1.215   4.397   5.145  0.4732  0.6402 -0.2723
 7839SOL     OW34978   1.842   2.998   3.022  0.3017  0.1200  0.4241
 7839SOL    HW134979   1.890   2.931   3.071 -0.4205 -0.1263  0.7966
 7839SOL    HW234980   1.800   2.944   2.955  0.0851  1.4881 -0.5484
 7840SOL     OW34981   0.786   4.384   5.133 -0.0658 -0.3178  0.1596
 7840SOL    HW134982   0.756   4.463   5.179 -1.6430 -1.2587  0.7708
 7840SOL    HW234983   0.708   4.336   5.105  1.6182 -1.7963 -1.9456
 7841SOL     OW34984   1.562   3.450   7.341  0.0166 -0.0784  0.3723
 7841SOL    HW134985   1.579   3.358   7.363 -0.3393  0.0283  1.1147
 7841SOL    HW234986   1.646   3.492   7.359 -0.5410  0.3777  1.9350
 7842SOL     OW34987   3.815   2.545   7.687 -0.2652 -0.1872 -0.0700
 7842SOL    HW134988   3.835   2.498   7.768  0.2448  1.8210  0.9607
 7842SOL    HW234989   3.758   2.608   7.729 -1.6117 -0.1985 -1.8933
 7843SOL     OW34990   0.380   2.735   5.309 -0.3610  0.2937  0.0235
 7843SOL    HW134991   0.324   2.738   5.231 -1.9152  2.0681  1.1950
 7843SOL    HW234992   0.312   2.782   5.358 -0.5272 -1.2528  1.2553
 7844SOL     OW34993   3.039   1.711   7.392  0.0180  0.3708 -0.1990
 7844SOL    HW134994   3.055   1.631   7.342  0.2472 -0.5535  1.3736
 7844SOL    HW234995   2.989   1.676   7.466  1.5936 -1.2682  0.0898
 7845SOL     OW34996   2.984   3.446   4.712 -0.1084  0.4915  0.4784
 7845SOL    HW134997   2.892   3.449   4.735  0.3779  0.9812  2.3107
 7845SOL    HW234998   3.031   3.516   4.757 -1.1893  0.6852  1.2958
 7846SOL     OW34999   2.532   1.990   3.999  0.5449  0.3999 -0.1069
 7846SOL    HW135000   2.598   1.965   4.063  0.3712  0.0201 -0.0817
 7846SOL    HW235001   2.538   1.911   3.946  1.8617  0.6937 -0.3963
 7847SOL     OW35002   3.925   4.711   8.137  0.3047  0.5249 -0.0672
 7847SOL    HW135003   3.893   4.639   8.190  0.2633 -0.0147 -0.8182
 7847SOL    HW235004   3.982   4.660   8.078  0.8050  0.6352  0.3211
 7848SOL     OW35005   2.909   2.913  10.044  0.0425  0.0498 -0.2801
 7848SOL    HW135006   2.816   2.923  10.062 -0.4245 -2.4929 -1.2914
 7848SOL    HW235007   2.935   2.830  10.085  0.7842  1.0307  1.2244
 7849SOL     OW35008   1.923   2.798   2.027 -0.3208  0.3017 -0.9727
 7849SOL    HW135009   2.003   2.798   1.975  0.1458  0.5291 -0.2444
 7849SOL    HW235010   1.850   2.812   1.966  0.0999  1.0154 -1.3237
 7850SOL     OW35011   3.703   0.774   2.775 -0.3409  0.0608 -0.2972
 7850SOL    HW135012   3.778   0.744   2.725 -1.1357  0.2647 -1.6114
 7850SOL    HW235013   3.640   0.732   2.716  0.9405 -0.2708 -1.4156
 7851SOL     OW35014   3.415   1.456   9.250 -0.3435  0.3857  0.1921
 7851SOL    HW135015   3.341   1.425   9.302  0.5725 -1.5559  0.3521
 7851SOL    HW235016   3.490   1.449   9.308  0.3905  1.3186 -0.6431
 7852SOL     OW35017   2.213   2.643   6.775  0.3763  0.1006 -0.3406
 7852SOL    HW135018   2.118   2.636   6.761  0.5399 -1.7695 -0.4685
 7852SOL    HW235019   2.217   2.680   6.864  0.5885 -1.3090  0.2304
 7853SOL     OW35020   1.354   2.643   6.430 -0.5636 -0.5179  0.3606
 7853SOL    HW135021   1.394   2.640   6.517 -1.7668 -2.9176  0.8377
 7853SOL    HW235022   1.386   2.558   6.401  0.1951 -0.1595  0.1392
 7854SOL     OW35023   2.557   4.105   7.387  0.4224  0.2920  0.3328
 7854SOL    HW135024   2.554   4.069   7.298 -2.9718  1.3591  0.0041
 7854SOL    HW235025   2.621   4.042   7.418  0.5614  0.1818 -0.1771
 7855SOL     OW35026   1.745   3.722  12.451  0.4381  0.2827 -0.3365
 7855SOL    HW135027   1.672   3.660  12.455 -0.0508  0.7572 -1.9854
 7855SOL    HW235028   1.798   3.699  12.528 -0.2208 -0.5970 -0.1450
 7856SOL     OW35029   2.081   1.178   5.135  0.5543 -0.6949 -0.0552
 7856SOL    HW135030   2.160   1.123   5.127  0.7402 -0.6487  1.4961
 7856SOL    HW235031   2.039   1.140   5.212  1.7509 -0.6892  0.6099
 7857SOL     OW35032   1.847   1.289   8.042  0.5147  0.0998  0.3395
 7857SOL    HW135033   1.833   1.234   8.119  0.4650 -1.0318 -0.4855
 7857SOL    HW235034   1.864   1.232   7.967 -1.0272  1.7136 -1.2383
 7858SOL     OW35035   1.804   2.326   5.574  0.2577  0.5995  0.4375
 7858SOL    HW135036   1.745   2.263   5.531 -0.8957  1.1951  1.1520
 7858SOL    HW235037   1.881   2.273   5.552  0.3740  1.9393 -2.3991
 7859SOL     OW35038   0.848   0.930  13.702 -0.1800  0.0923  0.3218
 7859SOL    HW135039   0.803   0.870  13.642  1.2153 -1.2157  0.5830
 7859SOL    HW235040   0.876   0.991  13.633 -0.7776 -0.1908 -0.1758
 7860SOL     OW35041   2.989   2.757   0.226 -0.6599 -0.3096 -0.0188
 7860SOL    HW135042   2.974   2.675   0.273  1.0174 -1.1224 -0.9068
 7860SOL    HW235043   2.935   2.748   0.147 -1.0187 -0.2937  0.2229
 7861SOL     OW35044   2.232   1.608  11.920  0.0054  0.0790 -0.5042
 7861SOL    HW135045   2.183   1.593  11.839 -1.6614  1.7254  0.1954
 7861SOL    HW235046   2.282   1.527  11.934 -0.5119 -0.4947 -1.9687
 7862SOL     OW35047   0.463   2.721   8.085 -0.0837 -0.5542 -0.0173
 7862SOL    HW135048   0.518   2.748   8.011  1.9062 -2.3646  0.7760
 7862SOL    HW235049   0.454   2.626   8.076  1.3255 -0.4557 -2.5146
 7863SOL     OW35050   4.089   1.504  12.733  0.6476 -0.1928 -0.2904
 7863SOL    HW135051   4.134   1.437  12.682  2.6360  1.1047 -0.2365
 7863SOL    HW235052   4.146   1.514  12.809 -0.7530  1.1676  0.5815
 7864SOL     OW35053   3.221   4.540   4.572  0.4161  0.0893 -0.0784
 7864SOL    HW135054   3.183   4.489   4.500 -1.1503  0.3852  0.5551
 7864SOL    HW235055   3.142   4.542   4.626  0.4279  2.5543 -0.1816
 7865SOL     OW35056   0.577   4.631   4.964  0.6226  0.5230  0.4482
 7865SOL    HW135057   0.547   4.550   4.924  1.0388  0.2361  0.7056
 7865SOL    HW235058   0.495   4.655   5.007 -0.0315  0.4077 -0.7682
 7866SOL     OW35059   0.555   3.839   4.876 -0.0273 -0.0744 -0.2261
 7866SOL    HW135060   0.477   3.860   4.926  0.2559 -1.4797  0.8083
 7866SOL    HW235061   0.542   3.748   4.849  0.2716  0.2971 -1.6229
 7867SOL     OW35062   3.928   0.457  15.266  0.0020 -0.8631 -0.3369
 7867SOL    HW135063   3.914   0.443  15.360  1.1691  0.0276 -0.0304
 7867SOL    HW235064   4.000   0.520  15.265 -1.3938  0.7232 -1.4164
 7868SOL     OW35065   4.449   0.299   3.396 -0.5452  0.1235  0.2197
 7868SOL    HW135066   4.416   0.291   3.306  2.2006 -1.0475 -0.6777
 7868SOL    HW235067   4.506   0.224   3.412 -0.3706  0.1886 -0.0939
 7869SOL     OW35068   0.118   2.360  15.990 -0.0556 -0.0061  0.3451
 7869SOL    HW135069   0.103   2.454  15.983  0.9421  0.0271 -1.2663
 7869SOL    HW235070   0.161   2.328  15.911  1.1885  1.1038  0.5752
 7870SOL     OW35071   3.587   1.756   1.770  0.1144  0.6039  0.0414
 7870SOL    HW135072   3.592   1.735   1.863  0.4093  0.1716 -0.0769
 7870SOL    HW235073   3.493   1.774   1.769  0.3893  2.0650  1.1793
 7871SOL     OW35074   1.073   2.930   3.653 -0.2047  0.0419  0.4442
 7871SOL    HW135075   1.097   3.014   3.614 -1.7475  0.6998  0.9176
 7871SOL    HW235076   1.029   2.888   3.579 -0.1486  0.1252  0.3636
 7872SOL     OW35077   0.395   0.926   7.052 -0.9768  0.4286  0.0546
 7872SOL    HW135078   0.334   0.989   7.090 -1.6294 -0.8355  1.1068
 7872SOL    HW235079   0.327   0.865   7.021 -2.2511  1.4913  0.7730
 7873SOL     OW35080   3.678   3.018   9.487  0.0120  0.4236  0.3093
 7873SOL    HW135081   3.705   3.059   9.569 -2.5246  0.5848  1.0504
 7873SOL    HW235082   3.754   3.042   9.433  1.3247  2.3951  3.0573
 7874SOL     OW35083   0.875   4.692  17.598 -0.5919 -0.1798  0.8794
 7874SOL    HW135084   0.931   4.616  17.583  0.2787  1.2186 -3.0789
 7874SOL    HW235085   0.933   0.033  17.639  0.3602 -0.6897  0.3404
 7875SOL     OW35086   2.541   2.704   8.028  0.1677  0.0748 -0.5952
 7875SOL    HW135087   2.576   2.659   8.105 -2.0708 -0.3219  0.2015
 7875SOL    HW235088   2.625   2.713   7.983 -0.4719  2.1735 -1.3409
 7876SOL     OW35089   3.742   4.419  17.582  0.2397 -0.3405  0.4345
 7876SOL    HW135090   3.763   4.379  17.666 -0.6670 -1.7973 -0.0354
 7876SOL    HW235091   3.772   4.509  17.593 -0.9535 -0.1107  1.8119
 7877SOL     OW35092   3.787   0.025   5.090  0.1305  0.0534 -0.2628
 7877SOL    HW135093   3.828   4.662   5.093 -0.3484 -0.1569  0.1596
 7877SOL    HW235094   3.862   0.080   5.069 -0.4660  1.5575  1.6021
 7878SOL     OW35095   3.976   0.785   8.552  0.6452  0.3256 -0.0821
 7878SOL    HW135096   3.926   0.867   8.559 -0.9573 -0.5547 -1.1220
 7878SOL    HW235097   3.928   0.728   8.612 -2.2305  0.5626 -2.1711
 7879SOL     OW35098   1.552   2.702   8.264 -0.2650 -0.1776 -0.1921
 7879SOL    HW135099   1.483   2.767   8.256 -0.2000 -0.3702 -2.2197
 7879SOL    HW235100   1.622   2.764   8.285 -1.9384  1.0096  1.8378
 7880SOL     OW35101   1.050   3.422   3.872  0.0474 -0.0696 -0.1641
 7880SOL    HW135102   1.029   3.400   3.782  1.4720 -0.9627 -0.2935
 7880SOL    HW235103   1.145   3.405   3.875  0.2281  1.1530  1.1043
 7881SOL     OW35104   4.141   0.706   0.079 -0.0656  0.2736  0.7082
 7881SOL    HW135105   4.132   0.613   0.100  0.9895  0.8264  3.6016
 7881SOL    HW235106   4.234   0.721   0.092 -0.4290  1.5290  1.8743
 7882SOL     OW35107   2.493   0.526   6.533 -0.0468 -0.1804  0.0004
 7882SOL    HW135108   2.436   0.594   6.568 -2.3856 -0.7977 -2.6677
 7882SOL    HW235109   2.426   0.466   6.501  1.1622 -0.8285 -1.3120
 7883SOL     OW35110   0.276   0.024   3.217 -0.2810 -0.2035 -1.0193
 7883SOL    HW135111   0.314   0.037   3.304  0.3120  1.6992 -1.5644
 7883SOL    HW235112   0.298   0.111   3.182 -0.2030  0.2705  0.1944
 7884SOL     OW35113   0.069   2.537  14.692 -0.3665  0.0373  0.3608
 7884SOL    HW135114   0.041   2.548  14.783  2.6133  1.8013  1.0776
 7884SOL    HW235115   4.721   2.580  14.644 -0.8318 -1.0562  0.0660
 7885SOL     OW35116   4.074   2.588   3.380 -0.2540  0.0907  0.1539
 7885SOL    HW135117   4.074   2.623   3.291 -1.8276  0.7145  0.4078
 7885SOL    HW235118   4.154   2.534   3.381  0.5893  1.2947 -1.8418
 7886SOL     OW35119   1.248   3.538  15.654  0.0645  0.7284  1.0407
 7886SOL    HW135120   1.182   3.549  15.586  1.3669 -1.2763 -0.5349
 7886SOL    HW235121   1.333   3.543  15.611 -1.5000 -0.0658 -2.1384
 7887SOL     OW35122   0.738   0.492   7.419  0.5292  0.2231 -0.1275
 7887SOL    HW135123   0.820   0.536   7.399 -0.6198  1.8254 -1.3129
 7887SOL    HW235124   0.737   0.424   7.352 -2.1967 -1.6208  1.7800
 7888SOL     OW35125   0.548   3.563  11.051 -0.4338 -0.3412  0.2909
 7888SOL    HW135126   0.587   3.507  10.984 -0.4374 -0.6067  0.5109
 7888SOL    HW235127   0.581   3.511  11.125 -0.8298 -0.9103  0.0651
 7889SOL     OW35128   1.891   0.378   1.288 -0.1241  0.3910 -0.0963
 7889SOL    HW135129   1.846   0.421   1.215 -0.7462  0.6996  0.4659
 7889SOL    HW235130   1.975   0.361   1.246 -0.6140 -0.8000 -0.5904
 7890SOL     OW35131   1.440   2.110   2.541 -0.3753  0.1869  0.0631
 7890SOL    HW135132   1.519   2.119   2.487 -1.2710  1.5846 -1.0331
 7890SOL    HW235133   1.448   2.022   2.577  0.7085  1.1103  2.0493
 7891SOL     OW35134   4.504   0.598   4.928 -0.0810 -0.9944 -0.0241
 7891SOL    HW135135   4.439   0.544   4.973 -3.4967  3.9472  0.8646
 7891SOL    HW235136   4.576   0.536   4.918 -0.4694 -1.5172  0.3826
 7892SOL     OW35137   3.295   2.839   8.699 -0.4704 -0.1532 -0.0550
 7892SOL    HW135138   3.324   2.902   8.766 -0.0601 -0.4776  0.0784
 7892SOL    HW235139   3.267   2.768   8.756 -0.3010 -0.6123 -0.5466
 7893SOL     OW35140   2.488   1.876   2.536  0.3358 -0.3568 -0.6439
 7893SOL    HW135141   2.548   1.939   2.576  1.9089 -1.8526 -0.6687
 7893SOL    HW235142   2.471   1.913   2.449 -1.5895 -0.7782 -0.4449
 7894SOL     OW35143   1.283   3.685  16.490  0.3319 -0.1425 -0.5178
 7894SOL    HW135144   1.252   3.650  16.573 -1.5475  0.9943 -0.7448
 7894SOL    HW235145   1.280   3.604  16.437  0.5547 -0.1085 -0.5855
 7895SOL     OW35146   3.787   3.407  15.889 -0.1415 -0.5622  0.0919
 7895SOL    HW135147   3.715   3.420  15.950 -3.0085 -0.0541 -3.3682
 7895SOL    HW235148   3.788   3.488  15.838 -0.3565 -1.4203 -1.3022
 7896SOL     OW35149   2.437   0.954  14.421  0.1949  0.1895  0.1901
 7896SOL    HW135150   2.387   0.875  14.442 -0.5121  0.5393 -0.1498
 7896SOL    HW235151   2.519   0.950  14.471  0.3385 -1.1169 -0.1393
 7897SOL     OW35152   3.200   2.842  14.089 -0.8427  0.4711  0.1811
 7897SOL    HW135153   3.170   2.860  14.000  2.7227  1.1621 -0.9272
 7897SOL    HW235154   3.234   2.754  14.073  0.3792  0.2741  3.8910
 7898SOL     OW35155   3.301   4.528  15.302 -0.2266  0.2485  0.1233
 7898SOL    HW135156   3.264   4.567  15.381 -0.2860 -0.4638  0.4457
 7898SOL    HW235157   3.213   4.508  15.267  0.0669  0.7600 -0.9156
 7899SOL     OW35158   1.280   1.246   8.800  0.2723  0.7991  0.1525
 7899SOL    HW135159   1.270   1.225   8.708 -0.8423  1.7624  0.0625
 7899SOL    HW235160   1.232   1.328   8.807  0.2746  0.6756  1.7774
 7900SOL     OW35161   4.681   2.406  13.474  0.0092 -0.2463  0.9278
 7900SOL    HW135162   4.700   2.341  13.407 -0.1193 -0.2531  0.8997
 7900SOL    HW235163   4.652   2.483  13.425  1.3465 -1.4631 -1.7485
 7901SOL     OW35164   3.884   0.704  12.115  0.1097  0.4879 -0.6790
 7901SOL    HW135165   3.822   0.706  12.188  0.0767  0.7946 -0.7159
 7901SOL    HW235166   3.916   0.792  12.136  0.1829  0.7827 -2.0877
 7902SOL     OW35167   3.024   3.010   3.139 -0.1303  0.1445 -0.2871
 7902SOL    HW135168   3.002   3.028   3.230  0.6916  0.1972 -0.0946
 7902SOL    HW235169   3.050   2.919   3.148 -2.6152 -0.4756  0.6518
 7903SOL     OW35170   1.051   2.358   1.301 -0.1035  0.4687 -0.2862
 7903SOL    HW135171   1.099   2.393   1.225  1.1652 -1.0461 -0.1673
 7903SOL    HW235172   1.011   2.433   1.345  2.7025  1.0876  1.1853
 7904SOL     OW35173   3.553   0.927   4.195 -0.2528  0.5310 -0.5413
 7904SOL    HW135174   3.561   1.006   4.248  0.0922  0.3972 -0.3992
 7904SOL    HW235175   3.492   0.873   4.246  2.4294  1.1328  3.2679
 7905SOL     OW35176   2.297   0.514   8.638  0.1371  0.4719  0.1848
 7905SOL    HW135177   2.377   0.566   8.641  0.1611  0.4688 -0.4955
 7905SOL    HW235178   2.326   0.424   8.620 -2.1723  0.1831 -2.1226
 7906SOL     OW35179   3.042   4.630   5.459 -0.6168  0.1347  0.2958
 7906SOL    HW135180   3.045   4.581   5.377  3.0762  1.0983 -0.1203
 7906SOL    HW235181   3.125   4.676   5.452  0.1166 -0.9353  2.2743
 7907SOL     OW35182   3.972   4.117   7.309  0.6217  0.1418 -0.1801
 7907SOL    HW135183   4.030   4.102   7.384  0.8211 -0.6256 -0.4898
 7907SOL    HW235184   3.891   4.127   7.359 -0.4188  2.3596 -2.3302
 7908SOL     OW35185   2.747   3.247   7.106  0.2782  0.3490  0.2247
 7908SOL    HW135186   2.664   3.208   7.133  0.3179  0.6339  0.7509
 7908SOL    HW235187   2.812   3.208   7.164 -0.2777  0.9520  1.2591
 7909SOL     OW35188   4.008   4.063   3.761  0.4815 -0.0319  0.5730
 7909SOL    HW135189   3.961   4.121   3.701 -1.4018 -0.3444  1.7424
 7909SOL    HW235190   4.097   4.097   3.762 -0.1260  1.5434  1.1722
 7910SOL     OW35191   3.239   2.475   5.529 -0.4008 -0.7732  0.5129
 7910SOL    HW135192   3.322   2.427   5.529  0.2963  0.4247 -1.0840
 7910SOL    HW235193   3.194   2.430   5.601 -1.2907 -0.6676  0.0201
 7911SOL     OW35194   0.143   2.695   5.168  0.3670 -0.1756 -0.3416
 7911SOL    HW135195   0.066   2.752   5.170 -0.4140 -1.2126 -0.8747
 7911SOL    HW235196   0.121   2.646   5.088  1.0842  0.0178 -0.6514
 7912SOL     OW35197   2.903   3.109   1.690  0.4945  0.0527 -0.1841
 7912SOL    HW135198   2.934   3.126   1.779 -1.0594 -2.9565  0.9082
 7912SOL    HW235199   2.966   3.162   1.641 -0.2520  1.3866  0.2951
 7913SOL     OW35200   4.043   1.878   5.925  0.0656  0.1118 -0.3128
 7913SOL    HW135201   4.077   1.793   5.956 -1.2718 -0.6402 -0.9060
 7913SOL    HW235202   3.970   1.885   5.986 -1.2859 -1.4413 -1.7404
 7914SOL     OW35203   0.841   3.161   4.333 -0.1377 -0.0767 -0.0802
 7914SOL    HW135204   0.810   3.093   4.392 -0.0226 -0.3805 -0.3650
 7914SOL    HW235205   0.904   3.104   4.288 -0.6968  0.8741 -2.0911
 7915SOL     OW35206   2.739   1.428   7.998 -0.5425 -0.1799  0.0552
 7915SOL    HW135207   2.711   1.369   8.068  0.9879  0.3944  1.1570
 7915SOL    HW235208   2.824   1.389   7.978 -0.5679 -0.8766  1.2852
 7916SOL     OW35209   0.972   2.053  14.205 -0.0034 -0.1450 -0.0953
 7916SOL    HW135210   0.911   2.017  14.142  0.2536  0.0958 -0.4784
 7916SOL    HW235211   0.956   1.990  14.275 -2.0185 -1.1575 -1.4823
 7917SOL     OW35212   2.040   1.623   2.013 -0.4869 -0.0706  0.4467
 7917SOL    HW135213   2.118   1.575   2.042 -0.4442 -1.6749 -2.3266
 7917SOL    HW235214   1.988   1.555   1.972 -0.6904  0.5481 -0.3211
 7918SOL     OW35215   0.012   4.184  13.850  0.0036  0.2706 -0.5356
 7918SOL    HW135216   0.060   4.171  13.768  0.5461 -1.9243  0.1485
 7918SOL    HW235217   4.660   4.126  13.841 -0.6073  1.1858 -1.3630
 7919SOL     OW35218   4.365   1.488   6.274 -0.7941 -0.6153 -0.2010
 7919SOL    HW135219   4.281   1.526   6.300 -0.5404  1.5123 -2.6140
 7919SOL    HW235220   4.357   1.400   6.312  0.1810 -0.3930  0.5226
 7920SOL     OW35221   1.914   0.436   2.007 -0.5585 -0.4392  0.0133
 7920SOL    HW135222   1.843   0.463   1.949 -1.0245 -0.6187  0.5038
 7920SOL    HW235223   1.981   0.502   1.991  1.5265 -1.5752  4.0277
 7921SOL     OW35224   2.168   2.057   8.446 -0.1894  0.4527  0.0249
 7921SOL    HW135225   2.206   2.135   8.488 -0.2188  1.6313 -2.1361
 7921SOL    HW235226   2.115   2.090   8.374  0.8111  2.6691  0.3002
 7922SOL     OW35227   2.049   1.218   7.346  0.8730  0.3544  0.3907
 7922SOL    HW135228   2.009   1.201   7.431  1.4099 -1.4314  0.2968
 7922SOL    HW235229   2.036   1.313   7.345  1.1621  0.4019  1.1827
 7923SOL     OW35230   3.606   2.010  14.889  0.1803 -0.4194 -0.0830
 7923SOL    HW135231   3.693   2.049  14.882  0.2365 -0.1429  1.9655
 7923SOL    HW235232   3.606   1.966  14.975  0.3566 -1.9048 -0.8359
 7924SOL     OW35233   1.988   3.385   4.670  0.0883 -0.4376 -0.2370
 7924SOL    HW135234   2.015   3.302   4.710  2.1535  0.8195  0.9338
 7924SOL    HW235235   1.892   3.387   4.674  0.0436 -2.4361 -0.2861
 7925SOL     OW35236   1.132   3.585   6.399  0.3715  0.2393  0.0324
 7925SOL    HW135237   1.165   3.537   6.322 -1.8761 -1.8803  0.4153
 7925SOL    HW235238   1.178   3.543   6.472  1.8973  1.3324 -0.2828
 7926SOL     OW35239   0.323   1.162   5.406  0.1309 -0.2172  0.3582
 7926SOL    HW135240   0.329   1.067   5.420  1.4064  0.2702  3.0502
 7926SOL    HW235241   0.238   1.172   5.363  0.3063  0.1085  0.0897
 7927SOL     OW35242   2.285   4.337   6.451 -0.1557  0.0335  0.5885
 7927SOL    HW135243   2.294   4.424   6.412  1.1428  0.5136  1.9456
 7927SOL    HW235244   2.192   4.324   6.436  0.1576 -1.4942 -0.0361
 7928SOL     OW35245   2.726   3.590   4.167 -0.0004 -0.2256 -0.2717
 7928SOL    HW135246   2.694   3.570   4.079 -1.4717  0.4205  0.1140
 7928SOL    HW235247   2.733   3.507   4.215  1.5599  1.1451  1.9044
 7929SOL     OW35248   1.291   1.640   6.090 -0.0271  0.6012  0.1643
 7929SOL    HW135249   1.316   1.720   6.044  1.9957  0.3725  0.8902
 7929SOL    HW235250   1.305   1.672   6.179 -2.5830  0.6162  0.5740
 7930SOL     OW35251   4.151   0.410  13.824  0.7576  0.9058  0.0740
 7930SOL    HW135252   4.138   0.437  13.915  2.4484  1.4133  0.1614
 7930SOL    HW235253   4.245   0.402  13.807  0.2561 -0.4250 -2.0851
 7931SOL     OW35254   2.199   1.460   2.144  0.3894  0.5230  0.0100
 7931SOL    HW135255   2.199   1.366   2.163  0.5671  0.2242 -1.4895
 7931SOL    HW235256   2.216   1.499   2.230 -3.2412  0.7499  0.6010
 7932SOL     OW35257   3.565   2.094   5.796 -0.6556  0.2232  0.5438
 7932SOL    HW135258   3.520   2.010   5.786 -1.1651  0.3037  2.1438
 7932SOL    HW235259   3.623   2.098   5.720 -2.7655  1.1904 -1.0234
 7933SOL     OW35260   0.483   1.354   2.563 -0.0829  0.2298 -0.6358
 7933SOL    HW135261   0.450   1.367   2.652 -1.1778 -0.5297 -0.9362
 7933SOL    HW235262   0.434   1.424   2.520 -2.4138 -1.1046 -0.1094
 7934SOL     OW35263   2.232   4.481  11.166 -0.0609 -0.1486 -0.4942
 7934SOL    HW135264   2.207   4.529  11.087 -2.5384 -2.4826 -1.1170
 7934SOL    HW235265   2.325   4.474  11.144 -0.4139 -2.8858 -1.0846
 7935SOL     OW35266   1.934   0.530   6.767 -0.6645  0.2227  0.1901
 7935SOL    HW135267   2.009   0.519   6.708 -0.5608  0.9680  0.1763
 7935SOL    HW235268   1.956   0.476   6.842  0.8394  0.3287 -0.1778
 7936SOL     OW35269   0.303   2.978   3.844  0.2794 -0.4070 -0.3639
 7936SOL    HW135270   0.276   2.919   3.915 -1.8943 -0.9988 -1.6686
 7936SOL    HW235271   0.249   3.055   3.862  1.5620  0.3059  0.3904
 7937SOL     OW35272   1.169   1.445   5.967 -0.6585  0.1039  0.2784
 7937SOL    HW135273   1.129   1.503   5.902  0.7375  0.5616 -0.1771
 7937SOL    HW235274   1.221   1.510   6.013 -0.8469  0.5061 -0.0767
 7938SOL     OW35275   0.255   2.828   8.913  0.3822  0.1483 -0.0980
 7938SOL    HW135276   0.189   2.812   8.980 -1.2228  0.2894 -1.6333
 7938SOL    HW235277   0.314   2.890   8.956  0.2596 -1.1623  1.9471
 7939SOL     OW35278   1.216   0.601   3.629  0.3885 -0.2626 -0.2688
 7939SOL    HW135279   1.218   0.510   3.660 -0.8247 -0.3588 -0.4591
 7939SOL    HW235280   1.292   0.613   3.572 -0.5692  0.0231 -1.4869
 7940SOL     OW35281   0.485   3.227   2.745 -0.5478 -0.0976 -0.0146
 7940SOL    HW135282   0.449   3.186   2.823  2.1860 -1.4489  0.5244
 7940SOL    HW235283   0.414   3.214   2.682 -2.6399  1.1988  2.0741
 7941SOL     OW35284   1.650   0.545   4.521 -0.1618  0.6262  0.3676
 7941SOL    HW135285   1.598   0.615   4.560 -0.5835  0.6553 -0.2459
 7941SOL    HW235286   1.655   0.477   4.588  0.6723  0.7592  0.4464
 7942SOL     OW35287   0.953   0.937   0.389 -0.3423  0.5521 -0.1162
 7942SOL    HW135288   0.954   1.016   0.442 -1.2058 -0.8820  2.0230
 7942SOL    HW235289   0.863   0.941   0.355 -0.5768  1.9863  0.6912
 7943SOL     OW35290   4.246   1.494  15.380 -0.1607  0.0829  0.3976
 7943SOL    HW135291   4.311   1.562  15.363  0.2240 -0.4168 -0.1079
 7943SOL    HW235292   4.262   1.422  15.319  2.1239  2.3294 -1.6417
 7944SOL     OW35293   3.545   2.008  11.574 -0.1253  0.0589  0.2490
 7944SOL    HW135294   3.620   1.950  11.559 -0.7233 -0.8097  0.6452
 7944SOL    HW235295   3.476   1.946  11.553  2.1574 -1.8657 -1.6074
 7945SOL     OW35296   1.243   0.117  15.992  0.0307 -0.6543  0.4581
 7945SOL    HW135297   1.184   0.093  16.062 -0.3670 -2.4419 -0.4767
 7945SOL    HW235298   1.278   0.029  15.976 -3.0019 -1.4379 -1.9449
 7946SOL     OW35299   3.475   0.306   2.957 -0.0327 -0.0563  0.1974
 7946SOL    HW135300   3.569   0.323   2.952  0.5314 -2.6344  1.8591
 7946SOL    HW235301   3.451   0.379   2.900  1.1446  0.8923  0.8988
 7947SOL     OW35302   4.624   2.219   1.842 -0.2490 -0.0071  0.3254
 7947SOL    HW135303   4.530   2.217   1.858 -0.0202 -1.9101  1.4260
 7947SOL    HW235304   4.650   2.139   1.796 -0.1740  0.9352 -1.2907
 7948SOL     OW35305   0.156   1.783  13.947  0.0757 -0.0035  0.2465
 7948SOL    HW135306   0.148   1.776  13.852  0.2556 -0.8640  0.2962
 7948SOL    HW235307   0.097   1.712  13.972  0.7462 -0.4833  0.4766
 7949SOL     OW35308   1.059   2.322   9.945 -0.0694 -0.3565 -0.2039
 7949SOL    HW135309   1.154   2.334   9.935  0.0209  1.2353  2.4101
 7949SOL    HW235310   1.039   2.287   9.859 -0.4158 -0.4341 -0.0935
 7950SOL     OW35311   0.860   0.555   2.954  0.4063  0.5077 -0.1378
 7950SOL    HW135312   0.817   0.547   2.868 -0.6382 -2.2716  0.6259
 7950SOL    HW235313   0.868   0.650   2.963 -0.2093  0.7483 -2.0422
 7951SOL     OW35314   1.360   0.057   3.223  0.1539 -0.3378  0.0245
 7951SOL    HW135315   1.359   0.025   3.133 -2.5276 -2.4070  0.7952
 7951SOL    HW235316   1.446   0.098   3.232 -0.2291  0.0714  1.6966
 7952SOL     OW35317   3.148   3.407   3.115  0.1370 -0.5877 -0.2819
 7952SOL    HW135318   3.118   3.383   3.027  0.8873 -3.0175  0.1227
 7952SOL    HW235319   3.232   3.361   3.118 -0.1895 -1.1729 -0.0709
 7953SOL     OW35320   3.388   1.037  10.249  0.1182 -0.3362 -0.0228
 7953SOL    HW135321   3.316   0.975  10.238  0.2882 -0.2085 -1.7767
 7953SOL    HW235322   3.382   1.060  10.342 -2.2235  2.5081 -0.8859
 7954SOL     OW35323   1.475   0.146  13.617 -0.0180 -0.2555  0.8626
 7954SOL    HW135324   1.474   0.163  13.711  1.9356  2.6350  0.3448
 7954SOL    HW235325   1.567   0.142  13.594 -0.7377 -2.3404 -1.6113
 7955SOL     OW35326   0.901   2.093  11.146  0.1062  0.0567  0.9651
 7955SOL    HW135327   0.881   2.186  11.150 -0.7046 -0.1171  1.1569
 7955SOL    HW235328   0.944   2.085  11.231  0.9257 -0.7436  0.4792
 7956SOL     OW35329   2.600   1.840   3.290  0.7709 -0.1691 -0.0903
 7956SOL    HW135330   2.655   1.804   3.221 -2.6588 -0.2307 -2.7998
 7956SOL    HW235331   2.535   1.878   3.230 -1.0716 -4.2966 -0.6531
 7957SOL     OW35332   0.725   0.087   1.094 -0.1463  0.1539 -0.3380
 7957SOL    HW135333   0.814   0.074   1.126 -0.8347 -2.2088  0.6340
 7957SOL    HW235334   0.688   0.121   1.175 -1.0636  0.6405 -0.9476
 7958SOL     OW35335   3.551   1.499  17.132  0.2978 -0.0775 -0.4391
 7958SOL    HW135336   3.607   1.552  17.187  0.7996  0.1225 -1.1459
 7958SOL    HW235337   3.536   1.563  17.063 -1.0034 -0.4584 -0.5117
 7959SOL     OW35338   1.127   1.701   5.025 -0.1827 -0.5195  0.2358
 7959SOL    HW135339   1.086   1.763   4.964 -2.3116 -2.3223 -0.1367
 7959SOL    HW235340   1.215   1.701   4.987 -0.1598 -0.8031  0.2905
 7960SOL     OW35341   0.404   0.467   6.542 -0.3624 -0.0875  0.1190
 7960SOL    HW135342   0.475   0.531   6.545  0.5588 -1.0781 -0.6181
 7960SOL    HW235343   0.443   0.389   6.582 -1.8391  0.3483  2.4087
 7961SOL     OW35344   3.765   1.019   8.262  0.1951  0.5207  0.5973
 7961SOL    HW135345   3.703   1.020   8.189 -1.2103 -1.8260  1.7472
 7961SOL    HW235346   3.811   1.103   8.256 -0.2599  0.8816  1.9990
 7962SOL     OW35347   1.536   4.203  17.601  0.3460  0.9721  0.0353
 7962SOL    HW135348   1.596   4.169  17.667  3.2135  2.1558 -1.9876
 7962SOL    HW235349   1.598   4.258  17.554 -0.8787  1.6972 -0.7141
 7963SOL     OW35350   0.316   4.052   2.967 -0.2621 -0.4947  0.4469
 7963SOL    HW135351   0.288   3.965   2.995 -3.3150 -0.2034 -1.7592
 7963SOL    HW235352   0.312   4.101   3.050 -0.9775  0.5248 -0.1921
 7964SOL     OW35353   1.239   4.398   6.864 -0.1455  0.5446 -0.1618
 7964SOL    HW135354   1.264   4.307   6.852 -0.1877  0.2058  2.3702
 7964SOL    HW235355   1.223   4.418   6.956 -0.7492 -1.7851  0.2454
 7965SOL     OW35356   4.690   3.731  14.860 -0.1917 -0.0834  0.1026
 7965SOL    HW135357   0.035   3.707  14.797  1.3902  1.7267  1.1517
 7965SOL    HW235358   4.626   3.776  14.804  0.3226  0.2755 -0.1892
 7966SOL     OW35359   0.858   0.561   1.769  0.0676 -0.2852 -0.3352
 7966SOL    HW135360   0.871   0.508   1.848 -0.2415 -0.6986 -0.5609
 7966SOL    HW235361   0.889   0.651   1.782  0.1110 -0.2971 -0.3546
 7967SOL     OW35362   3.430   2.739   5.577  0.1119 -0.2881  0.2277
 7967SOL    HW135363   3.464   2.697   5.498  1.2812  1.5785 -0.2811
 7967SOL    HW235364   3.432   2.830   5.546  0.5922 -0.4984 -0.3346
 7968SOL     OW35365   1.466   0.390   3.617  0.1153  0.1995 -0.5311
 7968SOL    HW135366   1.379   0.386   3.656 -0.2487 -1.3653 -1.4865
 7968SOL    HW235367   1.510   0.342   3.688  1.2651  0.0029 -1.3756
 7969SOL     OW35368   0.556   0.379   1.158  0.4985 -0.0082  0.1946
 7969SOL    HW135369   0.491   0.449   1.147  0.0727 -0.5039 -0.5025
 7969SOL    HW235370   0.523   0.307   1.104 -1.0178 -0.1540  1.3213
 7970SOL     OW35371   4.254   3.811   5.010 -0.8224  0.7757  0.2022
 7970SOL    HW135372   4.303   3.892   4.997  1.3352 -0.5942 -0.0377
 7970SOL    HW235373   4.190   3.835   5.078 -0.7410  0.3862  0.4155
 7971SOL     OW35374   0.518   0.228  10.133 -0.0932  0.0537  0.1497
 7971SOL    HW135375   0.582   0.157  10.133 -0.8333 -0.6197 -3.6813
 7971SOL    HW235376   0.546   0.277  10.055 -0.3859 -1.1636 -0.7251
 7972SOL     OW35377   1.466   1.187   6.687  0.0891  0.1459  0.0360
 7972SOL    HW135378   1.391   1.237   6.656  1.5148  1.4287 -1.3853
 7972SOL    HW235379   1.485   1.129   6.614  1.9355 -1.0267  1.4243
 7973SOL     OW35380   0.898   0.792   9.121  0.4239  0.2083 -0.1415
 7973SOL    HW135381   0.851   0.758   9.197 -0.5693 -0.1605 -0.9280
 7973SOL    HW235382   0.974   0.733   9.127 -0.0962 -0.4568 -0.1177
 7974SOL     OW35383   1.476   3.398   0.785 -0.1846 -0.7550  0.5196
 7974SOL    HW135384   1.502   3.473   0.732 -2.7616  0.4237  0.9037
 7974SOL    HW235385   1.466   3.337   0.712  0.7451  0.5237 -0.6825
 7975SOL     OW35386   2.191   0.471   6.602  0.2468 -0.0555 -0.5197
 7975SOL    HW135387   2.137   0.487   6.525  1.4577 -0.6269 -1.4976
 7975SOL    HW235388   2.211   0.563   6.622  0.3614  0.1210 -1.4354
 7976SOL     OW35389   1.676   3.324   5.017 -0.3417 -0.1375 -0.0257
 7976SOL    HW135390   1.705   3.316   4.926 -0.7829 -0.6463 -0.1210
 7976SOL    HW235391   1.620   3.247   5.022 -0.6328 -0.0155 -1.6005
 7977SOL     OW35392   2.580   3.613   3.494 -0.3101 -0.2627  0.3770
 7977SOL    HW135393   2.556   3.690   3.443  0.5294  1.1959  2.1789
 7977SOL    HW235394   2.556   3.633   3.585 -0.7879 -0.7257  0.3566
 7978SOL     OW35395   0.129   1.143   3.032  0.7991  0.1871  0.2062
 7978SOL    HW135396   0.078   1.202   3.087 -0.6501 -0.8142 -0.0525
 7978SOL    HW235397   0.133   1.196   2.952  0.8028  2.2655  1.5803
 7979SOL     OW35398   2.301   0.578   4.950 -0.2913 -0.6518 -0.2987
 7979SOL    HW135399   2.225   0.546   4.998  1.1766 -1.8596  1.1867
 7979SOL    HW235400   2.276   0.671   4.945 -1.8239 -1.0328  0.2234
 7980SOL     OW35401   3.796   4.041   8.562 -0.0611 -0.2627  0.1554
 7980SOL    HW135402   3.833   3.976   8.622  0.6025 -0.3683 -0.3669
 7980SOL    HW235403   3.742   3.978   8.515  0.1974 -0.1895 -0.2349
 7981SOL     OW35404   4.661   0.462  10.996 -0.0111  0.4227 -0.7289
 7981SOL    HW135405   0.020   0.441  11.040 -0.6889  1.0728  0.8266
 7981SOL    HW235406   4.603   0.394  11.029  1.8358 -2.3107 -3.1094
 7982SOL     OW35407   2.846   2.246   4.489 -0.1579 -0.0244  0.6315
 7982SOL    HW135408   2.876   2.202   4.409  0.7594 -0.3588  1.1660
 7982SOL    HW235409   2.757   2.211   4.483  0.1503 -1.0467  2.1509
 7983SOL     OW35410   1.887   4.442  11.927 -0.0358  0.4549 -0.2194
 7983SOL    HW135411   1.959   4.500  11.951 -1.6422  2.2059  0.2812
 7983SOL    HW235412   1.830   4.515  11.906 -1.7058 -1.8705 -3.8305
 7984SOL     OW35413   4.198   1.264   3.782  0.0611  0.5626  0.2182
 7984SOL    HW135414   4.263   1.249   3.851  0.1219 -0.3466 -0.0357
 7984SOL    HW235415   4.179   1.174   3.756 -0.2219 -0.4726  3.9331
 7985SOL     OW35416   2.387   0.901   3.032 -0.0090  0.2514 -0.3968
 7985SOL    HW135417   2.403   0.820   3.081  1.2248  0.6520 -0.1397
 7985SOL    HW235418   2.475   0.932   3.010 -0.0507  0.2702 -0.5379
 7986SOL     OW35419   1.378   0.691   3.428 -0.8367  0.0882 -0.0653
 7986SOL    HW135420   1.351   0.779   3.405 -1.0939  0.0523  0.1007
 7986SOL    HW235421   1.364   0.649   3.343 -1.1358  0.9694 -0.4438
 7987SOL     OW35422   1.557   1.824   6.826  0.1215  0.0345 -0.0153
 7987SOL    HW135423   1.500   1.751   6.800 -1.3679  0.5499  1.7958
 7987SOL    HW235424   1.552   1.879   6.748  3.2719  2.2656  1.3472
 7988SOL     OW35425   4.213   2.905   4.554 -0.5441 -0.3582 -0.4122
 7988SOL    HW135426   4.208   2.847   4.479  2.6580  0.2073 -1.0812
 7988SOL    HW235427   4.308   2.905   4.564 -0.4708 -3.1684 -1.1766
 7989SOL     OW35428   1.021   4.612   7.391  0.5798 -0.5804  0.0538
 7989SOL    HW135429   1.095   4.552   7.404  1.4917  0.4966 -0.1991
 7989SOL    HW235430   0.995   4.623   7.482 -0.7553 -1.2471 -0.2492
 7990SOL     OW35431   1.518   3.785  17.659  0.0907  0.2879  0.6954
 7990SOL    HW135432   1.531   3.805   0.057  0.3396  1.0149  0.5019
 7990SOL    HW235433   1.587   3.722  17.639  0.7237  1.4558 -0.7937
 7991SOL     OW35434   3.021   3.981  17.115  0.1796 -0.1612  0.0308
 7991SOL    HW135435   3.080   3.979  17.191  1.4820 -0.9770 -1.0002
 7991SOL    HW235436   2.948   4.035  17.144  0.5433 -0.4911  1.5640
 7992SOL     OW35437   2.201   3.116   2.847 -0.4121  0.4322  0.1007
 7992SOL    HW135438   2.147   3.038   2.838 -0.5725  0.6770 -1.0815
 7992SOL    HW235439   2.281   3.072   2.877 -1.9275 -1.9500  0.6299
 7993SOL     OW35440   0.266   0.889   1.674  0.4732 -0.4332  0.3165
 7993SOL    HW135441   0.183   0.936   1.666  0.4059 -0.5129  0.5588
 7993SOL    HW235442   0.246   0.841   1.754 -0.1039 -0.0723  0.3909
 7994SOL     OW35443   1.908   0.225   4.998 -0.3093 -0.2927  0.6101
 7994SOL    HW135444   1.951   0.300   4.956 -0.5841 -0.0089  0.8296
 7994SOL    HW235445   1.826   0.219   4.949  0.7941 -2.6331 -0.9240
 7995SOL     OW35446   1.753   4.401   8.638  0.0908  0.3684  0.0359
 7995SOL    HW135447   1.755   4.493   8.664 -1.5384  0.6217 -0.7151
 7995SOL    HW235448   1.761   4.363   8.726  0.6175 -0.7627 -0.5042
 7996SOL     OW35449   4.189   1.948   8.264  0.3608  0.1413  0.0547
 7996SOL    HW135450   4.171   2.027   8.315  0.5135  0.6593 -0.6869
 7996SOL    HW235451   4.132   1.881   8.301 -0.3094 -0.1520 -1.4777
 7997SOL     OW35452   4.304   0.507   6.889 -0.0350 -0.2010  0.1941
 7997SOL    HW135453   4.378   0.480   6.942  0.1929 -1.4562 -0.7695
 7997SOL    HW235454   4.280   0.424   6.849  0.4637 -0.0448 -0.4416
 7998SOL     OW35455   4.309   4.583   3.634  0.2328 -0.3437 -0.4474
 7998SOL    HW135456   4.294   4.496   3.597 -4.9051  0.0504  0.6248
 7998SOL    HW235457   4.386   4.560   3.686 -0.1882 -0.3149  0.1900
 7999SOL     OW35458   0.305   4.042   2.324  0.4085  0.5296  0.1053
 7999SOL    HW135459   0.246   4.109   2.291 -0.0836 -0.6586 -1.3724
 7999SOL    HW235460   0.267   4.040   2.412 -2.4637  1.1813 -1.1356
 8000SOL     OW35461   0.600   1.883   4.256 -0.3446 -0.0833 -0.0456
 8000SOL    HW135462   0.506   1.886   4.237  0.2472  0.1178 -2.9342
 8000SOL    HW235463   0.628   1.903   4.167 -1.9457 -1.0924 -0.7789
 8001SOL     OW35464   2.748   0.800   4.080 -0.3549  0.0072 -0.2177
 8001SOL    HW135465   2.751   0.865   4.150 -2.4654  1.5006 -1.4968
 8001SOL    HW235466   2.683   0.836   4.019 -0.6685 -1.0229 -0.4801
 8002SOL     OW35467   0.186   2.873   6.200  0.1205 -0.0781 -0.0982
 8002SOL    HW135468   0.202   2.942   6.265  0.5233  1.9128 -2.2784
 8002SOL    HW235469   0.245   2.891   6.127 -1.1612 -0.1104 -1.1462
 8003SOL     OW35470   2.733   0.231   7.454 -0.4525 -0.0542  0.1216
 8003SOL    HW135471   2.709   0.269   7.538 -1.0780 -4.8214  2.0552
 8003SOL    HW235472   2.712   0.141   7.477  0.8559  0.2716  2.6474
 8004SOL     OW35473   4.466   1.068  16.540  0.0605  0.2574 -0.5261
 8004SOL    HW135474   4.534   1.065  16.473 -1.7930 -0.7821 -2.3744
 8004SOL    HW235475   4.520   1.034  16.611 -0.0622  0.5252 -0.3051
 8005SOL     OW35476   0.837   1.410   3.603 -0.2455 -0.5208  0.1400
 8005SOL    HW135477   0.859   1.485   3.657 -1.5988 -1.1916  1.6414
 8005SOL    HW235478   0.891   1.422   3.525  3.0885  1.8296  2.7882
 8006SOL     OW35479   0.685   2.149   2.214  0.5682 -0.3596  0.0636
 8006SOL    HW135480   0.590   2.136   2.217  0.3889  1.3004  1.2113
 8006SOL    HW235481   0.728   2.068   2.187 -1.5538 -0.0140 -4.3149
 8007SOL     OW35482   1.905   2.019   0.560 -0.4771 -0.3564 -0.0390
 8007SOL    HW135483   1.814   1.999   0.541 -0.6890 -2.0803  2.6974
 8007SOL    HW235484   1.913   2.002   0.654 -3.4850  0.0393  0.2764
 8008SOL     OW35485   3.569   2.020   9.148 -0.2419  0.1009  0.5042
 8008SOL    HW135486   3.561   1.926   9.163 -1.2260 -0.1480 -1.6498
 8008SOL    HW235487   3.647   2.037   9.201  0.0112 -1.1566  0.5406
 8009SOL     OW35488   2.746   2.055  10.438  0.2268  1.1373 -0.5639
 8009SOL    HW135489   2.839   2.056  10.462 -0.2310 -0.5231  1.2913
 8009SOL    HW235490   2.736   1.970  10.481  1.9042  1.4726  0.5046
 8010SOL     OW35491   2.805   1.701   3.680 -0.0867  0.2136  0.7232
 8010SOL    HW135492   2.852   1.624   3.714 -1.3454 -1.4429 -1.2929
 8010SOL    HW235493   2.716   1.669   3.665  0.5994 -0.4956 -1.8505
 8011SOL     OW35494   3.532   1.025   6.474  0.0478  0.2688  0.3920
 8011SOL    HW135495   3.604   1.058   6.527 -0.7468  1.6024  0.6466
 8011SOL    HW235496   3.520   1.104   6.422  1.7113  0.5505  0.4498
 8012SOL     OW35497   3.036   1.453   2.801  0.1371  0.3973  0.4192
 8012SOL    HW135498   2.940   1.459   2.800  0.0453 -0.8465  3.0976
 8012SOL    HW235499   3.057   1.508   2.876 -1.6385 -0.0235  1.2278
 8013SOL     OW35500   0.645   0.858   2.073 -0.0553 -0.1334 -0.1631
 8013SOL    HW135501   0.650   0.953   2.056 -1.6704 -0.8076 -4.4483
 8013SOL    HW235502   0.740   0.846   2.068 -0.2437 -1.9599  0.8098
 8014SOL     OW35503   3.031   2.714   2.242 -0.0255  0.2495 -0.2239
 8014SOL    HW135504   3.021   2.799   2.285 -0.2955 -1.1231  2.3869
 8014SOL    HW235505   3.115   2.722   2.197  0.1405 -0.3407 -0.0089
 8015SOL     OW35506   3.023   1.049  10.479  0.0658  0.7408 -0.1670
 8015SOL    HW135507   2.995   1.017  10.394  3.0739 -0.3663 -0.7531
 8015SOL    HW235508   3.050   1.137  10.454 -2.6942  1.3442 -1.0069
 8016SOL     OW35509   3.499   1.146  16.861 -0.4261 -0.0309 -0.1627
 8016SOL    HW135510   3.462   1.065  16.824  2.6412 -0.5416 -2.0822
 8016SOL    HW235511   3.464   1.210  16.800  0.3190  1.3514  0.8651
 8017SOL     OW35512   0.289   2.150   6.502 -0.1317  0.5074 -0.2761
 8017SOL    HW135513   0.299   2.056   6.487 -1.3721  0.2419  0.5252
 8017SOL    HW235514   0.375   2.163   6.543 -0.9293  1.8102  0.9568
 8018SOL     OW35515   4.170   3.995   6.831 -0.0195 -0.0506 -0.2896
 8018SOL    HW135516   4.153   3.943   6.752 -0.2831 -1.5308  0.7427
 8018SOL    HW235517   4.089   3.983   6.881  1.0956 -1.1240  1.2663
 8019SOL     OW35518   0.500   2.693   3.317  0.3103  0.4509  0.1357
 8019SOL    HW135519   0.517   2.657   3.230 -0.4832  0.5708 -0.0745
 8019SOL    HW235520   0.413   2.732   3.308 -0.0734  0.1236  2.2990
 8020SOL     OW35521   2.769   1.897  13.593  0.4115  0.4021  0.3729
 8020SOL    HW135522   2.828   1.886  13.518 -0.3175  0.4060 -0.1951
 8020SOL    HW235523   2.824   1.869  13.667  0.3313  0.5006  0.4707
 8021SOL     OW35524   0.761   1.259   8.669 -0.4305  0.7575  0.3382
 8021SOL    HW135525   0.787   1.342   8.628 -0.2044  0.7950  0.5567
 8021SOL    HW235526   0.759   1.280   8.762 -0.4387 -0.8148  0.6791
 8022SOL     OW35527   2.012   0.137   9.909 -0.3111  0.7362  0.4735
 8022SOL    HW135528   1.961   0.057   9.921  0.0368  0.4011 -0.3056
 8022SOL    HW235529   2.066   0.140   9.988 -0.4591 -3.0859  0.6872
 8023SOL     OW35530   0.660   1.284  13.421  0.4248 -0.4474  0.1062
 8023SOL    HW135531   0.601   1.271  13.495 -0.1170 -1.3036 -0.4867
 8023SOL    HW235532   0.611   1.255  13.345 -0.8935 -0.1208  0.8235
 8024SOL     OW35533   0.486   1.101   6.400  0.2189 -0.0648 -0.3640
 8024SOL    HW135534   0.542   1.026   6.419 -1.5711 -1.1653  0.4816
 8024SOL    HW235535   0.550   1.157   6.356 -0.6954  0.7518 -0.6488
 8025SOL     OW35536   2.427   3.843   8.020 -0.1107 -0.0986 -0.7345
 8025SOL    HW135537   2.368   3.903   8.066  0.6698 -0.3782  0.6521
 8025SOL    HW235538   2.458   3.896   7.947 -0.6326  1.0899 -0.0875
 8026SOL     OW35539   3.436   0.427   2.163  0.1090 -0.2767 -0.5949
 8026SOL    HW135540   3.415   0.340   2.129 -0.5971 -1.3309  2.5118
 8026SOL    HW235541   3.518   0.445   2.117 -0.3222 -0.5220 -1.4630
 8027SOL     OW35542   0.373   2.613   0.128  0.2572 -0.3530  0.6809
 8027SOL    HW135543   0.362   2.691   0.074 -2.1189 -1.3531 -0.2572
 8027SOL    HW235544   0.356   2.561   0.049  0.9608 -1.2256  1.0912
 8028SOL     OW35545   3.938   0.030  16.000  0.1255  0.9359  0.1153
 8028SOL    HW135546   3.848   0.023  16.029  1.1722 -1.6524  2.8008
 8028SOL    HW235547   3.951   0.124  15.989 -0.5148  0.9442 -0.4989
 8029SOL     OW35548   0.547   2.502   3.515 -0.1347 -0.0678 -0.6487
 8029SOL    HW135549   0.561   2.467   3.428  0.9340 -1.1572 -0.0294
 8029SOL    HW235550   0.533   2.591   3.482 -0.2593  0.1386 -0.0485
 8030SOL     OW35551   3.052   2.230   8.892  0.6361  0.2711 -0.3757
 8030SOL    HW135552   3.095   2.247   8.976  1.5061  2.4676 -1.2524
 8030SOL    HW235553   3.022   2.317   8.868 -0.1721  0.1960  0.3728
 8031SOL     OW35554   3.032   3.064   9.439 -0.3687  0.3710 -0.0192
 8031SOL    HW135555   2.998   3.056   9.528 -0.4304  3.0746  0.1907
 8031SOL    HW235556   3.002   3.153   9.424 -0.2365  0.8470  2.5365
 8032SOL     OW35557   1.738   4.045   4.346 -0.2214  0.1301  0.4180
 8032SOL    HW135558   1.757   3.960   4.306  1.7111 -0.1035  1.7977
 8032SOL    HW235559   1.812   4.065   4.405  1.4107  2.5357 -2.4196
 8033SOL     OW35560   0.942   0.389   1.261 -0.0980  0.1992  0.3666
 8033SOL    HW135561   0.946   0.452   1.189  1.1391 -1.2118 -0.7746
 8033SOL    HW235562   0.931   0.299   1.232 -2.8208  0.2117  1.3359
 8034SOL     OW35563   2.581   0.864  15.746  0.7792 -0.4123 -0.0718
 8034SOL    HW135564   2.543   0.785  15.706 -0.2973 -0.3131  0.7611
 8034SOL    HW235565   2.563   0.926  15.675  0.5922 -0.2110  0.1540
 8035SOL     OW35566   3.142   1.457   1.339 -0.2327 -0.0485 -0.6726
 8035SOL    HW135567   3.115   1.366   1.351 -1.8303  0.4128 -0.7659
 8035SOL    HW235568   3.054   1.493   1.324  0.8550  3.9414  2.6529
 8036SOL     OW35569   1.468   2.271  14.612  0.1540 -0.1414 -0.2864
 8036SOL    HW135570   1.531   2.293  14.681 -1.0668  0.9922  0.4627
 8036SOL    HW235571   1.497   2.185  14.581 -0.4716 -0.6381  0.5350
 8037SOL     OW35572   0.291   4.186   1.332  0.4791 -0.0217  0.1261
 8037SOL    HW135573   0.232   4.122   1.371  1.9243 -0.8138  0.9889
 8037SOL    HW235574   0.330   4.227   1.410 -0.5296 -0.5569  0.9102
 8038SOL     OW35575   3.196   0.673   8.760 -0.4335  0.1787  0.1402
 8038SOL    HW135576   3.230   0.762   8.760  0.9505 -0.3799  3.5851
 8038SOL    HW235577   3.259   0.626   8.814 -1.0076 -0.4233  0.2909
 8039SOL     OW35578   0.505   1.251   7.557  0.0383  0.3500 -0.0151
 8039SOL    HW135579   0.498   1.176   7.617  0.2503  0.1756 -0.2066
 8039SOL    HW235580   0.564   1.316   7.595  0.7672 -0.3547  0.0602
 8040SOL     OW35581   3.707   0.251   6.597  0.4545  0.0165 -0.4203
 8040SOL    HW135582   3.766   0.249   6.521  0.2960  0.8035 -0.5674
 8040SOL    HW235583   3.646   0.192   6.553  0.1730 -0.1341  0.1769
 8041SOL     OW35584   3.718   1.633   6.451  0.2980  0.2683 -0.4030
 8041SOL    HW135585   3.672   1.607   6.371  2.5938  2.1817 -2.3427
 8041SOL    HW235586   3.650   1.682   6.497  0.9437  0.7197  0.0636
 8042SOL     OW35587   0.360   4.304   6.817 -0.0075 -0.0270  0.3078
 8042SOL    HW135588   0.449   4.324   6.788  0.3750  1.2032  2.3436
 8042SOL    HW235589   0.371   4.255   6.898  3.2841 -0.2728 -0.3060
 8043SOL     OW35590   2.546   2.290   8.648 -0.4874  0.0529 -0.4236
 8043SOL    HW135591   2.583   2.201   8.640  1.8053  0.9340  0.2998
 8043SOL    HW235592   2.510   2.303   8.561 -0.5230  1.3324 -0.2119
 8044SOL     OW35593   0.443   2.161   2.991  0.1013 -0.8402  0.3594
 8044SOL    HW135594   0.475   2.233   2.937 -2.6548  1.2821  1.5837
 8044SOL    HW235595   0.351   2.186   2.997 -0.1423 -1.3804 -1.1645
 8045SOL     OW35596   0.695   1.246   0.283 -0.7278  0.1487  0.7793
 8045SOL    HW135597   0.726   1.262   0.193 -0.5275  1.3732  1.0752
 8045SOL    HW235598   0.623   1.186   0.264 -1.5639  1.2317  0.5817
 8046SOL     OW35599   0.724   0.725  12.738 -0.3702 -0.5339  0.0881
 8046SOL    HW135600   0.683   0.777  12.669  2.3055 -0.6749 -1.6188
 8046SOL    HW235601   0.703   0.786  12.810  3.1108  1.0422 -0.2498
 8047SOL     OW35602   0.709   0.373   6.369 -0.2739 -0.0091 -0.3869
 8047SOL    HW135603   0.648   0.331   6.430 -0.9019  1.5403  0.0431
 8047SOL    HW235604   0.784   0.326   6.407 -0.5040  1.1250  1.4669
 8048SOL     OW35605   1.561   2.131   0.103 -0.3409 -0.4301 -0.1093
 8048SOL    HW135606   1.654   2.152   0.096 -0.7206  1.8722  1.6446
 8048SOL    HW235607   1.533   2.169   0.019  1.0457 -0.0536 -0.4113
 8049SOL     OW35608   3.425   3.950  13.053  0.3014 -0.4401  0.4561
 8049SOL    HW135609   3.332   3.925  13.055 -0.0781  1.0600  1.4814
 8049SOL    HW235610   3.417   4.045  13.056 -2.7790 -0.7556  2.3892
 8050SOL     OW35611   1.293   3.696  14.772  0.2742  0.0827  0.2729
 8050SOL    HW135612   1.262   3.637  14.703  1.7910 -1.2209  0.6959
 8050SOL    HW235613   1.307   3.777  14.722  0.5749 -1.0127 -1.4311
 8051SOL     OW35614   0.699   1.261   6.268 -0.1922 -0.4015  0.6462
 8051SOL    HW135615   0.771   1.297   6.319 -0.8484  0.5309  0.9109
 8051SOL    HW235616   0.743   1.236   6.187  0.8495 -1.3896  1.5241
 8052SOL     OW35617   3.082   3.011   9.159 -0.1215 -0.2255  0.0360
 8052SOL    HW135618   2.991   2.985   9.146 -0.5606  1.0652  0.5179
 8052SOL    HW235619   3.079   3.034   9.252 -1.2517  1.2874 -0.3777
 8053SOL     OW35620   2.967   4.636   3.869  0.2055 -0.8562 -0.0740
 8053SOL    HW135621   3.062   4.636   3.884 -0.2149 -0.0971  2.5874
 8053SOL    HW235622   2.961   4.618   3.776 -1.3596 -0.5553 -0.0327
 8054SOL     OW35623   2.917   2.683   4.348 -0.3851  0.2268 -0.0672
 8054SOL    HW135624   2.908   2.699   4.442 -3.5413 -0.2975 -0.2773
 8054SOL    HW235625   2.952   2.769   4.326 -1.1476  0.5220 -0.1310
 8055SOL     OW35626   2.750   1.232   8.501 -0.0728 -0.5726  0.2316
 8055SOL    HW135627   2.773   1.142   8.525  0.2780 -0.7687 -0.8152
 8055SOL    HW235628   2.740   1.270   8.588  0.7380 -0.6965  0.3747
 8056SOL     OW35629   1.135   2.978   3.977 -0.3393  0.1732  0.0192
 8056SOL    HW135630   1.063   2.978   3.914  0.8708  0.5914 -1.3788
 8056SOL    HW235631   1.199   2.933   3.922  0.2962 -0.4186  1.2585
 8057SOL     OW35632   1.133   4.139  16.415  0.2915  0.9895 -0.1088
 8057SOL    HW135633   1.185   4.166  16.339  1.3965 -1.4299 -0.2201
 8057SOL    HW235634   1.157   4.047  16.426 -0.0769  0.5967 -2.6343
 8058SOL     OW35635   3.468   2.808   9.627 -0.1971 -0.2724  0.4815
 8058SOL    HW135636   3.545   2.826   9.574 -1.2163  1.4350 -0.4392
 8058SOL    HW235637   3.513   2.797   9.711 -0.1612  0.4719  0.5577
 8059SOL     OW35638   1.530   3.135  10.941  0.1031 -0.0364  0.3068
 8059SOL    HW135639   1.503   3.047  10.964 -1.9619  0.1999 -1.2188
 8059SOL    HW235640   1.608   3.135  10.997  1.1444  0.3398 -1.1405
 8060SOL     OW35641   1.986   2.578  10.329 -0.0979 -0.1980 -0.1278
 8060SOL    HW135642   2.047   2.509  10.355 -1.0585 -1.7989 -2.1571
 8060SOL    HW235643   2.026   2.607  10.247  2.1813 -0.4262  0.9014
 8061SOL     OW35644   2.881   1.687   1.977 -0.5378  0.4899 -0.0417
 8061SOL    HW135645   2.902   1.598   1.951 -0.4203  0.7793 -0.9387
 8061SOL    HW235646   2.898   1.739   1.898 -1.2881  0.9564  0.1063
 8062SOL     OW35647   1.315   0.390   9.011 -0.1201  0.1159  0.2988
 8062SOL    HW135648   1.233   0.387   8.962 -0.4346  3.5036  0.6115
 8062SOL    HW235649   1.296   0.323   9.076 -0.1071  0.0922  0.2779
 8063SOL     OW35650   2.470   1.239   2.652  0.1387 -0.6731 -0.2517
 8063SOL    HW135651   2.417   1.172   2.696 -0.5733 -0.8195 -1.3370
 8063SOL    HW235652   2.549   1.225   2.704  1.1607 -1.0164 -1.9069
 8064SOL     OW35653   2.938   4.101   2.786 -0.0949  0.0094 -0.3661
 8064SOL    HW135654   2.966   4.142   2.704  2.1986  1.2136  1.0243
 8064SOL    HW235655   2.951   4.007   2.777 -2.0773 -0.3645  0.7849
 8065SOL     OW35656   1.276   1.210   6.979 -0.2119 -0.0620 -0.6107
 8065SOL    HW135657   1.368   1.223   6.958  0.5192  1.0760  3.1599
 8065SOL    HW235658   1.271   1.115   6.987  1.5066 -0.0983 -0.0134
 8066SOL     OW35659   1.624   0.175   6.889  0.0468  0.4869  0.3746
 8066SOL    HW135660   1.603   0.081   6.886  0.3520  0.3762  1.7705
 8066SOL    HW235661   1.690   0.183   6.820  0.2435 -1.0242  0.3893
 8067SOL     OW35662   1.349   1.633   6.772  0.6411 -0.2693 -0.2246
 8067SOL    HW135663   1.256   1.655   6.766  0.4660 -0.7340  0.8397
 8067SOL    HW235664   1.349   1.585   6.855  2.9746 -0.6687 -0.4469
 8068SOL     OW35665   4.096   1.714   8.745 -0.2375 -0.2331 -0.2341
 8068SOL    HW135666   4.123   1.626   8.772  0.0617 -0.4819 -1.3430
 8068SOL    HW235667   4.067   1.688   8.657  1.6597  1.5850 -1.4017
 8069SOL     OW35668   2.384   3.894  17.566  0.0565  0.5545 -0.4382
 8069SOL    HW135669   2.453   3.831  17.582 -0.2283  0.4896  0.5241
 8069SOL    HW235670   2.320   3.826  17.543 -0.6654  0.8580  0.6300
 8070SOL     OW35671   2.665   4.360   8.626  0.2864  0.6760 -0.3094
 8070SOL    HW135672   2.682   4.284   8.570 -0.1701  0.4140 -0.0840
 8070SOL    HW235673   2.736   4.418   8.597  0.2826  0.8276 -0.0176
 8071SOL     OW35674   2.045   1.305  17.271 -0.4735  0.4180  0.2784
 8071SOL    HW135675   2.089   1.283  17.353 -0.8982 -1.3258  0.0409
 8071SOL    HW235676   2.007   1.389  17.297  0.3443 -0.2377  3.5868
 8072SOL     OW35677   0.324   4.157  15.161 -0.0181 -0.3300 -0.1650
 8072SOL    HW135678   0.362   4.122  15.080 -1.8360  0.3768 -1.3160
 8072SOL    HW235679   0.354   4.088  15.221  1.2872  2.1684  2.0374
 8073SOL     OW35680   3.536   1.106   9.426 -0.2973 -0.4243 -0.0040
 8073SOL    HW135681   3.612   1.053   9.450 -1.0558 -2.0118 -1.1178
 8073SOL    HW235682   3.579   1.191   9.423 -1.4736  0.1869  0.2680
 8074SOL     OW35683   2.677   0.866   7.064 -0.0085 -0.0815  0.0301
 8074SOL    HW135684   2.682   0.961   7.060 -1.9322  0.0834  2.1732
 8074SOL    HW235685   2.751   0.861   7.003  0.7250  1.3935  0.7999
 8075SOL     OW35686   1.236   1.053   7.689 -0.2246 -0.2437  0.9429
 8075SOL    HW135687   1.274   1.013   7.611 -0.5531  1.2137  0.0500
 8075SOL    HW235688   1.212   1.135   7.646 -3.3271 -0.5106  2.1477
 8076SOL     OW35689   1.577   1.434   1.721  0.9075 -0.8414 -0.0457
 8076SOL    HW135690   1.608   1.518   1.687  0.9907 -0.5519  0.7612
 8076SOL    HW235691   1.500   1.437   1.664  1.3988 -1.7637 -0.7708
 8077SOL     OW35692   1.149   0.509   5.561  0.5556  0.9012  0.6039
 8077SOL    HW135693   1.146   0.584   5.619  0.2089 -0.8620  2.8758
 8077SOL    HW235694   1.070   0.458   5.578  1.0950 -0.4182 -0.7723
 8078SOL     OW35695   2.963   1.483  17.693 -0.0131 -0.3448  0.1355
 8078SOL    HW135696   3.019   1.405  17.683  1.7585  1.0827 -1.1977
 8078SOL    HW235697   3.024   1.535   0.050  1.4191 -1.9360  0.0724
 8079SOL     OW35698   4.147   2.859   8.732  0.2470 -0.3668  0.2757
 8079SOL    HW135699   4.238   2.852   8.702  0.5374 -0.3703  1.1723
 8079SOL    HW235700   4.155   2.838   8.825  2.3088  0.9968  0.3957
 8080SOL     OW35701   4.193   2.567   0.723  0.5474  0.0233 -0.2799
 8080SOL    HW135702   4.250   2.614   0.785  0.0931 -0.0665  0.2028
 8080SOL    HW235703   4.107   2.600   0.749  0.2574 -0.3019 -0.8589
 8081SOL     OW35704   3.977   4.391   3.352 -0.0891  0.2342 -0.1226
 8081SOL    HW135705   4.000   4.482   3.373  1.4513 -0.4612  1.2757
 8081SOL    HW235706   4.066   4.359   3.364 -0.7625 -2.0769 -1.3071
 8082SOL     OW35707   1.919   1.346   3.274  0.1250 -0.2046  0.2749
 8082SOL    HW135708   2.003   1.318   3.311 -0.0989 -0.7001  0.4034
 8082SOL    HW235709   1.863   1.311   3.343  0.9244  0.0673  1.0662
 8083SOL     OW35710   0.755   1.993   6.616 -0.1321  0.0693 -0.1929
 8083SOL    HW135711   0.730   1.901   6.611  2.6002 -0.5454 -2.2777
 8083SOL    HW235712   0.803   1.993   6.699 -0.2235  1.7867 -0.1329
 8084SOL     OW35713   2.024   2.271  13.275 -0.5538 -0.1395 -0.2796
 8084SOL    HW135714   1.975   2.220  13.211  2.6627  0.6375 -3.3413
 8084SOL    HW235715   1.986   2.356  13.253  0.3642  0.9785  2.4607
 8085SOL     OW35716   1.950   4.157  11.927 -0.1966  0.3625  0.5187
 8085SOL    HW135717   1.925   4.249  11.934  2.0624  1.2132 -2.3717
 8085SOL    HW235718   2.042   4.171  11.905 -0.2799  0.2422  0.0943
 8086SOL     OW35719   2.061   1.722   1.587  0.2413 -0.2429 -0.0253
 8086SOL    HW135720   2.127   1.735   1.520 -0.2490  0.3751 -0.3828
 8086SOL    HW235721   2.085   1.635   1.619  1.7174 -0.4408 -1.7042
 8087SOL     OW35722   3.649   2.146  15.151  0.0351  0.0479 -0.5774
 8087SOL    HW135723   3.602   2.064  15.136 -0.3056 -0.0423  1.0019
 8087SOL    HW235724   3.584   2.209  15.122 -0.4467 -0.1751  0.0282
 8088SOL     OW35725   3.894   2.980   7.825  0.0052  0.3984  0.1949
 8088SOL    HW135726   3.959   2.919   7.857  0.4927  1.1635  0.6613
 8088SOL    HW235727   3.908   2.949   7.735  1.4876 -1.1067  0.9608
 8089SOL     OW35728   4.418   3.202   3.252 -0.3621 -0.2801 -0.0462
 8089SOL    HW135729   4.392   3.189   3.344  2.0242 -0.0193  0.6543
 8089SOL    HW235730   4.334   3.243   3.233 -0.3851 -1.7530 -3.1117
 8090SOL     OW35731   1.869   1.192   9.949  0.0994 -0.1879  0.5167
 8090SOL    HW135732   1.807   1.131   9.908  0.0258 -0.4821  1.0572
 8090SOL    HW235733   1.818   1.273   9.949 -0.9669 -0.8573  0.3210
 8091SOL     OW35734   0.917   1.113   0.004 -0.0222  0.3610 -0.8428
 8091SOL    HW135735   0.904   1.141  17.608 -2.6476  2.0129  0.0226
 8091SOL    HW235736   0.897   1.194   0.052 -2.8880 -0.0736 -1.2537
 8092SOL     OW35737   0.507   2.774   7.195  0.5436  0.4320 -0.4898
 8092SOL    HW135738   0.548   2.754   7.279  0.8104 -2.7838 -1.3993
 8092SOL    HW235739   0.451   2.698   7.177  1.2122 -0.4739  1.1683
 8093SOL     OW35740   4.681   4.429   9.131  0.0385  0.0923 -0.0024
 8093SOL    HW135741   4.694   4.450   9.038 -1.5510 -0.1046 -0.2604
 8093SOL    HW235742   0.051   4.430   9.152 -0.2943  1.8732  1.4092
 8094SOL     OW35743   3.665   2.665  12.079  0.0261  0.0430  0.4743
 8094SOL    HW135744   3.756   2.694  12.085  0.3517 -0.4774 -1.6178
 8094SOL    HW235745   3.613   2.742  12.057 -1.2949 -1.5059 -1.9264
 8095SOL     OW35746   2.356   4.459   6.984  0.3628 -0.2500  0.4355
 8095SOL    HW135747   2.413   4.452   7.060  0.6430  0.5807  0.3052
 8095SOL    HW235748   2.416   4.444   6.911  0.0683  0.6249  0.0199
 8096SOL     OW35749   2.898   2.094   9.771  0.1712 -0.2757  0.2630
 8096SOL    HW135750   2.977   2.139   9.800  0.6003 -0.5709 -0.4628
 8096SOL    HW235751   2.916   2.006   9.804 -2.9599 -0.6251  1.0486
 8097SOL     OW35752   0.522   1.770  13.013 -0.5203  0.4549  0.4903
 8097SOL    HW135753   0.476   1.852  13.028 -0.9680  0.1554  0.7568
 8097SOL    HW235754   0.475   1.741  12.935  0.1412  0.4932  0.0781
 8098SOL     OW35755   0.223   4.099   6.212 -0.2590 -0.4222  0.4880
 8098SOL    HW135756   0.159   4.167   6.189  1.4499  1.0368  0.0857
 8098SOL    HW235757   0.279   4.140   6.277 -0.4754  0.9696 -0.1999
 8099SOL     OW35758   1.634   4.112   8.012  0.0709 -0.5412  0.2040
 8099SOL    HW135759   1.671   4.058   7.942 -0.6050 -1.9903  0.9653
 8099SOL    HW235760   1.559   4.062   8.044  0.4181 -0.1907  1.5930
 8100SOL     OW35761   1.690   3.264   9.940  0.0767  0.7597  0.2436
 8100SOL    HW135762   1.765   3.291   9.887  0.6134  0.0390  0.6355
 8100SOL    HW235763   1.709   3.171   9.951 -2.9084  0.0376 -0.8885
 8101SOL     OW35764   0.729   4.307   2.302  0.0314 -0.1981 -0.1946
 8101SOL    HW135765   0.815   4.347   2.311 -1.1517  2.6973 -1.9163
 8101SOL    HW235766   0.701   4.294   2.393  2.6755 -3.1676  0.1765
 8102SOL     OW35767   0.568   1.582  10.805  0.6703  0.6696  0.0999
 8102SOL    HW135768   0.595   1.606  10.894  0.6610 -0.9443  0.5376
 8102SOL    HW235769   0.583   1.661  10.754 -1.4477  1.8764  1.3591
 8103SOL     OW35770   0.007   4.522   7.401 -0.2567 -0.0848  0.0897
 8103SOL    HW135771   0.027   4.438   7.442  0.1961  0.8295  1.7460
 8103SOL    HW235772   0.076   4.572   7.445 -0.4617  0.5467 -0.3125
 8104SOL     OW35773   1.233   0.043   0.951 -0.8700  0.6453  0.3360
 8104SOL    HW135774   1.220   0.137   0.934 -1.1195  0.5652  0.0835
 8104SOL    HW235775   1.153   4.715   0.935 -0.1671  0.1124 -1.4486
 8105SOL     OW35776   1.294   0.089   5.188  0.6906  0.4939 -0.1275
 8105SOL    HW135777   1.217   0.140   5.214  0.3119  0.7040 -1.6942
 8105SOL    HW235778   1.315   0.036   5.265 -0.8031  1.3434  0.8569
 8106SOL     OW35779   2.072   2.976   9.414  0.4368  0.3846  0.3006
 8106SOL    HW135780   2.126   2.938   9.344  0.1197 -2.3674  1.5318
 8106SOL    HW235781   2.100   3.067   9.406  1.2725  0.1602  0.6200
 8107SOL     OW35782   0.301   0.905  12.161  0.0940 -0.3196 -0.5401
 8107SOL    HW135783   0.340   0.865  12.083  0.1980 -1.1698 -0.0564
 8107SOL    HW235784   0.211   0.921  12.134  0.3114  1.6054 -0.1647
 8108SOL     OW35785   3.831   2.779   8.987  0.1121  0.2232  0.1611
 8108SOL    HW135786   3.768   2.801   8.918  0.1858  1.8671  0.6040
 8108SOL    HW235787   3.820   2.857   9.042 -0.7690  1.2871 -1.4949
 8109SOL     OW35788   1.981   1.646   9.062 -0.6370 -1.0536  0.1816
 8109SOL    HW135789   1.905   1.630   9.117 -1.7551  2.5204 -0.3544
 8109SOL    HW235790   1.977   1.741   9.063  2.6068 -0.8906 -0.7941
 8110SOL     OW35791   0.243   3.685   3.707  0.4517  0.2031 -0.1912
 8110SOL    HW135792   0.234   3.624   3.634  0.2073 -1.7945  1.5005
 8110SOL    HW235793   0.338   3.690   3.722  0.8081 -0.2800 -2.2783
 8111SOL     OW35794   1.111   3.164   3.511 -0.7003  0.1652 -0.0525
 8111SOL    HW135795   1.097   3.131   3.422  1.4301  0.5442 -0.5256
 8111SOL    HW235796   1.188   3.217   3.491 -0.7771  0.3382  0.1168
 8112SOL     OW35797   0.624   1.354  16.287 -0.3306  0.0192 -0.1278
 8112SOL    HW135798   0.677   1.278  16.263 -2.4179 -1.7908  0.9762
 8112SOL    HW235799   0.604   1.375  16.196 -0.0322  0.4817 -0.0865
 8113SOL     OW35800   3.033   1.376   0.535  0.0685 -0.3810  0.3428
 8113SOL    HW135801   2.995   1.464   0.528  0.7652 -0.0420  0.7915
 8113SOL    HW235802   2.952   1.325   0.532 -0.4429  0.3591  1.5514
 8114SOL     OW35803   3.718   4.344   9.688  0.0182  0.1745  0.6082
 8114SOL    HW135804   3.631   4.305   9.688  0.1272 -0.0767 -0.4167
 8114SOL    HW235805   3.710   4.406   9.760  0.0847  3.0604 -1.8254
 8115SOL     OW35806   2.611   0.307   4.499 -0.0350  0.0643  0.1890
 8115SOL    HW135807   2.670   0.371   4.460  0.8200 -1.5960 -1.2281
 8115SOL    HW235808   2.566   0.276   4.420  1.0939  1.7918 -1.1221
 8116SOL     OW35809   2.594   2.881   1.980 -0.4700 -0.3527  0.5661
 8116SOL    HW135810   2.684   2.850   1.985  0.3363  2.1990  1.8349
 8116SOL    HW235811   2.593   2.973   1.953  0.4048 -1.0511 -1.8706
 8117SOL     OW35812   1.256   3.884   1.305 -0.6672 -0.2348  0.1035
 8117SOL    HW135813   1.195   3.816   1.275 -1.4660  0.0539  1.0602
 8117SOL    HW235814   1.224   3.959   1.255 -0.3044  0.3839  0.8111
 8118SOL     OW35815   1.342   3.938   7.551 -0.3463 -0.0994 -0.0674
 8118SOL    HW135816   1.409   3.887   7.596 -2.0246 -0.8231  1.6000
 8118SOL    HW235817   1.397   4.002   7.505 -0.1663  0.2943  0.6978
 8119SOL     OW35818   0.407   1.391   0.155 -0.2213  0.3327  0.0397
 8119SOL    HW135819   0.324   1.344   0.167  0.3551  0.3126  4.0950
 8119SOL    HW235820   0.460   1.328   0.106 -2.1178 -2.2196  1.2748
 8120SOL     OW35821   0.127   0.036  15.962  0.3767  0.1391  1.1147
 8120SOL    HW135822   0.202   0.047  16.021  1.7324 -1.0753 -0.3825
 8120SOL    HW235823   0.170   4.692  15.909 -2.9009  0.8586 -2.4270
 8121SOL     OW35824   2.365   4.104   7.960  0.0264  0.1618 -0.1817
 8121SOL    HW135825   2.400   4.192   7.974 -1.0037  0.5546 -0.1263
 8121SOL    HW235826   2.309   4.123   7.885 -0.7972 -0.1099  0.3581
 8122SOL     OW35827   1.228   2.684   7.115  0.3505  0.1328  0.2221
 8122SOL    HW135828   1.269   2.756   7.162 -2.1260  2.0229 -0.4948
 8122SOL    HW235829   1.301   2.623   7.121 -1.2320 -1.7013  1.1386
 8123SOL     OW35830   3.074   2.158   8.311  0.3904 -0.2151 -0.4625
 8123SOL    HW135831   3.103   2.067   8.306  1.5317  0.1020  0.1279
 8123SOL    HW235832   3.149   2.202   8.352 -0.2158 -0.9650  1.4497
 8124SOL     OW35833   4.302   3.576   2.623 -0.2980 -0.3636  0.9046
 8124SOL    HW135834   4.254   3.509   2.574  0.9275 -1.7830  1.6288
 8124SOL    HW235835   4.252   3.591   2.703  1.2067 -0.6099  1.8893
 8125SOL     OW35836   0.095   2.787   3.001  0.2514  0.1139 -0.0356
 8125SOL    HW135837   0.010   2.766   2.962 -0.8202  2.4052  1.0670
 8125SOL    HW235838   0.111   2.715   3.062 -0.9382  0.2418  0.4281
 8126SOL     OW35839   0.612   4.507   0.665 -0.1635  0.3274  0.4129
 8126SOL    HW135840   0.640   4.419   0.688  0.1627  0.7867  1.7785
 8126SOL    HW235841   0.592   4.549   0.750 -1.9424 -0.1315  0.2239
 8127SOL     OW35842   2.484   2.407   7.300 -0.0310 -0.3643  0.4941
 8127SOL    HW135843   2.506   2.387   7.391  2.3559 -0.3393 -0.0793
 8127SOL    HW235844   2.505   2.500   7.292  0.6364 -0.7604 -2.2782
 8128SOL     OW35845   3.472   4.133   1.476  0.3202  0.3828  0.4512
 8128SOL    HW135846   3.447   4.213   1.430 -2.2699 -0.2985  0.6806
 8128SOL    HW235847   3.467   4.080   1.396  1.5709  0.3060  0.4187
 8129SOL     OW35848   0.701   4.683   2.940  0.0566 -0.1617  0.0629
 8129SOL    HW135849   0.660   0.009   2.869  0.3771 -0.5767 -0.4136
 8129SOL    HW235850   0.772   0.022   2.959 -0.5068  0.3882  0.3631
 8130SOL     OW35851   1.430   4.471   1.409  0.2816 -0.3065 -0.0009
 8130SOL    HW135852   1.354   4.527   1.390  0.1431  0.1642  1.9480
 8130SOL    HW235853   1.491   4.530   1.453  0.0423  0.3868 -0.5828
 8131SOL     OW35854   3.724   4.136  14.624 -0.1076 -0.1012 -0.0591
 8131SOL    HW135855   3.763   4.099  14.703 -1.1589 -0.9565  0.0600
 8131SOL    HW235856   3.647   4.183  14.658 -0.8199  0.9889 -3.1732
 8132SOL     OW35857   0.561   3.624   2.349 -0.1053  0.2826 -0.6070
 8132SOL    HW135858   0.510   3.545   2.332  1.5675 -0.9659  0.1991
 8132SOL    HW235859   0.506   3.700   2.332  1.7352  1.8868  0.4648
 8133SOL     OW35860   4.459   4.293   2.308  0.2582 -0.0786 -0.3704
 8133SOL    HW135861   4.414   4.338   2.380 -3.0433  1.0334 -3.1413
 8133SOL    HW235862   4.521   4.364   2.288  3.0194 -2.2270  0.5188
 8134SOL     OW35863   4.358   1.812   9.347 -0.1092  0.1272 -0.0689
 8134SOL    HW135864   4.400   1.861   9.276 -2.1203 -0.3924 -1.6367
 8134SOL    HW235865   4.319   1.879   9.402 -1.6590 -0.1908 -0.7733
 8135SOL     OW35866   4.704   0.780   4.488  0.4075  0.6907  0.4187
 8135SOL    HW135867   0.004   0.721   4.560  0.6475  0.2696 -0.0011
 8135SOL    HW235868   4.619   0.813   4.516  1.3192  1.9983  1.6851
 8136SOL     OW35869   3.003   2.493   8.838 -0.0219 -0.5631  0.5505
 8136SOL    HW135870   3.020   2.491   8.743  1.5999 -0.9390  0.8450
 8136SOL    HW235871   2.935   2.559   8.850 -0.9066 -0.7066 -3.4819
 8137SOL     OW35872   0.454   0.129  16.610  0.0680 -0.0914 -0.0832
 8137SOL    HW135873   0.407   0.180  16.677  0.0001  0.9974 -0.9614
 8137SOL    HW235874   0.539   0.120  16.654 -0.0818 -0.4642  0.1321
 8138SOL     OW35875   3.372   3.345   3.326 -0.3315 -0.6207  0.2621
 8138SOL    HW135876   3.438   3.394   3.374 -1.8480  1.9944 -0.3502
 8138SOL    HW235877   3.416   3.261   3.314  0.3264 -0.4495  1.4724
 8139SOL     OW35878   3.026   2.708   1.837 -0.1878  0.3000 -0.3210
 8139SOL    HW135879   3.027   2.754   1.753 -0.2610 -0.4707 -0.7421
 8139SOL    HW235880   2.976   2.630   1.813  3.4692 -1.3344 -2.7478
 8140SOL     OW35881   3.647   0.206   2.102  0.6752 -0.0743 -0.0182
 8140SOL    HW135882   3.660   0.244   2.189 -0.0767 -1.3862  0.6535
 8140SOL    HW235883   3.633   0.286   2.051  0.2566 -1.1143 -1.5092
 8141SOL     OW35884   1.206   0.354   2.245 -0.0080  0.2689 -0.5181
 8141SOL    HW135885   1.280   0.377   2.301 -1.7953  1.0949  1.4920
 8141SOL    HW235886   1.173   0.435   2.206 -0.0763 -0.0483 -1.1114
 8142SOL     OW35887   4.672   4.511   7.130  0.0807  0.2580  0.4602
 8142SOL    HW135888   0.009   4.586   7.125 -0.4629  0.5559 -1.4757
 8142SOL    HW235889   4.674   4.502   7.226  1.5764 -1.0285  0.3064
 8143SOL     OW35890   1.776   1.011   0.296  0.3812 -0.0559 -0.4199
 8143SOL    HW135891   1.703   1.033   0.240 -0.2063 -0.7036  0.0899
 8143SOL    HW235892   1.833   1.087   0.285 -1.0454  0.7163 -2.2196
 8144SOL     OW35893   3.158   3.508  14.409  0.6916 -0.7390 -0.0697
 8144SOL    HW135894   3.080   3.452  14.417  1.2521 -1.4801  0.1874
 8144SOL    HW235895   3.119   3.593  14.392  1.0956 -0.2624  1.4439
 8145SOL     OW35896   1.851   1.190  12.736  0.5620 -0.3255  0.0125
 8145SOL    HW135897   1.909   1.167  12.808  0.5090 -1.3267 -0.2687
 8145SOL    HW235898   1.907   1.257  12.698  2.4309 -1.1258  1.3782
 8146SOL     OW35899   0.562   0.095   8.567 -0.1492  0.0174  0.3816
 8146SOL    HW135900   0.657   0.086   8.577 -0.2204  0.6856  1.6922
 8146SOL    HW235901   0.540   0.007   8.538 -0.6003  0.8256 -1.6670
 8147SOL     OW35902   2.452   3.572  14.283 -0.3996  0.2047  0.1259
 8147SOL    HW135903   2.459   3.591  14.377 -1.6193  1.0658  0.0403
 8147SOL    HW235904   2.384   3.635  14.258 -0.3951  0.2759  0.2900
 8148SOL     OW35905   0.212   4.559   2.932  0.1833 -0.7401 -0.1131
 8148SOL    HW135906   0.279   4.577   2.998  1.6051  1.4697 -2.1186
 8148SOL    HW235907   0.217   4.464   2.924  0.6783 -0.6809 -0.5219
 8149SOL     OW35908   2.221   0.139   3.616  0.2390  0.0906  0.0265
 8149SOL    HW135909   2.216   0.044   3.625  1.4616  0.2061  1.8657
 8149SOL    HW235910   2.202   0.162   3.707 -2.7071 -1.1049 -0.2905
 8150SOL     OW35911   4.645   1.625   8.681 -0.1898 -0.1465  0.3266
 8150SOL    HW135912   4.582   1.697   8.687 -0.2845 -0.2685  0.8101
 8150SOL    HW235913   4.712   1.652   8.743  0.7768 -0.0065 -0.7869
 8151SOL     OW35914   0.645   1.503   3.856  0.3419 -0.1185  0.0892
 8151SOL    HW135915   0.681   1.419   3.886  1.7618  0.7990  0.9488
 8151SOL    HW235916   0.606   1.481   3.771  0.3662 -2.7892  0.7709
 8152SOL     OW35917   2.930   1.096   1.886  0.5397 -0.2663 -0.5181
 8152SOL    HW135918   2.991   1.107   1.813 -1.0936  1.8729 -1.5743
 8152SOL    HW235919   2.873   1.030   1.846  1.7217 -1.2867 -0.4899
 8153SOL     OW35920   4.286   3.366  14.638  0.1807 -0.4771  0.1074
 8153SOL    HW135921   4.199   3.343  14.606 -1.1834  0.9368  2.8048
 8153SOL    HW235922   4.266   3.415  14.718  0.1870 -0.1721 -0.0755
 8154SOL     OW35923   0.604   0.588   5.311  0.3944  0.3184 -0.1014
 8154SOL    HW135924   0.510   0.581   5.325  0.0987  1.5955 -1.3633
 8154SOL    HW235925   0.635   0.645   5.381 -0.3899  1.5999 -0.7809
 8155SOL     OW35926   4.253   2.050   5.508  0.7893 -0.2037  0.2489
 8155SOL    HW135927   4.317   2.005   5.563  1.5267 -0.6175 -0.9357
 8155SOL    HW235928   4.289   2.037   5.420  1.7743  0.3824  0.5675
 8156SOL     OW35929   2.356   2.005   2.804  0.0504  0.1865  0.6560
 8156SOL    HW135930   2.287   1.938   2.808  1.0156 -1.0646 -3.8165
 8156SOL    HW235931   2.357   2.021   2.710  0.6807 -0.2394  0.5968
 8157SOL     OW35932   3.501   4.159   9.737 -0.0454 -0.2650 -0.2875
 8157SOL    HW135933   3.425   4.213   9.760  0.6221  0.4328  0.2758
 8157SOL    HW235934   3.474   4.101   9.666 -2.0472  2.2656 -1.5757
 8158SOL     OW35935   0.898   2.651   1.376  0.1274 -0.4778  0.0715
 8158SOL    HW135936   0.843   2.651   1.298 -2.0351 -0.1989  1.5759
 8158SOL    HW235937   0.845   2.703   1.436  1.5696 -0.2455  1.1377
 8159SOL     OW35938   0.551   1.153   6.707 -0.3692  0.0876 -0.3315
 8159SOL    HW135939   0.462   1.185   6.722 -0.4018  0.1466 -0.6495
 8159SOL    HW235940   0.537   1.124   6.617 -2.4530 -0.4705  0.1663
 8160SOL     OW35941   4.325   2.521  10.598 -0.3914  0.1718  0.5274
 8160SOL    HW135942   4.370   2.539  10.680 -2.1362  1.7650  1.1347
 8160SOL    HW235943   4.241   2.495  10.635 -0.5616  1.9156  1.3762
 8161SOL     OW35944   3.184   2.510   3.143  0.7546 -0.2506 -0.8306
 8161SOL    HW135945   3.270   2.493   3.104  1.8585  2.4981  0.3682
 8161SOL    HW235946   3.150   2.421   3.138 -3.7465  1.4003  0.4985
 8162SOL     OW35947   1.371   0.264   4.359 -0.0898  0.2986  0.6099
 8162SOL    HW135948   1.433   0.225   4.297 -0.2300  0.4705  0.3610
 8162SOL    HW235949   1.374   0.198   4.428 -0.6672  0.6164  0.9365
 8163SOL     OW35950   1.592   2.898  12.889  0.1953 -0.1983 -0.3281
 8163SOL    HW135951   1.537   2.945  12.952 -0.4258 -0.0320 -0.9971
 8163SOL    HW235952   1.570   2.814  12.928  2.2693  0.2741  1.8209
 8164SOL     OW35953   3.135   2.496   5.896  0.3039 -0.4555  0.4353
 8164SOL    HW135954   3.097   2.581   5.875 -0.4492 -1.7902 -3.5462
 8164SOL    HW235955   3.191   2.527   5.967  0.9944 -1.8139  0.4864
 8165SOL     OW35956   1.030   0.315  14.862  0.2149  0.7236 -0.4509
 8165SOL    HW135957   1.066   0.309  14.774  1.5488  1.6809  0.0376
 8165SOL    HW235958   1.107   0.318  14.919 -1.5396  3.4994  1.7811
 8166SOL     OW35959   0.447   4.102   1.812 -0.2933 -0.2172  0.2977
 8166SOL    HW135960   0.394   4.078   1.736 -1.2733  1.6039  0.4167
 8166SOL    HW235961   0.384   4.124   1.881  0.3923 -1.5922  1.3559
 8167SOL     OW35962   2.784   0.822  10.350 -0.0532 -0.3916  0.3950
 8167SOL    HW135963   2.829   0.889  10.298  0.1352  0.7074  1.9674
 8167SOL    HW235964   2.841   0.747  10.334  1.1006  0.6012 -0.2100
 8168SOL     OW35965   2.843   1.765  17.272  0.3379 -0.3499 -0.0567
 8168SOL    HW135966   2.911   1.740  17.335  1.6264  1.7288 -0.6273
 8168SOL    HW235967   2.841   1.688  17.216 -0.5957 -0.4080  0.0638
 8169SOL     OW35968   0.248   0.519   0.819 -0.0523 -0.5391  0.1928
 8169SOL    HW135969   0.191   0.535   0.894 -0.2459  0.1803 -0.1051
 8169SOL    HW235970   0.186   0.465   0.770  0.1094 -0.1537 -0.4279
 8170SOL     OW35971   2.460   2.763   8.288  0.5135 -0.3563 -0.3070
 8170SOL    HW135972   2.454   2.820   8.211  0.0826  0.3641  0.2547
 8170SOL    HW235973   2.535   2.802   8.333 -0.3829  0.9280  0.0755
 8171SOL     OW35974   2.826   2.925   9.212 -0.1707 -0.4987  0.1048
 8171SOL    HW135975   2.831   2.842   9.165 -0.2774 -1.3669  1.6222
 8171SOL    HW235976   2.747   2.922   9.267  0.2901  1.7048  0.9115
 8172SOL     OW35977   1.282   0.638   3.938  0.5739 -0.2619  0.7609
 8172SOL    HW135978   1.257   0.657   3.848  1.3556  0.2472  0.6547
 8172SOL    HW235979   1.377   0.631   3.934  0.4448  0.5068 -2.9998
 8173SOL     OW35980   4.661   0.679   9.206  1.2717  0.2080 -0.2917
 8173SOL    HW135981   4.691   0.589   9.222 -0.0649 -0.0421  0.7421
 8173SOL    HW235982   4.568   0.661   9.193  1.1183 -0.1376  1.3474
 8174SOL     OW35983   0.889   1.731   2.093 -0.1369 -0.0643 -0.4534
 8174SOL    HW135984   0.816   1.671   2.083 -1.1308  0.7007  2.2286
 8174SOL    HW235985   0.962   1.679   2.061  1.1208 -0.9227  3.6988
 8175SOL     OW35986   3.841   4.715   3.224 -0.1470  0.0039 -0.5455
 8175SOL    HW135987   3.823   4.623   3.204  1.5875 -0.5370  0.3314
 8175SOL    HW235988   3.886   4.709   3.308  0.1699 -1.3486 -0.8041
 8176SOL     OW35989   1.260   0.810   6.320  0.8510 -0.8100 -0.4114
 8176SOL    HW135990   1.265   0.899   6.287 -0.5703 -0.4238  0.3798
 8176SOL    HW235991   1.182   0.788   6.268 -0.0770 -1.1137  1.0914
 8177SOL     OW35992   0.097   0.171   9.171 -0.3915  0.0799  0.3562
 8177SOL    HW135993   0.117   0.105   9.237  2.2968 -0.9418 -1.4787
 8177SOL    HW235994   0.177   0.199   9.127 -0.4519 -0.1391  0.1049
 8178SOL     OW35995   0.874   4.169   0.967  0.3693  0.4101  0.2344
 8178SOL    HW135996   0.953   4.189   0.918 -0.0116 -1.7100 -1.2423
 8178SOL    HW235997   0.902   4.170   1.058 -1.5547  0.0200  0.8384
 8179SOL     OW35998   2.457   0.304  10.091 -1.1799  0.0637  0.8916
 8179SOL    HW135999   2.529   0.240  10.094 -0.4535  0.8306 -0.8036
 8179SOL    HW236000   2.483   0.363  10.021  0.6458 -1.7657  0.0387
 8180SOL     OW36001   1.458   4.586  13.041 -0.6555  0.2980 -0.5128
 8180SOL    HW136002   1.443   4.635  12.960  0.0411  1.4817  0.0851
 8180SOL    HW236003   1.527   4.637  13.084 -0.2410  0.4686 -1.3909
 8181SOL     OW36004   2.348   3.457   3.591  0.1152 -0.1961  0.2733
 8181SOL    HW136005   2.294   3.522   3.545  0.9792  0.1704 -0.2289
 8181SOL    HW236006   2.414   3.438   3.523  0.6043  2.9296 -0.1394
 8182SOL     OW36007   3.996   3.316   8.322 -0.0200 -0.1570 -0.4845
 8182SOL    HW136008   4.036   3.318   8.235 -2.4291 -2.1992 -1.6557
 8182SOL    HW236009   3.927   3.375   8.291 -1.0700 -0.6808  0.8571
 8183SOL     OW36010   4.386   4.618   7.381  0.7683  0.6295  0.1336
 8183SOL    HW136011   4.329   4.598   7.455  1.8452 -1.5395  0.3623
 8183SOL    HW236012   4.477   4.610   7.409  0.7387 -0.1267  0.0064
 8184SOL     OW36013   1.943   0.689   8.199 -0.4512 -0.1206  0.5984
 8184SOL    HW136014   1.992   0.607   8.202  0.2156  0.2224 -0.7910
 8184SOL    HW236015   1.972   0.729   8.281  0.5494 -0.0292  0.2033
 8185SOL     OW36016   2.168   1.991   1.844  0.1172 -0.7590 -0.2204
 8185SOL    HW136017   2.208   2.073   1.872  1.7044 -2.0118  1.1324
 8185SOL    HW236018   2.175   1.994   1.749 -3.3495 -1.8605 -0.5202
 8186SOL     OW36019   2.313   1.699   6.956  0.2846  0.3065  0.3284
 8186SOL    HW136020   2.376   1.746   6.901 -1.1414 -0.3058 -1.8638
 8186SOL    HW236021   2.361   1.692   7.038  0.8328  2.4932  0.1903
 8187SOL     OW36022   3.819   2.577  15.828  0.1750  0.1205 -0.1498
 8187SOL    HW136023   3.872   2.567  15.907 -4.5919  0.8800  3.0724
 8187SOL    HW236024   3.755   2.508  15.847 -0.6184  0.8739 -0.0892
 8188SOL     OW36025   0.901   1.411   2.146 -0.3938 -0.3711 -0.0683
 8188SOL    HW136026   0.811   1.380   2.140 -0.2915 -0.7465  0.2837
 8188SOL    HW236027   0.895   1.470   2.220  1.1155  0.7320 -0.8167
 8189SOL     OW36028   0.111   1.211   2.151  0.3985 -0.5539  0.0258
 8189SOL    HW136029   0.142   1.261   2.076  0.0476  0.5637  0.6259
 8189SOL    HW236030   0.123   1.122   2.117 -0.6475  0.0387 -1.9122
 8190SOL     OW36031   4.610   0.376  14.957  0.2938  0.3329 -0.4587
 8190SOL    HW136032   4.549   0.303  14.970  0.2212  0.3767 -0.5451
 8190SOL    HW236033   4.693   0.330  14.958  0.6881  1.0814  1.3443
 8191SOL     OW36034   3.271   2.637   1.853 -0.3009  0.4759  0.1237
 8191SOL    HW136035   3.318   2.708   1.809 -1.0716 -0.0546 -1.5353
 8191SOL    HW236036   3.183   2.675   1.851 -0.1278  0.7839 -1.8031
 8192SOL     OW36037   4.510   2.801   1.378  0.1227  0.1346 -0.0248
 8192SOL    HW136038   4.598   2.764   1.385  0.0177 -0.1531 -0.2339
 8192SOL    HW236039   4.520   2.890   1.412  2.4244  0.1648 -0.7742
 8193SOL     OW36040   4.652   4.356  12.259  1.1289  0.2803 -0.4497
 8193SOL    HW136041   4.646   4.437  12.311 -0.0525 -0.6149  0.7944
 8193SOL    HW236042   0.008   4.371  12.206  0.7992 -0.2369 -1.0895
 8194SOL     OW36043   2.904   0.500   6.230  0.1164  0.3815  0.0346
 8194SOL    HW136044   2.913   0.555   6.308  0.2317  1.0366 -0.4413
 8194SOL    HW236045   2.996   0.486   6.211 -0.5561 -1.8778 -1.5899
 8195SOL     OW36046   1.661   3.534  11.824 -0.0878 -0.3011  0.2835
 8195SOL    HW136047   1.617   3.619  11.825 -0.3976 -0.4645  0.7317
 8195SOL    HW236048   1.615   3.486  11.755  0.8430  0.8369 -1.1311
 8196SOL     OW36049   0.137   1.106  17.611 -0.3763  0.1483  0.3321
 8196SOL    HW136050   0.150   1.020  17.571 -0.3497  0.1225  0.3962
 8196SOL    HW236051   0.101   1.079   0.001 -0.2590 -0.1784  0.2814
 8197SOL     OW36052   0.307   1.226   6.764 -0.0381  0.7177 -0.2874
 8197SOL    HW136053   0.271   1.227   6.852  1.3379 -1.3292  0.3044
 8197SOL    HW236054   0.273   1.301   6.716 -1.3951  1.0949  1.2700
 8198SOL     OW36055   3.975   2.069   7.668  0.2571 -0.0165  0.1708
 8198SOL    HW136056   4.049   2.051   7.610 -0.4309 -0.3220 -0.6131
 8198SOL    HW236057   4.012   2.120   7.740  0.6409 -2.2557  1.5745
 8199SOL     OW36058   4.094   2.771   3.117 -0.2327  0.3761 -0.3595
 8199SOL    HW136059   4.024   2.709   3.096 -0.3043  1.1124 -2.2925
 8199SOL    HW236060   4.059   2.817   3.193  2.7084  2.5207 -0.2761
 8200SOL     OW36061   2.710   3.477   6.981 -0.0095  0.1286 -0.5773
 8200SOL    HW136062   2.626   3.501   7.019 -1.1324 -1.9177 -1.7422
 8200SOL    HW236063   2.736   3.391   7.014 -0.7835  0.1484  0.0531
 8201SOL     OW36064   2.458   1.956   8.325  0.3028 -0.1467 -0.1527
 8201SOL    HW136065   2.407   2.031   8.354 -2.1642 -1.7743 -0.3045
 8201SOL    HW236066   2.456   1.897   8.401  0.2434  1.5579  1.1642
 8202SOL     OW36067   3.655   0.840   7.898 -0.0487  0.6256 -0.1876
 8202SOL    HW136068   3.693   0.910   7.846  0.9900  1.0496  1.1441
 8202SOL    HW236069   3.731   0.788   7.921  0.9745  2.6027  0.8881
 8203SOL     OW36070   2.922   1.661   4.636 -0.0714 -0.0635 -0.3103
 8203SOL    HW136071   2.931   1.725   4.706  1.6827 -0.2458 -0.3757
 8203SOL    HW236072   2.840   1.691   4.597  1.6273  1.0766 -2.9837
 8204SOL     OW36073   4.614   3.483  11.686 -0.1846 -0.5573  0.6266
 8204SOL    HW136074   4.704   3.457  11.667 -0.0239 -0.3954  1.1615
 8204SOL    HW236075   4.586   3.416  11.748 -1.2205  1.2177  2.1089
 8205SOL     OW36076   1.361   0.959   3.049 -0.2329 -0.1131  0.0784
 8205SOL    HW136077   1.393   0.984   2.962 -0.9032 -1.2197 -0.4883
 8205SOL    HW236078   1.370   1.042   3.096  2.3543 -0.0129 -0.6328
 8206SOL     OW36079   2.478   0.133  11.203 -0.3565  0.0063  0.0611
 8206SOL    HW136080   2.548   0.071  11.184  0.1333  0.8579 -0.9337
 8206SOL    HW236081   2.438   0.092  11.279 -3.7357 -0.4410 -1.9783
 8207SOL     OW36082   0.534   3.167   8.122  0.0650 -0.0857  0.0460
 8207SOL    HW136083   0.619   3.204   8.147 -0.4711  0.8188  0.5693
 8207SOL    HW236084   0.560   3.147   8.032  0.0105 -3.0931  0.7209
 8208SOL     OW36085   0.125   2.719   7.298 -0.2914  0.0826 -0.3238
 8208SOL    HW136086   0.188   2.781   7.336 -1.3077  0.2625  1.0819
 8208SOL    HW236087   0.063   2.784   7.265 -0.3630  0.3423  0.3206
 8209SOL     OW36088   2.489   2.437   7.885  0.0983  0.2643 -0.7558
 8209SOL    HW136089   2.502   2.527   7.913  0.1606 -0.2913  0.9788
 8209SOL    HW236090   2.447   2.407   7.966  2.4928  0.0620  0.4025
 8210SOL     OW36091   0.332   2.106   4.872  0.5886 -0.5033  0.1243
 8210SOL    HW136092   0.307   2.079   4.961 -2.4887  0.3999 -0.4557
 8210SOL    HW236093   0.426   2.091   4.886  0.4961  0.2921  1.6201
 8211SOL     OW36094   0.682   0.192  16.218  0.1082  0.3641  0.4241
 8211SOL    HW136095   0.746   0.195  16.288 -0.2091 -1.1233  0.7885
 8211SOL    HW236096   0.700   0.269  16.163 -0.3764  0.3989  0.3122
 8212SOL     OW36097   3.179   0.853  10.233 -0.3006  0.2986  0.2907
 8212SOL    HW136098   3.138   0.783  10.284 -1.2547  0.7133  0.0767
 8212SOL    HW236099   3.108   0.917  10.236 -0.9440 -0.3654 -1.1001
 8213SOL     OW36100   4.532   2.619   2.016  0.6268  0.3196  0.0724
 8213SOL    HW136101   4.467   2.689   2.011 -0.1279 -0.2907  1.1770
 8213SOL    HW236102   4.557   2.620   2.108  3.6206 -2.9152 -0.6970
 8214SOL     OW36103   3.113   3.274   0.932 -0.8314 -0.2617  0.3589
 8214SOL    HW136104   3.191   3.320   0.964 -0.3732 -1.0256  0.3432
 8214SOL    HW236105   3.087   3.339   0.867 -0.4526 -0.3958  0.0752
 8215SOL     OW36106   2.558   3.917   4.007  0.1450 -0.8051  0.9246
 8215SOL    HW136107   2.618   3.944   3.937 -0.5678 -1.4691  0.0531
 8215SOL    HW236108   2.546   4.007   4.039 -0.8819 -0.4469 -0.4889
 8216SOL     OW36109   0.468   0.025   1.672 -0.2727 -0.7853  0.0742
 8216SOL    HW136110   0.475   0.043   1.766  0.0297 -0.4153 -0.0165
 8216SOL    HW236111   0.418   4.667   1.661  0.5425 -0.9299 -2.5614
 8217SOL     OW36112   2.476   0.396   3.616 -0.2262 -0.8296 -0.3451
 8217SOL    HW136113   2.443   0.466   3.673 -0.9731  1.0405 -3.0594
 8217SOL    HW236114   2.406   0.398   3.550 -1.8676 -0.7670  1.4034
 8218SOL     OW36115   0.953   0.806   1.784  0.6457  0.1666 -0.5993
 8218SOL    HW136116   0.941   0.834   1.875  0.1950 -1.2745 -0.2249
 8218SOL    HW236117   0.961   0.893   1.745  1.1679  1.0087  1.3484
 8219SOL     OW36118   2.210   4.410  15.328  0.0701 -0.4601  0.3246
 8219SOL    HW136119   2.170   4.489  15.362 -0.4166 -1.4930  2.1394
 8219SOL    HW236120   2.246   4.440  15.244 -0.8106  0.9148  0.4452
 8220SOL     OW36121   1.099   2.069   7.906 -0.0172  0.2614  0.1501
 8220SOL    HW136122   1.151   2.041   7.982 -1.5888 -0.1871  1.0547
 8220SOL    HW236123   1.165   2.073   7.837 -0.7274  1.8845 -0.4275
 8221SOL     OW36124   3.230   0.671   4.515 -0.2358 -0.4762  0.4026
 8221SOL    HW136125   3.218   0.727   4.591 -0.2887 -1.0776  0.8439
 8221SOL    HW236126   3.144   0.630   4.502 -0.4595  0.0139  0.3510
 8222SOL     OW36127   0.826   1.064   6.626 -0.2420 -0.3414 -0.2895
 8222SOL    HW136128   0.784   1.139   6.670 -0.1194 -1.6807  2.1051
 8222SOL    HW236129   0.917   1.085   6.607  0.5208 -0.8944  2.7421
 8223SOL     OW36130   1.117   2.998  11.298 -0.4374 -0.9419 -0.1252
 8223SOL    HW136131   1.165   2.915  11.295  2.5083  0.7350 -0.3407
 8223SOL    HW236132   1.164   3.051  11.233 -1.1202 -0.1651  0.0254
 8224SOL     OW36133   1.462   0.879  10.834 -0.4729 -0.3807 -0.1185
 8224SOL    HW136134   1.476   0.810  10.899 -1.0040  0.8198  1.2705
 8224SOL    HW236135   1.451   0.821  10.759  1.0574 -2.6949  1.4343
 8225SOL     OW36136   4.583   3.001   6.948 -0.5903  0.0699  0.0020
 8225SOL    HW136137   4.622   2.953   6.875  0.9257  0.8186  0.3185
 8225SOL    HW236138   4.576   3.089   6.912 -0.9873  0.7996  1.8486
 8226SOL     OW36139   4.284   2.799  16.594  0.6072  0.0317  0.1184
 8226SOL    HW136140   4.304   2.706  16.609 -2.1507 -0.5728  0.1913
 8226SOL    HW236141   4.260   2.810  16.502  0.5531  0.9286  0.2448
 8227SOL     OW36142   2.936   2.422   4.118 -0.3283 -0.0951  0.2517
 8227SOL    HW136143   2.959   2.500   4.168 -0.4250 -0.4027  0.7776
 8227SOL    HW236144   2.926   2.449   4.027  1.9247 -5.7708 -1.6926
 8228SOL     OW36145   1.970   3.122   1.862 -0.0935 -0.2637  0.0655
 8228SOL    HW136146   2.052   3.080   1.836 -0.3308 -0.4660 -0.3580
 8228SOL    HW236147   1.973   3.128   1.957 -1.1190 -0.1386  0.0871
 8229SOL     OW36148   3.958   0.847  14.745  0.5153 -0.3928 -0.2012
 8229SOL    HW136149   4.050   0.824  14.740  0.7265  0.0985  1.4608
 8229SOL    HW236150   3.967   0.923  14.802  1.9853  0.5366 -1.6767
 8230SOL     OW36151   0.455   4.419   0.926  0.0864 -0.0283 -0.5261
 8230SOL    HW136152   0.508   4.434   1.005 -1.4747  0.8371  0.3515
 8230SOL    HW236153   0.375   4.376   0.956 -1.4838  2.2674 -1.5059
 8231SOL     OW36154   3.134   4.173   2.530  0.1696 -0.0424 -0.5211
 8231SOL    HW136155   3.184   4.240   2.485 -0.3679 -0.6944 -2.0814
 8231SOL    HW236156   3.046   4.210   2.523  0.6511  0.9410 -1.3223
 8232SOL     OW36157   0.537   0.665   3.380 -0.0796  0.5735  0.6696
 8232SOL    HW136158   0.616   0.681   3.432  0.5204  1.3545 -0.4708
 8232SOL    HW236159   0.573   0.670   3.292 -1.0185 -0.3991  0.2286
 8233SOL     OW36160   1.406   2.337   7.738 -0.7038 -0.0187  0.6469
 8233SOL    HW136161   1.337   2.274   7.721 -0.0099 -0.6374  0.1236
 8233SOL    HW236162   1.466   2.277   7.784  0.8118  1.2380  0.3364
 8234SOL     OW36163   2.729   1.954   7.192  0.2501  0.6804  0.2637
 8234SOL    HW136164   2.782   1.880   7.159  2.1673  1.8318  0.7656
 8234SOL    HW236165   2.696   1.912   7.271  2.4219 -1.1352  0.2214
 8235SOL     OW36166   1.314   0.228  16.810 -0.3865 -0.1022 -0.1821
 8235SOL    HW136167   1.273   0.202  16.892  1.0104 -0.0091  0.5275
 8235SOL    HW236168   1.348   0.316  16.829 -1.0643 -0.5972  3.2372
 8236SOL     OW36169   1.699   4.531   4.201 -0.8843  0.2836 -0.1729
 8236SOL    HW136170   1.671   4.476   4.128 -2.0346 -0.4484  0.8180
 8236SOL    HW236171   1.629   4.507   4.262  0.1344 -1.2184  0.4054
 8237SOL     OW36172   2.677   2.108  15.511 -0.6986 -0.4005  0.3105
 8237SOL    HW136173   2.682   2.026  15.560  1.3232 -0.2430  0.3377
 8237SOL    HW236174   2.709   2.166  15.580  0.6914 -0.6862 -0.0882
 8238SOL     OW36175   1.751   0.036   5.415 -0.1093 -0.7749 -0.0212
 8238SOL    HW136176   1.836   0.070   5.388 -0.6203  1.0974  0.7109
 8238SOL    HW236177   1.762   4.664   5.414  0.6126 -0.6804 -0.9109
 8239SOL     OW36178   3.531   4.213   3.454 -0.2832  0.4177 -0.0706
 8239SOL    HW136179   3.570   4.298   3.476 -0.3325  0.8490 -1.6323
 8239SOL    HW236180   3.611   4.163   3.438  0.6332  1.4132  1.2972
 8240SOL     OW36181   2.192   3.836   0.921  0.2251 -0.5896 -0.7674
 8240SOL    HW136182   2.217   3.902   0.985  0.8247  0.0295 -1.6490
 8240SOL    HW236183   2.272   3.804   0.878  0.9246 -0.5380  0.4741
 8241SOL     OW36184   2.438   3.658   8.931  0.6368  0.3079 -0.3794
 8241SOL    HW136185   2.534   3.654   8.934  0.7179  2.4015 -0.7060
 8241SOL    HW236186   2.442   3.753   8.932 -0.8029  0.3647  1.4845
 8242SOL     OW36187   2.766   2.128   8.028 -0.3169  0.2416  0.3354
 8242SOL    HW136188   2.779   2.040   8.062  0.6526 -0.0220 -0.7081
 8242SOL    HW236189   2.789   2.188   8.099  2.8008  1.5130 -1.6958
 8243SOL     OW36190   0.216   3.168   6.412 -0.0992 -0.0358  0.6522
 8243SOL    HW136191   0.269   3.175   6.332  0.0942 -0.1278  0.7722
 8243SOL    HW236192   0.138   3.208   6.374 -0.0399  0.0547  0.6242
 8244SOL     OW36193   0.858   0.688   5.945  0.2079 -0.1911 -0.1360
 8244SOL    HW136194   0.808   0.642   6.013 -2.3841 -0.4150 -2.1988
 8244SOL    HW236195   0.792   0.708   5.879 -0.6200  0.1413  0.7843
 8245SOL     OW36196   1.346   0.096   6.518  0.6692  0.8958  0.0438
 8245SOL    HW136197   1.337   0.024   6.581 -0.5034  0.3999 -0.6901
 8245SOL    HW236198   1.288   0.153   6.569  0.2892 -0.1460  0.7792
 8246SOL     OW36199   3.945   3.456   5.988  0.2969  0.1812 -0.3167
 8246SOL    HW136200   3.910   3.470   6.076 -1.5173 -0.8378 -0.8748
 8246SOL    HW236201   4.022   3.408   6.017  0.2754  1.2507  1.5258
 8247SOL     OW36202   1.451   1.249  14.845 -0.1917 -0.5362  0.1791
 8247SOL    HW136203   1.373   1.277  14.892 -0.4806 -1.0478  0.0006
 8247SOL    HW236204   1.482   1.179  14.903  1.0215 -0.9551 -0.9912
 8248SOL     OW36205   4.347   0.280   6.735 -0.5256  0.9031  0.1826
 8248SOL    HW136206   4.351   0.216   6.806  0.6856  0.2291 -0.5084
 8248SOL    HW236207   4.413   0.246   6.675 -0.5834  3.6069 -1.4507
 8249SOL     OW36208   2.169   3.464  15.948 -0.1313  0.5707  0.0448
 8249SOL    HW136209   2.214   3.525  16.006 -0.2483  1.1695 -0.4975
 8249SOL    HW236210   2.104   3.516  15.901 -1.0847 -0.7872 -0.1512
 8250SOL     OW36211   1.665   3.416   1.990 -0.8161 -0.6282 -0.0748
 8250SOL    HW136212   1.734   3.457   2.042 -1.4280  0.0455  0.2073
 8250SOL    HW236213   1.671   3.464   1.908 -1.6808  0.5458  0.5597
 8251SOL     OW36214   4.440   4.214   2.925 -0.2233 -0.5192 -0.1271
 8251SOL    HW136215   4.495   4.172   2.991 -0.8308  0.4030  0.9681
 8251SOL    HW236216   4.452   4.160   2.847 -0.5290 -0.2964 -0.3290
 8252SOL     OW36217   1.606   2.243   5.259 -0.8373  0.4293 -0.8251
 8252SOL    HW136218   1.512   2.238   5.277 -0.7211  2.4171  0.3126
 8252SOL    HW236219   1.620   2.301   5.184 -0.0594  0.0859 -0.9462
 8253SOL     OW36220   2.181   0.213   8.780  0.0674  0.4983 -0.5240
 8253SOL    HW136221   2.099   0.171   8.753  0.6066 -0.3897 -0.7608
 8253SOL    HW236222   2.173   0.198   8.874  0.8570 -1.7354 -0.8272
 8254SOL     OW36223   3.387   1.845   4.320  0.0584 -0.6745 -0.1491
 8254SOL    HW136224   3.385   1.939   4.332  0.4261 -0.5952 -0.6851
 8254SOL    HW236225   3.320   1.810   4.379 -0.1700  0.9471  0.5560
 8255SOL     OW36226   2.971   3.067   8.211  0.1972 -0.0744 -0.2545
 8255SOL    HW136227   3.032   3.005   8.251 -0.7473 -0.3004  0.8302
 8255SOL    HW236228   2.938   3.108   8.291  1.6304  0.6787 -0.0552
 8256SOL     OW36229   0.292   3.619   0.870 -0.0567  0.0964 -0.0487
 8256SOL    HW136230   0.227   3.549   0.877  1.3622 -1.1705  0.5492
 8256SOL    HW236231   0.349   3.587   0.941 -0.2255 -0.6133 -0.2316
 8257SOL     OW36232   4.640   3.223   1.224 -0.0311  0.4078  0.4213
 8257SOL    HW136233   4.572   3.275   1.182  0.3995  0.1191 -0.6293
 8257SOL    HW236234   4.585   3.166   1.277  0.6693 -0.1352  0.5708
 8258SOL     OW36235   0.501   1.002   8.827 -0.0828  0.2867  0.2171
 8258SOL    HW136236   0.466   0.917   8.851 -2.6497  0.7756 -1.7750
 8258SOL    HW236237   0.560   1.012   8.901  0.4205  0.7552 -0.2437
 8259SOL     OW36238   4.069   0.261   3.999 -0.4136  0.6161 -0.1524
 8259SOL    HW136239   4.118   0.276   4.079 -0.8387 -2.6582  0.7227
 8259SOL    HW236240   4.003   0.330   4.005 -1.3971 -0.4144  0.8942
 8260SOL     OW36241   3.593   0.588   8.345 -0.3256  0.0593  0.6267
 8260SOL    HW136242   3.558   0.587   8.434  0.4421  2.9830  0.9539
 8260SOL    HW236243   3.672   0.535   8.352 -2.4405 -2.9461  1.5670
 8261SOL     OW36244   1.528   2.068   3.877 -0.5564  0.2335 -0.4398
 8261SOL    HW136245   1.448   2.026   3.909 -0.8223  1.4687  0.5321
 8261SOL    HW236246   1.591   2.016   3.926 -1.6107 -1.2582 -0.6863
 8262SOL     OW36247   1.396   1.200   3.188 -0.3159 -0.1272  0.2198
 8262SOL    HW136248   1.301   1.202   3.196 -0.2952  1.2464  0.0724
 8262SOL    HW236249   1.426   1.289   3.175  0.2723  0.1202  3.2883
 8263SOL     OW36250   4.253   0.401   6.511 -0.4358  0.1831  0.0525
 8263SOL    HW136251   4.332   0.454   6.500 -1.8280  2.5545  1.3810
 8263SOL    HW236252   4.278   0.349   6.588 -0.7896  2.5571  1.8027
 8264SOL     OW36253   0.540   1.401   1.574  0.2303  0.4809 -0.4456
 8264SOL    HW136254   0.577   1.422   1.659  3.7703 -0.8229 -1.6714
 8264SOL    HW236255   0.446   1.400   1.594  0.1448  1.5608 -0.7695
 8265SOL     OW36256   3.754   3.884   3.657 -1.0303  0.2112  0.4330
 8265SOL    HW136257   3.769   3.927   3.573 -0.0128  1.9317  1.5035
 8265SOL    HW236258   3.847   3.873   3.680 -0.7211 -1.7189 -1.7226
 8266SOL     OW36259   1.208   3.055   2.192 -0.0188 -0.3406 -0.2635
 8266SOL    HW136260   1.130   2.999   2.196 -0.4001  0.1796 -0.4371
 8266SOL    HW236261   1.167   3.130   2.236 -0.1396 -0.9807  0.7235
 8267SOL     OW36262   1.612   2.376   1.246 -0.6681  0.4501  0.1839
 8267SOL    HW136263   1.559   2.300   1.221 -1.4668  0.7743  0.8864
 8267SOL    HW236264   1.613   2.353   1.339 -2.7764 -1.9091 -0.3760
 8268SOL     OW36265   3.731   0.319   7.250 -0.1875 -0.4042 -0.1450
 8268SOL    HW136266   3.787   0.396   7.257 -0.2129 -0.2169 -2.1088
 8268SOL    HW236267   3.796   0.251   7.267  1.0220  1.5531  3.1268
 8269SOL     OW36268   3.089   1.845   3.831  0.3122 -0.9161 -0.2569
 8269SOL    HW136269   3.029   1.883   3.767 -0.5473  0.4328  1.3390
 8269SOL    HW236270   3.026   1.814   3.896  1.1094 -2.3351 -0.1673
 8270SOL     OW36271   0.555   3.960  16.735  0.5156  0.2555 -0.0001
 8270SOL    HW136272   0.480   3.950  16.793  1.5686  1.2856  1.5374
 8270SOL    HW236273   0.508   3.917  16.664  2.4792 -1.0274 -0.5415
 8271SOL     OW36274   1.011   1.094   8.887 -0.3225  0.1385  0.3218
 8271SOL    HW136275   0.937   1.033   8.894  0.8570 -1.0798  2.2347
 8271SOL    HW236276   1.084   1.032   8.883 -0.1602  0.2727  1.1436
 8272SOL     OW36277   1.846   2.842   5.628  0.6181 -0.2332  0.2997
 8272SOL    HW136278   1.854   2.887   5.711  1.0166  0.6902 -0.2404
 8272SOL    HW236279   1.922   2.783   5.627  1.1175  0.4168 -0.4681
 8273SOL     OW36280   2.852   2.771   6.425  0.0019 -0.2321  0.3017
 8273SOL    HW136281   2.924   2.715   6.454  1.5630  2.3182  1.3882
 8273SOL    HW236282   2.786   2.702   6.421  1.9563 -2.1283  0.4664
 8274SOL     OW36283   3.293   3.130   9.519 -0.0559  0.2204 -0.3460
 8274SOL    HW136284   3.364   3.097   9.464  0.4550 -1.2572  1.1932
 8274SOL    HW236285   3.212   3.081   9.502  1.4648 -2.3730 -0.1053
 8275SOL     OW36286   2.784   0.615   9.028 -0.3346 -0.1172  0.5611
 8275SOL    HW136287   2.746   0.658   9.104 -0.9019  0.2514  0.0682
 8275SOL    HW236288   2.879   0.623   9.038 -0.2593 -1.7308  1.0161
 8276SOL     OW36289   1.931   1.829   7.508 -0.3494 -0.7818 -0.0378
 8276SOL    HW136290   1.999   1.767   7.534  0.0031 -0.8018 -0.9760
 8276SOL    HW236291   1.959   1.850   7.418 -2.3683  1.4724 -0.1270
 8277SOL     OW36292   3.378   1.165   9.162 -0.2274 -0.4689 -0.0905
 8277SOL    HW136293   3.390   1.103   9.233  2.1726  0.4325  0.3011
 8277SOL    HW236294   3.345   1.241   9.211  1.1567 -0.0588  0.2113
 8278SOL     OW36295   3.798   4.397  10.494 -0.5581  0.3902  0.0687
 8278SOL    HW136296   3.864   4.453  10.536 -0.4460  0.7283 -0.5641
 8278SOL    HW236297   3.801   4.429  10.404  0.2566  0.0286 -0.0253
 8279SOL     OW36298   0.566   0.334   4.735  0.2671 -0.2056 -0.4457
 8279SOL    HW136299   0.593   0.242   4.731 -1.7508 -0.8831  1.4974
 8279SOL    HW236300   0.471   0.337   4.745  0.3643 -0.2154  0.4827
 8280SOL     OW36301   3.817   1.067   6.096  0.2600 -0.8806 -0.2448
 8280SOL    HW136302   3.732   1.110   6.088 -0.3444 -1.9992  0.1648
 8280SOL    HW236303   3.848   1.082   6.185 -2.3461  0.9781  0.3561
 8281SOL     OW36304   1.384   0.855   2.147 -0.3070 -0.0343  0.2197
 8281SOL    HW136305   1.422   0.937   2.180 -1.2995  0.6002 -0.2438
 8281SOL    HW236306   1.389   0.884   2.056  1.2361 -0.3420  0.1918
 8282SOL     OW36307   2.259   0.877   5.032 -0.3017 -0.2786 -0.1979
 8282SOL    HW136308   2.192   0.809   5.042 -0.2796 -0.1785  0.6751
 8282SOL    HW236309   2.211   0.931   4.970  0.1533 -0.5130 -0.7459
 8283SOL     OW36310   4.556   4.345  11.839  0.1570 -0.1505  0.2382
 8283SOL    HW136311   4.623   4.302  11.892  0.7417 -0.2937 -0.6053
 8283SOL    HW236312   4.535   4.420  11.895  0.5958  0.1345  0.0268
 8284SOL     OW36313   3.859   3.676   1.351 -0.1006  0.1281 -0.1860
 8284SOL    HW136314   3.783   3.735   1.354 -1.8666 -2.1255  0.2073
 8284SOL    HW236315   3.885   3.662   1.442 -1.1396 -1.0939 -0.0740
 8285SOL     OW36316   0.626   4.145   7.155  0.4666  0.1078 -0.6460
 8285SOL    HW136317   0.629   4.144   7.059  0.9066 -2.6257 -0.5836
 8285SOL    HW236318   0.715   4.166   7.184 -0.2389  0.8914  0.9751
 8286SOL     OW36319   0.666   0.290   7.235 -0.0610  0.0015 -0.3555
 8286SOL    HW136320   0.727   0.220   7.256  0.3502  0.2015 -0.8792
 8286SOL    HW236321   0.674   0.297   7.139 -0.7181 -0.8237 -0.4696
 8287SOL     OW36322   0.860   0.505  12.724 -0.0751 -0.9579  0.4072
 8287SOL    HW136323   0.794   0.574  12.725 -0.3458 -1.2350  2.7612
 8287SOL    HW236324   0.937   0.558  12.702 -0.4773 -0.4834  0.1501
 8288SOL     OW36325   1.817   0.836   6.513 -0.1680  0.2829  0.2961
 8288SOL    HW136326   1.877   0.866   6.445 -0.0937  0.8658  0.6195
 8288SOL    HW236327   1.788   0.753   6.476  1.6617 -0.4966  0.6361
 8289SOL     OW36328   2.806   2.769   2.451  0.7634 -0.3232  0.5706
 8289SOL    HW136329   2.868   2.828   2.408 -0.7982  0.1057 -1.0895
 8289SOL    HW236330   2.747   2.841   2.475  1.6713  0.5562  0.1966
 8290SOL     OW36331   4.716   1.143   6.586 -0.1380 -0.3133  0.0434
 8290SOL    HW136332   0.025   1.130   6.675  0.5897 -0.4710 -0.2398
 8290SOL    HW236333   0.071   1.135   6.531  0.9876 -0.2651  1.6468
 8291SOL     OW36334   0.769   2.202   3.819 -0.4854 -0.3218 -0.4882
 8291SOL    HW136335   0.763   2.174   3.911 -0.6436 -0.5013 -0.5516
 8291SOL    HW236336   0.676   2.198   3.797  0.0189 -0.3047 -2.5859
 8292SOL     OW36337   0.930   1.050   3.723 -0.2376  0.3055  0.1496
 8292SOL    HW136338   0.969   1.126   3.767 -2.1758  1.9885 -0.9975
 8292SOL    HW236339   0.891   0.996   3.791 -0.0577  1.7455  1.4090
 8293SOL     OW36340   0.365   1.059   3.137 -0.7498  0.2641 -0.3079
 8293SOL    HW136341   0.373   1.096   3.225 -1.9565 -0.9571  0.3137
 8293SOL    HW236342   0.284   1.093   3.099 -1.8800  0.5039  2.2697
 8294SOL     OW36343   0.258   4.425   3.911  0.7479 -0.2358  0.2470
 8294SOL    HW136344   0.189   4.393   3.853  1.0589 -0.3153 -0.0729
 8294SOL    HW236345   0.215   4.433   3.996  1.9500 -1.0220  0.9367
 8295SOL     OW36346   1.569   4.301  14.380 -0.7569  0.0848 -0.0550
 8295SOL    HW136347   1.501   4.235  14.363 -1.2630  0.5502  0.1418
 8295SOL    HW236348   1.637   4.287  14.314 -1.2618  1.0220 -0.7883
 8296SOL     OW36349   4.094   1.475   2.386 -0.4511  0.3668 -0.6783
 8296SOL    HW136350   4.094   1.386   2.421 -0.4183 -0.6189 -3.1426
 8296SOL    HW236351   4.000   1.492   2.385 -0.3242  1.0955  1.9357
 8297SOL     OW36352   3.159   0.434  10.414 -0.0209  0.7130  0.0401
 8297SOL    HW136353   3.161   0.430  10.509  0.1144  0.0368  0.0106
 8297SOL    HW236354   3.224   0.369  10.385 -1.1537 -0.8580  1.0258
 8298SOL     OW36355   3.035   1.488  17.023 -0.2769  0.2455 -0.3070
 8298SOL    HW136356   3.038   1.547  16.947  1.1909  0.5942  0.0141
 8298SOL    HW236357   3.089   1.416  16.992  0.8849  0.4670  1.1991
 8299SOL     OW36358   3.943   1.089   5.534  0.6939  0.3721 -0.5283
 8299SOL    HW136359   3.869   1.032   5.555  1.7418 -0.9200 -0.3132
 8299SOL    HW236360   3.946   1.136   5.617 -1.3688 -0.8853  0.2768
 8300SOL     OW36361   4.010   2.732   8.230 -0.3406 -0.3149 -0.0689
 8300SOL    HW136362   4.074   2.796   8.259 -0.0052 -1.2848  1.3610
 8300SOL    HW236363   3.935   2.787   8.209 -0.0243  0.3165  0.4649
 8301SOL     OW36364   1.694   3.850   2.809 -0.4191 -0.8445  0.4606
 8301SOL    HW136365   1.686   3.868   2.716 -0.1714  0.7924  0.7537
 8301SOL    HW236366   1.631   3.779   2.821 -2.5473  1.6997  4.5061
 8302SOL     OW36367   4.173   0.631  17.135 -0.1087  0.0003 -0.1101
 8302SOL    HW136368   4.159   0.636  17.229 -1.3752 -2.9461 -0.1300
 8302SOL    HW236369   4.253   0.683  17.129 -1.4844  2.2749  1.4631
 8303SOL     OW36370   2.994   0.703  16.766  0.3236 -0.1590  0.2073
 8303SOL    HW136371   2.936   0.631  16.790  0.4190  0.1754  1.4281
 8303SOL    HW236372   2.934   0.749  16.707 -1.2736 -1.7449  0.5962
 8304SOL     OW36373   0.821   0.024   8.585  0.1943 -0.0451  0.3050
 8304SOL    HW136374   0.827   4.684   8.657  2.5029  0.6073  0.6795
 8304SOL    HW236375   0.831   4.691   8.508  1.5676  1.0981 -0.3521
 8305SOL     OW36376   3.822   2.016   3.007  0.4235 -0.0439 -0.4606
 8305SOL    HW136377   3.896   2.061   3.047  1.0885 -1.6996  0.1575
 8305SOL    HW236378   3.865   1.977   2.932  3.5358  0.1462  1.2532
 8306SOL     OW36379   3.658   4.290   2.825 -0.3532 -0.1650 -0.2509
 8306SOL    HW136380   3.687   4.381   2.831 -3.2243  0.7398 -0.3632
 8306SOL    HW236381   3.726   4.260   2.764 -0.9845 -0.7894 -0.6462
 8307SOL     OW36382   3.938   2.753  12.049 -0.4332 -0.5042 -0.3536
 8307SOL    HW136383   3.954   2.821  12.114  2.1037 -2.0731  0.6462
 8307SOL    HW236384   3.970   2.782  11.963  0.4012 -1.3124 -0.3164
 8308SOL     OW36385   0.636   3.822  17.247 -0.3750 -0.6125 -0.3310
 8308SOL    HW136386   0.591   3.906  17.252  0.0780 -0.4205  0.4602
 8308SOL    HW236387   0.643   3.809  17.152  0.0694 -0.2971 -0.3365
 8309SOL     OW36388   3.523   1.241   6.318 -0.3707  0.1429 -0.4412
 8309SOL    HW136389   3.482   1.237   6.232  2.1343  1.5570 -1.7109
 8309SOL    HW236390   3.616   1.237   6.297 -0.4732  0.8712 -1.0444
 8310SOL     OW36391   2.753   3.016  16.376  0.0807  0.0920 -0.0134
 8310SOL    HW136392   2.695   2.950  16.414 -0.2812  1.6781  2.1695
 8310SOL    HW236393   2.685   3.075  16.344 -0.3154 -2.1410 -3.2677
 8311SOL     OW36394   0.026   4.226   4.286 -0.6155 -0.0734 -0.5087
 8311SOL    HW136395   0.011   4.142   4.241  1.2215 -1.7506  1.9948
 8311SOL    HW236396   0.102   4.198   4.337 -0.2985  0.2889 -0.7853
 8312SOL     OW36397   1.622   4.239   5.908 -0.1451 -0.1692 -0.0974
 8312SOL    HW136398   1.547   4.182   5.925  1.2947 -1.6283  1.3092
 8312SOL    HW236399   1.588   4.323   5.877 -2.5758 -1.0712  0.0887
 8313SOL     OW36400   1.140   4.539   6.494 -0.0946 -0.2278 -0.4753
 8313SOL    HW136401   1.081   4.511   6.564 -0.0793  0.5722 -0.1442
 8313SOL    HW236402   1.102   4.627   6.488 -1.4625 -0.7398  0.3564
 8314SOL     OW36403   4.519   3.328   7.142  0.3059 -0.2678 -0.1253
 8314SOL    HW136404   4.522   3.282   7.226  2.3396 -0.9518 -0.5819
 8314SOL    HW236405   4.608   3.321   7.106  0.9563  2.1163  0.9999
 8315SOL     OW36406   1.688   4.548   0.650 -0.5057 -0.7091 -0.2814
 8315SOL    HW136407   1.708   4.486   0.720  0.1602 -2.0728 -1.6675
 8315SOL    HW236408   1.706   4.630   0.694  0.5278 -0.3608 -1.3778
 8316SOL     OW36409   0.741   3.438   7.297  0.4550  0.3028  1.0181
 8316SOL    HW136410   0.716   3.428   7.389 -1.1753 -0.5974  0.4747
 8316SOL    HW236411   0.826   3.395   7.299  0.2520 -0.1701 -1.6051
 8317SOL     OW36412   4.120   0.776   8.110 -0.2134  0.6556 -0.0827
 8317SOL    HW136413   4.114   0.863   8.071  1.6443  0.8653  0.0999
 8317SOL    HW236414   4.038   0.762   8.157  0.2517 -2.2330 -0.1106
 8318SOL     OW36415   3.375   0.613   9.541  0.0866 -0.3105 -0.5917
 8318SOL    HW136416   3.436   0.682   9.568  0.4377 -0.8461  0.0077
 8318SOL    HW236417   3.406   0.596   9.452  1.5328  1.3134 -0.4132
 8319SOL     OW36418   3.190   0.749   0.872  0.1530 -0.3477  0.2012
 8319SOL    HW136419   3.229   0.709   0.950  1.5470 -0.4918 -0.5645
 8319SOL    HW236420   3.214   0.682   0.808 -0.8086  0.1362 -0.6668
 8320SOL     OW36421   4.211   3.771   7.551 -0.1803 -0.1738 -0.1741
 8320SOL    HW136422   4.217   3.824   7.471 -0.4328  0.5128  0.2699
 8320SOL    HW236423   4.264   3.693   7.533 -0.1265  0.2697 -1.9425
 8321SOL     OW36424   1.766   0.912   4.011 -0.2152 -0.2259  0.3211
 8321SOL    HW136425   1.767   0.871   3.924 -1.2667 -0.4319  0.4022
 8321SOL    HW236426   1.728   0.997   3.991  0.4677  0.2491  1.0622
 8322SOL     OW36427   1.972   1.444   6.008 -0.0525 -0.1517  0.3478
 8322SOL    HW136428   1.993   1.413   6.096  0.4288 -2.7160 -0.6653
 8322SOL    HW236429   1.880   1.417   6.015  0.3855 -1.8494 -0.4763
 8323SOL     OW36430   1.360   0.885   6.833  0.6155  0.0797  0.1582
 8323SOL    HW136431   1.347   0.914   6.743 -1.0483  2.1977  1.0847
 8323SOL    HW236432   1.278   0.913   6.874 -0.9031 -1.2763 -1.9851
 8324SOL     OW36433   2.984   2.145   1.612 -0.0290 -0.2695  0.3277
 8324SOL    HW136434   3.045   2.151   1.686  0.2424 -1.8880  0.2434
 8324SOL    HW236435   3.025   2.174   1.531 -1.1101 -0.2149 -0.1977
 8325SOL     OW36436   3.074   3.177   0.580 -0.4502  0.2302  0.3557
 8325SOL    HW136437   2.990   3.220   0.599 -1.2456 -0.4513 -1.5686
 8325SOL    HW236438   3.143   3.239   0.604 -1.6744  1.1247  1.5557
 8326SOL     OW36439   3.444   3.352  14.883  0.3818 -0.4668  0.3244
 8326SOL    HW136440   3.519   3.307  14.923 -0.8036 -2.3775  0.4367
 8326SOL    HW236441   3.458   3.333  14.790 -1.6862 -0.1119 -0.0559
 8327SOL     OW36442   4.104   2.700   2.724  0.1098  0.3711 -0.3323
 8327SOL    HW136443   4.051   2.630   2.762  0.9149  1.0420  2.0513
 8327SOL    HW236444   4.044   2.772   2.701 -0.0240  0.2671 -0.3093
 8328SOL     OW36445   3.379   2.516   2.089  0.0731  0.2173 -0.1812
 8328SOL    HW136446   3.433   2.445   2.054  1.0717 -0.4067  2.6596
 8328SOL    HW236447   3.321   2.539   2.016 -1.7874  0.6155  1.4065
 8329SOL     OW36448   3.519   3.386   7.602  0.3916 -0.2486 -0.2345
 8329SOL    HW136449   3.589   3.451   7.600 -0.8778  1.1749  1.1960
 8329SOL    HW236450   3.462   3.431   7.664 -0.0608  0.1513 -0.9428
 8330SOL     OW36451   2.612   1.834   0.138 -0.3039  0.0732 -0.1852
 8330SOL    HW136452   2.673   1.784   0.084  1.5688  0.1527  1.8516
 8330SOL    HW236453   2.642   1.805   0.224 -2.3477  0.2084  0.5719
 8331SOL     OW36454   4.538   1.079   1.267  0.0022  0.0031 -0.1782
 8331SOL    HW136455   4.629   1.108   1.264  0.1779 -0.1499  4.7931
 8331SOL    HW236456   4.530   1.046   1.177  0.7952  0.1454 -0.3012
 8332SOL     OW36457   0.784   3.228  12.709  0.0997  0.3126 -0.1619
 8332SOL    HW136458   0.787   3.228  12.805 -0.3024 -1.1458 -0.1490
 8332SOL    HW236459   0.797   3.134  12.697  2.6417  0.4150  1.7190
 8333SOL     OW36460   0.105   2.609   4.857  0.0961 -0.4372  0.0174
 8333SOL    HW136461   0.081   2.519   4.837  0.0872 -0.4427  0.0530
 8333SOL    HW236462   0.164   2.621   4.783  0.6610  1.4575  0.7522
 8334SOL     OW36463   1.053   1.307   6.164 -0.2628 -0.3702 -0.4568
 8334SOL    HW136464   1.107   1.321   6.086  0.4009 -0.9709 -0.1090
 8334SOL    HW236465   0.973   1.286   6.116  0.3720  1.3984 -2.2642
 8335SOL     OW36466   2.944   4.531   0.530  0.0953 -0.0626  0.6296
 8335SOL    HW136467   2.897   4.614   0.537 -0.8288 -0.5906  0.7097
 8335SOL    HW236468   3.001   4.553   0.456  1.3570 -1.2720  1.2369
 8336SOL     OW36469   3.798   0.673  17.235  0.2210  0.0317  0.1296
 8336SOL    HW136470   3.729   0.650  17.297 -0.6164  1.2920 -0.3419
 8336SOL    HW236471   3.871   0.645  17.291  0.2016  1.5650  0.9184
 8337SOL     OW36472   1.021   0.357   9.057 -0.3614  0.0004 -0.1139
 8337SOL    HW136473   1.002   0.264   9.044 -1.2931  0.1654  0.0479
 8337SOL    HW236474   0.956   0.399   9.001 -0.9203 -0.9746 -0.2065
 8338SOL     OW36475   4.536   2.014   2.362  0.0359 -0.2129  0.2788
 8338SOL    HW136476   4.584   2.015   2.280 -0.0347  0.0338  0.2418
 8338SOL    HW236477   4.456   1.967   2.337  0.3802 -0.4269 -0.3943
 8339SOL     OW36478   0.877   4.465   9.322 -0.4297 -1.1199  0.5969
 8339SOL    HW136479   0.960   4.478   9.369 -2.3681  2.3131  3.0530
 8339SOL    HW236480   0.818   4.473   9.397 -0.3127  1.0298  0.4758
 8340SOL     OW36481   1.945   3.037   0.861  0.0602 -0.9345 -0.2951
 8340SOL    HW136482   1.972   2.945   0.867  1.1761 -0.5887 -0.0154
 8340SOL    HW236483   1.978   3.078   0.940 -1.4943  2.9554 -1.6714
 8341SOL     OW36484   1.195   0.266   6.703 -0.5541  0.4648 -0.5651
 8341SOL    HW136485   1.135   0.334   6.734 -0.1909  0.3406  0.4005
 8341SOL    HW236486   1.279   0.291   6.740 -1.3372  1.0293  0.8606
 8342SOL     OW36487   1.932   0.752   0.091  0.0325 -0.4120 -0.3311
 8342SOL    HW136488   1.896   0.695   0.159  0.1900  0.8449  0.8004
 8342SOL    HW236489   1.999   0.783   0.152 -1.3832  1.6291  0.1770
 8343SOL     OW36490   4.399   3.582   7.815  0.2239 -0.0857  0.4779
 8343SOL    HW136491   4.383   3.552   7.725 -1.2065  0.2178  0.6299
 8343SOL    HW236492   4.474   3.524   7.823  0.0964 -0.0392  1.8936
 8344SOL     OW36493   0.378   1.657   2.472  0.2359 -0.1096  0.0155
 8344SOL    HW136494   0.307   1.593   2.457  1.1430 -0.8958 -0.9447
 8344SOL    HW236495   0.323   1.731   2.498  0.0924 -0.0886 -0.3479
 8345SOL     OW36496   3.649   2.937   7.555 -0.2466  0.5757 -0.4062
 8345SOL    HW136497   3.685   2.939   7.467  1.3735 -1.1202  0.2261
 8345SOL    HW236498   3.601   3.020   7.545 -1.3581 -0.2602 -2.0867
 8346SOL     OW36499   4.052   0.519   2.911  0.2906  0.2763 -0.2533
 8346SOL    HW136500   4.050   0.430   2.875 -2.9058 -0.9612  2.9707
 8346SOL    HW236501   4.135   0.519   2.958 -0.0742  0.8967  0.3945
 8347SOL     OW36502   3.743   3.580  11.700  0.3137  0.3186 -0.4746
 8347SOL    HW136503   3.764   3.672  11.684  1.1336  0.1577 -0.3200
 8347SOL    HW236504   3.755   3.580  11.795  1.0542  0.1290 -0.5655
 8348SOL     OW36505   0.397   3.837   6.351 -0.6694 -0.2844  0.2986
 8348SOL    HW136506   0.390   3.839   6.255 -0.7752  2.2612  0.3601
 8348SOL    HW236507   0.488   3.813   6.365 -0.4159  1.0907  0.9426
 8349SOL     OW36508   1.529   3.608   2.763  0.6617  0.2451  0.3531
 8349SOL    HW136509   1.516   3.596   2.857 -1.6711  0.8246  0.1092
 8349SOL    HW236510   1.437   3.616   2.738  1.0266  1.6204 -0.4950
 8350SOL     OW36511   0.374   2.616   8.390  0.0182  0.1977 -0.4377
 8350SOL    HW136512   0.339   2.560   8.321 -0.7415  1.4496 -1.0716
 8350SOL    HW236513   0.356   2.573   8.474 -2.3624  0.8472 -0.6136
 8351SOL     OW36514   1.689   2.758  11.101  0.0512  0.1992 -0.4750
 8351SOL    HW136515   1.746   2.797  11.034  2.0638  0.8139  1.5548
 8351SOL    HW236516   1.604   2.789  11.072 -1.4133 -2.2000  1.2823
 8352SOL     OW36517   4.044   2.693   1.720 -0.2190 -0.6155 -0.4821
 8352SOL    HW136518   4.123   2.641   1.736 -0.2027 -0.6753 -0.7658
 8352SOL    HW236519   4.055   2.745   1.640 -1.3076  1.6925  0.8631
 8353SOL     OW36520   2.898   4.710   5.015  0.3189  0.5849  0.2460
 8353SOL    HW136521   2.865   4.622   5.031 -2.7619  1.5977 -0.4916
 8353SOL    HW236522   2.827   0.049   5.023 -1.1129 -1.2092  1.4151
 8354SOL     OW36523   0.026   4.077   7.253 -0.3650  0.1007  0.0414
 8354SOL    HW136524   0.061   4.139   7.188 -2.3252  0.2477 -0.8773
 8354SOL    HW236525   4.686   4.022   7.207 -0.1194  1.9618 -2.5580
 8355SOL     OW36526   0.616   2.605   0.251  0.5871  0.3115  0.0720
 8355SOL    HW136527   0.529   2.604   0.212  1.6712  0.9926 -2.3523
 8355SOL    HW236528   0.604   2.680   0.310  0.3633  0.5644 -0.2930
 8356SOL     OW36529   2.277   4.624   3.898 -0.5353 -0.0873 -0.1062
 8356SOL    HW136530   2.193   4.579   3.894 -0.8005  0.3890  0.1083
 8356SOL    HW236531   2.250   4.716   3.907  1.6569  0.7610 -2.3150
 8357SOL     OW36532   1.196   4.707  17.510 -0.1411  0.4636 -0.0660
 8357SOL    HW136533   1.107   4.723  17.479 -1.5435  0.0600  3.7210
 8357SOL    HW236534   1.207   4.616  17.483 -1.0995  0.1454  0.6112
 8358SOL     OW36535   2.363   2.379   3.888 -0.8267 -0.0818 -0.3062
 8358SOL    HW136536   2.439   2.322   3.905 -1.5585 -1.5175 -1.8626
 8358SOL    HW236537   2.395   2.466   3.910 -3.7926  0.9372  0.0059
 8359SOL     OW36538   1.984   3.924   0.739  0.3433 -0.0984 -0.0206
 8359SOL    HW136539   2.011   3.872   0.663  0.1233  2.4762 -1.8566
 8359SOL    HW236540   2.054   3.914   0.804 -0.0520  1.0663  0.5756
 8360SOL     OW36541   2.811   0.361   9.739 -0.3182  0.0303 -0.0188
 8360SOL    HW136542   2.798   0.284   9.684  0.4807 -1.2801  1.6518
 8360SOL    HW236543   2.907   0.368   9.734 -0.3917  2.2688  1.9101
 8361SOL     OW36544   0.379   1.061  11.227 -0.0190 -0.1261 -0.3743
 8361SOL    HW136545   0.362   0.988  11.168 -0.8161  0.0362 -0.3457
 8361SOL    HW236546   0.471   1.079  11.209  0.5666 -3.0801 -0.3756
 8362SOL     OW36547   3.732   1.181  14.298 -0.0717  0.0130 -0.6586
 8362SOL    HW136548   3.777   1.162  14.215  1.2154 -0.5604  0.1747
 8362SOL    HW236549   3.663   1.116  14.312 -1.0502  1.4688  1.2095
 8363SOL     OW36550   0.605   1.928   3.685 -0.8364 -0.2107 -0.0871
 8363SOL    HW136551   0.613   1.852   3.628 -1.0597  0.0889 -0.5093
 8363SOL    HW236552   0.638   1.997   3.628 -1.2335 -0.9136 -1.1587
 8364SOL     OW36553   2.247   3.300   7.706 -0.0295 -0.2723  0.2538
 8364SOL    HW136554   2.278   3.252   7.629  0.6320 -0.0268  0.3685
 8364SOL    HW236555   2.268   3.232   7.770  0.0026 -0.4967  0.0062
 8365SOL     OW36556   4.241   3.118   6.166  0.1120  0.0815 -0.3846
 8365SOL    HW136557   4.308   3.056   6.137  0.1686 -0.9047  1.8370
 8365SOL    HW236558   4.160   3.072   6.145  0.0211  0.2639 -0.4333
 8366SOL     OW36559   0.279   2.212  12.473 -0.7282 -0.0154  0.2107
 8366SOL    HW136560   0.337   2.206  12.397 -0.1691  0.6493  0.5892
 8366SOL    HW236561   0.320   2.285  12.518  0.0757  1.1205 -2.3696
 8367SOL     OW36562   1.659   1.654  11.223 -0.7271 -0.0002  0.1262
 8367SOL    HW136563   1.600   1.597  11.272 -1.0027  0.8610  0.8060
 8367SOL    HW236564   1.610   1.733  11.201  0.3009  0.7608  0.5596
 8368SOL     OW36565   3.888   0.295  16.211 -0.1067  0.1395  0.1302
 8368SOL    HW136566   3.922   0.277  16.124  2.1523 -0.8248  1.1947
 8368SOL    HW236567   3.937   0.240  16.272 -1.9862 -0.9535  0.6626
 8369SOL     OW36568   0.367   0.613   0.571 -0.0286 -0.1785 -0.1734
 8369SOL    HW136569   0.428   0.539   0.567  0.9647  0.6238  0.2039
 8369SOL    HW236570   0.331   0.597   0.658 -0.3856 -0.5147 -0.3833
 8370SOL     OW36571   2.422   2.214   8.876  0.1584 -0.0680 -0.5701
 8370SOL    HW136572   2.365   2.291   8.875 -1.0298 -0.9583 -1.8080
 8370SOL    HW236573   2.475   2.228   8.797  0.4090 -0.7888 -0.5269
 8371SOL     OW36574   2.812   3.580  17.610 -0.5498 -0.2742 -0.2990
 8371SOL    HW136575   2.848   3.508  17.557  2.2459  1.3550 -0.6233
 8371SOL    HW236576   2.891   3.605  17.658  0.2069 -2.4853 -0.3623
 8372SOL     OW36577   1.493   2.620  13.508 -0.1796 -0.2024 -0.1010
 8372SOL    HW136578   1.409   2.626  13.552 -0.7377 -0.8009 -1.0971
 8372SOL    HW236579   1.552   2.658  13.573 -0.1208  1.3178 -1.0428
 8373SOL     OW36580   4.567   2.330  13.718  0.5383  0.0739  0.0818
 8373SOL    HW136581   4.592   2.341  13.627 -1.6196 -1.5870 -0.7125
 8373SOL    HW236582   4.581   2.416  13.757 -1.6779 -0.7066  2.6330
 8374SOL     OW36583   0.608   2.324  16.833  0.0688  0.4167 -0.5286
 8374SOL    HW136584   0.588   2.403  16.883  1.7948  1.1120 -0.9458
 8374SOL    HW236585   0.526   2.300  16.790 -0.3236  0.4635  0.2099
 8375SOL     OW36586   1.695   2.072   0.352 -0.2303 -0.2028  0.2506
 8375SOL    HW136587   1.647   1.999   0.391 -0.2228  0.5263  1.6143
 8375SOL    HW236588   1.635   2.118   0.293  0.0924  1.3685  1.1273
 8376SOL     OW36589   4.513   1.461   3.528 -0.0484  0.2177 -0.1159
 8376SOL    HW136590   4.469   1.428   3.449 -0.4369  0.5945 -0.0544
 8376SOL    HW236591   4.559   1.538   3.495 -0.7147  0.8919  0.5433
 8377SOL     OW36592   2.313   0.373  17.541 -0.0157 -0.0853  0.7103
 8377SOL    HW136593   2.329   0.467  17.532 -0.2545  0.0241  1.4915
 8377SOL    HW236594   2.291   0.360  17.633  2.3510  1.1426  1.4399
 8378SOL     OW36595   1.367   0.043  16.639 -0.4948 -0.0469 -0.6096
 8378SOL    HW136596   1.358   0.129  16.679 -1.6863 -0.5041  0.0805
 8378SOL    HW236597   1.334   4.708  16.706 -1.3279  2.2001  0.9341
 8379SOL     OW36598   3.211   3.784   5.281  0.3053 -0.0187 -0.1978
 8379SOL    HW136599   3.272   3.712   5.298  0.1986 -0.3608 -1.2375
 8379SOL    HW236600   3.245   3.845   5.346  1.2163 -0.4168 -0.2986
 8380SOL     OW36601   1.895   1.315   4.595  0.1645 -0.2855 -0.2501
 8380SOL    HW136602   1.899   1.254   4.668 -3.7795  1.0091  0.9957
 8380SOL    HW236603   1.841   1.390   4.617  1.1590  0.8638 -1.7108
 8381SOL     OW36604   0.781   1.353   0.036 -0.2199 -0.5894  0.0196
 8381SOL    HW136605   0.765   1.447   0.029 -0.5105 -0.7391 -1.3588
 8381SOL    HW236606   0.810   1.330  17.643  1.1218 -3.4199  1.2096
 8382SOL     OW36607   2.174   0.878   7.986  0.3500  0.4709 -0.4411
 8382SOL    HW136608   2.230   0.855   8.060  3.2634  0.1253 -2.7491
 8382SOL    HW236609   2.112   0.934   8.033 -2.3519 -0.9367 -2.3094
 8383SOL     OW36610   3.036   3.967   6.928  0.3906 -0.6519  0.5038
 8383SOL    HW136611   3.113   3.912   6.913  0.6447  0.2116 -1.2577
 8383SOL    HW236612   2.960   3.911   6.908  0.3865 -1.1518  1.8618
 8384SOL     OW36613   1.080   0.025   8.352 -0.1400  0.6080 -0.0892
 8384SOL    HW136614   1.061   0.036   8.259  0.8257 -0.8234 -0.4642
 8384SOL    HW236615   1.017   4.679   8.371  1.4515 -0.5406  1.0083
 8385SOL     OW36616   3.077   1.701   6.282  0.3769  0.5817  0.5764
 8385SOL    HW136617   3.111   1.758   6.351  0.3067  1.6598 -0.2975
 8385SOL    HW236618   3.133   1.715   6.206 -1.7406 -1.5206 -1.3786
 8386SOL     OW36619   0.397   4.592  13.754  0.2986  0.6138 -0.0128
 8386SOL    HW136620   0.378   4.632  13.839 -0.3647 -0.6389  0.4289
 8386SOL    HW236621   0.486   4.626  13.752  0.1995  0.9455  1.4205
 8387SOL     OW36622   3.950   2.180   6.746 -0.2113 -0.0060 -0.3930
 8387SOL    HW136623   3.993   2.213   6.825  1.1422 -2.1232 -0.2283
 8387SOL    HW236624   3.935   2.249   6.682 -0.8033  1.6898  1.5797
 8388SOL     OW36625   4.156   3.830   6.351 -0.3162 -0.0874 -0.2079
 8388SOL    HW136626   4.243   3.871   6.350  0.3117 -1.4064 -0.0123
 8388SOL    HW236627   4.157   3.770   6.277  1.4538 -0.1768 -0.1124
 8389SOL     OW36628   4.652   0.815   3.678  0.4485  0.2706 -0.0862
 8389SOL    HW136629   4.653   0.773   3.592 -0.2491 -1.3637  0.6878
 8389SOL    HW236630   4.620   0.746   3.737  1.4950  0.3571  0.5799
 8390SOL     OW36631   3.782   0.063  12.744 -0.4500  0.3129 -0.2414
 8390SOL    HW136632   3.786   0.157  12.762 -0.3907  0.2247  0.2241
 8390SOL    HW236633   3.830   0.036  12.823  1.4959  1.0799 -1.1619
 8391SOL     OW36634   2.179   2.459   9.369 -0.1881  0.2790  0.2515
 8391SOL    HW136635   2.175   2.463   9.465  1.8661 -1.3023  0.4102
 8391SOL    HW236636   2.124   2.533   9.342 -1.8924 -0.8793  0.6085
 8392SOL     OW36637   2.048   3.524   1.740 -0.1443  0.0036  0.1776
 8392SOL    HW136638   2.071   3.614   1.717  0.3359 -0.0684  0.3956
 8392SOL    HW236639   2.054   3.526   1.835 -0.3284  1.5239  0.1484
 8393SOL     OW36640   4.132   3.360   3.042 -0.0237 -0.6247 -0.3582
 8393SOL    HW136641   4.165   3.369   3.132  2.1364 -2.3823 -0.9838
 8393SOL    HW236642   4.151   3.448   3.010 -0.1851  0.0308  1.3425
 8394SOL     OW36643   3.805   0.697  16.838 -0.4521 -0.2824 -0.3833
 8394SOL    HW136644   3.793   0.604  16.856 -1.0386  0.0691  1.1149
 8394SOL    HW236645   3.753   0.740  16.907  1.0333 -0.7271  1.0123
 8395SOL     OW36646   4.569   3.028  17.583 -0.7136 -0.1195  0.1986
 8395SOL    HW136647   4.477   3.041  17.561 -0.8061 -2.1754 -0.6449
 8395SOL    HW236648   4.590   2.975  17.506  0.6452  0.2522  0.3262
 8396SOL     OW36649   4.334   2.486   3.397  0.7179  0.1078  0.1358
 8396SOL    HW136650   4.390   2.562   3.382  1.9897 -0.5858  1.3845
 8396SOL    HW236651   4.365   2.412   3.344  0.4748 -0.3957  0.7078
 8397SOL     OW36652   1.592   3.143   2.724  0.2994  0.2183  0.9084
 8397SOL    HW136653   1.563   3.052   2.730 -0.2903  0.4140  0.9828
 8397SOL    HW236654   1.553   3.167   2.641  0.8062 -1.6177  0.1347
 8398SOL     OW36655   1.076   2.241   4.534 -0.1272  0.1514  0.2553
 8398SOL    HW136656   1.100   2.254   4.442 -0.0575  0.0958  0.2661
 8398SOL    HW236657   1.164   2.257   4.567  0.6157 -0.9306 -1.2069
 8399SOL     OW36658   0.343   2.867   7.395 -0.0225 -0.2940 -0.4503
 8399SOL    HW136659   0.386   2.832   7.317 -2.5591 -0.6520 -1.6956
 8399SOL    HW236660   0.410   2.867   7.463  1.3545  0.9565 -1.8000
 8400SOL     OW36661   1.031   3.710   5.187 -0.4526 -0.0186 -0.2559
 8400SOL    HW136662   0.938   3.685   5.192 -1.0618  2.1352 -0.6683
 8400SOL    HW236663   1.035   3.776   5.118 -1.0282  0.9348  0.6113
 8401SOL     OW36664   1.632   0.517  10.609  0.1594  0.1333  0.3323
 8401SOL    HW136665   1.666   0.604  10.588 -0.9543 -0.0704 -2.3522
 8401SOL    HW236666   1.557   0.538  10.666 -0.9065 -1.1308 -0.6013
 8402SOL     OW36667   0.575   2.991   3.176 -0.3323  0.4849  0.2192
 8402SOL    HW136668   0.600   3.084   3.174 -2.8333  1.1375 -0.8205
 8402SOL    HW236669   0.623   2.951   3.248  2.0507  1.5761 -0.7543
 8403SOL     OW36670   4.071   1.888  11.175  0.1576  0.0202 -0.2344
 8403SOL    HW136671   4.090   1.971  11.133 -2.4304  1.1453  0.8316
 8403SOL    HW236672   4.008   1.836  11.125 -0.6056 -0.4523  1.2078
 8404SOL     OW36673   0.268   0.270   7.842 -0.0013  0.1340  0.9910
 8404SOL    HW136674   0.244   0.358   7.813 -0.0593 -0.3368 -0.3547
 8404SOL    HW236675   0.182   0.228   7.840  0.3033 -0.4177 -0.3751
 8405SOL     OW36676   1.835   0.060   7.404 -0.4377  0.0815  0.4490
 8405SOL    HW136677   1.838   0.155   7.401  0.0771  0.1588  3.2543
 8405SOL    HW236678   1.861   0.056   7.496 -2.8825  0.4050  1.1599
 8406SOL     OW36679   3.576   4.488   6.523  0.3127  0.0833  0.3173
 8406SOL    HW136680   3.661   4.456   6.553  0.1001 -2.0392 -1.3085
 8406SOL    HW236681   3.547   4.421   6.461  0.3012  0.2784  0.1108
 8407SOL     OW36682   0.390   4.623   5.489 -0.4952 -0.2534 -1.2281
 8407SOL    HW136683   0.430   4.617   5.576 -2.1621 -0.5600 -0.4935
 8407SOL    HW236684   0.460   4.657   5.432  0.0947  4.1296  2.1063
 8408SOL     OW36685   3.361   0.063  12.104  0.1709  0.9042 -0.3910
 8408SOL    HW136686   3.385   0.144  12.059 -1.4244  1.3040 -0.5122
 8408SOL    HW236687   3.282   0.038  12.056  0.2936  0.6303 -0.4481
 8409SOL     OW36688   2.378   3.040   4.531  0.4606  0.2069  0.0182
 8409SOL    HW136689   2.334   2.999   4.456  1.7952  0.5911 -0.9781
 8409SOL    HW236690   2.415   2.968   4.582 -1.3026 -1.1860 -0.6613
 8410SOL     OW36691   1.770   3.605  13.402 -0.4056 -0.8144 -0.3563
 8410SOL    HW136692   1.683   3.585  13.369 -1.1211 -0.3689  1.2843
 8410SOL    HW236693   1.812   3.636  13.321 -0.3198  0.5039  0.1908
 8411SOL     OW36694   1.587   1.934   8.183  0.0404  0.4375 -0.1321
 8411SOL    HW136695   1.617   1.846   8.163  1.5786  0.6988  1.0468
 8411SOL    HW236696   1.664   1.980   8.216  1.4566  0.3513 -3.3197
 8412SOL     OW36697   3.727   0.857   7.092 -0.2869  0.1117 -0.0411
 8412SOL    HW136698   3.638   0.827   7.070 -0.8775 -0.0452  2.5222
 8412SOL    HW236699   3.741   0.935   7.038 -0.1141  0.1482  0.0582
 8413SOL     OW36700   4.302   1.669   2.336  0.3788 -0.2433 -0.1578
 8413SOL    HW136701   4.235   1.600   2.336  1.1029 -0.9343 -2.2813
 8413SOL    HW236702   4.336   1.641   2.251  1.7751 -1.4424  0.8123
 8414SOL     OW36703   3.328   4.504   7.191 -0.0124  0.0401 -0.2829
 8414SOL    HW136704   3.244   4.542   7.217  0.6155  0.4048  1.1972
 8414SOL    HW236705   3.312   4.413   7.214  2.5300 -0.1587  0.7029
 8415SOL     OW36706   3.159   3.561   6.935  0.1241  0.5858  0.3690
 8415SOL    HW136707   3.195   3.479   6.966 -0.3220  0.0118 -0.6265
 8415SOL    HW236708   3.115   3.584   7.016 -1.0351  0.1938 -0.1460
 8416SOL     OW36709   4.138   1.271  14.396 -0.0841 -0.4471  0.1245
 8416SOL    HW136710   4.115   1.202  14.334 -0.1516 -0.6398  0.3628
 8416SOL    HW236711   4.117   1.226  14.478  3.6921 -0.3910  1.1120
 8417SOL     OW36712   2.829   2.385  14.919 -0.7512  0.2755  0.1895
 8417SOL    HW136713   2.911   2.396  14.869 -0.1464 -1.5618  0.7683
 8417SOL    HW236714   2.813   2.291  14.917 -0.1009  0.1935 -1.2863
 8418SOL     OW36715   1.842   3.382   9.465  0.1831  0.0426 -0.1507
 8418SOL    HW136716   1.871   3.420   9.548 -0.1074 -0.5832  0.2342
 8418SOL    HW236717   1.871   3.444   9.398 -2.5081  0.1375 -1.2328
 8419SOL     OW36718   0.448   0.225  14.786  0.4711 -0.2750  0.2376
 8419SOL    HW136719   0.527   0.276  14.764  0.6219 -0.4468  0.3809
 8419SOL    HW236720   0.414   0.279  14.857  0.8343 -3.9879  3.1995
 8420SOL     OW36721   4.409   1.742   7.545  0.3802 -0.0834  0.0293
 8420SOL    HW136722   4.343   1.717   7.610 -0.8929  0.4268 -1.0823
 8420SOL    HW236723   4.456   1.812   7.590  2.9007 -0.1268 -2.5970
 8421SOL     OW36724   2.509   2.586  16.113 -0.2428  0.4703 -0.2066
 8421SOL    HW136725   2.454   2.629  16.178  0.4274  0.8888  0.0789
 8421SOL    HW236726   2.486   2.500  16.147 -1.4430  1.3649  1.2393
 8422SOL     OW36727   4.199   3.710   5.816 -0.1637 -0.0689  0.9992
 8422SOL    HW136728   4.198   3.755   5.732  0.6577  0.2751  1.1646
 8422SOL    HW236729   4.124   3.652   5.808 -0.0696 -0.1583  0.7630
 8423SOL     OW36730   3.791   0.361   4.718 -0.0726 -0.3142 -0.0384
 8423SOL    HW136731   3.729   0.392   4.651  0.3848  1.1847  0.2424
 8423SOL    HW236732   3.789   0.266   4.707  1.9929 -0.2556 -0.8684
 8424SOL     OW36733   1.595   2.059   3.240  0.5483  0.1984 -0.2215
 8424SOL    HW136734   1.509   2.070   3.199 -0.4919 -1.0822  1.5926
 8424SOL    HW236735   1.639   1.991   3.188 -2.1603 -1.7529  0.0165
 8425SOL     OW36736   3.372   3.734   0.851  0.3756 -0.0535 -0.4984
 8425SOL    HW136737   3.393   3.655   0.801  0.4186 -0.7690  0.6563
 8425SOL    HW236738   3.277   3.724   0.851  0.3504  0.0957 -2.5697
 8426SOL     OW36739   1.214   4.362   1.983  0.0492 -0.1053 -0.3102
 8426SOL    HW136740   1.119   4.362   1.974  0.0678 -1.3087 -0.5658
 8426SOL    HW236741   1.224   4.273   2.018 -0.5459  0.6500  1.7637
 8427SOL     OW36742   4.719   3.305   5.442 -0.0225 -0.3565  0.1300
 8427SOL    HW136743   4.687   3.293   5.353 -0.0927  1.2857 -0.0748
 8427SOL    HW236744   4.642   3.294   5.497  0.8101 -1.8989  0.9952
 8428SOL     OW36745   3.476   0.742   0.031 -0.2212  0.3368  0.0342
 8428SOL    HW136746   3.559   0.775  17.691  0.2802  0.5139  1.4036
 8428SOL    HW236747   3.447   0.682  17.657 -1.0700 -1.9785  2.4098
 8429SOL     OW36748   0.608   1.422   3.061  0.0626  0.0662  0.1925
 8429SOL    HW136749   0.700   1.441   3.080  0.5250  0.3604 -2.4792
 8429SOL    HW236750   0.606   1.327   3.075 -0.2729  0.1434  0.6618
 8430SOL     OW36751   0.583   2.493   1.862 -0.5935  0.7773  0.3020
 8430SOL    HW136752   0.549   2.498   1.773  1.3244  0.0393 -0.4887
 8430SOL    HW236753   0.557   2.402   1.879 -1.4268  0.4076 -2.9252
 8431SOL     OW36754   2.267   2.893  13.078  0.3738  0.1465  0.4650
 8431SOL    HW136755   2.319   2.841  13.017 -0.9583 -0.9142  0.2511
 8431SOL    HW236756   2.240   2.974  13.035  1.6843 -0.0282 -0.7168
 8432SOL     OW36757   2.274   1.435   4.354 -0.2917  0.0223  0.2105
 8432SOL    HW136758   2.229   1.363   4.399 -3.9018  2.1492  0.0152
 8432SOL    HW236759   2.211   1.507   4.349 -1.1188 -0.6218  1.2442
 8433SOL     OW36760   0.194   1.793   3.945 -0.3627  0.0524 -0.2382
 8433SOL    HW136761   0.135   1.736   3.895  0.1860  0.4432 -1.3271
 8433SOL    HW236762   0.274   1.741   3.947  0.8030  1.7301 -2.5147
 8434SOL     OW36763   4.683   1.893  11.641 -0.4518  0.9508  0.1041
 8434SOL    HW136764   0.014   1.968  11.664  0.0453 -0.1503  2.5372
 8434SOL    HW236765   4.603   1.945  11.656 -0.8371  0.2106  0.6354
 8435SOL     OW36766   0.138   0.842   7.049  0.1356 -0.3382  0.0515
 8435SOL    HW136767   0.087   0.824   6.970 -1.0762  1.0172  0.5318
 8435SOL    HW236768   0.064   0.843   7.110  0.1462 -1.2052  0.0848
 8436SOL     OW36769   0.114   1.873  12.931 -1.0301 -0.3736  0.4401
 8436SOL    HW136770   0.155   1.893  13.015 -1.3360 -0.8651  0.7038
 8436SOL    HW236771   0.023   1.895  12.950 -1.3496 -0.6823 -0.7430
 8437SOL     OW36772   1.099   2.810   1.577  0.3607  0.5090  0.4247
 8437SOL    HW136773   1.124   2.780   1.490  1.2105 -1.0860  1.2085
 8437SOL    HW236774   1.015   2.853   1.566 -0.7307 -1.6871  0.2216
 8438SOL     OW36775   3.815   0.809  12.845 -0.3660  0.0655 -0.0049
 8438SOL    HW136776   3.893   0.808  12.901 -1.2343  1.0718  1.1874
 8438SOL    HW236777   3.740   0.824  12.902 -0.3281 -0.3880  0.1686
 8439SOL     OW36778   1.700   4.528  14.256 -0.5417  0.2526 -0.3885
 8439SOL    HW136779   1.681   4.524  14.162  0.6761 -0.4343 -0.6097
 8439SOL    HW236780   1.729   4.438  14.271  2.3422  0.8703 -2.1862
 8440SOL     OW36781   2.443   1.485  17.675  0.7903 -0.1141 -0.1632
 8440SOL    HW136782   2.520   1.477  17.619 -0.0786 -0.1074 -1.3669
 8440SOL    HW236783   2.455   1.569   0.023  2.8087 -0.5350  0.0851
 8441SOL     OW36784   2.516   0.861   3.955 -0.8260  0.2827 -0.3043
 8441SOL    HW136785   2.492   0.952   3.934 -2.1945 -0.1735 -0.6845
 8441SOL    HW236786   2.440   0.805   3.941 -0.7245  0.3583 -1.1275
 8442SOL     OW36787   3.736   1.385  11.952 -0.1013  0.3839  0.0179
 8442SOL    HW136788   3.645   1.397  11.980 -0.8430 -1.8869 -1.4649
 8442SOL    HW236789   3.738   1.436  11.871  0.9071 -1.0111 -0.8323
 8443SOL     OW36790   1.384   2.301   4.331 -0.3652  0.4035 -0.4631
 8443SOL    HW136791   1.446   2.288   4.259  0.7832 -0.0774  0.6114
 8443SOL    HW236792   1.296   2.300   4.293  0.6425 -0.3717 -2.7459
 8444SOL     OW36793   0.178   0.789  12.355 -0.2856 -0.6808  0.6650
 8444SOL    HW136794   0.221   0.845  12.291  1.9132 -1.2508  1.6434
 8444SOL    HW236795   0.086   0.789  12.326 -0.2838  2.7139  0.6781
 8445SOL     OW36796   0.044   3.013   9.842  0.3576  0.0840  0.3055
 8445SOL    HW136797   0.097   2.981   9.915  0.4471  4.1088  2.0190
 8445SOL    HW236798   4.704   3.074   9.880  1.1689  0.8017  0.5148
 8446SOL     OW36799   2.546   0.576   7.697 -0.1370 -0.3988  0.8007
 8446SOL    HW136800   2.464   0.593   7.743 -0.6116  3.4376 -1.4359
 8446SOL    HW236801   2.514   0.498   7.652 -0.0349  1.0579 -1.8310
 8447SOL     OW36802   0.600   1.729   3.516 -0.3813  0.2430 -0.0202
 8447SOL    HW136803   0.692   1.723   3.488  0.4397  2.2661  2.1936
 8447SOL    HW236804   0.570   1.761   3.431 -2.1770 -1.9768 -0.2056
 8448SOL     OW36805   2.559   3.463   0.368  0.1100 -0.0314  0.0168
 8448SOL    HW136806   2.638   3.447   0.317 -0.7053  0.9430 -1.5566
 8448SOL    HW236807   2.554   3.381   0.416 -1.0856 -1.2891 -2.2954
 8449SOL     OW36808   1.864   3.617  10.342 -1.0298 -0.3844  0.4917
 8449SOL    HW136809   1.868   3.523  10.361  1.7199 -0.5523 -0.9170
 8449SOL    HW236810   1.830   3.654  10.424  1.5107 -0.7959  1.7132
 8450SOL     OW36811   2.246   3.048   6.030 -0.3130  0.2072  0.5737
 8450SOL    HW136812   2.317   3.006   6.079 -0.9782 -1.5143  0.0524
 8450SOL    HW236813   2.299   3.112   5.983 -0.0337 -1.8843 -1.9554
 8451SOL     OW36814   3.257   4.185  10.928  0.0079 -0.4245 -0.4145
 8451SOL    HW136815   3.312   4.260  10.904 -0.9707  0.6576  0.7334
 8451SOL    HW236816   3.190   4.193  10.860 -0.3469  3.3618  0.4026
 8452SOL     OW36817   3.908   4.284  14.320 -0.3624  0.0239 -0.0809
 8452SOL    HW136818   3.863   4.202  14.298  0.0542  0.2652 -1.8207
 8452SOL    HW236819   4.000   4.260  14.315 -0.4089  0.3046 -2.3817
 8453SOL     OW36820   2.167   3.830   0.518 -0.3072 -0.1237  0.3385
 8453SOL    HW136821   2.182   3.745   0.477  1.1351  0.4285 -0.2660
 8453SOL    HW236822   2.167   3.881   0.437  2.2535  0.4291  0.6928
 8454SOL     OW36823   0.252   0.405   8.336 -0.3354 -0.1807  0.9392
 8454SOL    HW136824   0.211   0.346   8.399  2.2572 -0.8465  1.9693
 8454SOL    HW236825   0.261   0.353   8.256 -0.2946  1.6743 -0.2846
 8455SOL     OW36826   2.845   2.589   2.860  0.3335 -0.4675 -0.0036
 8455SOL    HW136827   2.920   2.647   2.855  1.8555 -2.4717 -0.3391
 8455SOL    HW236828   2.779   2.642   2.815 -1.3456 -0.9396  1.9011
 8456SOL     OW36829   0.167   0.170   0.254  0.1959 -0.4508  0.2859
 8456SOL    HW136830   0.175   0.177   0.158 -1.8255  0.4221  0.1744
 8456SOL    HW236831   0.256   0.198   0.275  0.6716 -1.2691 -0.6411
 8457SOL     OW36832   1.790   3.965  12.336  0.4492  0.0564  0.1944
 8457SOL    HW136833   1.771   3.879  12.373  1.3471  0.4779  1.6144
 8457SOL    HW236834   1.850   3.995  12.404 -0.2711 -0.8317  1.2079
 8458SOL     OW36835   3.866   2.488  16.290  0.1323  0.1157 -0.2429
 8458SOL    HW136836   3.816   2.564  16.319  3.2534  2.0008  0.3139
 8458SOL    HW236837   3.865   2.440  16.373 -0.8571 -1.5280 -1.2089
 8459SOL     OW36838   1.596   2.978   0.752 -0.3338  1.0170  0.3261
 8459SOL    HW136839   1.643   3.046   0.800 -0.2632  0.1495  1.4593
 8459SOL    HW236840   1.663   2.943   0.693 -0.4181  0.6713  0.4396
 8460SOL     OW36841   3.924   3.593  15.451  0.9542 -0.3003 -0.0557
 8460SOL    HW136842   3.868   3.534  15.400 -1.1348  1.7340 -0.0989
 8460SOL    HW236843   3.998   3.532  15.450  0.3676 -1.0440  1.3341
 8461SOL     OW36844   3.567   2.690   2.163  0.0850 -0.0941 -0.5324
 8461SOL    HW136845   3.580   2.670   2.256 -0.9581  0.8444 -0.1833
 8461SOL    HW236846   3.493   2.635   2.138  0.5562 -0.2483 -1.5628
 8462SOL     OW36847   0.214   2.471   8.212 -0.1007 -0.4983 -0.4434
 8462SOL    HW136848   0.246   2.488   8.123 -0.5280 -1.2274 -0.7409
 8462SOL    HW236849   0.195   2.377   8.205 -0.0245 -0.5583  0.2295
 8463SOL     OW36850   1.629   4.620  11.208  0.0316 -0.0146  0.2964
 8463SOL    HW136851   1.570   4.600  11.135 -1.0549  3.3485  0.2163
 8463SOL    HW236852   1.703   4.564  11.186 -0.6170 -0.0073 -1.8827
 8464SOL     OW36853   1.006   4.491   7.138  0.2298 -0.1933 -0.2815
 8464SOL    HW136854   1.101   4.492   7.126  0.2568 -1.1120 -0.1405
 8464SOL    HW236855   1.007   4.533   7.224 -0.2169  2.4908 -1.5852
 8465SOL     OW36856   3.386   1.173   1.736  0.2549 -0.0096  0.0633
 8465SOL    HW136857   3.411   1.254   1.779  1.8459 -0.7353  0.5215
 8465SOL    HW236858   3.451   1.172   1.666  0.7702  0.8479  0.5348
 8466SOL     OW36859   3.344   0.419   3.178 -0.5616  0.2250  0.0876
 8466SOL    HW136860   3.405   0.396   3.108 -2.1485 -0.2083 -1.1503
 8466SOL    HW236861   3.286   0.343   3.170 -1.0108  0.2462  3.1553
 8467SOL     OW36862   1.877   4.553   7.255 -0.6104  0.0406 -0.6454
 8467SOL    HW136863   1.927   4.512   7.326 -2.8480  0.3910  1.1361
 8467SOL    HW236864   1.857   4.638   7.295  2.2427  0.8757 -0.9983
 8468SOL     OW36865   0.975   3.466   9.213  0.3776  0.2579  0.3865
 8468SOL    HW136866   0.939   3.554   9.228  4.0960  1.3152  2.9856
 8468SOL    HW236867   0.965   3.422   9.297 -1.5419 -0.3002 -0.1330
 8469SOL     OW36868   3.801   2.916   8.091 -0.3051 -0.2066  0.1350
 8469SOL    HW136869   3.807   2.986   8.155  0.7605 -1.7880  1.7462
 8469SOL    HW236870   3.825   2.961   8.010  0.0492  0.2622  0.5010
 8470SOL     OW36871   2.787   1.441   3.767 -0.5627 -0.5883  0.0353
 8470SOL    HW136872   2.707   1.393   3.744 -1.3036 -0.4850  2.4053
 8470SOL    HW236873   2.761   1.477   3.851  0.2038  2.7359 -1.1678
 8471SOL     OW36874   1.981   0.429   7.020  0.5974  0.1492 -0.2111
 8471SOL    HW136875   2.017   0.411   7.107 -0.2994 -1.9580 -0.2875
 8471SOL    HW236876   2.029   0.361   6.974  0.1202 -1.2851  1.3886
 8472SOL     OW36877   0.031   1.293   4.054  0.0448 -0.0946  0.6474
 8472SOL    HW136878   0.043   1.275   3.960  0.2940  1.3260  0.4018
 8472SOL    HW236879   0.044   1.204   4.087  1.9769 -0.1085 -0.1337
 8473SOL     OW36880   1.055   3.186   8.129 -0.0820 -0.4787 -0.3445
 8473SOL    HW136881   1.120   3.177   8.060  0.1462 -2.0127  0.0649
 8473SOL    HW236882   1.068   3.114   8.191  0.9874 -0.4873 -0.5903
 8474SOL     OW36883   4.564   4.533   2.370 -0.1526  1.3109 -0.1782
 8474SOL    HW136884   4.641   4.589   2.370  0.8677 -0.1041 -0.0518
 8474SOL    HW236885   4.522   4.558   2.452  1.6430  1.0113  0.8037
 8475SOL     OW36886   2.328   3.070   8.107 -0.4556  0.0144 -0.5438
 8475SOL    HW136887   2.276   3.128   8.163 -1.9316 -3.3693  1.6087
 8475SOL    HW236888   2.419   3.076   8.134 -0.0581 -0.0383 -1.8877
 8476SOL     OW36889   0.236   0.024  14.205  0.6178  0.5000 -0.7681
 8476SOL    HW136890   0.184   4.704  14.273  0.1105  2.2476 -0.0354
 8476SOL    HW236891   0.259   0.099  14.260 -1.6793 -1.6850  3.1754
 8477SOL     OW36892   0.695   0.946  10.307 -0.0815 -0.1482 -0.0536
 8477SOL    HW136893   0.625   1.002  10.341  1.3335  0.7426  1.3800
 8477SOL    HW236894   0.645   0.881  10.258 -2.0779  0.5264  1.0867
 8478SOL     OW36895   2.091   0.708   4.577 -0.0953 -0.2589 -0.1352
 8478SOL    HW136896   2.135   0.625   4.593 -2.0373 -1.0972  0.8422
 8478SOL    HW236897   2.018   0.675   4.524  0.2165 -2.3096  0.7216
 8479SOL     OW36898   2.552   1.641  13.917  0.1572 -0.1421  0.2408
 8479SOL    HW136899   2.525   1.688  13.995 -1.2915 -1.3509  0.4787
 8479SOL    HW236900   2.472   1.644  13.863  0.1384  1.2468  0.3582
 8480SOL     OW36901   3.417   1.227  17.097 -0.2750 -0.0366 -0.0963
 8480SOL    HW136902   3.473   1.305  17.090 -1.0929  0.3241 -2.5110
 8480SOL    HW236903   3.439   1.183  17.015  2.9423  0.6921  0.3510
 8481SOL     OW36904   4.498   3.776   7.412  0.2341  0.7051  0.6520
 8481SOL    HW136905   4.563   3.802   7.478  0.6089 -0.6781  0.8187
 8481SOL    HW236906   4.456   3.861   7.400  0.8418  1.2320  2.1443
 8482SOL     OW36907   4.631   4.149  13.581 -0.0689  0.2339  0.2423
 8482SOL    HW136908   4.563   4.216  13.574  0.0302 -0.1090 -3.8869
 8482SOL    HW236909   4.669   4.148  13.493 -0.3496 -0.0814  0.1258
 8483SOL     OW36910   3.485   3.981   9.512 -0.2949  0.6023 -0.7055
 8483SOL    HW136911   3.412   3.995   9.452 -0.5594  0.1796 -0.4806
 8483SOL    HW236912   3.498   3.886   9.509 -0.4269  0.5475  0.5907
 8484SOL     OW36913   3.821   0.446   8.376  0.0086  0.4671 -0.2061
 8484SOL    HW136914   3.886   0.418   8.440  0.4886 -2.9879 -2.2070
 8484SOL    HW236915   3.800   0.369   8.323 -0.6484  0.6559 -0.2226
 8485SOL     OW36916   1.609   3.391   7.022 -0.5867 -0.4774 -0.1051
 8485SOL    HW136917   1.675   3.321   7.016  1.3532  1.3549 -0.1914
 8485SOL    HW236918   1.586   3.392   7.115  1.3122  0.2673  0.3625
 8486SOL     OW36919   4.608   0.903   7.463 -0.2905 -0.0795 -0.4061
 8486SOL    HW136920   4.535   0.856   7.423 -1.1726  0.2123  0.8702
 8486SOL    HW236921   4.684   0.880   7.409  0.3628  2.7721 -0.7060
 8487SOL     OW36922   2.001   0.331   6.268  0.2602 -0.2295  0.4535
 8487SOL    HW136923   1.978   0.324   6.361 -0.1833  0.4457  0.4020
 8487SOL    HW236924   2.091   0.362   6.278  1.0087 -2.0055 -0.7831
 8488SOL     OW36925   4.255   0.502   4.593  0.2611 -0.0865  0.8368
 8488SOL    HW136926   4.171   0.508   4.640  0.9789  0.3993  2.0698
 8488SOL    HW236927   4.308   0.570   4.635  0.8488 -0.3218  0.4693
 8489SOL     OW36928   3.408   0.631   4.320  0.7060  0.2298  0.1571
 8489SOL    HW136929   3.320   0.633   4.283  0.5155 -2.3758  0.5120
 8489SOL    HW236930   3.385   0.593   4.404  2.7027  1.6401  1.3457
 8490SOL     OW36931   3.660   2.358   3.542  0.3500 -0.8225 -0.3000
 8490SOL    HW136932   3.699   2.324   3.462 -0.6234  0.9386 -1.5346
 8490SOL    HW236933   3.697   2.446   3.554 -3.5093  0.3322  3.2048
 8491SOL     OW36934   1.878   0.912   8.498  0.1068 -0.3579  0.0369
 8491SOL    HW136935   1.941   0.863   8.550 -1.1024 -2.0195 -0.0818
 8491SOL    HW236936   1.857   0.983   8.560 -0.2126 -1.2418  0.9472
 8492SOL     OW36937   1.572   1.607   2.021  0.3871  0.4463 -0.3296
 8492SOL    HW136938   1.611   1.601   1.933  1.3279  1.1945  0.0421
 8492SOL    HW236939   1.615   1.685   2.056 -0.8120  0.2619  1.5601
 8493SOL     OW36940   1.195   1.556   0.355 -0.0147 -0.2613  0.1541
 8493SOL    HW136941   1.217   1.592   0.268 -2.2434  1.3341  0.2112
 8493SOL    HW236942   1.229   1.633   0.400  0.4551  0.8199 -2.0043
 8494SOL     OW36943   4.268   3.498   6.399 -0.6292 -1.1261  0.3040
 8494SOL    HW136944   4.283   3.521   6.490  0.8117 -1.2956  0.1052
 8494SOL    HW236945   4.358   3.509   6.367 -1.2708  4.5278  0.4688
 8495SOL     OW36946   3.647   1.749   4.450 -0.5271  0.1098 -0.3202
 8495SOL    HW136947   3.637   1.784   4.539  0.2108  3.7574 -1.6661
 8495SOL    HW236948   3.597   1.818   4.406 -0.7079  1.2920  1.7321
 8496SOL     OW36949   2.582   2.128  13.519 -0.0957 -0.0079 -0.0231
 8496SOL    HW136950   2.595   2.033  13.522  0.4986  0.0743 -0.0006
 8496SOL    HW236951   2.592   2.136  13.424 -0.4401  1.0598  0.0348
 8497SOL     OW36952   1.783   1.573   9.238  0.6715  0.6384  0.2228
 8497SOL    HW136953   1.715   1.586   9.172 -0.3933 -1.3940  0.9293
 8497SOL    HW236954   1.811   1.484   9.214 -1.9475 -0.3452  0.8202
 8498SOL     OW36955   1.798   4.682  13.834 -0.4413 -0.3450 -0.2904
 8498SOL    HW136956   1.840   0.020  13.893  0.5082  0.3812 -1.7098
 8498SOL    HW236957   1.859   4.692  13.761 -0.3353 -1.1930 -0.3231
 8499SOL     OW36958   2.108   1.193   1.437  0.5249  0.0152  0.4828
 8499SOL    HW136959   2.051   1.116   1.434 -0.9888  1.1281  1.3022
 8499SOL    HW236960   2.080   1.231   1.354  1.2325 -1.5226 -0.4629
 8500SOL     OW36961   0.519   2.988   1.916 -0.0119 -0.1166  0.3273
 8500SOL    HW136962   0.509   3.069   1.865  0.3589 -0.0799  0.3145
 8500SOL    HW236963   0.615   2.995   1.919  0.0814 -0.2003 -2.0825
 8501SOL     OW36964   1.794   2.530  11.832  0.2793 -0.4585  0.7632
 8501SOL    HW136965   1.840   2.601  11.876  1.5116 -1.2763  0.8086
 8501SOL    HW236966   1.786   2.569  11.745 -0.4022  0.7681  1.3896
 8502SOL     OW36967   1.028   2.823  17.322  0.4208 -0.5587  0.8383
 8502SOL    HW136968   1.100   2.832  17.259  0.8033 -0.2641  1.3158
 8502SOL    HW236969   0.959   2.874  17.279  1.0472  0.3261  0.8743
 8503SOL     OW36970   3.104   3.528   2.657 -0.1622  0.0585  0.7721
 8503SOL    HW136971   3.148   3.543   2.573  0.9255 -0.3099  1.2756
 8503SOL    HW236972   3.179   3.532   2.716 -0.3600  3.1528  0.8098
 8504SOL     OW36973   0.514   3.516  17.451 -0.1940  0.3136 -0.6534
 8504SOL    HW136974   0.554   3.477  17.529 -1.2692 -0.2243 -0.3656
 8504SOL    HW236975   0.508   3.439  17.394 -0.1965 -1.1533  1.3206
 8505SOL     OW36976   3.023   1.304   3.330  0.0523 -0.0386  0.0958
 8505SOL    HW136977   3.050   1.383   3.283 -1.0740  1.0162  1.2326
 8505SOL    HW236978   3.084   1.299   3.404  3.0339 -1.1423 -2.4251
 8506SOL     OW36979   4.398   3.597   3.059 -0.5640 -0.3914  0.3556
 8506SOL    HW136980   4.331   3.603   2.992  1.0455  1.2829 -1.0913
 8506SOL    HW236981   4.450   3.523   3.027  2.3506  1.1686  1.5120
 8507SOL     OW36982   4.173   3.784  10.820  0.3416 -0.0798 -0.0839
 8507SOL    HW136983   4.263   3.808  10.845  0.5144  0.4913 -1.2306
 8507SOL    HW236984   4.180   3.741  10.735  2.6781  0.8252 -0.3739
 8508SOL     OW36985   0.072   1.366   4.568 -0.2955  0.1986  0.2189
 8508SOL    HW136986   0.111   1.398   4.487 -1.9337  1.5042 -0.0643
 8508SOL    HW236987   4.710   1.341   4.533 -0.4665  1.2682 -0.1097
 8509SOL     OW36988   0.061   3.954   4.267  0.4616  0.9006  0.2428
 8509SOL    HW136989   0.068   3.880   4.327  1.4969 -0.0631 -1.0502
 8509SOL    HW236990   0.136   3.928   4.213  0.2294 -2.8622  1.7360
 8510SOL     OW36991   1.813   4.407   8.301 -0.3612  0.2123 -0.5163
 8510SOL    HW136992   1.801   4.477   8.238 -2.5559  0.0086 -0.3260
 8510SOL    HW236993   1.902   4.377   8.285 -0.3767 -0.8712  1.3591
 8511SOL     OW36994   2.041   4.421  11.316 -0.3122 -0.6025  0.1344
 8511SOL    HW136995   2.106   4.443  11.382 -0.2883 -1.1665  0.2973
 8511SOL    HW236996   2.094   4.443  11.240 -0.4266  1.4747  0.6688
 8512SOL     OW36997   2.717   0.168  14.094 -0.4086 -0.0485  0.1113
 8512SOL    HW136998   2.746   0.077  14.085 -0.6048 -0.4590  3.6083
 8512SOL    HW236999   2.773   0.205  14.162  0.6073  1.2980 -1.4654
 8513SOL     OW37000   1.715   3.369  16.113  0.4805  0.1263  0.1512
 8513SOL    HW137001   1.754   3.445  16.158 -0.8221  0.8816  0.0174
 8513SOL    HW237002   1.787   3.329  16.065  0.2899 -0.8304  0.6653
 8514SOL     OW37003   3.941   0.108  17.016 -0.3726 -0.0012 -0.7008
 8514SOL    HW137004   3.916   0.119  17.108 -0.9870 -0.3817 -0.8212
 8514SOL    HW237005   3.973   0.018  17.017 -1.3499 -0.3489 -0.2465
 8515SOL     OW37006   2.979   1.109   5.796  0.2820 -0.3404 -0.0659
 8515SOL    HW137007   3.043   1.056   5.748 -0.5789  0.8401 -2.5588
 8515SOL    HW237008   2.905   1.088   5.739 -0.6585  4.0033 -0.4497
 8516SOL     OW37009   3.907   3.674  10.891  0.0238  0.0811  0.2219
 8516SOL    HW137010   3.908   3.715  10.978 -1.8495 -0.0312  0.3010
 8516SOL    HW237011   3.983   3.722  10.858 -0.2587 -1.7089 -2.9412
 8517SOL     OW37012   1.188   3.547  10.807  0.3501  0.2742 -0.5390
 8517SOL    HW137013   1.117   3.508  10.858  1.4018 -0.8718  0.0183
 8517SOL    HW237014   1.240   3.474  10.774 -0.2593  0.8631 -2.8727
 8518SOL     OW37015   0.275   1.778   4.525  0.2760  0.3788  0.4573
 8518SOL    HW137016   0.288   1.870   4.504 -0.1697 -0.4859 -3.7391
 8518SOL    HW237017   0.365   1.750   4.541  0.4173 -0.5803 -1.9424
 8519SOL     OW37018   0.991   2.360  13.773 -0.3439 -0.3090  0.4695
 8519SOL    HW137019   1.077   2.326  13.749 -1.0770 -1.6941 -0.1979
 8519SOL    HW237020   1.018   2.440  13.819 -0.3907  0.6246 -1.1344
 8520SOL     OW37021   0.614   4.239   2.537  0.4028 -0.1385  0.1285
 8520SOL    HW137022   0.598   4.145   2.544 -1.4065  0.1828  0.2779
 8520SOL    HW237023   0.528   4.277   2.522  0.5923  0.8703  1.6083
 8521SOL     OW37024   0.583   2.202   1.623 -0.3656 -0.2741  0.5080
 8521SOL    HW137025   0.664   2.162   1.591 -0.1938  1.6087 -1.4362
 8521SOL    HW237026   0.587   2.187   1.718  2.0210 -0.5478  0.3606
 8522SOL     OW37027   1.808   4.410  11.166 -0.5952  0.3472  0.0602
 8522SOL    HW137028   1.864   4.448  11.098 -0.6203 -1.0825 -0.7545
 8522SOL    HW237029   1.868   4.373  11.231  0.4432  1.0378 -0.5058
 8523SOL     OW37030   2.215   2.947   9.119  0.0535 -0.2880 -0.0074
 8523SOL    HW137031   2.178   2.875   9.068 -1.3394  0.1371  0.4077
 8523SOL    HW237032   2.307   2.949   9.092  0.3699  1.6369  1.2096
 8524SOL     OW37033   2.498   0.242  16.916 -0.0929  0.2343  0.2170
 8524SOL    HW137034   2.449   0.268  16.995  0.0368  1.7810 -0.2050
 8524SOL    HW237035   2.525   0.324  16.875  1.2537 -0.7587 -0.8812
 8525SOL     OW37036   2.502   3.589   4.734  0.2311  0.1873 -0.4206
 8525SOL    HW137037   2.409   3.611   4.741  0.3016  0.7531 -1.3733
 8525SOL    HW237038   2.502   3.562   4.642 -1.3431  2.1826 -0.9925
 8526SOL     OW37039   0.379   4.025   5.084 -0.4441 -0.2779  0.0852
 8526SOL    HW137040   0.429   4.098   5.121  1.2342 -1.3187 -0.1571
 8526SOL    HW237041   0.305   4.079   5.057  1.0983  1.8647  0.1204
 8527SOL     OW37042   3.691   2.918   4.837 -0.1283  0.5537 -0.0100
 8527SOL    HW137043   3.761   2.971   4.797  1.5536 -2.1672 -0.6515
 8527SOL    HW237044   3.670   2.967   4.917  2.2994  4.4419 -1.7151
 8528SOL     OW37045   1.843   2.053  11.565  0.3002 -0.0752 -0.1393
 8528SOL    HW137046   1.877   2.110  11.497  0.9777  0.0837  0.3364
 8528SOL    HW237047   1.892   2.078  11.643  0.5822 -1.6653  0.1949
 8529SOL     OW37048   1.137   2.429   3.940 -0.4041  0.6024  0.3803
 8529SOL    HW137049   1.192   2.470   3.873 -0.5681  1.1370  0.5804
 8529SOL    HW237050   1.051   2.471   3.943 -0.6942  0.0909 -0.5811
 8530SOL     OW37051   1.118   0.166   3.431 -0.1645  0.2574  0.3998
 8530SOL    HW137052   1.187   0.111   3.395 -1.9097 -1.0736 -0.8705
 8530SOL    HW237053   1.110   0.118   3.514  2.1459 -0.9485 -0.0859
 8531SOL     OW37054   4.030   2.486  12.023 -0.2653 -0.0542 -0.4369
 8531SOL    HW137055   3.976   2.565  12.032 -3.9536 -2.6715  0.4929
 8531SOL    HW237056   4.081   2.508  11.945 -0.3243 -0.7432 -0.6704
 8532SOL     OW37057   2.384   0.593   3.778  0.2501 -0.4336  0.3613
 8532SOL    HW137058   2.291   0.617   3.774  0.4480  0.2317 -0.1168
 8532SOL    HW237059   2.389   0.575   3.872 -0.5202  0.4722  0.5760
 8533SOL     OW37060   0.336   1.842   8.674 -0.0153  0.1336  0.0103
 8533SOL    HW137061   0.290   1.773   8.627  0.7654 -1.4528  1.6154
 8533SOL    HW237062   0.426   1.834   8.641  0.7827  2.6824  1.5724
 8534SOL     OW37063   1.600   3.484   1.557  0.1139  0.2462  0.0067
 8534SOL    HW137064   1.511   3.480   1.521  0.2181 -1.4027 -0.0695
 8534SOL    HW237065   1.628   3.394   1.575 -2.9173 -0.1500  2.8400
 8535SOL     OW37066   0.925   0.341   5.578 -0.6490  0.4808 -0.1829
 8535SOL    HW137067   0.857   0.316   5.640 -0.1838 -0.3321  0.0074
 8535SOL    HW237068   0.868   0.373   5.509  0.8389  0.6382 -1.3425
 8536SOL     OW37069   1.548   0.311   9.485  0.1614 -0.4581 -0.1870
 8536SOL    HW137070   1.643   0.319   9.472  0.6640 -2.8552  2.1046
 8536SOL    HW237071   1.507   0.335   9.402  0.6740  1.4924  0.1162
 8537SOL     OW37072   4.004   3.763   3.666 -0.7201 -0.3303  0.5097
 8537SOL    HW137073   4.058   3.803   3.734 -1.4925 -2.3903  2.3214
 8537SOL    HW237074   4.070   3.742   3.600  1.5783  0.3483  2.6265
 8538SOL     OW37075   4.251   2.024   5.078  0.1143  0.4952  0.3060
 8538SOL    HW137076   4.288   2.036   5.166 -0.1822 -0.4887  0.5541
 8538SOL    HW237077   4.293   1.945   5.044 -2.5302 -0.7514  0.0219
 8539SOL     OW37078   0.115   2.790   8.589 -0.0655  0.6873 -0.2128
 8539SOL    HW137079   0.066   2.806   8.509 -1.4124  0.4877  0.5706
 8539SOL    HW237080   0.203   2.776   8.554  0.1166  3.2903 -0.7910
 8540SOL     OW37081   4.543   0.198   6.517 -0.4168 -0.1823  0.5502
 8540SOL    HW137082   4.618   0.218   6.462 -1.0956 -2.0803 -1.0518
 8540SOL    HW237083   4.513   0.109   6.498 -0.2100  0.1472 -1.2692
 8541SOL     OW37084   2.820   3.971   5.943  0.2607  0.1029 -0.3197
 8541SOL    HW137085   2.860   4.038   5.888 -1.3614  2.4146  1.3125
 8541SOL    HW237086   2.815   4.017   6.027  2.1809  1.7213 -1.1018
 8542SOL     OW37087   3.570   3.773   3.831 -0.2583  0.3564  0.0162
 8542SOL    HW137088   3.539   3.722   3.756  1.6147 -1.8649  0.7355
 8542SOL    HW237089   3.640   3.824   3.790 -0.8183  0.5083 -0.7347
 8543SOL     OW37090   3.372   2.258   0.883 -0.2275  0.3998 -0.0709
 8543SOL    HW137091   3.295   2.292   0.928 -1.4330 -0.4000 -1.5393
 8543SOL    HW237092   3.351   2.299   0.799 -0.0545  1.3156  0.3328
 8544SOL     OW37093   4.201   4.636   1.773 -0.1454  0.4847  0.4011
 8544SOL    HW137094   4.190   4.720   1.818 -2.4163 -0.2599  1.2120
 8544SOL    HW237095   4.231   4.662   1.686  0.6666  0.6367  0.7216
 8545SOL     OW37096   0.285   0.096  13.548 -0.2381 -0.0568 -0.4397
 8545SOL    HW137097   0.258   0.038  13.619  0.9469 -0.1055 -0.0192
 8545SOL    HW237098   0.300   0.037  13.474 -2.6177 -1.0223 -0.1385
 8546SOL     OW37099   2.734   0.527   4.429  0.2759 -0.3862  0.6266
 8546SOL    HW137100   2.689   0.523   4.345  2.2581 -0.5223 -0.4103
 8546SOL    HW237101   2.699   0.596   4.485 -1.6469 -2.5632  2.1182
 8547SOL     OW37102   0.038   0.722  10.991  0.2104 -0.0027 -0.0710
 8547SOL    HW137103   4.716   0.638  10.978  1.3442 -0.7339  0.6690
 8547SOL    HW237104   0.040   0.728  11.087 -2.4828 -1.6209  0.1014
 8548SOL     OW37105   2.179   1.362   8.806 -0.0181  0.4491 -0.4599
 8548SOL    HW137106   2.228   1.349   8.725 -1.1498 -0.4836 -0.9843
 8548SOL    HW237107   2.210   1.445   8.843  1.6196 -1.3785  2.3114
 8549SOL     OW37108   4.491   3.997   9.072  0.8650 -0.2434  0.4168
 8549SOL    HW137109   4.426   3.947   9.122  2.0015 -1.0645  1.0787
 8549SOL    HW237110   4.500   3.935   9.000 -0.5354 -1.2322  1.0796
 8550SOL     OW37111   4.556   4.697   6.114 -0.0807 -0.0013  0.1572
 8550SOL    HW137112   4.584   4.679   6.203  1.2207  3.1116  0.3857
 8550SOL    HW237113   4.535   4.610   6.079 -0.1175  0.0138  0.1420
 8551SOL     OW37114   1.083   2.070  10.962 -0.1803 -0.3119  0.1161
 8551SOL    HW137115   1.157   2.089  11.019 -0.5503 -0.7981  0.7539
 8551SOL    HW237116   1.005   2.087  11.015  0.3675 -0.2979  0.9122
 8552SOL     OW37117   0.038   2.442   0.367  0.2970 -0.4075 -0.0716
 8552SOL    HW137118   4.706   2.476   0.296  0.9441 -0.2680 -0.5122
 8552SOL    HW237119   0.020   2.348   0.363 -1.0373 -0.2246  1.7343
 8553SOL     OW37120   3.744   0.340   2.346 -0.7426 -0.5127 -0.0456
 8553SOL    HW137121   3.794   0.386   2.413  1.1102  0.2566 -1.9825
 8553SOL    HW237122   3.808   0.359   2.278 -0.9573 -0.9693 -0.3758
 8554SOL     OW37123   0.334   4.563   0.663 -0.1184 -0.7940  0.1682
 8554SOL    HW137124   0.401   4.495   0.652  0.6300  0.0996 -0.9248
 8554SOL    HW237125   0.322   4.571   0.757  0.8667 -0.2387  0.2506
 8555SOL     OW37126   4.190   2.843  10.779  0.2118 -0.9953  0.1255
 8555SOL    HW137127   4.150   2.841  10.866 -0.4943  1.1179 -0.1560
 8555SOL    HW237128   4.131   2.782  10.735  1.8350 -2.6526  0.2397
 8556SOL     OW37129   3.280   4.580  10.950  0.0889  0.4037  0.4308
 8556SOL    HW137130   3.260   4.531  11.030 -0.9263 -1.0469 -0.7064
 8556SOL    HW237131   3.315   4.513  10.890 -2.4992 -0.4106 -0.1437
 8557SOL     OW37132   2.672   0.623   5.494  0.5936  0.6853  0.1258
 8557SOL    HW137133   2.734   0.683   5.536  0.6646  0.1918  0.7221
 8557SOL    HW237134   2.694   0.640   5.402 -0.0214  1.5549  0.1345
 8558SOL     OW37135   1.300   3.196   6.154 -0.1837 -0.2206 -0.5448
 8558SOL    HW137136   1.347   3.135   6.097  1.4536  0.2646  0.2970
 8558SOL    HW237137   1.216   3.149   6.150  0.4851 -1.5751  1.6769
 8559SOL     OW37138   1.749   3.012   9.668  0.7258  0.5341 -0.2861
 8559SOL    HW137139   1.749   3.012   9.572 -0.1329  4.0914 -0.2962
 8559SOL    HW237140   1.662   3.041   9.698 -0.3843 -1.1844 -1.8278
 8560SOL     OW37141   2.463   3.463  15.490  0.1516 -0.5255 -0.1908
 8560SOL    HW137142   2.377   3.463  15.449 -0.2650  1.9476  0.6479
 8560SOL    HW237143   2.461   3.377  15.531 -3.9847  0.2963  1.2617
 8561SOL     OW37144   1.689   1.184   3.051  0.3783 -0.2444  0.0371
 8561SOL    HW137145   1.642   1.148   2.976 -1.8920  0.3810  1.1375
 8561SOL    HW237146   1.765   1.127   3.059 -0.8557 -1.8306  0.4993
 8562SOL     OW37147   2.312   3.178   8.597 -0.8250 -0.2817 -0.2103
 8562SOL    HW137148   2.342   3.265   8.571 -2.9306  0.1641 -1.1768
 8562SOL    HW237149   2.369   3.159   8.671 -0.5526  0.1968 -0.2966
 8563SOL     OW37150   1.864   1.418   7.728 -0.1988  0.4243 -0.1860
 8563SOL    HW137151   1.905   1.479   7.789 -0.4690  0.5782 -0.1606
 8563SOL    HW237152   1.876   1.334   7.773  0.1861  0.2065 -0.6884
 8564SOL     OW37153   1.974   2.346   0.580  0.2925  0.0563 -0.0309
 8564SOL    HW137154   2.053   2.297   0.559  0.0467 -0.8368  1.1459
 8564SOL    HW237155   1.936   2.283   0.641  2.4103 -0.3503  0.8648
 8565SOL     OW37156   2.830   0.107  15.889  0.0982 -0.6449  0.8670
 8565SOL    HW137157   2.875   0.186  15.860  0.5653 -0.3905  2.3132
 8565SOL    HW237158   2.818   0.129  15.981  0.8326  2.3498  0.2553
 8566SOL     OW37159   1.496   1.241  14.572  0.1101 -0.0836  0.6878
 8566SOL    HW137160   1.409   1.275  14.549  0.3007 -0.7900 -1.0827
 8566SOL    HW237161   1.494   1.263  14.665  2.2037 -2.9250  1.4093
 8567SOL     OW37162   0.513   1.850  10.908 -0.4084 -0.3834 -0.4533
 8567SOL    HW137163   0.546   1.775  10.958  0.0051  1.0723  1.4943
 8567SOL    HW237164   0.573   1.846  10.834  0.9146 -0.4960  0.6161
 8568SOL     OW37165   3.701   1.845  12.836  0.2757 -0.6431  0.2985
 8568SOL    HW137166   3.670   1.834  12.926 -0.1386  1.4719  0.4126
 8568SOL    HW237167   3.792   1.817  12.850  0.0267 -0.9254  1.3499
 8569SOL     OW37168   0.668   0.427   4.490 -0.2647 -0.1240  0.0659
 8569SOL    HW137169   0.604   0.482   4.444 -0.4687 -0.0152  0.4794
 8569SOL    HW237170   0.634   0.414   4.579 -0.0504  0.7039  0.2662
 8570SOL     OW37171   3.009   2.952   6.793  0.4127 -0.5099  0.1527
 8570SOL    HW137172   3.070   2.921   6.860  0.6070  0.0434  0.2296
 8570SOL    HW237173   2.958   2.874   6.771  0.9986 -0.8412 -0.0181
 8571SOL     OW37174   2.316   2.646   7.455  0.0313  0.3572 -0.3149
 8571SOL    HW137175   2.343   2.568   7.503  0.9477  1.1717  0.4848
 8571SOL    HW237176   2.399   2.689   7.438 -0.5389  0.9582 -1.6093
 8572SOL     OW37177   4.410   0.120   4.728 -0.5436  0.1768  0.1914
 8572SOL    HW137178   4.498   0.156   4.719 -0.7931  0.7622  0.1021
 8572SOL    HW237179   4.364   0.170   4.661  1.2424  1.0029 -0.4218
 8573SOL     OW37180   2.675   3.576   1.894 -0.3787 -0.0992  0.3225
 8573SOL    HW137181   2.583   3.595   1.878 -0.3790  0.5780  1.1131
 8573SOL    HW237182   2.710   3.560   1.807  1.3318 -0.2197  1.0388
 8574SOL     OW37183   3.352   4.448   3.678  0.8555 -0.2728 -0.6143
 8574SOL    HW137184   3.286   4.427   3.612 -0.9381  2.0636  0.4577
 8574SOL    HW237185   3.434   4.445   3.628  1.1450 -1.5196 -0.0720
 8575SOL     OW37186   0.443   1.615   7.526  0.2203 -0.3915 -0.0253
 8575SOL    HW137187   0.537   1.621   7.513  0.3398 -1.2643  0.4149
 8575SOL    HW237188   0.429   1.525   7.498 -1.2060 -0.5952  1.2934
 8576SOL     OW37189   3.856   3.796   6.113 -0.5451  0.4289  0.3493
 8576SOL    HW137190   3.853   3.783   6.208 -2.5281 -0.1526  0.2041
 8576SOL    HW237191   3.947   3.771   6.099 -2.1661 -3.8716 -2.2318
 8577SOL     OW37192   0.948   2.825   9.497  0.0030  0.5209  0.3884
 8577SOL    HW137193   0.894   2.887   9.546  0.5624  0.7453  0.7186
 8577SOL    HW237194   1.029   2.852   9.540 -0.2980  0.0061  1.2718
 8578SOL     OW37195   0.193   1.755  14.472 -0.3181  0.0620 -0.5421
 8578SOL    HW137196   0.126   1.701  14.431  0.0704 -0.0053 -1.0820
 8578SOL    HW237197   0.143   1.804  14.538 -0.0501 -0.8991  0.3911
 8579SOL     OW37198   0.871   3.167   7.551 -0.5888 -0.5018 -0.2252
 8579SOL    HW137199   0.848   3.097   7.489  0.8018  1.0577 -2.5365
 8579SOL    HW237200   0.933   3.220   7.500  1.2346 -0.9414  1.5291
 8580SOL     OW37201   4.516   1.584  10.547 -0.0297 -0.2168  0.7465
 8580SOL    HW137202   4.521   1.489  10.534 -2.4659 -0.3832  0.9296
 8580SOL    HW237203   4.488   1.601  10.637 -1.1281  1.0840  0.1488
 8581SOL     OW37204   3.477   0.850  14.057 -0.3287  0.5944  0.0241
 8581SOL    HW137205   3.469   0.791  13.982 -1.7861 -0.1250  0.7364
 8581SOL    HW237206   3.428   0.925  14.021  0.3790  0.5867 -0.9571
 8582SOL     OW37207   2.641   0.510   3.377  0.0894  0.3348  0.0632
 8582SOL    HW137208   2.678   0.426   3.349 -1.7421 -0.7188  0.7974
 8582SOL    HW237209   2.589   0.482   3.453  0.2131 -0.8718 -0.2923
 8583SOL     OW37210   3.876   0.655   8.176 -0.7108  0.2853 -0.3271
 8583SOL    HW137211   3.791   0.685   8.207 -1.0823 -0.2766 -0.8268
 8583SOL    HW237212   3.889   0.584   8.239 -1.4959  1.9729  1.7418
 8584SOL     OW37213   0.092   4.263   3.745 -0.2767  0.1848  0.0435
 8584SOL    HW137214   0.047   4.203   3.804 -1.3573  0.0870 -0.8756
 8584SOL    HW237215   0.101   4.203   3.671 -0.2901 -0.0085  0.1968
 8585SOL     OW37216   3.303   1.718   7.075 -0.1000  0.0206  0.6495
 8585SOL    HW137217   3.374   1.657   7.060 -1.5613 -0.2018 -5.3038
 8585SOL    HW237218   3.234   1.657   7.100  0.1371 -0.4834  0.0442
 8586SOL     OW37219   4.579   1.025   2.947 -0.2140 -0.5382 -0.2450
 8586SOL    HW137220   4.645   1.049   3.011 -0.3171  2.7642 -1.3601
 8586SOL    HW237221   4.508   1.078   2.983 -0.0372 -0.4420 -0.0408
 8587SOL     OW37222   1.367   2.078   8.321 -0.2864 -0.0674 -0.3741
 8587SOL    HW137223   1.449   2.047   8.284 -0.8532 -2.2096  0.1336
 8587SOL    HW237224   1.399   2.135   8.391 -1.5937  0.9847 -0.6353
 8588SOL     OW37225   2.032   0.384  16.666  0.3103  0.0270  0.8346
 8588SOL    HW137226   1.969   0.314  16.652 -0.2376  0.7810 -0.5759
 8588SOL    HW237227   1.983   0.448  16.718 -1.1438 -0.6087  0.2633
 8589SOL     OW37228   2.648   2.883   5.571 -0.0717  0.4098  0.0517
 8589SOL    HW137229   2.562   2.921   5.586 -0.0498  0.7815 -0.7976
 8589SOL    HW237230   2.633   2.791   5.548  0.1439 -0.2428  2.4684
 8590SOL     OW37231   1.563   3.853   4.886 -0.0694 -0.0692  0.1886
 8590SOL    HW137232   1.616   3.874   4.963  0.7116  0.5034 -0.5104
 8590SOL    HW237233   1.473   3.882   4.897 -0.1140  0.5788 -2.0301
 8591SOL     OW37234   3.277   3.216   4.698  0.6276 -0.3144 -0.5113
 8591SOL    HW137235   3.299   3.294   4.647  1.0659 -1.2190 -1.7209
 8591SOL    HW237236   3.360   3.168   4.693  0.3473 -1.0858  2.2655
 8592SOL     OW37237   2.982   4.612   6.977  0.3875  0.0560 -0.0926
 8592SOL    HW137238   3.010   4.540   6.920  0.6579  0.4082 -0.4002
 8592SOL    HW237239   3.022   4.683   6.927  1.5104 -0.2968  0.3032
 8593SOL     OW37240   0.502   3.347   3.756  0.6623 -0.6253 -0.1612
 8593SOL    HW137241   0.558   3.314   3.826  1.8578  1.7104 -0.0200
 8593SOL    HW237242   0.543   3.431   3.737 -0.4036 -0.2227 -0.6888
 8594SOL     OW37243   0.116   1.765  13.660  0.4661  0.1712 -0.1839
 8594SOL    HW137244   0.030   1.789  13.625  0.2886 -0.4395 -0.1756
 8594SOL    HW237245   0.161   1.751  13.577 -1.9417 -0.1256 -1.4526
 8595SOL     OW37246   1.236   1.108   6.297 -0.3408 -0.4280 -0.2927
 8595SOL    HW137247   1.182   1.171   6.249  0.7515 -0.9037 -2.1597
 8595SOL    HW237248   1.184   1.108   6.378 -0.5028  0.1446 -0.3954
 8596SOL     OW37249   3.045   2.829   7.615  0.4474  0.8122 -0.7996
 8596SOL    HW137250   3.029   2.770   7.542  1.3577 -0.2417 -0.1415
 8596SOL    HW237251   3.115   2.882   7.578 -2.2746  3.2934 -2.3939
 8597SOL     OW37252   0.317   4.545   2.110  0.0021  0.3047  0.4002
 8597SOL    HW137253   0.221   4.543   2.109  0.0094 -0.5900  1.1848
 8597SOL    HW237254   0.317   4.641   2.121  1.8332  0.5176 -1.3924
 8598SOL     OW37255   0.548   0.499  10.309 -0.2817 -0.6261  0.2083
 8598SOL    HW137256   0.457   0.475  10.289  0.1889 -0.6295 -1.9207
 8598SOL    HW237257   0.590   0.413  10.314  1.5706  0.1442 -1.8487
 8599SOL     OW37258   0.639   4.488   9.953 -0.3245  0.8621  0.0340
 8599SOL    HW137259   0.594   4.423   9.899  1.0877 -1.1876  1.3225
 8599SOL    HW237260   0.724   4.511   9.914 -0.6669  3.2324  0.6647
 8600SOL     OW37261   0.465   2.416  14.572  0.2999 -0.3156 -0.9010
 8600SOL    HW137262   0.480   2.343  14.632  1.6878  1.0494  0.3785
 8600SOL    HW237263   0.540   2.470  14.593  0.7447 -1.6167  0.8704
 8601SOL     OW37264   2.685   3.511   5.179 -0.4802 -0.2751  0.5646
 8601SOL    HW137265   2.631   3.530   5.256  2.0126 -2.3200  2.8287
 8601SOL    HW237266   2.641   3.565   5.114 -0.9377 -0.7508  0.4781
 8602SOL     OW37267   0.544   0.907  12.596 -0.1059  0.5067 -0.1132
 8602SOL    HW137268   0.507   0.950  12.519 -0.2838  0.9762  0.2351
 8602SOL    HW237269   0.483   0.833  12.599 -0.9368  1.1455 -1.3491
 8603SOL     OW37270   4.481   2.309  15.962  0.0719 -0.0400 -0.1415
 8603SOL    HW137271   4.498   2.330  15.870  2.2729 -0.9200  0.0713
 8603SOL    HW237272   4.388   2.326  15.973  0.1055  0.3741 -0.4777
 8604SOL     OW37273   0.031   3.254   6.957  0.7660 -0.7957  0.1082
 8604SOL    HW137274   0.112   3.217   6.990  0.3496  0.3442  2.3886
 8604SOL    HW237275   0.029   3.210   6.872  0.1655 -1.2099  0.3369
 8605SOL     OW37276   4.687   3.351   4.124 -0.0442 -0.0991 -0.1922
 8605SOL    HW137277   0.033   3.319   4.181  0.6279 -0.9268 -1.4714
 8605SOL    HW237278   4.667   3.277   4.066 -0.1617 -1.8762  2.1009
 8606SOL     OW37279   0.849   4.567   8.391  0.9576  0.4470 -0.7767
 8606SOL    HW137280   0.802   4.600   8.315 -0.8025 -0.4215 -0.0666
 8606SOL    HW237281   0.848   4.473   8.373 -2.4873  0.0235  1.5410
 8607SOL     OW37282   0.314   3.845  11.758  0.2675 -0.9792 -0.2937
 8607SOL    HW137283   0.340   3.906  11.689  1.3409  2.2842  3.0483
 8607SOL    HW237284   0.218   3.845  11.752  0.4771 -0.4033 -3.8463
 8608SOL     OW37285   4.441   0.463   0.803 -0.2038 -0.0465 -0.4123
 8608SOL    HW137286   4.388   0.391   0.769  2.3826 -2.0126 -0.2242
 8608SOL    HW237287   4.442   0.439   0.895 -0.6641 -1.5719 -0.8134
 8609SOL     OW37288   1.549   0.941   8.250  0.0211  0.1715 -0.6998
 8609SOL    HW137289   1.615   0.905   8.190 -1.1605 -0.5996 -1.5557
 8609SOL    HW237290   1.537   0.869   8.313 -0.7152  0.4665 -0.5057
 8610SOL     OW37291   4.210   2.321   7.301  0.6498 -0.0784  0.5024
 8610SOL    HW137292   4.176   2.410   7.306 -1.3881 -0.8737  0.8461
 8610SOL    HW237293   4.211   2.289   7.391  0.4441 -1.3441  0.0580
 8611SOL     OW37294   0.652   3.240   3.038 -0.2227 -0.0069  0.3124
 8611SOL    HW137295   0.619   3.304   2.974 -0.3210  1.4717  1.8516
 8611SOL    HW237296   0.700   3.181   2.980 -1.8605 -2.4314  1.4398
 8612SOL     OW37297   0.880   2.242   5.361  0.0319  0.2310 -0.0305
 8612SOL    HW137298   0.862   2.307   5.429  2.0619  2.2066 -1.3654
 8612SOL    HW237299   0.790   2.213   5.346 -0.5536  3.0170 -1.8114
 8613SOL     OW37300   3.153   3.379   5.833  0.1835  0.2054  0.4663
 8613SOL    HW137301   3.167   3.448   5.769  0.4825  1.3616  1.7846
 8613SOL    HW237302   3.116   3.311   5.777  0.5072 -0.5711  1.1795
 8614SOL     OW37303   0.215   2.319  13.305 -0.3442 -0.0275  0.4410
 8614SOL    HW137304   0.155   2.372  13.253  0.9955  0.5824 -0.4932
 8614SOL    HW237305   0.273   2.388  13.337 -1.7967 -0.2663  3.5494
 8615SOL     OW37306   3.663   1.982  12.369  0.9083  0.7905 -0.3611
 8615SOL    HW137307   3.633   2.065  12.334 -2.0869 -0.6516 -1.1805
 8615SOL    HW237308   3.745   1.959  12.326  1.8731  0.1968  1.7544
 8616SOL     OW37309   2.863   2.059  16.914 -0.0543 -0.2887  0.2301
 8616SOL    HW137310   2.819   2.080  16.996  1.2775  0.5131  0.7286
 8616SOL    HW237311   2.819   1.976  16.893  1.5147 -0.7915 -1.1259
 8617SOL     OW37312   3.368   1.806   0.894  0.3113 -0.4196 -0.1083
 8617SOL    HW137313   3.430   1.753   0.946 -0.6027  0.7766  2.1972
 8617SOL    HW237314   3.296   1.798   0.956  1.5057 -0.6399  1.2587
 8618SOL     OW37315   4.521   2.972   2.312 -0.1605 -0.3681  0.2094
 8618SOL    HW137316   4.581   2.964   2.238  1.0757 -0.3728  1.1965
 8618SOL    HW237317   4.533   3.064   2.335  0.2417 -0.3650 -0.0177
 8619SOL     OW37318   2.137   1.122   6.273  0.0229 -0.3526  0.0155
 8619SOL    HW137319   2.108   1.212   6.257 -0.4546 -0.8175 -1.7319
 8619SOL    HW237320   2.229   1.135   6.296 -0.5888  0.4110  1.9490
 8620SOL     OW37321   4.630   4.033   0.625 -0.5642  0.0923 -0.0157
 8620SOL    HW137322   4.687   4.008   0.698 -0.8084  0.4809  0.3094
 8620SOL    HW237323   4.614   4.125   0.645 -0.5161  0.0287  0.3086
 8621SOL     OW37324   4.634   3.841   7.628  0.2567  0.2075 -0.2852
 8621SOL    HW137325   4.685   3.920   7.649  1.2028  0.3143 -3.0476
 8621SOL    HW237326   4.669   3.774   7.687 -0.2797 -1.3873 -1.7908
 8622SOL     OW37327   2.164   1.258   7.755  0.1875  0.2537 -0.2923
 8622SOL    HW137328   2.122   1.193   7.698  1.2134 -0.0016 -0.7684
 8622SOL    HW237329   2.161   1.208   7.836  0.8349  0.1930 -0.3039
 8623SOL     OW37330   1.966   3.692   6.157  0.3853  0.7895  0.3919
 8623SOL    HW137331   2.005   3.637   6.089 -1.9058  1.4383 -1.4510
 8623SOL    HW237332   2.043   3.701   6.213 -0.5609  3.3044  1.2711
 8624SOL     OW37333   2.431   0.251   8.667  0.4014  0.3609 -0.1528
 8624SOL    HW137334   2.345   0.222   8.696  1.5284 -2.7764 -0.0454
 8624SOL    HW237335   2.492   0.197   8.716 -0.7790 -0.0821  0.8281
 8625SOL     OW37336   2.847   4.200   0.715 -0.1924  0.5124 -0.7334
 8625SOL    HW137337   2.819   4.240   0.633 -1.7911 -1.7917 -1.3223
 8625SOL    HW237338   2.906   4.266   0.752  0.1837 -0.1098 -0.2214
 8626SOL     OW37339   2.877   0.917   6.649 -0.6961  0.3998 -0.1037
 8626SOL    HW137340   2.866   0.866   6.730 -1.2030 -1.8597 -1.6059
 8626SOL    HW237341   2.957   0.880   6.613 -0.3273  1.6617 -0.5782
 8627SOL     OW37342   3.455   2.335  16.511  0.2054  0.3997 -0.9233
 8627SOL    HW137343   3.402   2.266  16.551  1.4761 -0.2863 -0.4552
 8627SOL    HW237344   3.391   2.382  16.457  1.8394  0.0758 -3.1337
 8628SOL     OW37345   3.216   3.646  15.684 -0.0362 -0.1720  0.0124
 8628SOL    HW137346   3.219   3.735  15.719  0.9556  0.4432 -1.6149
 8628SOL    HW237347   3.304   3.613  15.667 -0.1556 -0.7402  0.4928
 8629SOL     OW37348   4.404   1.179  17.567  0.0644 -0.3409  0.4633
 8629SOL    HW137349   4.366   1.244  17.626  0.0596 -1.6157  1.8532
 8629SOL    HW237350   4.486   1.223  17.545  1.5829 -2.3460  2.2635
 8630SOL     OW37351   2.072   1.478   8.403  0.7309  0.2808 -0.2692
 8630SOL    HW137352   2.086   1.567   8.372  0.8251 -0.4461 -2.2977
 8630SOL    HW237353   2.032   1.436   8.327  2.2122  0.2828 -1.0534
 8631SOL     OW37354   3.900   2.654   7.464  0.4379 -0.2833 -0.3866
 8631SOL    HW137355   3.952   2.717   7.513  0.2194 -0.4090  0.0100
 8631SOL    HW237356   3.846   2.624   7.537 -1.7196 -0.3429 -2.0085
 8632SOL     OW37357   3.917   3.494   8.779 -0.0299  0.0499 -0.2435
 8632SOL    HW137358   3.843   3.547   8.809  0.9274  0.2637  1.7320
 8632SOL    HW237359   3.866   3.421   8.745 -0.3479  0.2799 -0.2611
 8633SOL     OW37360   0.236   3.464   3.222  0.6171  0.0312  0.2166
 8633SOL    HW137361   0.214   3.386   3.170  0.7371  0.1926 -0.0712
 8633SOL    HW237362   0.328   3.482   3.201  0.8153  1.1974  2.1309
 8634SOL     OW37363   1.585   2.434  12.918  0.0736 -0.0468  0.1755
 8634SOL    HW137364   1.624   2.388  12.993 -2.0632 -2.0957  0.0030
 8634SOL    HW237365   1.603   2.365  12.854  1.9482 -0.6438  1.3331
 8635SOL     OW37366   3.174   2.427   3.833 -0.0679 -0.0133 -0.3920
 8635SOL    HW137367   3.231   2.395   3.903 -1.1421  0.0771  0.5260
 8635SOL    HW237368   3.233   2.411   3.760 -0.7017  1.0479 -1.1308
 8636SOL     OW37369   2.116   0.156  17.176  0.0948  0.6563 -0.4913
 8636SOL    HW137370   2.145   0.222  17.113 -2.6266  0.1504 -2.2813
 8636SOL    HW237371   2.096   0.213  17.250 -1.1105 -0.8902  0.3734
 8637SOL     OW37372   1.961   0.457  14.832  0.2665  0.0662  0.0234
 8637SOL    HW137373   1.919   0.433  14.749 -1.6551  2.6669  0.2656
 8637SOL    HW237374   1.963   0.374  14.880  0.3184  0.5626  0.8868
 8638SOL     OW37375   0.228   2.578  16.520  0.1155 -0.0891  0.2854
 8638SOL    HW137376   0.173   2.627  16.459 -0.5688 -2.1856 -0.7801
 8638SOL    HW237377   0.201   2.487  16.516  2.4936 -0.5920 -3.4835
 8639SOL     OW37378   3.222   0.252   7.410 -0.1957 -0.1635  0.2374
 8639SOL    HW137379   3.181   0.338   7.410  1.5673  0.6537  1.6681
 8639SOL    HW237380   3.295   0.264   7.349 -0.3604 -1.5749 -0.2480
 8640SOL     OW37381   2.846   2.691   7.159  0.6140  0.2288  0.3405
 8640SOL    HW137382   2.883   2.622   7.214 -0.2653  0.4431  1.1953
 8640SOL    HW237383   2.894   2.700   7.077  0.8547 -0.9794  0.3424
 8641SOL     OW37384   3.633   0.860  15.261 -0.0630  0.0342 -0.0683
 8641SOL    HW137385   3.631   0.945  15.305  0.8753 -0.6223  1.2327
 8641SOL    HW237386   3.577   0.878  15.185 -2.4340 -2.8172  0.9684
 8642SOL     OW37387   0.344   4.335  16.217  0.1257 -0.2383 -0.3944
 8642SOL    HW137388   0.295   4.256  16.236 -0.8397  0.6502  0.7955
 8642SOL    HW237389   0.270   4.396  16.214 -1.9262 -2.7774 -1.7212
 8643SOL     OW37390   2.965   4.492  11.198 -0.4347  0.1981 -0.2178
 8643SOL    HW137391   3.059   4.474  11.187 -0.0013  2.2829  0.1265
 8643SOL    HW237392   2.937   4.468  11.109 -0.9860  0.7676 -0.1959
 8644SOL     OW37393   4.245   2.488   5.829  0.1191 -0.3382 -0.0763
 8644SOL    HW137394   4.247   2.463   5.736 -0.7880  1.1233 -0.4938
 8644SOL    HW237395   4.308   2.432   5.874  0.2043  0.3755  0.6818
 8645SOL     OW37396   2.586   2.160   3.396 -0.6344  0.8677  1.0785
 8645SOL    HW137397   2.649   2.101   3.353 -2.4000 -1.4095  1.6043
 8645SOL    HW237398   2.600   2.163   3.490  0.8570 -1.0839  0.9308
 8646SOL     OW37399   1.260   0.094  12.588  0.1507  0.0423  0.2385
 8646SOL    HW137400   1.245   0.028  12.521  2.1410 -1.7643  1.5315
 8646SOL    HW237401   1.194   0.066  12.652 -1.6343 -1.0323 -2.1086
 8647SOL     OW37402   3.935   3.383   4.309 -1.0135  0.1136  0.1581
 8647SOL    HW137403   3.994   3.399   4.235  0.1699 -0.7306  0.9237
 8647SOL    HW237404   3.942   3.474   4.339 -2.6709 -0.2519  1.6296
 8648SOL     OW37405   3.125   1.190  12.797 -0.3290  0.4109  0.1440
 8648SOL    HW137406   3.157   1.214  12.710 -0.3989  0.6565  0.1840
 8648SOL    HW237407   3.141   1.270  12.847 -1.0715 -0.7328  2.1682
 8649SOL     OW37408   4.098   3.774   6.636 -0.1333  0.2000  0.2855
 8649SOL    HW137409   4.116   3.790   6.543  0.5217  1.1736  0.5753
 8649SOL    HW237410   4.165   3.713   6.666 -1.3162 -1.5477 -0.6122
 8650SOL     OW37411   0.328   2.901   9.398 -0.4060 -0.3633  0.3162
 8650SOL    HW137412   0.407   2.948   9.424  0.0747 -1.0155  0.0406
 8650SOL    HW237413   0.285   2.949   9.327 -0.6755 -3.4377 -1.5844
 8651SOL     OW37414   3.266   2.181  14.097  0.0257 -0.2233 -0.2596
 8651SOL    HW137415   3.243   2.121  14.168  0.1923  0.2293  0.1818
 8651SOL    HW237416   3.313   2.247  14.147  0.8916 -0.3958 -0.8559
 8652SOL     OW37417   3.407   2.525   2.627 -0.6369 -0.9685  0.2995
 8652SOL    HW137418   3.374   2.547   2.540  2.0384 -1.6831 -0.9069
 8652SOL    HW237419   3.479   2.465   2.605 -0.7777 -1.1459  0.3220
 8653SOL     OW37420   2.873   2.437   5.723  0.1265 -0.5220  0.0009
 8653SOL    HW137421   2.954   2.440   5.774  0.3409 -0.4191 -0.3456
 8653SOL    HW237422   2.821   2.376   5.776 -0.6153  0.8596  0.8860
 8654SOL     OW37423   4.699   4.636   5.755  0.6962 -0.4879 -0.2721
 8654SOL    HW137424   4.633   4.621   5.688 -0.9025 -0.3662  1.2835
 8654SOL    HW237425   0.045   4.570   5.744  0.3769 -1.0515  0.9802
 8655SOL     OW37426   4.713   0.533   4.098 -0.2793 -0.4020  0.2728
 8655SOL    HW137427   0.013   0.468   4.033 -1.5515 -0.2060 -0.3791
 8655SOL    HW237428   0.078   0.565   4.114 -1.1594  1.2124  1.9330
 8656SOL     OW37429   3.057   3.639   4.872  0.2284  0.7572  0.0433
 8656SOL    HW137430   3.085   3.582   4.944 -0.6626 -0.5408 -0.6356
 8656SOL    HW237431   3.032   3.717   4.923 -0.1058  0.5574  0.1901
 8657SOL     OW37432   2.692   1.840   2.151  0.0427  0.4771 -0.0957
 8657SOL    HW137433   2.753   1.779   2.110 -0.2109 -1.2144  2.0556
 8657SOL    HW237434   2.646   1.870   2.072  0.4491  5.1209  1.4354
 8658SOL     OW37435   3.685   0.553   0.524 -0.5627  0.6203  0.0053
 8658SOL    HW137436   3.613   0.490   0.530  0.0487 -0.2986 -2.1410
 8658SOL    HW237437   3.670   0.601   0.442  1.3614  0.4518 -0.4450
 8659SOL     OW37438   1.850   2.179   0.088 -0.0565  0.9047 -0.2918
 8659SOL    HW137439   1.834   2.087   0.065 -3.5291  0.9935  1.7543
 8659SOL    HW237440   1.904   2.211   0.016 -1.4774  0.8880 -1.3663
 8660SOL     OW37441   0.650   1.354   2.210 -0.3568  0.1927  0.2157
 8660SOL    HW137442   0.606   1.435   2.236  0.3675  0.5747  0.2680
 8660SOL    HW237443   0.675   1.307   2.290 -1.4202  1.5640  1.3482
 8661SOL     OW37444   1.564   0.786   5.951 -0.1837 -0.2329 -0.2908
 8661SOL    HW137445   1.523   0.872   5.961 -0.0600 -0.0315 -1.6357
 8661SOL    HW237446   1.633   0.789   6.018  0.6198  0.0240 -1.1351
 8662SOL     OW37447   4.655   0.331   5.143  0.0064 -0.1440 -0.0014
 8662SOL    HW137448   0.014   0.326   5.191  0.7247  2.4072 -0.9444
 8662SOL    HW237449   4.593   0.276   5.190  0.2646 -0.5355 -0.1200
 8663SOL     OW37450   0.528   2.543   9.126  0.2467  0.0386  0.4661
 8663SOL    HW137451   0.615   2.506   9.144  0.7163  0.4964 -0.9123
 8663SOL    HW237452   0.506   2.604   9.197  0.6113  0.1274  0.5033
 8664SOL     OW37453   1.310   2.286  12.244  0.2330 -0.6722 -0.0837
 8664SOL    HW137454   1.230   2.322  12.283  0.6301 -0.4053  0.4665
 8664SOL    HW237455   1.272   2.205  12.208 -0.0564 -0.9083  0.7685
 8665SOL     OW37456   2.851   1.366   6.646  0.0771  0.0826  0.1961
 8665SOL    HW137457   2.872   1.397   6.558  1.3961 -0.1423  0.4348
 8665SOL    HW237458   2.820   1.278   6.623  0.4309  0.0504 -0.1585
 8666SOL     OW37459   2.205   1.886   5.917  0.0798  0.8403  0.1765
 8666SOL    HW137460   2.284   1.871   5.865 -0.0174 -0.4146  0.3968
 8666SOL    HW237461   2.159   1.803   5.922  0.2745  0.7023 -0.2644
 8667SOL     OW37462   2.718   0.825   3.450 -0.7641  0.2579 -0.4777
 8667SOL    HW137463   2.697   0.782   3.367  0.9409  2.7016 -2.2045
 8667SOL    HW237464   2.677   0.764   3.510  0.0469  0.6738  0.4993
 8668SOL     OW37465   3.581   1.935  14.245 -0.5717 -0.3316  0.0537
 8668SOL    HW137466   3.545   2.014  14.284 -0.7212 -1.0868  1.4494
 8668SOL    HW237467   3.506   1.877  14.236  0.6068 -1.2954 -3.4613
 8669SOL     OW37468   3.444   1.491   1.852  0.3946  0.3342  0.0835
 8669SOL    HW137469   3.495   1.547   1.910 -1.1324  1.1898  0.5937
 8669SOL    HW237470   3.357   1.520   1.878  0.8753  1.6926  0.1658
 8670SOL     OW37471   2.080   2.543  10.050 -0.6617  0.4163  0.2182
 8670SOL    HW137472   2.033   2.479   9.996 -1.2808  0.4329  0.7441
 8670SOL    HW237473   2.141   2.486  10.098  0.6037  3.1261  1.8442
 8671SOL     OW37474   1.394   4.694   5.823  0.2205 -0.3222 -0.0625
 8671SOL    HW137475   1.399   4.720   5.731 -0.2153 -2.7686 -0.7727
 8671SOL    HW237476   1.448   0.040   5.862  0.0855 -0.5237  0.4791
 8672SOL     OW37477   4.714   0.817   4.205  0.6183 -0.3023  0.6482
 8672SOL    HW137478   0.039   0.734   4.197 -0.9792 -1.0648 -1.0780
 8672SOL    HW237479   4.682   0.816   4.295 -2.0090  0.6372 -0.2730
 8673SOL     OW37480   0.401   3.978   4.563  0.1843 -0.2700  0.3915
 8673SOL    HW137481   0.493   3.990   4.589  0.8327 -1.2549 -1.4789
 8673SOL    HW237482   0.387   3.885   4.584  2.1120 -0.8393 -0.8610
 8674SOL     OW37483   3.214   0.208   2.555  0.4134 -0.2231 -0.6740
 8674SOL    HW137484   3.120   0.221   2.568  1.0634  1.6997  2.0937
 8674SOL    HW237485   3.246   0.157   2.630  1.3944  1.8795  0.3214
 8675SOL     OW37486   3.764   3.954   1.871 -0.3435  0.1962  0.3008
 8675SOL    HW137487   3.822   3.882   1.848 -3.2211 -1.9800 -0.0283
 8675SOL    HW237488   3.824   4.019   1.908 -0.5552  0.8151 -0.4432
 8676SOL     OW37489   0.440   1.004   8.034  0.1090  0.2672 -0.2827
 8676SOL    HW137490   0.425   1.083   8.087  1.9801 -1.4587  2.8037
 8676SOL    HW237491   0.394   0.935   8.082 -1.1511  1.1678 -0.1740
 8677SOL     OW37492   1.782   2.495  13.667  0.2826 -0.1233  0.2861
 8677SOL    HW137493   1.753   2.584  13.686  3.3760  0.3040  2.8053
 8677SOL    HW237494   1.800   2.467  13.756 -2.2986  0.8957  1.1260
 8678SOL     OW37495   1.134   4.126   2.663  0.3636  0.1861 -0.4589
 8678SOL    HW137496   1.061   4.079   2.624 -0.5393  1.9703 -0.8732
 8678SOL    HW237497   1.184   4.140   2.582  0.2818 -0.7359 -0.6740
 8679SOL     OW37498   1.827   1.166   6.937 -0.3076 -0.2584 -0.3972
 8679SOL    HW137499   1.921   1.183   6.926 -0.3535 -0.8472 -1.6292
 8679SOL    HW237500   1.809   1.150   6.844  0.6404  2.6207 -1.0816
 8680SOL     OW37501   1.236   2.892   4.682  0.3758 -0.5536  0.2888
 8680SOL    HW137502   1.268   2.877   4.594  3.1605 -1.3991  1.4412
 8680SOL    HW237503   1.146   2.908   4.654  0.0592  1.4331  2.4165
 8681SOL     OW37504   2.222   2.293   7.708 -0.3507  0.1477 -0.0915
 8681SOL    HW137505   2.297   2.340   7.671 -0.7205  0.3790 -0.5426
 8681SOL    HW237506   2.171   2.358   7.755 -1.7968 -0.1330 -1.2804
 8682SOL     OW37507   2.659   2.697   1.584  0.3768  0.0863  0.8769
 8682SOL    HW137508   2.669   2.791   1.596  1.0065  0.1625 -0.2054
 8682SOL    HW237509   2.746   2.669   1.557  0.0503 -0.5841  0.4789
 8683SOL     OW37510   4.028   3.661  13.440 -0.3039 -0.7055  0.0488
 8683SOL    HW137511   4.064   3.573  13.450  0.8207 -0.3635 -1.1086
 8683SOL    HW237512   4.070   3.706  13.367 -1.5938 -1.6496 -1.2607
 8684SOL     OW37513   3.501   2.950   3.702 -0.1032 -0.4139  0.4701
 8684SOL    HW137514   3.416   2.944   3.659  0.0372 -0.9279  0.2687
 8684SOL    HW237515   3.492   3.040   3.732 -1.2022 -0.2111 -0.4773
 8685SOL     OW37516   1.301   3.029   2.813 -0.3804  0.5678 -0.3311
 8685SOL    HW137517   1.263   3.019   2.726 -0.6768 -0.2384 -0.1140
 8685SOL    HW237518   1.369   2.962   2.807 -0.7237  0.1306  0.5718
 8686SOL     OW37519   0.696   2.437  17.207 -0.2654 -0.0047 -0.1505
 8686SOL    HW137520   0.738   2.513  17.246  1.9387 -1.6410  0.7143
 8686SOL    HW237521   0.674   2.379  17.280 -0.7281 -1.1909 -1.2275
 8687SOL     OW37522   3.948   1.767   3.575  0.0428  0.8349  0.1865
 8687SOL    HW137523   3.870   1.822   3.563  0.4594  1.4684  0.3907
 8687SOL    HW237524   4.013   1.830   3.543  0.3978 -0.3628 -1.3766
 8688SOL     OW37525   0.053   0.231   6.321  0.0294  0.1067 -0.4002
 8688SOL    HW137526   0.134   0.207   6.366  0.1039  1.1998  0.0620
 8688SOL    HW237527   0.018   0.143   6.308  0.1724  0.0764 -0.5805
 8689SOL     OW37528   4.161   4.671   5.218 -0.2437  0.1383 -0.0294
 8689SOL    HW137529   4.220   4.636   5.151  0.2503 -0.6338  0.8178
 8689SOL    HW237530   4.113   0.018   5.174 -1.0738 -0.1335  0.4480
 8690SOL     OW37531   2.452   1.007   8.935  0.2352 -0.0079  0.0280
 8690SOL    HW137532   2.379   1.043   8.885 -0.4070 -1.1456  0.1455
 8690SOL    HW237533   2.413   0.934   8.983  1.0184 -0.6165 -0.2540
 8691SOL     OW37534   4.562   3.793  10.684 -0.3112  0.1802  0.2750
 8691SOL    HW137535   4.548   3.703  10.655 -0.7960  1.4903 -3.6278
 8691SOL    HW237536   4.513   3.798  10.766  1.4244  2.3580  1.1764
 8692SOL     OW37537   3.122   2.475  17.550 -0.1686 -0.9558  0.4185
 8692SOL    HW137538   3.124   2.559  17.505 -2.1161 -0.3483  1.5141
 8692SOL    HW237539   3.032   2.486  17.580  0.6671 -0.3149  2.7015
 8693SOL     OW37540   2.412   1.209  11.705 -0.1923 -0.2941  0.2431
 8693SOL    HW137541   2.500   1.195  11.741  0.6636  0.7484 -1.4193
 8693SOL    HW237542   2.393   1.293  11.746 -2.7162  0.2187 -1.9347
 8694SOL     OW37543   2.106   1.619   5.861 -0.5807  0.1567 -0.1270
 8694SOL    HW137544   2.076   1.569   5.937  0.2295 -1.4733 -0.8674
 8694SOL    HW237545   2.021   1.628   5.818 -0.1187 -0.2791 -1.1433
 8695SOL     OW37546   1.095   3.985   7.898 -0.5324 -0.0227  0.7640
 8695SOL    HW137547   1.181   3.956   7.869 -1.6566 -2.6614  0.0668
 8695SOL    HW237548   1.074   3.897   7.931 -0.8432 -0.5948 -0.9161
 8696SOL     OW37549   2.736   1.798   2.810  0.7124  0.0897  0.2278
 8696SOL    HW137550   2.714   1.868   2.748 -0.5787  1.5303  2.2971
 8696SOL    HW237551   2.648   1.765   2.829 -0.1210  1.5800 -1.1283
 8697SOL     OW37552   0.929   0.449   7.030 -0.4394 -0.0974  0.2543
 8697SOL    HW137553   0.988   0.508   6.983 -2.6512  2.1956  0.3828
 8697SOL    HW237554   0.978   0.411   7.103 -0.3836 -1.6918 -0.6138
 8698SOL     OW37555   1.886   3.205   3.236  0.2348  0.4185  0.3093
 8698SOL    HW137556   1.803   3.216   3.283  1.1881 -0.9732  2.3411
 8698SOL    HW237557   1.852   3.140   3.175  1.6717 -0.8620  0.8770
 8699SOL     OW37558   2.418   1.971   1.061 -0.1198 -0.7462  0.1440
 8699SOL    HW137559   2.340   1.949   1.112 -1.8942  1.2202 -1.7220
 8699SOL    HW237560   2.420   1.897   1.000 -1.8332 -2.3509  2.0036
 8700SOL     OW37561   3.098   0.448   7.114 -0.0525 -0.1577  0.9159
 8700SOL    HW137562   3.108   0.358   7.085 -1.3404  0.1683 -0.5955
 8700SOL    HW237563   3.091   0.442   7.209  0.5296 -0.7102  0.9203
 8701SOL     OW37564   2.769   3.270   6.641  0.6347  0.1088 -0.1078
 8701SOL    HW137565   2.702   3.337   6.649  0.0445 -0.4941 -0.0443
 8701SOL    HW237566   2.757   3.211   6.715  1.5170  0.0105 -0.0436
 8702SOL     OW37567   4.639   0.694   1.717  0.3333 -0.3173 -1.0595
 8702SOL    HW137568   4.709   0.689   1.783 -0.0009 -1.6215 -0.8122
 8702SOL    HW237569   4.568   0.660   1.771 -0.0626  1.0721 -0.7112
 8703SOL     OW37570   1.484   4.197   4.256 -0.1861 -0.1165 -0.1279
 8703SOL    HW137571   1.574   4.165   4.266  0.4079  1.6240 -0.0073
 8703SOL    HW237572   1.440   4.163   4.334 -1.0662  3.0519  0.7510
 8704SOL     OW37573   0.057   4.074  14.919  0.0886 -0.0347 -0.3521
 8704SOL    HW137574   0.078   4.167  14.933  0.9677 -0.4120  0.8311
 8704SOL    HW237575   4.703   4.075  14.862  0.1995 -0.5135 -0.5074
 8705SOL     OW37576   3.192   2.352   8.606  0.2816  0.3336  0.2028
 8705SOL    HW137577   3.198   2.256   8.606  1.5743  0.4104  4.1738
 8705SOL    HW237578   3.244   2.375   8.683  1.9319 -0.9984 -0.5231
 8706SOL     OW37579   2.729   1.395  15.219  0.3869 -0.0816 -0.6372
 8706SOL    HW137580   2.754   1.386  15.311 -3.0111  0.7542  0.3791
 8706SOL    HW237581   2.686   1.480  15.210 -1.6665 -0.9717  0.7164
 8707SOL     OW37582   1.755   0.128   5.757 -0.1539  0.0870 -0.2639
 8707SOL    HW137583   1.804   0.208   5.777 -0.3869  0.6451 -1.9053
 8707SOL    HW237584   1.666   0.157   5.775 -0.2716 -1.0119  0.8915
 8708SOL     OW37585   1.212   0.005   1.597  0.9230  0.2668 -0.1173
 8708SOL    HW137586   1.224   4.645   1.644 -3.3293  0.3654  1.2047
 8708SOL    HW237587   1.177   4.694   1.515  1.4288 -2.5111  0.8228
 8709SOL     OW37588   1.832   2.729  15.195  0.0323  0.9151  0.3804
 8709SOL    HW137589   1.860   2.637  15.191 -0.7655  0.7360 -0.8774
 8709SOL    HW237590   1.903   2.768  15.246 -0.2120 -0.5646  1.8429
 8710SOL     OW37591   1.812   1.142   0.745 -0.0279  0.1871 -0.0361
 8710SOL    HW137592   1.717   1.134   0.739  0.0668  0.7340 -2.6580
 8710SOL    HW237593   1.837   1.052   0.766 -1.9524 -0.1499  0.8280
 8711SOL     OW37594   3.610   4.669   4.852 -0.1746 -0.3433 -0.1437
 8711SOL    HW137595   3.673   4.723   4.804 -1.6872  1.1683 -0.4388
 8711SOL    HW237596   3.664   4.613   4.908 -1.9502 -1.0909  0.8186
 8712SOL     OW37597   2.674   0.335   4.044 -0.4083  0.2665 -0.6788
 8712SOL    HW137598   2.653   0.244   4.064 -2.0720  0.9826  0.8218
 8712SOL    HW237599   2.770   0.329   4.048 -0.3929  0.5988 -0.4980
 8713SOL     OW37600   1.647   0.515   8.664  0.2472  0.0347  0.6802
 8713SOL    HW137601   1.639   0.484   8.754  0.0181 -3.1921 -0.4342
 8713SOL    HW237602   1.741   0.532   8.660  0.1008  0.7294  0.1737
 8714SOL     OW37603   0.950   1.267   7.449  0.0238  0.3480  0.2255
 8714SOL    HW137604   0.922   1.191   7.500  2.2772 -1.1069 -0.7151
 8714SOL    HW237605   1.044   1.262   7.465 -0.2556  0.8119  2.0687
 8715SOL     OW37606   2.064   4.482  16.129 -0.1469 -0.4455 -0.4366
 8715SOL    HW137607   2.109   4.476  16.045 -1.1017 -1.6579 -0.8567
 8715SOL    HW237608   2.137   4.517  16.179  0.5414 -0.1063 -1.6746
 8716SOL     OW37609   0.937   3.065   7.093 -0.4094  0.0138 -0.3662
 8716SOL    HW137610   0.930   2.969   7.098  1.1721 -0.0836  0.0538
 8716SOL    HW237611   0.851   3.098   7.069  0.1599  0.3316 -2.0008
 8717SOL     OW37612   2.792   2.397   7.421  0.4162 -0.4858 -0.0622
 8717SOL    HW137613   2.761   2.344   7.347 -1.5310  1.5962 -0.7182
 8717SOL    HW237614   2.850   2.333   7.463  1.1878 -0.1193 -0.5555
 8718SOL     OW37615   0.657   3.973   4.662 -0.1291  0.1646  0.3728
 8718SOL    HW137616   0.727   3.914   4.633 -0.2002  0.0424  0.4509
 8718SOL    HW237617   0.618   3.933   4.740  1.9305  1.1673  1.9236
 8719SOL     OW37618   0.482   2.328   3.701  0.4830 -0.2362  0.7759
 8719SOL    HW137619   0.387   2.335   3.709  0.4712  1.3122 -0.9874
 8719SOL    HW237620   0.496   2.403   3.644  0.2572 -1.1198 -0.4501
 8720SOL     OW37621   0.848   4.327   9.648 -0.6103  0.1985 -0.0468
 8720SOL    HW137622   0.926   4.299   9.697 -0.2040  2.6173  0.6706
 8720SOL    HW237623   0.817   4.401   9.700 -0.4531  0.3829 -0.2177
 8721SOL     OW37624   0.250   3.908   7.769 -0.7119  0.2890  0.3541
 8721SOL    HW137625   0.321   3.845   7.758 -0.0322  0.9365  1.0197
 8721SOL    HW237626   0.294   3.988   7.797 -0.2769 -0.9101  3.0881
 8722SOL     OW37627   1.074   2.460   5.607 -1.3986 -0.0516  0.9491
 8722SOL    HW137628   1.052   2.553   5.598 -1.1716  0.2712  3.7342
 8722SOL    HW237629   0.996   2.427   5.563 -0.7653  1.0417 -0.9953
 8723SOL     OW37630   1.547   1.792   4.656 -0.3419 -0.2420 -0.1062
 8723SOL    HW137631   1.580   1.844   4.583  0.3710 -1.4244 -0.6160
 8723SOL    HW237632   1.600   1.713   4.652 -0.8745 -0.7223  2.3893
 8724SOL     OW37633   2.361   2.811  10.428  0.5795  0.4357 -0.1513
 8724SOL    HW137634   2.385   2.870  10.356 -1.5828  0.3143 -0.9661
 8724SOL    HW237635   2.448   2.803  10.468  0.4113  4.2347  1.0258
 8725SOL     OW37636   4.301   2.407   8.412 -0.4851 -0.6709 -0.2375
 8725SOL    HW137637   4.383   2.454   8.395 -1.1340 -0.0179 -1.5971
 8725SOL    HW237638   4.272   2.394   8.322  0.9400 -0.5694 -0.7177
 8726SOL     OW37639   2.634   4.353   8.226 -0.5321 -0.0070 -0.0789
 8726SOL    HW137640   2.689   4.282   8.193 -1.4771 -0.5163 -0.5543
 8726SOL    HW237641   2.680   4.363   8.309 -0.9563  0.0522  0.1529
 8727SOL     OW37642   2.121   0.313  13.959  0.0425  0.3928 -0.3378
 8727SOL    HW137643   2.184   0.318  14.030 -0.0920  0.1176 -0.1979
 8727SOL    HW237644   2.048   0.263  13.996 -0.8420  0.1011 -2.4414
 8728SOL     OW37645   4.144   3.693   6.099  0.1018 -0.0752  0.5310
 8728SOL    HW137646   4.175   3.737   6.020  0.9031 -1.9544 -0.1833
 8728SOL    HW237647   4.142   3.599   6.085  1.1367 -0.2794  1.6988
 8729SOL     OW37648   0.153   1.589   0.680 -0.2295 -0.2977 -0.0571
 8729SOL    HW137649   0.195   1.534   0.614 -1.1632 -1.0069 -0.0664
 8729SOL    HW237650   0.081   1.536   0.717 -1.1095  1.7275  1.1274
 8730SOL     OW37651   4.060   0.120  11.385 -0.2451  0.4635  0.5395
 8730SOL    HW137652   4.004   0.194  11.408 -1.1589  0.0863 -0.4351
 8730SOL    HW237653   4.097   0.081  11.464  0.8507 -0.0020 -0.2105
 8731SOL     OW37654   1.137   4.552   1.410  0.5401  0.1510 -0.4796
 8731SOL    HW137655   1.084   4.540   1.330 -0.7433  0.7912  0.2740
 8731SOL    HW237656   1.164   4.463   1.434 -0.1821 -0.2631 -1.2092
 8732SOL     OW37657   2.363   2.823   3.801 -0.0809  0.2460  0.0319
 8732SOL    HW137658   2.304   2.816   3.726  1.1221 -2.4868 -0.6956
 8732SOL    HW237659   2.396   2.912   3.790  1.0671 -0.1521  0.2027
 8733SOL     OW37660   1.318   3.909   4.319 -0.4075  0.3484  0.2505
 8733SOL    HW137661   1.271   3.989   4.297 -0.1224 -0.0488 -1.8294
 8733SOL    HW237662   1.346   3.863   4.240  2.0839  2.0041  0.1531
 8734SOL     OW37663   1.887   4.642   5.004 -0.0708 -0.0539  0.1494
 8734SOL    HW137664   1.918   4.666   5.091 -0.5388  0.4234  0.1797
 8734SOL    HW237665   1.848   4.723   4.972 -0.1730 -0.1005  0.1571
 8735SOL     OW37666   3.557   4.034   4.425  0.0716  0.1709 -0.3590
 8735SOL    HW137667   3.463   4.045   4.414 -0.0540 -0.1445  0.3926
 8735SOL    HW237668   3.565   3.939   4.419 -1.0514  0.1152 -0.9151
 8736SOL     OW37669   1.286   0.645   5.060  0.0435  0.7035  0.1317
 8736SOL    HW137670   1.260   0.576   4.999  0.2605  0.4788  0.2893
 8736SOL    HW237671   1.260   0.600   5.140  1.1390 -0.6875 -0.2756
 8737SOL     OW37672   1.880   0.085   4.401  0.0544  0.0679 -0.4600
 8737SOL    HW137673   1.805   0.026   4.408 -0.2847  0.7153  1.2674
 8737SOL    HW237674   1.863   0.132   4.319  1.0605  1.8450  0.3459
 8738SOL     OW37675   1.538   4.208  12.292  0.1283 -0.4187  0.2502
 8738SOL    HW137676   1.477   4.280  12.309  0.5942  0.8892 -3.8086
 8738SOL    HW237677   1.617   4.259  12.276  0.2218 -1.2400 -1.7739
 8739SOL     OW37678   2.339   1.177   1.032 -0.0186 -0.1840  0.4208
 8739SOL    HW137679   2.360   1.115   1.102 -0.6844  0.7119  1.4072
 8739SOL    HW237680   2.273   1.127   0.983  2.4758 -1.7675 -1.3665
 8740SOL     OW37681   2.108   0.364   0.596 -0.9086  0.6109 -0.5934
 8740SOL    HW137682   2.163   0.334   0.525 -0.5021 -3.8646  1.5494
 8740SOL    HW237683   2.076   0.451   0.573  1.8747  1.6134 -0.6726
 8741SOL     OW37684   4.716   3.134  15.599 -0.1783 -0.4668  0.5031
 8741SOL    HW137685   4.684   3.224  15.606  1.8523  0.3547 -0.6900
 8741SOL    HW237686   4.634   3.099  15.633 -0.5172 -1.1758 -1.0235
 8742SOL     OW37687   1.102   0.969   6.923 -0.2389  0.3303  0.1233
 8742SOL    HW137688   1.055   0.995   6.843 -2.6440 -0.9090  1.1311
 8742SOL    HW237689   1.086   1.049   6.972  1.1438 -0.7586  2.3274
 8743SOL     OW37690   0.667   4.485   4.063  0.7088 -0.3911 -0.2612
 8743SOL    HW137691   0.714   4.408   4.031  1.7214  0.5713 -1.0839
 8743SOL    HW237692   0.601   4.494   3.995 -0.1259  2.1558  0.9129
 8744SOL     OW37693   3.608   4.267   2.340  0.6648  0.3295  0.2987
 8744SOL    HW137694   3.695   4.239   2.311  1.3107  2.0642  0.5450
 8744SOL    HW237695   3.574   4.326   2.273  1.2245 -0.4517 -0.6791
 8745SOL     OW37696   1.195   2.823   0.622 -0.2936 -0.1864  0.0952
 8745SOL    HW137697   1.101   2.803   0.622 -0.6365  1.5170 -3.0593
 8745SOL    HW237698   1.198   2.891   0.689 -0.7472 -1.3087  1.2631
 8746SOL     OW37699   2.750   1.713   3.089  0.2505  0.0379 -0.1779
 8746SOL    HW137700   2.803   1.779   3.044 -0.2782  0.4664 -0.1867
 8746SOL    HW237701   2.669   1.731   3.041 -0.2372 -0.8391  0.3138
 8747SOL     OW37702   3.711   0.786  15.826 -0.2011  0.5088  0.1000
 8747SOL    HW137703   3.682   0.836  15.749  0.2203  2.5179  1.2447
 8747SOL    HW237704   3.636   0.807  15.881 -0.7022 -0.4777 -0.2087
 8748SOL     OW37705   1.384   2.923   8.520 -0.0941  0.2194 -0.1126
 8748SOL    HW137706   1.399   2.933   8.426  0.1337 -0.7040 -0.1658
 8748SOL    HW237707   1.305   2.976   8.531 -0.1148  0.3503 -0.8916
 8749SOL     OW37708   3.302   1.742   6.116  0.5728 -0.5394  0.3499
 8749SOL    HW137709   3.289   1.771   6.026  3.7873 -2.1366 -0.6569
 8749SOL    HW237710   3.394   1.762   6.133  0.6193 -1.1326  0.8261
 8750SOL     OW37711   1.670   3.836  15.776  0.0019  0.0186  0.3271
 8750SOL    HW137712   1.668   3.740  15.771 -1.5983 -0.0776  2.3960
 8750SOL    HW237713   1.745   3.863  15.828 -0.1217  0.4552  0.2753
 8751SOL     OW37714   2.849   3.194   1.021  0.1516  0.0781 -0.6676
 8751SOL    HW137715   2.859   3.099   1.023  0.9757  0.1530 -1.1121
 8751SOL    HW237716   2.942   3.215   1.013  0.1838 -1.4606 -4.4963
 8752SOL     OW37717   1.762   2.999   9.956  0.3950  0.1478 -0.2964
 8752SOL    HW137718   1.769   2.986   9.861  1.1092  0.1396 -0.2413
 8752SOL    HW237719   1.748   2.907   9.978 -1.7814 -0.0862 -2.6202
 8753SOL     OW37720   0.262   3.565  17.563  0.0333 -0.4462 -0.3605
 8753SOL    HW137721   0.351   3.573  17.529  0.2531  1.6061  0.7388
 8753SOL    HW237722   0.225   3.487  17.521 -2.2086  0.4025  0.0561
 8754SOL     OW37723   0.057   4.457  13.924  0.1268  0.2644  0.0791
 8754SOL    HW137724   0.032   4.380  13.872  3.3702 -0.5968 -0.1841
 8754SOL    HW237725   0.097   4.518  13.862 -0.6238  0.4765 -0.1957
 8755SOL     OW37726   2.736   4.088  17.461 -0.2169  0.1859 -0.3228
 8755SOL    HW137727   2.694   4.116  17.542  0.7966 -0.4045  0.4110
 8755SOL    HW237728   2.820   4.057  17.494  0.7243 -0.3406 -3.2513
 8756SOL     OW37729   1.896   3.874  15.916 -0.4962  0.2279 -0.1716
 8756SOL    HW137730   1.891   3.837  16.004  3.5570  2.7530  1.1335
 8756SOL    HW237731   1.941   3.957  15.936 -1.5936  1.0188 -0.9864
 8757SOL     OW37732   0.074   2.717   6.898  0.5955 -0.7049  0.5968
 8757SOL    HW137733   4.711   2.736   6.937 -0.2461 -0.5009 -1.3780
 8757SOL    HW237734   0.058   2.630   6.862 -0.0173 -0.9542  1.4758
 8758SOL     OW37735   0.793   2.679   0.666  0.0886  0.2111  0.3466
 8758SOL    HW137736   0.702   2.708   0.662  0.9437  2.7591 -0.1890
 8758SOL    HW237737   0.788   2.608   0.731 -2.8023 -1.2805 -1.4672
 8759SOL     OW37738   4.590   4.291   5.828  0.5321 -0.6408  0.4685
 8759SOL    HW137739   4.514   4.316   5.775  0.3920 -1.3941  0.3111
 8759SOL    HW237740   4.656   4.294   5.758 -0.0229  0.2470 -0.0264
 8760SOL     OW37741   3.843   0.679   6.688  0.4496  0.4444  0.0200
 8760SOL    HW137742   3.903   0.609   6.664 -2.5545 -2.4355  0.8202
 8760SOL    HW237743   3.840   0.671   6.784  2.3916 -1.6112 -0.0939
 8761SOL     OW37744   3.533   3.981   6.299 -0.1590  0.2742  0.4412
 8761SOL    HW137745   3.573   3.989   6.213 -0.9175  0.0330  0.0640
 8761SOL    HW237746   3.575   3.908   6.344 -1.3115  0.1789  1.3473
 8762SOL     OW37747   1.652   3.666   2.251  0.3511  0.0640  0.0712
 8762SOL    HW137748   1.705   3.691   2.175  0.5703  0.3548  0.3174
 8762SOL    HW237749   1.569   3.635   2.216  0.7177 -0.5767 -0.2249
 8763SOL     OW37750   2.459   0.978   7.205  0.1917  0.3061  0.4844
 8763SOL    HW137751   2.535   0.976   7.263  2.1267  3.0407 -1.9755
 8763SOL    HW237752   2.454   0.883   7.191  0.9424  0.2568  0.5211
 8764SOL     OW37753   3.385   3.914   4.970  0.3433 -0.1299 -0.2425
 8764SOL    HW137754   3.429   3.830   4.983  0.4662 -0.1732 -0.9471
 8764SOL    HW237755   3.341   3.928   5.054  0.1000  2.5673 -0.8229
 8765SOL     OW37756   0.876   1.863  15.954 -0.1654  0.1232  0.3184
 8765SOL    HW137757   0.902   1.852  16.045 -2.2995 -1.5336  0.7443
 8765SOL    HW237758   0.814   1.935  15.954  0.2372  0.4650  0.0338
 8766SOL     OW37759   2.949   2.498   8.035  0.2457  0.0628 -0.3906
 8766SOL    HW137760   2.921   2.418   8.079  1.4999  0.4395  1.0945
 8766SOL    HW237761   2.868   2.546   8.025 -0.7060 -1.2150  1.0681
 8767SOL     OW37762   2.470   4.172   5.196 -0.3388 -0.3958 -0.1127
 8767SOL    HW137763   2.515   4.253   5.173  0.6686  0.5251  5.0640
 8767SOL    HW237764   2.541   4.108   5.188 -0.6508 -0.8834  1.0848
 8768SOL     OW37765   0.929   4.358   4.887  0.4153 -0.1903  0.4785
 8768SOL    HW137766   0.880   4.371   4.968 -0.8168  3.4515 -0.8773
 8768SOL    HW237767   0.873   4.293   4.844 -0.1829  1.2058 -0.8050
 8769SOL     OW37768   0.998   3.296   6.536 -0.1592 -0.1487 -0.3069
 8769SOL    HW137769   1.056   3.368   6.561  0.4338 -0.4661 -0.7685
 8769SOL    HW237770   1.021   3.236   6.607 -0.5020 -0.2629 -0.2917
 8770SOL     OW37771   3.138   1.367   2.182 -0.1635  0.3140 -0.1699
 8770SOL    HW137772   3.056   1.374   2.231 -0.0348 -1.1075  0.2481
 8770SOL    HW237773   3.140   1.275   2.156 -1.9627 -0.6990  3.1639
 8771SOL     OW37774   3.099   0.974   0.917  0.9073 -0.0414 -0.0753
 8771SOL    HW137775   3.133   0.887   0.896  1.1137 -0.0325  0.2218
 8771SOL    HW237776   3.095   1.000   0.825  0.9418 -1.2619 -0.4202
 8772SOL     OW37777   0.467   1.028   0.295  0.9501 -0.0155  0.3758
 8772SOL    HW137778   0.434   1.064   0.213  1.8606 -1.9282 -0.8196
 8772SOL    HW237779   0.388   1.013   0.346 -0.5705  2.3809 -1.2806
 8773SOL     OW37780   2.625   0.082   5.013  0.5693 -0.2985 -0.5134
 8773SOL    HW137781   2.580   0.037   4.942  0.8802 -0.6865 -0.4602
 8773SOL    HW237782   2.681   0.140   4.961 -0.5595  1.5676  0.3297
 8774SOL     OW37783   2.502   1.521   5.494 -0.3271  0.3418 -0.2965
 8774SOL    HW137784   2.423   1.573   5.505  0.6774  1.1164  3.4651
 8774SOL    HW237785   2.523   1.507   5.587  1.4665  0.9434 -0.6103
 8775SOL     OW37786   2.582   0.299  11.459 -0.7600 -0.4493 -0.6702
 8775SOL    HW137787   2.543   0.213  11.443 -0.3734 -0.8370  0.4361
 8775SOL    HW237788   2.677   0.295  11.455 -0.5189  2.1021  2.2080
 8776SOL     OW37789   0.681   2.063   5.603  0.0093  0.2841 -0.1033
 8776SOL    HW137790   0.587   2.052   5.613  0.0078 -0.8201 -1.3119
 8776SOL    HW237791   0.702   2.147   5.643 -0.8163  0.8788 -0.9337
 8777SOL     OW37792   4.078   4.255   2.977  0.0146 -0.4570  0.3670
 8777SOL    HW137793   4.015   4.184   2.991 -0.2730  0.0487  1.6398
 8777SOL    HW237794   4.111   4.241   2.888  1.7312 -0.5690  1.0326
 8778SOL     OW37795   3.006   2.804  12.569 -0.4702 -0.4147  0.1459
 8778SOL    HW137796   2.955   2.863  12.624 -2.1527 -1.7104 -0.0087
 8778SOL    HW237797   3.091   2.810  12.612 -0.9488  1.1596  0.8510
 8779SOL     OW37798   3.560   0.707   8.895 -0.8975 -1.3881  0.2400
 8779SOL    HW137799   3.653   0.729   8.907 -0.5861 -0.9864 -3.0486
 8779SOL    HW237800   3.545   0.645   8.967  0.9656 -1.3327  0.6761
 8780SOL     OW37801   0.311   0.075  13.274  0.1379  0.3957  0.4176
 8780SOL    HW137802   0.247   0.145  13.289 -1.2891 -1.0596  1.1960
 8780SOL    HW237803   0.380   0.116  13.223 -1.4501  0.8335 -1.3666
 8781SOL     OW37804   1.040   3.816   4.330  0.1208 -0.1837 -0.2884
 8781SOL    HW137805   1.127   3.855   4.313  0.9152 -2.7657 -2.0840
 8781SOL    HW237806   0.980   3.873   4.282 -0.6295 -0.8129 -0.0916
 8782SOL     OW37807   3.625   2.087   6.629 -0.0229  0.4524 -0.5118
 8782SOL    HW137808   3.577   2.146   6.571 -2.0215  0.4600  1.1257
 8782SOL    HW237809   3.665   2.152   6.686  1.9519 -1.7956  0.6406
 8783SOL     OW37810   0.843   1.559   2.360 -0.7125  0.0553 -0.1030
 8783SOL    HW137811   0.831   1.606   2.442 -1.1721 -0.1876 -0.0325
 8783SOL    HW237812   0.754   1.569   2.327 -0.5722 -2.0726 -1.1138
 8784SOL     OW37813   2.624   1.622   1.665  0.1250 -0.6467 -0.2433
 8784SOL    HW137814   2.530   1.602   1.662 -0.1008  0.0108  2.0601
 8784SOL    HW237815   2.663   1.540   1.695  0.6962  0.4470  1.9988
 8785SOL     OW37816   2.015   1.930   7.262  0.2735 -0.2542 -0.1373
 8785SOL    HW137817   2.110   1.935   7.246 -0.0209 -0.5661 -1.9999
 8785SOL    HW237818   2.000   2.024   7.265 -0.2639 -0.3539  0.3141
 8786SOL     OW37819   0.407   0.628   2.509 -0.9850 -0.1400  0.0579
 8786SOL    HW137820   0.407   0.720   2.534  0.6153  0.1149 -0.8503
 8786SOL    HW237821   0.447   0.635   2.422  0.0272 -0.4391  0.4936
 8787SOL     OW37822   3.690   3.553  16.665  0.6775 -0.4634 -0.1300
 8787SOL    HW137823   3.635   3.491  16.616 -1.0618  1.3153 -0.4291
 8787SOL    HW237824   3.756   3.491  16.695 -0.1208 -1.0120  0.5043
 8788SOL     OW37825   4.444   4.704  11.175 -0.4834  0.0224  0.1556
 8788SOL    HW137826   4.484   4.707  11.262 -1.4609 -0.1272  0.6197
 8788SOL    HW237827   4.359   4.668  11.202 -0.6626  0.4523  0.1671
 8789SOL     OW37828   0.849   4.538   8.765 -0.1224 -0.5201  0.1914
 8789SOL    HW137829   0.904   4.461   8.777 -0.8653 -1.2325 -0.9405
 8789SOL    HW237830   0.767   4.517   8.810 -0.2324 -2.0315 -0.7218
 8790SOL     OW37831   3.951   0.860   9.061 -0.0820  0.1862  0.4226
 8790SOL    HW137832   4.025   0.835   9.116 -0.1371 -0.1486  0.3462
 8790SOL    HW237833   3.896   0.896   9.130  0.9029  0.4755  1.0517
 8791SOL     OW37834   0.867   3.005   9.071 -0.5266 -0.5446  0.4298
 8791SOL    HW137835   0.846   3.076   9.011 -0.3274 -0.2120  0.7553
 8791SOL    HW237836   0.952   3.033   9.105 -1.4778  1.4112  1.1840
 8792SOL     OW37837   2.319   2.292   9.177  0.7651  0.2858  0.3856
 8792SOL    HW137838   2.268   2.333   9.107 -0.2218 -0.1989  0.8152
 8792SOL    HW237839   2.273   2.334   9.250 -1.2263 -0.6973 -0.3105
 8793SOL     OW37840   1.475   2.155   1.164 -0.2590  0.0922  0.0974
 8793SOL    HW137841   1.449   2.079   1.217  0.7490 -1.0815 -1.0908
 8793SOL    HW237842   1.397   2.211   1.162 -0.7574 -0.5894  0.2135
 8794SOL     OW37843   0.521   1.924   5.960  0.4528 -0.1229  0.3989
 8794SOL    HW137844   0.502   1.959   6.047  0.1941  2.4737 -0.7085
 8794SOL    HW237845   0.588   1.983   5.923 -0.0264  0.0944 -0.1324
 8795SOL     OW37846   0.928   2.642   4.025  0.7739 -0.0007 -0.6849
 8795SOL    HW137847   0.868   2.711   4.052  2.0101  1.3581 -1.3747
 8795SOL    HW237848   0.927   2.642   3.929 -0.7087  0.1846 -0.6633
 8796SOL     OW37849   1.972   4.446  16.534  0.3954  0.0676  0.6204
 8796SOL    HW137850   2.003   4.515  16.476 -0.9851  0.6695  0.6255
 8796SOL    HW237851   1.908   4.500  16.580 -0.3479 -1.7569  1.7318
 8797SOL     OW37852   0.040   0.183  16.725 -0.6067  0.6133  0.2712
 8797SOL    HW137853   0.029   0.088  16.716  0.4059  0.8062 -2.9306
 8797SOL    HW237854   0.093   0.206  16.649  0.3433 -2.2105  0.0904
 8798SOL     OW37855   3.526   1.987   5.156  0.2942  0.3844  0.3450
 8798SOL    HW137856   3.614   2.025   5.161 -0.0034  1.3215 -1.2679
 8798SOL    HW237857   3.535   1.898   5.190  0.3545  0.7593  1.3131
 8799SOL     OW37858   1.320   1.886   4.168  0.2995 -0.2626  0.0916
 8799SOL    HW137859   1.265   1.871   4.245 -0.8141  0.0769 -0.6441
 8799SOL    HW237860   1.284   1.828   4.102 -0.2890 -1.0869  1.1367
 8800SOL     OW37861   1.176   3.215   2.993 -0.5902 -0.3017 -0.5163
 8800SOL    HW137862   1.193   3.154   2.922 -0.5630  3.0323 -3.3845
 8800SOL    HW237863   1.259   3.262   2.990 -1.8027  1.7651 -2.2986
 8801SOL     OW37864   3.288   3.736   7.734 -0.2273 -0.0001  0.0088
 8801SOL    HW137865   3.283   3.706   7.643  1.9929  0.3152 -0.2127
 8801SOL    HW237866   3.352   3.675   7.770 -0.0192  2.8733  4.4825
 8802SOL     OW37867   3.874   0.978   3.249 -0.0093 -0.3048 -0.3784
 8802SOL    HW137868   3.791   0.994   3.292  0.6308  3.4039 -0.5129
 8802SOL    HW237869   3.909   0.898   3.288 -0.2601 -0.3106 -0.1702
 8803SOL     OW37870   0.560   3.112   4.155 -0.0579  0.0730 -0.1309
 8803SOL    HW137871   0.539   3.078   4.242  3.5675  0.9171  1.0825
 8803SOL    HW237872   0.491   3.179   4.152  1.1462  1.3230  0.2227
 8804SOL     OW37873   2.036   1.205  15.284 -0.1413 -0.2536  0.2185
 8804SOL    HW137874   1.945   1.180  15.265 -0.7345 -0.1946  2.9661
 8804SOL    HW237875   2.019   1.240  15.371  2.1193 -0.6874  0.8183
 8805SOL     OW37876   0.948   1.325   2.479 -0.1146 -0.5356  0.8212
 8805SOL    HW137877   0.862   1.283   2.476 -0.0538 -0.6811  1.1412
 8805SOL    HW237878   0.929   1.410   2.438  0.4947 -1.1104 -0.6439
 8806SOL     OW37879   1.977   2.952   0.225 -0.3725 -0.8401 -0.6410
 8806SOL    HW137880   1.884   2.946   0.250  0.6295 -1.9205  2.8355
 8806SOL    HW237881   2.018   2.902   0.295  3.0927  1.7867 -0.8162
 8807SOL     OW37882   1.439   1.295   3.648  0.1151  0.7273  0.4199
 8807SOL    HW137883   1.478   1.335   3.726  1.2915  0.0988  0.1588
 8807SOL    HW237884   1.448   1.368   3.586 -3.3780 -1.1980 -2.3313
 8808SOL     OW37885   1.369   0.999   7.456 -0.5156  0.6789  0.3270
 8808SOL    HW137886   1.403   1.088   7.463 -1.2770  0.9390  0.7735
 8808SOL    HW237887   1.336   1.001   7.366  2.9339 -2.8824 -0.9875
 8809SOL     OW37888   3.716   3.987  11.284 -0.2684 -0.1318 -0.5248
 8809SOL    HW137889   3.680   3.986  11.372  0.6189 -1.4730 -0.1808
 8809SOL    HW237890   3.809   3.985  11.303 -0.1850  1.6090 -0.6906
 8810SOL     OW37891   4.586   1.776   6.236  0.2700  0.3650  0.1478
 8810SOL    HW137892   4.493   1.784   6.214  1.0928  0.5182 -3.2558
 8810SOL    HW237893   4.595   1.695   6.285  0.6474  0.7219  0.6661
 8811SOL     OW37894   0.466   1.889   0.514 -0.1689  0.3245 -0.0364
 8811SOL    HW137895   0.476   1.863   0.605  0.2025 -1.6880 -0.6497
 8811SOL    HW237896   0.371   1.903   0.513 -0.3192 -0.7756 -2.1347
 8812SOL     OW37897   3.946   3.520   7.038  0.2262  0.2517 -0.1469
 8812SOL    HW137898   3.888   3.445   7.051 -0.5042  0.8076 -0.1442
 8812SOL    HW237899   3.894   3.590   6.997  1.4227  1.1408 -0.1292
 8813SOL     OW37900   1.086   1.880   6.864  0.3413  0.0009 -0.2193
 8813SOL    HW137901   1.094   1.800   6.812 -0.5118  0.6151 -1.2909
 8813SOL    HW237902   1.125   1.943   6.803 -1.6775  1.8248  0.3911
 8814SOL     OW37903   1.887   2.574   6.521  0.2122 -0.2887 -0.4702
 8814SOL    HW137904   1.969   2.605   6.483  0.2359 -0.7488 -0.7935
 8814SOL    HW237905   1.830   2.630   6.469  1.3514 -0.2265 -1.6468
 8815SOL     OW37906   2.688   0.852  11.893  0.3158  0.5347 -0.1087
 8815SOL    HW137907   2.628   0.790  11.852 -0.1115  0.0633  1.2430
 8815SOL    HW237908   2.655   0.860  11.982 -0.5033 -0.0972 -0.3642
 8816SOL     OW37909   1.768   1.448   6.683  0.4180  0.1539 -0.0116
 8816SOL    HW137910   1.777   1.468   6.776 -2.1094  1.0494  0.0501
 8816SOL    HW237911   1.749   1.533   6.642 -0.3053 -1.3290 -2.7463
 8817SOL     OW37912   1.992   0.167   5.529  0.1236 -0.1763 -0.3611
 8817SOL    HW137913   2.033   0.080   5.525 -2.0995 -1.2075 -0.9221
 8817SOL    HW237914   1.913   0.147   5.579 -0.6897  0.3688 -1.4343
 8818SOL     OW37915   3.654   3.394   3.873  0.2530 -0.1730  0.0875
 8818SOL    HW137916   3.695   3.478   3.853  0.2205 -0.3639 -0.7932
 8818SOL    HW237917   3.649   3.398   3.968 -0.7185 -1.7676  0.1155
 8819SOL     OW37918   4.222   0.988   5.783 -0.8388  0.0534 -0.3038
 8819SOL    HW137919   4.204   1.078   5.811 -1.3853 -0.4956  1.1653
 8819SOL    HW237920   4.255   1.000   5.694  2.2102 -1.3089  0.6329
 8820SOL     OW37921   3.633   1.031   3.325  0.3454  0.4739  0.2422
 8820SOL    HW137922   3.567   1.086   3.284 -0.5307 -0.5128  0.3058
 8820SOL    HW237923   3.618   1.051   3.418 -0.3288  2.4818 -0.3127
 8821SOL     OW37924   3.391   1.593   8.524  0.3715 -0.1657  0.2858
 8821SOL    HW137925   3.303   1.561   8.508  1.4065 -1.7970 -2.3104
 8821SOL    HW237926   3.373   1.681   8.555  0.5350 -0.3420  0.8746
 8822SOL     OW37927   4.504   2.073   8.172  0.4365 -0.0285 -0.2145
 8822SOL    HW137928   4.580   2.098   8.120  0.6140 -0.2415 -0.0545
 8822SOL    HW237929   4.487   2.163   8.201 -1.7500 -0.1614 -1.0954
 8823SOL     OW37930   3.563   1.312   7.903  0.0845  0.1415  0.3227
 8823SOL    HW137931   3.640   1.352   7.863  0.3000 -1.5459 -0.9651
 8823SOL    HW237932   3.491   1.375   7.903 -0.4893 -0.5018  0.1271
 8824SOL     OW37933   0.883   2.603   8.359 -0.0775  0.4497  0.5328
 8824SOL    HW137934   0.793   2.635   8.362 -0.3794 -0.2813 -0.5799
 8824SOL    HW237935   0.899   2.612   8.265 -1.3555 -2.1619  0.0598
 8825SOL     OW37936   2.081   2.608  14.581 -0.2851  0.4820  0.2015
 8825SOL    HW137937   2.052   2.546  14.514 -0.1563 -0.0773  0.6586
 8825SOL    HW237938   2.155   2.638  14.529 -0.8175  1.4806  0.0318
 8826SOL     OW37939   4.569   0.923   2.675 -0.2912 -0.1975  0.6378
 8826SOL    HW137940   4.491   0.961   2.633  0.3701 -1.6845 -1.9793
 8826SOL    HW237941   4.557   0.944   2.767  0.5922 -2.1594  1.2022
 8827SOL     OW37942   2.340   4.184   5.429 -0.2752  0.2345 -0.3983
 8827SOL    HW137943   2.400   4.153   5.361 -0.0531 -1.7925  0.7243
 8827SOL    HW237944   2.317   4.268   5.391 -1.7256 -1.0811 -2.4171
 8828SOL     OW37945   0.848   1.002   1.233 -0.4186  0.2260  0.1932
 8828SOL    HW137946   0.790   1.065   1.276 -2.1400 -2.5992  2.1116
 8828SOL    HW237947   0.916   1.053   1.190 -0.2939 -1.0601 -1.1439
 8829SOL     OW37948   1.729   3.278   1.717  0.6446  0.3824 -0.4047
 8829SOL    HW137949   1.807   3.287   1.772 -1.0597 -0.8653  2.2516
 8829SOL    HW237950   1.676   3.221   1.773  0.8308  1.6433  1.0585
 8830SOL     OW37951   4.677   2.643   6.537 -0.0794  0.5449 -0.3942
 8830SOL    HW137952   4.696   2.700   6.611 -1.5632 -0.3284  0.6562
 8830SOL    HW237953   0.020   2.665   6.472  3.0733  0.0138  2.6862
 8831SOL     OW37954   1.679   4.663   3.351 -0.0519 -0.2570 -0.4370
 8831SOL    HW137955   1.684   4.628   3.440 -0.6336 -1.0355 -0.7164
 8831SOL    HW237956   1.754   4.618   3.312 -0.3630  0.4371 -1.8381
 8832SOL     OW37957   1.163   1.406   3.735  0.3286 -0.3558  0.2071
 8832SOL    HW137958   1.238   1.464   3.747  0.3467 -0.0324 -1.4995
 8832SOL    HW237959   1.093   1.471   3.740  0.7209 -0.0192  1.2242
 8833SOL     OW37960   4.106   4.654   4.157 -0.5460  0.1826  0.1909
 8833SOL    HW137961   4.125   4.622   4.245  1.6894 -0.4897 -0.5489
 8833SOL    HW237962   4.091   0.024   4.174  0.0210  0.3210 -0.0863
 8834SOL     OW37963   1.605   3.785   7.892  0.2693 -0.1552 -0.6734
 8834SOL    HW137964   1.686   3.833   7.877  0.8552 -0.8563  0.2870
 8834SOL    HW237965   1.605   3.772   7.987  0.9027  1.3429 -0.4779
 8835SOL     OW37966   4.385   1.154   3.051 -0.0566  0.8218  0.4493
 8835SOL    HW137967   4.334   1.148   3.132 -1.0309 -0.3042 -0.2364
 8835SOL    HW237968   4.379   1.246   3.027 -1.3939  0.3679 -1.0298
 8836SOL     OW37969   1.478   1.584  17.097 -0.4504 -0.4267 -0.3701
 8836SOL    HW137970   1.423   1.506  17.101  0.0491 -0.7077  0.9758
 8836SOL    HW237971   1.444   1.628  17.019 -0.2950 -0.3684 -0.4052
 8837SOL     OW37972   2.087   4.014   4.895 -0.0246 -0.5860  0.2346
 8837SOL    HW137973   2.118   4.053   4.977  2.0667 -0.2563 -0.7029
 8837SOL    HW237974   2.163   4.020   4.837 -0.3596  1.9448  0.0686
 8838SOL     OW37975   3.891   4.256   3.622  0.3325 -0.2174  1.0179
 8838SOL    HW137976   3.923   4.308   3.549  0.7939 -0.7938  0.8178
 8838SOL    HW237977   3.850   4.330   3.667 -2.5274  0.1300 -2.1414
 8839SOL     OW37978   1.309   3.222   8.536 -0.6245  0.0414 -0.2482
 8839SOL    HW137979   1.268   3.301   8.501  1.0704  1.2946  0.6496
 8839SOL    HW237980   1.226   3.175   8.552 -0.7560 -0.0293 -1.1384
 8840SOL     OW37981   0.112   3.774  16.910  0.1442 -0.2093  0.0182
 8840SOL    HW137982   0.025   3.786  16.948  0.4296 -2.0935  1.2854
 8840SOL    HW237983   0.143   3.695  16.954  0.4991 -0.6328 -0.9839
 8841SOL     OW37984   4.617   4.159  13.277  0.0488 -0.7366 -0.1498
 8841SOL    HW137985   4.596   4.094  13.210  0.0717 -1.5690  0.6426
 8841SOL    HW237986   4.526   4.184  13.294  0.3043 -0.1148  0.2951
 8842SOL     OW37987   4.595   3.557   6.232 -0.3544 -0.0620  0.3229
 8842SOL    HW137988   4.591   3.588   6.141 -0.1073  1.4546  0.8186
 8842SOL    HW237989   4.551   3.472   6.229 -0.3295 -0.0819  0.5195
 8843SOL     OW37990   2.043   2.837  13.329 -0.2399 -0.3801 -0.1090
 8843SOL    HW137991   2.040   2.854  13.423 -0.2668  1.3098 -0.4066
 8843SOL    HW237992   1.981   2.904  13.298  0.6166 -0.6860 -2.4261
 8844SOL     OW37993   3.398   3.151   7.992 -0.2601 -0.0608 -0.4242
 8844SOL    HW137994   3.437   3.237   7.979  2.4038 -1.4164 -1.4333
 8844SOL    HW237995   3.459   3.087   7.956 -0.8127  0.3160 -2.0122
 8845SOL     OW37996   2.994   3.636   2.984  0.3199  0.3030  0.1146
 8845SOL    HW137997   2.981   3.588   3.066  1.5074  1.6054  1.0774
 8845SOL    HW237998   3.055   3.571   2.950  0.5771  0.6972 -0.1863
 8846SOL     OW37999   1.266   4.530   7.129 -0.0612  0.5444 -0.2887
 8846SOL    HW138000   1.314   4.505   7.208 -0.3925  1.2877  0.1462
 8846SOL    HW238001   1.342   4.557   7.078 -0.5460  0.5256 -1.0223
 8847SOL     OW38002   3.984   2.314  14.158 -0.2445  0.0524 -0.0763
 8847SOL    HW138003   4.072   2.339  14.188  0.0008 -0.0168 -0.7317
 8847SOL    HW238004   3.967   2.391  14.105 -0.3138  0.0751 -0.0208
 8848SOL     OW38005   3.694   1.638   4.946 -0.1616  0.3631  0.0678
 8848SOL    HW138006   3.691   1.580   4.870 -1.6300  2.2949 -1.3238
 8848SOL    HW238007   3.740   1.582   5.009 -1.4835 -0.6193  0.1719
 8849SOL     OW38008   3.936   1.283   3.334  0.3553  0.1673 -0.2204
 8849SOL    HW138009   3.906   1.243   3.415 -0.4650 -0.7809 -0.9901
 8849SOL    HW238010   3.912   1.215   3.271  2.3285  0.0304 -0.8223
 8850SOL     OW38011   2.900   2.755   9.676 -0.0594 -0.3696 -0.6206
 8850SOL    HW138012   2.988   2.741   9.711  0.0091  0.2884 -0.5236
 8850SOL    HW238013   2.930   2.783   9.590  2.6490 -1.6524 -0.0968
 8851SOL     OW38014   1.512   0.726   4.343 -0.0835 -0.5053 -0.7043
 8851SOL    HW138015   1.482   0.748   4.431  0.2281  0.1444 -0.7572
 8851SOL    HW238016   1.564   0.648   4.364 -1.0383 -1.1381 -0.6932
 8852SOL     OW38017   4.144   1.720   7.988 -0.3397 -0.2929  0.4414
 8852SOL    HW138018   4.184   1.681   8.065  0.7571 -0.5854 -0.2639
 8852SOL    HW238019   4.193   1.802   7.981 -0.8490  0.0856  1.3491
 8853SOL     OW38020   3.964   2.872   9.553 -0.5188 -0.5769  0.2251
 8853SOL    HW138021   3.978   2.904   9.464 -0.7973  0.0514  0.4058
 8853SOL    HW238022   3.899   2.805   9.533 -1.3794  0.3683 -0.1391
 8854SOL     OW38023   0.743   1.755   8.033  0.1553  0.2833  0.1792
 8854SOL    HW138024   0.692   1.832   8.008  0.9625  0.4103 -1.0486
 8854SOL    HW238025   0.808   1.792   8.092  0.2979  2.0659 -1.1063
 8855SOL     OW38026   2.601   1.087   2.166 -0.1993 -0.4715  0.5576
 8855SOL    HW138027   2.645   1.007   2.194  2.0012  0.0088 -1.4499
 8855SOL    HW238028   2.612   1.132   2.250 -0.9384 -1.1855  1.0304
 8856SOL     OW38029   2.542   4.086  17.661  0.1136 -0.0409 -0.1557
 8856SOL    HW138030   2.461   4.042  17.636  0.5512 -1.3086  0.6572
 8856SOL    HW238031   2.547   4.075   0.062  0.6194  1.1717 -0.0488
 8857SOL     OW38032   0.302   2.445   7.955 -0.2411 -0.4621 -0.2353
 8857SOL    HW138033   0.246   2.396   7.895 -0.2541 -0.3369 -0.3252
 8857SOL    HW238034   0.378   2.392   7.932  1.1871  0.6251  1.9626
 8858SOL     OW38035   0.709   0.516   2.732 -0.1154 -0.3829 -0.1020
 8858SOL    HW138036   0.733   0.436   2.684  0.8124  0.1781 -0.5840
 8858SOL    HW238037   0.732   0.579   2.663 -1.3608  0.1118 -0.0522
 8859SOL     OW38038   1.744   2.194   8.557 -0.0299  0.4176 -0.1427
 8859SOL    HW138039   1.655   2.221   8.537  0.3609  0.8270 -1.3110
 8859SOL    HW238040   1.749   2.128   8.488 -2.4131 -0.0047  0.1055
 8860SOL     OW38041   0.339   3.399   4.512 -0.0478 -0.1019 -0.0729
 8860SOL    HW138042   0.327   3.332   4.579  1.7699 -0.1160  0.2573
 8860SOL    HW238043   0.434   3.414   4.513  0.0007 -0.3684 -0.3438
 8861SOL     OW38044   2.260   0.190  13.713  0.5149  0.1691  0.1755
 8861SOL    HW138045   2.261   0.220  13.804  1.0275 -0.2322  0.2997
 8861SOL    HW238046   2.340   0.224  13.672 -0.0377  1.7216  0.4048
 8862SOL     OW38047   3.280   0.641  16.347 -0.2189 -0.0817  0.2335
 8862SOL    HW138048   3.376   0.640  16.345 -0.2099 -0.7181  1.2126
 8862SOL    HW238049   3.260   0.732  16.371  0.8193 -0.2326  1.7074
 8863SOL     OW38050   2.729   4.676   6.884 -0.1688 -0.0439 -0.7941
 8863SOL    HW138051   2.802   4.647   6.940 -0.2606  0.2679 -0.5100
 8863SOL    HW238052   2.756   0.033   6.839 -1.7973 -0.4372 -2.4594
 8864SOL     OW38053   2.981   2.516   4.783 -0.3535  0.0806  0.0339
 8864SOL    HW138054   3.005   2.564   4.862 -1.8100 -2.4271  1.9895
 8864SOL    HW238055   2.885   2.522   4.786 -0.2450  0.5932  2.1420
 8865SOL     OW38056   0.553   0.374   0.186  0.0624  0.1050 -0.0432
 8865SOL    HW138057   0.631   0.357   0.238  0.8297  0.5197 -1.0677
 8865SOL    HW238058   0.498   0.297   0.204 -0.4288  0.2483 -0.9400
 8866SOL     OW38059   2.196   2.403   8.348  0.0590 -0.2943  0.0885
 8866SOL    HW138060   2.190   2.496   8.368  1.0180  0.6742 -4.1384
 8866SOL    HW238061   2.289   2.402   8.328 -0.1891 -1.0252 -1.0128
 8867SOL     OW38062   2.918   2.228   7.589  0.5438  0.2241 -0.2055
 8867SOL    HW138063   3.003   2.243   7.631 -0.0802  1.1494  0.7104
 8867SOL    HW238064   2.853   2.258   7.653  0.6636  2.3106 -1.0741
 8868SOL     OW38065   0.781   2.406   2.237  0.2975  0.0561 -0.1080
 8868SOL    HW138066   0.835   2.420   2.159  2.9509 -2.2460  1.3046
 8868SOL    HW238067   0.725   2.333   2.214 -1.3537  1.6144 -1.0218
 8869SOL     OW38068   2.062   0.857   6.348  0.5752  0.5426  0.5244
 8869SOL    HW138069   2.105   0.879   6.265  0.6577 -1.2141  0.1146
 8869SOL    HW238070   2.091   0.933   6.399  2.4790  0.0659  0.1329
 8870SOL     OW38071   4.514   0.427   7.066 -0.0403 -0.0301  0.2213
 8870SOL    HW138072   4.608   0.434   7.080 -0.2873 -0.2083  2.0515
 8870SOL    HW238073   4.484   0.359   7.127  0.1516  1.1891  1.6490
 8871SOL     OW38074   2.335   2.140   6.274 -0.1342 -0.0498  0.9574
 8871SOL    HW138075   2.344   2.142   6.369 -0.2115 -1.7057  1.0024
 8871SOL    HW238076   2.381   2.222   6.255  1.8202 -1.3745  0.0236
 8872SOL     OW38077   0.282   1.351   1.637 -0.1416  0.2553 -0.4026
 8872SOL    HW138078   0.202   1.322   1.592  0.8107 -0.4755 -1.6276
 8872SOL    HW238079   0.248   1.354   1.726 -1.6537 -0.7999 -0.9579
 8873SOL     OW38080   1.344   3.775   3.180  0.0211  0.3007 -0.7081
 8873SOL    HW138081   1.399   3.853   3.178  1.7300 -0.8493  0.8965
 8873SOL    HW238082   1.294   3.799   3.103 -2.7046 -1.6906  0.4623
 8874SOL     OW38083   1.672   4.399   2.370  0.1086  0.1783 -0.1908
 8874SOL    HW138084   1.749   4.449   2.343 -0.1518  1.1785  0.9591
 8874SOL    HW238085   1.712   4.325   2.416  0.4562  1.3746  1.4318
 8875SOL     OW38086   1.935   0.455   3.018  0.4510  0.5954  0.1383
 8875SOL    HW138087   1.884   0.495   3.089 -0.0014  0.9734 -0.4008
 8875SOL    HW238088   1.879   0.486   2.947 -0.3048 -0.4490  0.2715
 8876SOL     OW38089   2.998   3.037  11.273  0.5542  0.4080 -0.0463
 8876SOL    HW138090   3.027   2.964  11.218 -0.7107 -1.8750  2.3523
 8876SOL    HW238091   3.043   3.112  11.231  1.6424 -0.3189 -0.1888
 8877SOL     OW38092   4.514   1.205   9.549 -0.3841  0.0411 -0.4038
 8877SOL    HW138093   4.584   1.225   9.612 -0.7542  1.3190 -0.4135
 8877SOL    HW238094   4.530   1.289   9.508 -1.1197  0.1359 -0.4958
 8878SOL     OW38095   2.774   3.226  17.634 -0.1242  0.7701  0.5600
 8878SOL    HW138096   2.780   3.293  17.567 -1.4069  0.6229  0.2864
 8878SOL    HW238097   2.815   3.160  17.578 -0.2796  0.2441  1.0682
 8879SOL     OW38098   2.030   4.141  15.565  0.2580 -0.1626  0.4557
 8879SOL    HW138099   1.994   4.153  15.653  0.3171 -5.2648  1.1928
 8879SOL    HW238100   2.110   4.189  15.584 -0.9839  2.2209 -0.2905
 8880SOL     OW38101   3.824   0.640   8.712 -0.2099  0.4229  0.3377
 8880SOL    HW138102   3.736   0.640   8.675 -0.1490  2.0893  0.1825
 8880SOL    HW238103   3.864   0.565   8.668  0.5388  0.2663  1.2664
 8881SOL     OW38104   4.372   0.791  13.957 -0.1110  0.4664 -0.2599
 8881SOL    HW138105   4.361   0.703  13.920 -2.2315  0.7209 -0.2499
 8881SOL    HW238106   4.458   0.811  13.922 -0.1882 -0.5175 -1.0167
 8882SOL     OW38107   2.860   1.694  13.907 -0.2842  0.0080 -0.4129
 8882SOL    HW138108   2.768   1.709  13.886 -1.2822 -1.9104  2.5985
 8882SOL    HW238109   2.853   1.711  14.001  0.5542  1.4080 -0.6084
 8883SOL     OW38110   1.912   3.263   2.379 -0.5038 -0.0164 -0.1666
 8883SOL    HW138111   1.829   3.240   2.420 -0.1929  1.1394  1.0987
 8883SOL    HW238112   1.983   3.236   2.437 -1.4753 -2.1711  0.0095
 8884SOL     OW38113   1.635   1.128   3.342  0.4596 -0.1414  0.0452
 8884SOL    HW138114   1.557   1.123   3.287  1.1491 -1.6364 -0.7854
 8884SOL    HW238115   1.705   1.126   3.277 -1.1374  3.5186 -1.8323
 8885SOL     OW38116   0.067   3.039   3.659  0.4168  0.0787 -0.0394
 8885SOL    HW138117   0.114   3.075   3.733 -1.4443  0.3877  1.0026
 8885SOL    HW238118   0.056   2.945   3.675  0.5707  0.4294  2.0156
 8886SOL     OW38119   0.495   3.584   2.021  0.0049 -0.0251  0.1756
 8886SOL    HW138120   0.441   3.653   1.981  1.3317  0.8092 -0.1924
 8886SOL    HW238121   0.436   3.552   2.088  0.5215 -0.9439  0.1817
 8887SOL     OW38122   3.438   2.291   7.523 -0.5587  0.4159  0.4082
 8887SOL    HW138123   3.522   2.246   7.527 -1.5057 -1.3233  0.4980
 8887SOL    HW238124   3.424   2.326   7.611 -2.3051 -2.6953  1.3438
 8888SOL     OW38125   2.951   3.473   8.838 -0.2740  0.2865  0.0698
 8888SOL    HW138126   2.884   3.407   8.857 -0.7802  1.2326  1.6140
 8888SOL    HW238127   3.015   3.413   8.801  0.5495  0.6420  0.9453
 8889SOL     OW38128   0.704   0.915   4.514 -0.1445  0.1620 -0.4173
 8889SOL    HW138129   0.707   0.996   4.462  0.0895  0.5887  0.2523
 8889SOL    HW238130   0.627   0.878   4.473  0.4804  0.1647 -1.6030
 8890SOL     OW38131   3.432   1.987  12.863  0.2813  0.2294  0.2307
 8890SOL    HW138132   3.484   2.050  12.913 -0.7085 -0.4950  2.1767
 8890SOL    HW238133   3.473   1.990  12.777 -1.0008 -1.3644 -0.4330
 8891SOL     OW38134   3.679   2.256   6.912 -0.6999 -0.0453  0.6152
 8891SOL    HW138135   3.712   2.225   6.996 -0.7176  0.7700  0.9188
 8891SOL    HW238136   3.764   2.267   6.869 -0.8208  0.3543  0.4872
 8892SOL     OW38137   2.012   0.079   1.229  0.4750 -0.1265 -0.0218
 8892SOL    HW138138   2.063   0.153   1.194 -0.0766  0.7272  0.9719
 8892SOL    HW238139   2.007   0.036   1.144 -2.0745  0.2487 -0.0529
 8893SOL     OW38140   4.339   1.208   6.080 -0.5957 -0.1314  0.2071
 8893SOL    HW138141   4.244   1.195   6.078 -0.6495 -0.1375  2.2168
 8893SOL    HW238142   4.373   1.223   6.169  2.9315  0.2231 -1.1976
 8894SOL     OW38143   2.994   2.701   8.578 -0.0008 -0.4916 -0.4932
 8894SOL    HW138144   2.901   2.687   8.596  0.3684 -0.2167  1.6446
 8894SOL    HW238145   3.023   2.751   8.655  1.0869 -1.6731 -0.1373
 8895SOL     OW38146   0.865   0.533   8.882 -0.2852 -0.2795 -0.2515
 8895SOL    HW138147   0.786   0.566   8.925 -1.4917 -0.7007 -2.1182
 8895SOL    HW238148   0.831   0.521   8.793  1.1645  0.7513 -0.9298
 8896SOL     OW38149   0.932   2.746   5.921 -0.2093 -0.1302 -0.0786
 8896SOL    HW138150   1.000   2.787   5.974  1.6705 -1.8938 -1.0824
 8896SOL    HW238151   0.946   2.654   5.943  0.1120 -0.4883 -1.7771
 8897SOL     OW38152   3.006   4.426   0.778  0.3815  0.0312 -0.1171
 8897SOL    HW138153   2.957   4.439   0.697 -1.1511 -0.7028  0.6731
 8897SOL    HW238154   3.092   4.452   0.747 -0.6206  0.3696 -2.6096
 8898SOL     OW38155   2.711   1.303   7.755  0.0030 -0.2464  0.4418
 8898SOL    HW138156   2.702   1.341   7.842  3.0577  2.6194 -0.4841
 8898SOL    HW238157   2.627   1.259   7.750 -0.2841  0.5487 -1.9727
 8899SOL     OW38158   3.613   2.647   4.750  0.1167  0.3659 -0.4234
 8899SOL    HW138159   3.594   2.601   4.831  1.7383 -1.9787 -1.3517
 8899SOL    HW238160   3.623   2.738   4.778  2.2942  0.1536 -0.4494
 8900SOL     OW38161   0.135   0.854   7.370  0.0599 -0.3299 -0.2993
 8900SOL    HW138162   0.202   0.824   7.307 -1.0634 -1.7284 -0.8387
 8900SOL    HW238163   0.131   0.767   7.409  2.0205  0.3308  1.4137
 8901SOL     OW38164   2.577   1.725  10.264  0.1068  0.1610  0.0846
 8901SOL    HW138165   2.546   1.783  10.334 -2.0945 -2.3063  1.1458
 8901SOL    HW238166   2.671   1.747  10.261  0.3759 -0.9073  0.6545
 8902SOL     OW38167   1.810   1.060  12.213  0.4178  0.0548 -0.0486
 8902SOL    HW138168   1.752   1.064  12.289 -1.0751 -0.5671 -1.1679
 8902SOL    HW238169   1.774   1.139  12.172 -0.9650 -0.6705 -0.2147
 8903SOL     OW38170   1.147   3.219   7.023 -0.2900  0.4225 -0.0557
 8903SOL    HW138171   1.084   3.158   7.062  0.6925 -0.0220  0.8353
 8903SOL    HW238172   1.224   3.170   6.996 -1.0687 -1.6523  1.4995
 8904SOL     OW38173   4.063   0.850   1.757 -0.4864 -0.3539  0.6076
 8904SOL    HW138174   4.079   0.943   1.769 -1.6468 -0.3191  1.9264
 8904SOL    HW238175   3.968   0.845   1.748 -0.6148  4.2213 -0.3147
 8905SOL     OW38176   4.100   1.122  14.624  0.0653  0.2710 -0.0604
 8905SOL    HW138177   4.102   1.111  14.719 -2.3353  0.6752  0.0508
 8905SOL    HW238178   4.120   1.034  14.593 -1.0237  0.0091 -0.0207
 8906SOL     OW38179   2.139   3.200   6.246  0.2568  0.1730  0.0506
 8906SOL    HW138180   2.158   3.141   6.173  1.5785  0.2890  0.3088
 8906SOL    HW238181   2.054   3.225   6.209  0.4537 -0.7122 -1.0070
 8907SOL     OW38182   1.064   1.010   9.431 -0.2249 -0.4027 -0.2607
 8907SOL    HW138183   1.093   0.988   9.343  0.7424 -0.0643 -0.0315
 8907SOL    HW238184   0.987   1.066   9.418 -0.2868 -0.2907  0.5495
 8908SOL     OW38185   1.768   4.245  14.175  0.1992 -0.2918  0.1534
 8908SOL    HW138186   1.720   4.267  14.096  1.2457 -0.8622 -0.6329
 8908SOL    HW238187   1.827   4.178  14.141 -0.1697  0.1172 -1.2953
 8909SOL     OW38188   3.779   1.492   8.110  0.2892 -0.1703  0.1146
 8909SOL    HW138189   3.778   1.454   8.022 -1.1970  1.7571 -0.6927
 8909SOL    HW238190   3.819   1.576   8.087  0.9699 -0.9574 -1.6286
 8910SOL     OW38191   2.695   4.447   9.009 -0.4522 -0.1829 -0.1850
 8910SOL    HW138192   2.751   4.451   8.931  0.4546 -0.1013  0.4711
 8910SOL    HW238193   2.642   4.368   8.998 -0.0542 -0.5127  0.3142
 8911SOL     OW38194   3.993   2.874   4.693  0.3237  0.4291  0.5568
 8911SOL    HW138195   4.072   2.890   4.642 -0.9130  1.4948 -0.9827
 8911SOL    HW238196   4.020   2.806   4.755 -0.6859  0.9794  1.6001
 8912SOL     OW38197   0.401   4.520   3.135 -0.2543 -0.0857  0.8477
 8912SOL    HW138198   0.369   4.587   3.195 -0.0762  0.0470  0.7922
 8912SOL    HW238199   0.438   4.460   3.199 -0.1950  1.8460  2.6127
 8913SOL     OW38200   0.967   2.360  11.219 -0.2499 -0.2489  0.4002
 8913SOL    HW138201   1.041   2.306  11.189  2.9470  3.1865  2.1021
 8913SOL    HW238202   1.011   2.444  11.236 -2.4681  0.8103  0.8672
 8914SOL     OW38203   1.644   4.431   7.694  0.3161  0.9357  0.2562
 8914SOL    HW138204   1.553   4.452   7.715  0.3003  1.0713  0.0564
 8914SOL    HW238205   1.684   4.423   7.780  1.2194  0.8002 -0.1694
 8915SOL     OW38206   4.172   2.956   8.250 -0.1842 -0.1861  0.4076
 8915SOL    HW138207   4.134   2.991   8.330 -1.0214  0.6068 -0.3459
 8915SOL    HW238208   4.248   3.012   8.236 -0.4750  0.5136  1.7037
 8916SOL     OW38209   4.340   2.238  13.999  0.0280 -0.4058  0.2467
 8916SOL    HW138210   4.427   2.257  14.032  0.3266 -0.9666 -0.2138
 8916SOL    HW238211   4.366   2.182  13.925  0.0249  1.8785 -1.4631
 8917SOL     OW38212   1.010   2.579  13.957 -0.8512  0.2190  0.1614
 8917SOL    HW138213   1.091   2.613  13.918 -1.2947  0.6664 -0.3751
 8917SOL    HW238214   0.972   2.652  14.005  1.4739  0.8563  1.0482
 8918SOL     OW38215   0.542   4.067   2.188 -0.4928  0.0706  0.1600
 8918SOL    HW138216   0.533   4.130   2.116 -1.3779 -1.1200 -0.7755
 8918SOL    HW238217   0.460   4.086   2.234 -1.2216  1.6553 -1.7635
 8919SOL     OW38218   2.507   4.386  12.845  0.0043  0.0370  0.1115
 8919SOL    HW138219   2.489   4.409  12.754 -2.0872 -1.5823  0.1078
 8919SOL    HW238220   2.602   4.369  12.846 -0.3706 -2.0937 -1.2436
 8920SOL     OW38221   4.528   0.896   1.064 -0.3059  0.2666  0.2232
 8920SOL    HW138222   4.554   0.811   1.029  0.5619 -0.1804  1.9077
 8920SOL    HW238223   4.461   0.868   1.127 -1.3592  0.6364 -0.7409
 8921SOL     OW38224   3.877   1.207   4.197 -0.7472 -0.6897  0.0426
 8921SOL    HW138225   3.887   1.292   4.153  0.9581 -0.6531  0.5184
 8921SOL    HW238226   3.968   1.182   4.211 -1.3146 -1.9465  1.4616
 8922SOL     OW38227   3.033   2.262   2.804 -0.0893 -0.2682  0.3780
 8922SOL    HW138228   2.983   2.203   2.748  0.3810 -0.4911  0.1984
 8922SOL    HW238229   2.988   2.340   2.773  0.7032  0.0177 -0.0471
 8923SOL     OW38230   0.751   2.466  12.800  0.5665  0.2680 -1.2707
 8923SOL    HW138231   0.809   2.392  12.818  2.9569  1.9725 -2.0850
 8923SOL    HW238232   0.666   2.436  12.834  0.8562  0.8421 -0.0518
 8924SOL     OW38233   2.292   1.305   0.104  0.1827 -0.2611 -0.0598
 8924SOL    HW138234   2.232   1.297   0.029 -2.1591  1.3882  1.6477
 8924SOL    HW238235   2.356   1.371   0.077 -0.3668  0.1279 -0.4188
 8925SOL     OW38236   1.554   4.037   7.022  0.0236  0.0865  0.1807
 8925SOL    HW138237   1.515   4.118   7.056  0.0501  0.0265  0.3575
 8925SOL    HW238238   1.491   3.973   7.057 -1.4747  1.5790  0.2385
 8926SOL     OW38239   3.669   4.622   2.192  0.5720  0.1842 -0.4257
 8926SOL    HW138240   3.642   4.708   2.159 -0.6094  0.1647  0.4680
 8926SOL    HW238241   3.717   4.644   2.272 -0.9858  0.6729  0.3752
 8927SOL     OW38242   3.077   3.282   9.052 -0.4987  0.0149  0.2443
 8927SOL    HW138243   3.041   3.199   9.084  0.2890 -0.2297  0.4740
 8927SOL    HW238244   3.121   3.302   9.135 -2.6187 -0.4620  1.5094
 8928SOL     OW38245   0.908   1.017  11.453 -0.0973 -0.2487  0.2585
 8928SOL    HW138246   0.915   0.922  11.440 -0.1952 -0.2811  0.4438
 8928SOL    HW238247   0.998   1.028  11.485  0.0234  1.0016 -0.5036
 8929SOL     OW38248   2.943   4.020   6.657 -0.8427  0.7388 -0.1180
 8929SOL    HW138249   2.978   4.056   6.739  0.0405 -0.8761  0.2244
 8929SOL    HW238250   3.013   3.954   6.649 -1.7942 -0.2320 -0.4405
 8930SOL     OW38251   1.409   4.138  16.146 -0.2933 -0.2103  0.4099
 8930SOL    HW138252   1.430   4.165  16.056 -1.1119 -3.4649 -0.7740
 8930SOL    HW238253   1.326   4.186  16.153 -1.0049 -1.3696 -0.0304
 8931SOL     OW38254   1.651   3.456   3.877  0.1339  0.3218  0.0324
 8931SOL    HW138255   1.627   3.388   3.940  0.7874 -0.6968 -0.8182
 8931SOL    HW238256   1.703   3.404   3.816  0.7971  1.9127 -0.7428
 8932SOL     OW38257   2.305   1.990   7.256  0.3771  0.2578 -0.2115
 8932SOL    HW138258   2.300   1.990   7.352 -2.6913 -0.6445 -0.3698
 8932SOL    HW238259   2.400   1.981   7.248  0.1560 -1.7516 -0.4971
 8933SOL     OW38260   2.385   1.628  13.234  0.6154 -0.4812 -0.1652
 8933SOL    HW138261   2.421   1.559  13.290  0.1386  0.1459  0.8995
 8933SOL    HW238262   2.455   1.642  13.171  1.8387 -0.9189  1.0937
 8934SOL     OW38263   1.943   1.891   7.959  0.3731 -0.1028  0.4706
 8934SOL    HW138264   1.881   1.892   7.886  1.4510 -1.7293 -0.4672
 8934SOL    HW238265   1.956   1.985   7.968  1.5500 -0.0545 -1.5042
 8935SOL     OW38266   0.990   0.771   7.056 -0.1926 -0.5470  0.0415
 8935SOL    HW138267   1.027   0.854   7.026  0.3675 -1.1882 -1.0436
 8935SOL    HW238268   1.066   0.714   7.041  1.1131  1.3092 -0.3314
 8936SOL     OW38269   1.714   0.021   4.002  0.2269  0.0954 -0.0314
 8936SOL    HW138270   1.711   4.710   3.912  1.7864  1.1065 -0.4645
 8936SOL    HW238271   1.702   4.660   4.047  2.4885  0.3617  1.0593
 8937SOL     OW38272   3.307   3.557   9.645  0.3078  0.5966  0.6036
 8937SOL    HW138273   3.361   3.622   9.600  1.6863 -0.6363  0.4657
 8937SOL    HW238274   3.368   3.482   9.642 -0.9893 -0.4064 -0.5476
 8938SOL     OW38275   3.577   0.309   5.081 -0.1441 -0.0006 -0.1272
 8938SOL    HW138276   3.526   0.241   5.038 -1.5545  0.7435  0.3528
 8938SOL    HW238277   3.505   0.364   5.112  0.6650  3.0201 -3.6637
 8939SOL     OW38278   0.878   3.304   9.033  0.8273 -0.5535 -0.5380
 8939SOL    HW138279   0.919   3.364   9.095  0.0616 -0.4185 -0.1638
 8939SOL    HW238280   0.792   3.344   9.022  0.9237  0.0143  0.7602
 8940SOL     OW38281   4.430   3.799   2.224 -0.6605  0.7304  0.4108
 8940SOL    HW138282   4.382   3.743   2.163  2.2874 -0.1551 -1.0725
 8940SOL    HW238283   4.521   3.784   2.200 -1.3873  2.9171 -3.6003
 8941SOL     OW38284   1.545   0.354   1.501 -0.0048 -0.0215  0.0800
 8941SOL    HW138285   1.477   0.323   1.560 -0.1180  0.5934  0.2769
 8941SOL    HW238286   1.566   0.433   1.550  1.2335 -0.4151  0.1873
 8942SOL     OW38287   1.217   1.994   7.396 -0.1417  0.0624 -0.2806
 8942SOL    HW138288   1.153   1.953   7.454 -0.5652  0.7407 -0.2711
 8942SOL    HW238289   1.187   1.959   7.311 -0.0773 -2.6352  0.8075
 8943SOL     OW38290   3.956   1.722   3.178 -0.2047 -0.1612  0.1596
 8943SOL    HW138291   4.019   1.652   3.193  0.6299  0.2070 -1.5924
 8943SOL    HW238292   3.889   1.683   3.122 -0.0000  0.5599 -0.5951
 8944SOL     OW38293   2.926   3.268   2.466 -0.2609  0.3991 -0.3776
 8944SOL    HW138294   3.008   3.245   2.509 -0.7286 -0.3143  0.1244
 8944SOL    HW238295   2.959   3.342   2.415 -0.3229  0.3660 -0.4668
 8945SOL     OW38296   0.219   3.965   5.976 -0.1806 -0.1676  0.0478
 8945SOL    HW138297   0.245   4.019   6.051  0.5874  0.3898 -0.6265
 8945SOL    HW238298   0.261   3.885   6.008  1.4404  1.8887  3.0762
 8946SOL     OW38299   3.556   2.512   9.329  0.2440 -0.2237 -0.6019
 8946SOL    HW138300   3.622   2.447   9.355  1.7634  0.2923 -3.2414
 8946SOL    HW238301   3.611   2.565   9.272  1.1604 -0.3264  0.1790
 8947SOL     OW38302   0.696   0.488   2.273  0.1054  0.7131 -0.1413
 8947SOL    HW138303   0.755   0.531   2.335  0.3159  0.2927 -0.0541
 8947SOL    HW238304   0.623   0.550   2.270  1.8062  2.5883 -2.2048
 8948SOL     OW38305   2.979   1.796   8.349 -0.4261 -0.2926  0.5542
 8948SOL    HW138306   3.055   1.739   8.358  0.2023  0.7895  2.0906
 8948SOL    HW238307   2.931   1.805   8.432 -3.9452 -1.6342 -1.3732
 8949SOL     OW38308   1.919   3.444   3.059 -0.0674 -0.1426 -0.2566
 8949SOL    HW138309   1.895   3.374   3.120 -2.2625 -0.1434 -1.1328
 8949SOL    HW238310   1.903   3.401   2.975  2.5542 -1.9074  0.1496
 8950SOL     OW38311   2.011   1.382   4.986  0.2835  0.2225 -0.1410
 8950SOL    HW138312   1.938   1.325   4.962 -0.6624  1.1298  0.6168
 8950SOL    HW238313   2.079   1.321   5.015 -0.3389 -0.3172  0.1806
 8951SOL     OW38314   2.608   3.302   2.895  0.7244 -0.5000 -0.2123
 8951SOL    HW138315   2.549   3.360   2.847 -1.4310 -2.7912 -0.3461
 8951SOL    HW238316   2.556   3.224   2.915  0.3178  0.1368  1.1949
 8952SOL     OW38317   3.049   3.126   9.822 -0.0108  0.7690 -0.2849
 8952SOL    HW138318   3.087   3.185   9.757 -1.8771  0.2060 -1.8859
 8952SOL    HW238319   2.970   3.091   9.780  0.0686  0.9669 -0.5946
 8953SOL     OW38320   3.635   1.604   5.801  0.2880 -0.6001 -0.0927
 8953SOL    HW138321   3.709   1.627   5.743  1.3652 -2.3983  0.5684
 8953SOL    HW238322   3.582   1.682   5.786 -0.4259 -1.2178 -0.7362
 8954SOL     OW38323   4.364   1.129   4.753 -0.0820 -0.2571  0.0260
 8954SOL    HW138324   4.343   1.136   4.846 -0.6212  0.5545 -0.1523
 8954SOL    HW238325   4.386   1.221   4.736 -0.0854 -0.0130  1.3577
 8955SOL     OW38326   2.919   0.753  11.985 -0.2265  0.5685 -0.0134
 8955SOL    HW138327   2.834   0.772  11.947 -0.1589 -2.5856 -1.7778
 8955SOL    HW238328   2.950   0.674  11.940 -1.0373  0.2522 -0.0180
 8956SOL     OW38329   0.932   1.832   7.823 -0.2102  0.1317  0.3315
 8956SOL    HW138330   0.989   1.902   7.855 -0.5257 -0.8823  3.1155
 8956SOL    HW238331   0.870   1.814   7.894  0.2827  1.4650  1.1086
 8957SOL     OW38332   2.315   1.234   5.542  0.0343 -0.0108  0.8849
 8957SOL    HW138333   2.399   1.213   5.503 -0.9452 -3.3607  0.5813
 8957SOL    HW238334   2.328   1.181   5.621 -0.7919 -1.5392 -0.0042
 8958SOL     OW38335   1.826   1.628   5.753  0.5706  0.3625  0.0218
 8958SOL    HW138336   1.813   1.633   5.848  0.3943  0.3539 -0.0009
 8958SOL    HW238337   1.819   1.533   5.754  0.5817  0.3679  2.5366
 8959SOL     OW38338   2.874   1.959   0.593 -0.2986  0.0742 -0.7321
 8959SOL    HW138339   2.900   1.972   0.502 -2.4743 -1.6866 -1.6147
 8959SOL    HW238340   2.864   2.050   0.622  0.3774 -0.0767 -0.0224
 8960SOL     OW38341   1.955   1.441   5.349  0.6298  0.2177 -0.1425
 8960SOL    HW138342   2.050   1.445   5.335  0.5291  1.3041 -0.5150
 8960SOL    HW238343   1.935   1.372   5.412 -1.8165  1.2559  0.1866
 8961SOL     OW38344   3.269   1.929  12.559 -0.4846  0.0329  0.2454
 8961SOL    HW138345   3.250   1.892  12.473 -2.3666 -1.5943  1.3795
 8961SOL    HW238346   3.365   1.930  12.564 -0.4320  0.7275 -0.9706
 8962SOL     OW38347   2.305   4.157   2.340 -0.3138  0.1410 -0.1469
 8962SOL    HW138348   2.296   4.239   2.387  1.2389 -0.7454  1.7027
 8962SOL    HW238349   2.222   4.145   2.294  0.1870 -0.5814 -0.8662
 8963SOL     OW38350   0.255   3.628   9.751  0.5606 -0.4693 -0.3516
 8963SOL    HW138351   0.232   3.599   9.663  2.3650 -1.1752 -0.5904
 8963SOL    HW238352   0.196   3.572   9.801  2.6082 -1.6962  0.6988
 8964SOL     OW38353   3.460   2.710   5.849  0.2707  0.3383 -0.2739
 8964SOL    HW138354   3.446   2.616   5.848 -1.2842  0.5516  0.6466
 8964SOL    HW238355   3.455   2.726   5.754 -3.5822 -1.6901 -0.3926
 8965SOL     OW38356   0.719   1.019   3.375 -0.4432 -0.1756 -0.7761
 8965SOL    HW138357   0.793   1.075   3.398 -0.6419 -0.4462  0.5160
 8965SOL    HW238358   0.663   1.034   3.451 -0.3953 -0.8142 -0.6140
 8966SOL     OW38359   4.436   3.935   5.836  0.0058 -0.2997  0.8326
 8966SOL    HW138360   4.364   3.991   5.866  0.2414  0.7425 -0.5585
 8966SOL    HW238361   4.484   3.973   5.763  0.7640 -1.5171  0.7047
 8967SOL     OW38362   3.850   4.571   0.302 -0.0512  0.8089  0.0957
 8967SOL    HW138363   3.875   4.567   0.394  0.9367  0.4462 -0.1901
 8967SOL    HW238364   3.899   4.648   0.270  1.8542  0.6349  2.5469
 8968SOL     OW38365   0.136   3.138   6.698 -0.2464  0.3532  0.1952
 8968SOL    HW138366   0.137   3.188   6.616  0.6998 -0.9689 -0.5896
 8968SOL    HW238367   0.225   3.162   6.723  0.2404  1.8090 -2.9047
 8969SOL     OW38368   2.424   1.802   8.552  0.1284  0.4154  0.1758
 8969SOL    HW138369   2.352   1.800   8.615  0.4270  3.5014  0.5892
 8969SOL    HW238370   2.487   1.811   8.623  2.1725 -0.8882 -1.4785
 8970SOL     OW38371   2.491   3.722   7.069 -0.1509 -0.5875  0.4433
 8970SOL    HW138372   2.458   3.634   7.090  0.3069 -0.9150 -0.2149
 8970SOL    HW238373   2.480   3.724   6.974 -1.1567  3.3639  0.6559
 8971SOL     OW38374   0.515   1.239   0.717  0.3893  0.1220 -0.2668
 8971SOL    HW138375   0.606   1.226   0.741  0.5169 -1.0565 -1.4000
 8971SOL    HW238376   0.512   1.331   0.691  0.1913  0.3977  0.7411
 8972SOL     OW38377   1.884   0.758   7.823 -0.4227 -0.0318  0.1959
 8972SOL    HW138378   1.889   0.803   7.907 -0.0988 -0.8983  0.6397
 8972SOL    HW238379   1.961   0.702   7.834 -0.1863  0.2976  0.2068
 8973SOL     OW38380   2.521   2.236   5.639  0.1371  0.2136 -0.4220
 8973SOL    HW138381   2.434   2.272   5.657 -0.9724 -2.9913  0.5124
 8973SOL    HW238382   2.502   2.146   5.663  0.6617 -0.6547 -3.2730
 8974SOL     OW38383   2.802   2.036   6.543  0.7123  0.1311 -0.3478
 8974SOL    HW138384   2.815   1.978   6.618  2.2923  0.7795 -0.1189
 8974SOL    HW238385   2.884   2.018   6.497  0.9027 -2.3125  0.9590
 8975SOL     OW38386   2.667   3.574  16.555 -0.0095  0.0321 -0.5182
 8975SOL    HW138387   2.603   3.634  16.516 -1.5441  0.1582  2.1997
 8975SOL    HW238388   2.732   3.632  16.595 -2.8770  0.1435  3.9467
 8976SOL     OW38389   3.020   3.439   9.665  0.1440 -0.5006 -0.4816
 8976SOL    HW138390   3.074   3.476   9.595 -0.2867  1.5177  0.2344
 8976SOL    HW238391   3.085   3.448   9.735 -1.5024 -1.9480  1.2308
 8977SOL     OW38392   2.812   2.451   1.768  0.0522  0.3147  0.1246
 8977SOL    HW138393   2.762   2.476   1.845 -0.4708  0.7645 -0.3622
 8977SOL    HW238394   2.740   2.413   1.718 -0.0873 -2.5596  2.5370
 8978SOL     OW38395   1.138   0.487  10.185  0.4405  0.1737  0.7356
 8978SOL    HW138396   1.120   0.420  10.250 -1.9069 -1.6968 -1.8856
 8978SOL    HW238397   1.210   0.534  10.227  1.2363 -0.6121  0.2529
 8979SOL     OW38398   4.452   1.540   4.172 -0.0496 -0.3687 -0.0366
 8979SOL    HW138399   4.362   1.514   4.152 -0.0647 -2.0006  2.2430
 8979SOL    HW238400   4.441   1.591   4.252  0.4224 -3.4593  1.9961
 8980SOL     OW38401   4.252   2.763   4.094 -0.3332 -0.2690 -0.0513
 8980SOL    HW138402   4.166   2.790   4.063 -0.4244 -2.6592 -1.8592
 8980SOL    HW238403   4.270   2.701   4.023  0.5985  0.0302 -0.0889
 8981SOL     OW38404   0.185   2.090   8.692  0.3034 -0.7156 -0.1181
 8981SOL    HW138405   0.248   2.137   8.747  0.2261 -1.5239  0.6613
 8981SOL    HW238406   0.221   2.001   8.683  0.0963 -0.5239 -3.0170
 8982SOL     OW38407   0.840   2.353  14.649  0.0996  0.6101 -0.1795
 8982SOL    HW138408   0.865   2.295  14.721 -0.0814 -0.4819 -0.9881
 8982SOL    HW238409   0.840   2.436  14.696 -0.2993  1.4384 -1.6470
 8983SOL     OW38410   2.121   2.560   3.643  0.8288 -0.1567 -0.1810
 8983SOL    HW138411   2.146   2.641   3.688  0.0959 -1.9474  3.4787
 8983SOL    HW238412   2.203   2.512   3.648  0.0212 -1.7654 -2.4927
 8984SOL     OW38413   2.557   1.958  10.007 -0.0797  0.8689  0.1867
 8984SOL    HW138414   2.631   1.952  10.067  0.7727 -0.1590 -0.9840
 8984SOL    HW238415   2.499   1.904  10.060  1.1171 -0.9944 -0.4265
 8985SOL     OW38416   4.462   0.623   1.930  0.2025 -0.5966  0.1538
 8985SOL    HW138417   4.405   0.598   1.857  1.3630  0.3319 -1.0629
 8985SOL    HW238418   4.408   0.698   1.957  0.0371 -0.1643 -1.3512
 8986SOL     OW38419   1.820   2.582   4.881 -0.4417 -0.6873 -0.6235
 8986SOL    HW138420   1.892   2.635   4.849 -2.3531  0.7343 -2.5812
 8986SOL    HW238421   1.757   2.590   4.810  0.2998 -3.8731 -1.6548
 8987SOL     OW38422   3.509   4.277  10.243  0.2664 -0.1239  0.1896
 8987SOL    HW138423   3.560   4.304  10.167 -1.7845  1.1888 -0.7209
 8987SOL    HW238424   3.436   4.333  10.219  0.2726  0.9125  2.5827
 8988SOL     OW38425   1.761   0.089   6.682 -0.2681 -0.3244 -0.1347
 8988SOL    HW138426   1.715   0.116   6.603  0.9331  1.4137 -0.2347
 8988SOL    HW238427   1.748   4.718   6.692  0.7459 -0.2697  1.7170
 8989SOL     OW38428   0.351   3.438   9.288  0.5458  0.1376  0.0985
 8989SOL    HW138429   0.350   3.449   9.193 -1.5481 -0.2847  0.0742
 8989SOL    HW238430   0.434   3.481   9.307  1.2645 -0.6537 -1.2795
 8990SOL     OW38431   3.300   0.122  11.269 -0.0571 -0.9778 -0.8908
 8990SOL    HW138432   3.354   0.195  11.300 -2.1082  0.6473 -1.0931
 8990SOL    HW238433   3.211   0.158  11.271 -0.3307 -1.7351  1.2272
 8991SOL     OW38434   2.557   3.641  17.650 -0.1984 -0.8625 -0.0221
 8991SOL    HW138435   2.633   3.592  17.619  1.4865  1.2160  0.8655
 8991SOL    HW238436   2.602   3.694   0.020  2.1807 -3.1878  0.2470
 8992SOL     OW38437   0.729   0.085  11.012  0.1797  0.2201 -0.5298
 8992SOL    HW138438   0.767   4.721  11.002  0.2629  0.2004 -0.0745
 8992SOL    HW238439   0.657   0.063  11.072  0.1714  0.3658 -0.4858
 8993SOL     OW38440   3.087   1.116   2.085  0.2180  0.8581 -0.0462
 8993SOL    HW138441   3.029   1.064   2.141 -0.8939 -0.0853 -2.0538
 8993SOL    HW238442   3.033   1.120   2.006  0.6031  2.1604 -0.2321
 8994SOL     OW38443   4.499   4.681   4.271 -0.2007  0.8025 -0.3992
 8994SOL    HW138444   4.453   4.598   4.258  2.3558 -0.3914 -1.6508
 8994SOL    HW238445   4.482   4.691   4.364 -0.4758  1.3502 -0.5042
 8995SOL     OW38446   4.164   1.860  16.270 -0.1954 -0.1588 -0.4864
 8995SOL    HW138447   4.201   1.793  16.211 -1.3467  0.5961 -2.0566
 8995SOL    HW238448   4.073   1.860  16.242 -0.5933 -2.2930  0.7844
 8996SOL     OW38449   1.759   2.049   7.204 -0.0681 -0.5017  0.2619
 8996SOL    HW138450   1.683   1.993   7.188  0.6394 -0.7383 -2.3211
 8996SOL    HW238451   1.781   2.072   7.114 -4.8820  0.0269 -0.7825
 8997SOL     OW38452   4.124   0.631   3.789 -0.3991  0.2248 -0.0894
 8997SOL    HW138453   4.066   0.671   3.853 -2.0964 -0.9051 -0.9334
 8997SOL    HW238454   4.170   0.710   3.759 -0.5961  0.2311 -0.3741
 8998SOL     OW38455   3.297   0.014   5.433 -0.6303 -0.0962  0.6929
 8998SOL    HW138456   3.294   0.007   5.338  0.0065  0.8616  0.6049
 8998SOL    HW238457   3.379   0.062   5.443 -1.9058  2.1025  0.6758
 8999SOL     OW38458   4.723   2.471   6.177 -0.0618 -0.6442 -0.5268
 8999SOL    HW138459   0.056   2.409   6.225  0.7059  0.0289 -0.5569
 8999SOL    HW238460   0.017   2.554   6.221  1.0728 -0.5322 -1.1729
 9000SOL     OW38461   2.844   4.118   8.942  0.1836 -0.1900 -0.0829
 9000SOL    HW138462   2.770   4.170   8.911 -0.1263 -1.8835 -2.2443
 9000SOL    HW238463   2.863   4.064   8.865  0.1321 -0.7063  0.2676
 9001SOL     OW38464   3.498   3.504   9.924 -0.1863  0.3012 -0.0767
 9001SOL    HW138465   3.447   3.584   9.921  2.6665  2.1127 -0.1739
 9001SOL    HW238466   3.479   3.460   9.841  0.0421  1.6467 -0.8412
 9002SOL     OW38467   2.032   2.400  14.366 -0.0803 -0.0797  0.1070
 9002SOL    HW138468   2.056   2.452  14.288 -0.6007  0.6493  0.4316
 9002SOL    HW238469   2.037   2.312  14.329  2.3105  0.1380 -0.0500
 9003SOL     OW38470   2.706   3.295   5.013 -0.2202 -0.0849 -0.7627
 9003SOL    HW138471   2.692   3.355   5.087  2.6459 -0.3082 -0.0573
 9003SOL    HW238472   2.759   3.225   5.050 -1.3648 -0.2622  0.5327
 9004SOL     OW38473   0.370   0.739   2.996 -0.0033  0.1073 -0.3098
 9004SOL    HW138474   0.402   0.649   2.996  0.9728  0.4561 -2.0130
 9004SOL    HW238475   0.437   0.785   3.046  0.8160  0.2650 -1.5533
 9005SOL     OW38476   2.451   3.677   2.531 -0.4227  0.9077  0.3854
 9005SOL    HW138477   2.521   3.727   2.572 -0.1053  1.2954 -0.6451
 9005SOL    HW238478   2.370   3.727   2.545 -1.0243  0.1326 -0.3037
 9006SOL     OW38479   3.435   0.114   6.706  0.1518  0.0043 -0.5759
 9006SOL    HW138480   3.403   0.027   6.680 -1.3099  0.1640  0.6478
 9006SOL    HW238481   3.523   0.083   6.726 -0.8427 -0.7440  2.7564
 9007SOL     OW38482   2.784   0.964   8.564 -0.1854 -0.2035  0.2299
 9007SOL    HW138483   2.877   0.955   8.543 -0.2385 -0.0942 -0.0413
 9007SOL    HW238484   2.798   0.940   8.656 -0.5854  2.0944  0.8826
 9008SOL     OW38485   0.828   4.106   3.566 -0.2235  0.2086 -0.3281
 9008SOL    HW138486   0.921   4.093   3.581 -0.1554 -0.1107 -1.0480
 9008SOL    HW238487   0.799   4.051   3.493  0.6910 -0.4404 -0.1949
 9009SOL     OW38488   4.554   1.519   2.541 -0.5066  0.1121  0.0043
 9009SOL    HW138489   4.542   1.484   2.453  1.4213  2.7217 -1.3109
 9009SOL    HW238490   4.565   1.612   2.523  2.6714 -0.0262  1.1432
 9010SOL     OW38491   3.686   4.174   1.679  0.2476 -0.1984 -0.6134
 9010SOL    HW138492   3.610   4.177   1.621  0.4869 -1.0272 -0.9747
 9010SOL    HW238493   3.658   4.108   1.743 -0.0836  0.0267 -0.5237
 9011SOL     OW38494   0.775   1.811   4.866 -0.2823 -0.2519 -0.0856
 9011SOL    HW138495   0.786   1.717   4.880 -1.9016 -0.4052  0.1604
 9011SOL    HW238496   0.842   1.858   4.915 -1.9157  1.4881  0.4886
 9012SOL     OW38497   2.371   0.391  16.501  0.2161  0.1571 -0.5106
 9012SOL    HW138498   2.350   0.426  16.588  1.6447 -2.2470  0.8030
 9012SOL    HW238499   2.368   0.474  16.452  1.1193  0.7773  0.4941
 9013SOL     OW38500   2.292   1.214   4.815  0.1758  0.3845  0.2926
 9013SOL    HW138501   2.303   1.223   4.909 -0.4372  1.7194  0.2361
 9013SOL    HW238502   2.230   1.284   4.793 -0.1604  0.0309  0.1070
 9014SOL     OW38503   0.682   3.152   7.001 -0.0880  0.5931  0.2020
 9014SOL    HW138504   0.618   3.083   7.016 -0.1117  0.4391 -0.6018
 9014SOL    HW238505   0.630   3.229   7.025 -1.3726 -0.5156  0.9927
 9015SOL     OW38506   2.081   2.206   9.422  0.3430  0.3515  0.2466
 9015SOL    HW138507   2.091   2.301   9.413 -0.7305  0.5126  0.7622
 9015SOL    HW238508   2.011   2.184   9.362  0.8580 -2.5989  0.7436
 9016SOL     OW38509   3.891   0.783  11.238 -0.0714  0.6586 -0.1359
 9016SOL    HW138510   3.863   0.858  11.291  2.1293  1.2289  0.2419
 9016SOL    HW238511   3.930   0.837  11.170 -1.3139  0.0767 -1.3028
 9017SOL     OW38512   4.211   1.248   8.950  0.4045 -0.7100 -0.6036
 9017SOL    HW138513   4.301   1.257   8.982  0.2097 -0.2228 -0.1884
 9017SOL    HW238514   4.166   1.243   9.035 -0.3630 -0.7362 -1.0200
 9018SOL     OW38515   2.628   2.758  10.245  0.1228 -1.4556 -0.1888
 9018SOL    HW138516   2.581   2.719  10.172 -1.7601 -1.7571  1.1712
 9018SOL    HW238517   2.708   2.707  10.235  0.4759 -0.3425 -3.1032
 9019SOL     OW38518   3.777   3.619   7.882 -0.6275 -0.3256  0.2342
 9019SOL    HW138519   3.803   3.536   7.922  0.9741  0.2780  0.4504
 9019SOL    HW238520   3.728   3.659   7.953 -1.6687  1.1615 -1.3231
 9020SOL     OW38521   4.392   0.750   8.172 -0.3129 -0.1165 -0.1643
 9020SOL    HW138522   4.301   0.726   8.154 -0.1446 -1.1902  0.4298
 9020SOL    HW238523   4.428   0.768   8.085 -2.2046  1.4557 -0.6530
 9021SOL     OW38524   1.834   0.791   1.062  0.4690 -0.2878 -0.1860
 9021SOL    HW138525   1.801   0.850   1.130 -1.0460 -0.3606 -0.8617
 9021SOL    HW238526   1.928   0.803   1.080  0.1942 -0.2686  1.2883
 9022SOL     OW38527   0.994   1.808   3.129  0.5647 -0.4813 -0.1059
 9022SOL    HW138528   0.906   1.774   3.115 -0.5344  1.8538  1.1470
 9022SOL    HW238529   0.968   1.885   3.179 -0.9070 -1.7981  1.1985
 9023SOL     OW38530   2.682   4.350  11.173  0.0170 -1.0529 -0.1026
 9023SOL    HW138531   2.764   4.371  11.128  0.6236 -0.5030  1.2639
 9023SOL    HW238532   2.712   4.303  11.250 -0.4062 -0.5605  0.3638
 9024SOL     OW38533   0.559   2.452   5.825  0.1299 -0.4660 -0.2131
 9024SOL    HW138534   0.597   2.404   5.899 -0.2345 -0.0655  0.2323
 9024SOL    HW238535   0.637   2.487   5.783 -1.2592 -0.1442 -2.5110
 9025SOL     OW38536   2.316   4.415   7.764 -0.4611 -0.2238 -0.5854
 9025SOL    HW138537   2.398   4.414   7.714 -0.1940  1.7251 -0.1889
 9025SOL    HW238538   2.350   4.440   7.850 -1.4466 -3.1243  0.6285
 9026SOL     OW38539   0.558   2.135   3.490 -0.1975 -0.7548  0.1143
 9026SOL    HW138540   0.497   2.169   3.556 -0.0795 -0.2052 -0.0577
 9026SOL    HW238541   0.496   2.084   3.438 -0.2208 -0.0531 -0.5547
 9027SOL     OW38542   2.376   2.207   2.596  0.3154  0.2355  0.1837
 9027SOL    HW138543   2.445   2.251   2.646  3.7493 -2.3684 -2.3148
 9027SOL    HW238544   2.300   2.259   2.622 -1.5928 -0.5042 -3.8357
 9028SOL     OW38545   1.338   3.784   2.053  0.0848  0.2966 -0.2045
 9028SOL    HW138546   1.370   3.707   2.100 -0.7966  0.4049  0.5714
 9028SOL    HW238547   1.244   3.770   2.065 -0.1824  0.9223 -1.5954
 9029SOL     OW38548   1.289   0.483   0.169 -0.7221 -0.2093  0.6698
 9029SOL    HW138549   1.313   0.576   0.163  0.6733 -0.6217 -0.0157
 9029SOL    HW238550   1.306   0.450   0.081 -0.1158  0.9138  0.3674
 9030SOL     OW38551   2.314   3.826   1.495  0.6868  0.3200  0.7043
 9030SOL    HW138552   2.377   3.838   1.424 -0.0633 -0.0742 -0.0371
 9030SOL    HW238553   2.265   3.753   1.456 -0.4102  1.5062 -0.1316
 9031SOL     OW38554   1.582   3.932   6.061 -0.4260 -0.4695 -0.1871
 9031SOL    HW138555   1.635   3.951   6.139  0.5676 -1.7056 -0.5624
 9031SOL    HW238556   1.641   3.875   6.011  0.6410 -0.5591  1.1775
 9032SOL     OW38557   4.592   1.962   8.749  0.3339  0.2023  0.0217
 9032SOL    HW138558   4.601   2.057   8.760  2.8522 -0.1319  0.9382
 9032SOL    HW238559   4.549   1.938   8.831 -0.0427  3.8504  0.9006
 9033SOL     OW38560   0.205   2.414   5.312  0.4577  0.0550 -0.2746
 9033SOL    HW138561   0.111   2.401   5.301  0.0895  1.0581  1.6387
 9033SOL    HW238562   0.204   2.505   5.343 -1.6408  0.4380 -1.4124
 9034SOL     OW38563   1.205   3.113   6.668 -0.5404 -0.0544 -0.4846
 9034SOL    HW138564   1.243   3.098   6.754  1.2355  2.4562 -0.8336
 9034SOL    HW238565   1.262   3.173   6.619  0.3616  3.4764  4.9053
 9035SOL     OW38566   4.129   1.979  14.411 -0.2082  0.3901  0.6156
 9035SOL    HW138567   4.201   1.974  14.348 -0.7247  1.2670 -0.0503
 9035SOL    HW238568   4.058   1.931  14.368  0.4197 -1.5479  1.7246
 9036SOL     OW38569   3.888   0.675   4.258 -0.0087 -0.0806  0.1112
 9036SOL    HW138570   3.842   0.624   4.191  1.2951 -0.8796 -0.1638
 9036SOL    HW238571   3.849   0.759   4.233 -0.1308 -0.3624 -0.6638
 9037SOL     OW38572   4.683   1.879   4.678  0.3309  0.4596 -0.3676
 9037SOL    HW138573   4.675   1.887   4.583 -1.1208  0.5840 -0.2402
 9037SOL    HW238574   0.035   1.930   4.709 -1.0851  2.7546 -0.7203
 9038SOL     OW38575   0.092   3.632   4.965 -0.1823 -0.2033 -0.2649
 9038SOL    HW138576   0.032   3.569   5.004 -1.2561  0.6991 -0.4623
 9038SOL    HW238577   0.116   3.676   5.046  1.1142 -0.6310 -0.4189
 9039SOL     OW38578   0.349   3.332  17.051  0.0092  0.4297  0.4822
 9039SOL    HW138579   0.282   3.265  17.044 -0.8488  1.5161 -1.6079
 9039SOL    HW238580   0.401   3.318  16.972 -2.0701  4.1746 -1.5676
 9040SOL     OW38581   2.873   4.159   3.807  0.5073  0.8273 -0.7007
 9040SOL    HW138582   2.911   4.158   3.719 -0.0826  0.0363 -0.9470
 9040SOL    HW238583   2.822   4.078   3.801  2.2969 -0.7541  5.3674
 9041SOL     OW38584   4.698   4.117   1.802  0.5328  0.0390 -0.3068
 9041SOL    HW138585   0.004   4.031   1.831  2.3579  0.9367  0.5179
 9041SOL    HW238586   4.675   4.093   1.713  1.8442 -0.4642 -0.5115
 9042SOL     OW38587   4.060   4.288  17.337 -0.4080 -0.3075  0.1154
 9042SOL    HW138588   4.069   4.383  17.333 -0.2278 -0.3879 -1.4997
 9042SOL    HW238589   4.141   4.260  17.380 -0.2980  0.9038  0.6919
 9043SOL     OW38590   2.047   1.310   0.913  1.2532 -0.0782  0.3223
 9043SOL    HW138591   2.043   1.217   0.934  1.4430  0.0635  0.9855
 9043SOL    HW238592   2.108   1.323   0.840 -0.2724 -0.7613 -1.0744
 9044SOL     OW38593   3.030   1.294   6.859 -0.5672  0.9066 -0.0216
 9044SOL    HW138594   2.970   1.315   6.788  0.0243  1.7382 -0.2732
 9044SOL    HW238595   2.964   1.318   6.924 -0.7478 -2.1753  0.9323
 9045SOL     OW38596   0.177   2.288   6.307 -0.1729 -0.1902  0.0927
 9045SOL    HW138597   0.245   2.353   6.288 -0.6685  0.2361 -0.2366
 9045SOL    HW238598   0.228   2.227   6.360 -1.0977  0.0232  1.2273
 9046SOL     OW38599   1.640   1.376   7.128  0.2805  0.2260  0.4593
 9046SOL    HW138600   1.700   1.434   7.080 -0.0500  0.3781  0.2271
 9046SOL    HW238601   1.607   1.313   7.064  1.5338 -0.4954  0.5445
 9047SOL     OW38602   0.105   1.081   8.237 -0.3350  0.1704 -0.0271
 9047SOL    HW138603   0.109   1.060   8.331 -0.0878  0.5949  0.0578
 9047SOL    HW238604   0.038   1.150   8.239  0.4425  0.9376 -0.5624
 9048SOL     OW38605   4.319   3.983  17.638 -0.0698 -0.4223 -0.2991
 9048SOL    HW138606   4.319   3.984   0.039  0.2785  3.8005 -0.3373
 9048SOL    HW238607   4.273   4.064  17.616  1.7178  0.9335  1.0148
 9049SOL     OW38608   2.686   0.987   4.261 -0.3525  0.5357 -0.4820
 9049SOL    HW138609   2.667   0.939   4.342 -0.2074 -0.4744 -1.0541
 9049SOL    HW238610   2.612   1.048   4.263 -2.0700 -1.4857 -2.8774
 9050SOL     OW38611   4.460   3.677   5.902 -0.0946  0.2203 -0.2722
 9050SOL    HW138612   4.460   3.772   5.905  0.3824  0.1947  0.4932
 9050SOL    HW238613   4.375   3.663   5.859  0.4151  1.3400 -1.6266
 9051SOL     OW38614   3.040   1.318   8.313  0.2869 -0.1750  0.4104
 9051SOL    HW138615   3.016   1.235   8.272  1.9680 -0.7545  0.5741
 9051SOL    HW238616   3.007   1.294   8.400  3.5172 -0.8394  1.4541
 9052SOL     OW38617   0.678   2.999   7.347 -0.2342 -0.2366  0.9135
 9052SOL    HW138618   0.771   2.976   7.336 -0.6872 -0.7611 -1.7150
 9052SOL    HW238619   0.644   2.913   7.370 -1.3288 -0.0550 -0.0500
 9053SOL     OW38620   0.671   3.606   1.791 -0.1420 -0.1469  0.3363
 9053SOL    HW138621   0.621   3.582   1.868  0.1924  0.0202  0.6039
 9053SOL    HW238622   0.758   3.578   1.819  0.8454  2.7441  0.1899
 9054SOL     OW38623   3.781   0.986   9.226 -0.4392 -0.3216 -0.0388
 9054SOL    HW138624   3.689   0.969   9.244  0.0146 -0.9158  1.7019
 9054SOL    HW238625   3.776   1.081   9.214  2.8466 -0.5657 -3.1555
 9055SOL     OW38626   4.433   0.008  10.918 -0.4246  0.0308  0.5006
 9055SOL    HW138627   4.427   4.708  11.011 -3.4541 -0.0037  0.3126
 9055SOL    HW238628   4.420   0.103  10.919  0.6650  0.1738  0.6012
 9056SOL     OW38629   0.552   2.820   0.671 -0.4031  0.8083  0.1215
 9056SOL    HW138630   0.571   2.907   0.636 -2.0491  1.4371  0.8242
 9056SOL    HW238631   0.487   2.859   0.729 -2.1128 -2.7214  0.6096
 9057SOL     OW38632   0.262   1.959   6.869  0.0564 -0.0207  0.6473
 9057SOL    HW138633   0.176   2.001   6.875  0.1100  0.3047 -0.7667
 9057SOL    HW238634   0.260   1.885   6.929 -1.1465 -0.7632 -0.3126
 9058SOL     OW38635   0.323   4.327   7.934  0.7506  0.3317 -0.2537
 9058SOL    HW138636   0.265   4.388   7.979  0.1702  1.5095 -2.6474
 9058SOL    HW238637   0.283   4.292   7.855 -0.7289 -1.7724  1.4414
 9059SOL     OW38638   0.573   3.818   7.860 -0.8638 -0.5215 -0.3867
 9059SOL    HW138639   0.600   3.784   7.945 -1.0063  0.8823  0.2101
 9059SOL    HW238640   0.537   3.904   7.883 -0.1512 -0.6707  1.3235
 9060SOL     OW38641   3.019   0.597   6.488 -0.3986  0.2063  0.2158
 9060SOL    HW138642   3.056   0.566   6.571  1.8548 -2.0766 -1.6469
 9060SOL    HW238643   3.101   0.626   6.448 -1.3388 -1.6011 -3.0475
 9061SOL     OW38644   0.957   1.240   2.958 -0.0690 -0.0946 -0.0296
 9061SOL    HW138645   0.947   1.286   3.041  2.7047 -0.0490  0.2844
 9061SOL    HW238646   0.875   1.254   2.911  0.2473 -0.3755 -0.6669
 9062SOL     OW38647   1.841   2.856  10.372  0.0106 -0.3204  0.1188
 9062SOL    HW138648   1.847   2.760  10.379 -0.0726 -0.2170  1.6607
 9062SOL    HW238649   1.898   2.863  10.295 -0.5298 -1.7247 -0.4121
 9063SOL     OW38650   0.511   3.508   3.501  0.1166 -0.0428  0.2212
 9063SOL    HW138651   0.423   3.507   3.538  0.5788  1.2813  1.3528
 9063SOL    HW238652   0.500   3.528   3.408 -0.5667 -0.0785  0.2941
 9064SOL     OW38653   0.308   0.453   6.284  0.0319 -0.3734 -0.5248
 9064SOL    HW138654   0.291   0.359   6.290  3.0489 -0.9454 -1.1431
 9064SOL    HW238655   0.333   0.455   6.377 -1.8998  2.8887 -0.0429
 9065SOL     OW38656   1.608   1.852  16.837  0.0010  0.2402  0.3771
 9065SOL    HW138657   1.682   1.837  16.896  0.6438  0.7438 -0.3104
 9065SOL    HW238658   1.652   1.834  16.754 -2.5886  1.8325 -1.3385
 9066SOL     OW38659   3.712   0.546   2.989  0.1187 -0.3124  0.1659
 9066SOL    HW138660   3.794   0.547   2.939  0.4438  2.6140  0.7758
 9066SOL    HW238661   3.692   0.640   2.994  0.0100 -0.2477 -1.5371
 9067SOL     OW38662   0.505   0.424   1.885 -0.0750 -0.1327 -0.2420
 9067SOL    HW138663   0.560   0.370   1.828 -0.9630 -0.7497 -0.5169
 9067SOL    HW238664   0.507   0.376   1.968  0.9687  1.8471  0.8807
 9068SOL     OW38665   4.533   0.288   0.346 -0.5873  0.5547 -0.1360
 9068SOL    HW138666   4.543   0.221   0.415 -1.0097  0.6846  0.0507
 9068SOL    HW238667   4.617   0.334   0.350  0.5279 -1.2982 -2.3960
 9069SOL     OW38668   2.826   1.874   8.119  1.0188  0.2377 -0.1142
 9069SOL    HW138669   2.901   1.859   8.177  0.6380  1.6176  0.7528
 9069SOL    HW238670   2.779   1.801   8.160  0.4829  0.8178  0.2993
 9070SOL     OW38671   1.123   0.988  14.326  0.0748  0.3594  0.2603
 9070SOL    HW138672   1.042   0.980  14.275 -1.5555 -1.6383  3.1491
 9070SOL    HW238673   1.161   1.067  14.287 -0.5611 -0.7402 -2.5894
 9071SOL     OW38674   3.748   4.667  17.170  0.6513 -0.0155 -0.4092
 9071SOL    HW138675   3.747   4.579  17.133 -4.1537  0.2173 -0.7350
 9071SOL    HW238676   3.658   4.689  17.147 -0.2870 -1.1216  2.1979
 9072SOL     OW38677   3.331   0.870   6.550 -0.5902 -0.9532  0.3286
 9072SOL    HW138678   3.296   0.958   6.559  0.6340 -0.3486 -0.8310
 9072SOL    HW238679   3.419   0.893   6.520 -2.6220  2.7802 -2.7113
 9073SOL     OW38680   3.106   1.184   1.705  0.1953  0.1895 -0.1521
 9073SOL    HW138681   3.202   1.188   1.707  0.0572  2.2958  1.4804
 9073SOL    HW238682   3.082   1.197   1.613  2.8327  1.6030 -0.6370
 9074SOL     OW38683   4.064   3.473   7.709  0.0571  0.2246  0.4159
 9074SOL    HW138684   4.019   3.399   7.669 -1.5961  1.5206 -0.1295
 9074SOL    HW238685   4.029   3.551   7.665  2.0411  0.8717 -0.0262
 9075SOL     OW38686   3.967   4.029  16.382  0.6391 -0.2387 -0.5705
 9075SOL    HW138687   3.886   3.998  16.341  0.3274  0.0585 -0.1864
 9075SOL    HW238688   4.028   3.957  16.367  0.5570 -0.1982 -1.1142
 9076SOL     OW38689   0.492   0.695   2.243  0.3352 -0.4073  0.2332
 9076SOL    HW138690   0.528   0.761   2.183 -2.8012 -0.1446 -1.3335
 9076SOL    HW238691   0.399   0.700   2.223  0.7653  1.4282 -1.3361
 9077SOL     OW38692   3.314   2.905   7.483 -0.4017  0.3109  0.2569
 9077SOL    HW138693   3.360   2.841   7.537  2.2267  0.9050 -1.2797
 9077SOL    HW238694   3.376   2.977   7.498 -0.9819  0.5281  1.6716
 9078SOL     OW38695   2.037   2.210   8.256 -0.1484 -0.3216 -0.3341
 9078SOL    HW138696   1.982   2.252   8.191  1.7173  0.3227 -1.4997
 9078SOL    HW238697   2.102   2.279   8.269 -1.3033  0.4429  1.3730
 9079SOL     OW38698   1.288   4.407   4.556 -0.6255  0.6198  0.6440
 9079SOL    HW138699   1.254   4.441   4.638 -0.8520  2.2448 -0.1228
 9079SOL    HW238700   1.369   4.371   4.592 -1.0100 -1.4308 -0.5400
 9080SOL     OW38701   4.523   1.603   7.994  0.2690  0.2733  1.4615
 9080SOL    HW138702   4.479   1.597   8.078  0.6038  0.2706  1.6389
 9080SOL    HW238703   4.589   1.535   8.009 -0.6106 -0.8852  0.0276
 9081SOL     OW38704   0.988   4.587   3.040  0.3174  0.3456  0.5820
 9081SOL    HW138705   0.907   4.630   3.069  1.8013  2.3778  1.6966
 9081SOL    HW238706   1.043   4.652   2.996  0.0322 -1.3182 -2.2132
 9082SOL     OW38707   4.098   4.572  16.753  0.1687  0.7423  0.2456
 9082SOL    HW138708   4.058   4.657  16.739  0.0197  0.3077 -1.8813
 9082SOL    HW238709   4.104   4.530  16.667  1.7651 -1.8046  1.5916
 9083SOL     OW38710   3.014   2.942   2.579 -0.3114 -0.4794  0.5117
 9083SOL    HW138711   2.926   2.935   2.617 -0.6273 -1.5613 -0.4429
 9083SOL    HW238712   3.018   3.037   2.566  3.2023 -0.4834  1.5370
 9084SOL     OW38713   2.573   3.714   0.223  0.2927  0.4385 -0.0159
 9084SOL    HW138714   2.657   3.738   0.263  1.3989 -1.3006 -1.3191
 9084SOL    HW238715   2.554   3.628   0.259 -3.2691  0.8732 -0.8981
 9085SOL     OW38716   4.132   0.449  11.939 -0.6631  0.1851 -0.7464
 9085SOL    HW138717   4.072   0.470  11.867 -1.2419  2.1445  0.3144
 9085SOL    HW238718   4.067   0.408  11.997 -0.6534 -0.0374 -0.8928
 9086SOL     OW38719   1.840   4.389   3.732 -0.1266  0.2386 -0.2454
 9086SOL    HW138720   1.903   4.338   3.682 -1.2545 -1.4711  0.0619
 9086SOL    HW238721   1.770   4.324   3.721 -2.1800  2.5321 -0.9041
 9087SOL     OW38722   1.740   4.523   0.379  0.1370  0.1985 -0.1973
 9087SOL    HW138723   1.661   4.481   0.345 -0.1024 -0.1699  0.8388
 9087SOL    HW238724   1.715   4.519   0.471 -1.1860 -3.9309 -0.7732
 9088SOL     OW38725   4.394   2.781   8.644  0.0646  0.2492 -0.2506
 9088SOL    HW138726   4.478   2.739   8.628 -0.0658 -0.0823 -0.0576
 9088SOL    HW238727   4.407   2.867   8.604 -2.8391 -0.0128 -1.7698
 9089SOL     OW38728   3.847   1.036  12.712 -0.8621  0.1946  0.4092
 9089SOL    HW138729   3.758   1.063  12.732 -1.3777 -1.3180  0.1648
 9089SOL    HW238730   3.829   0.943  12.727 -1.6898  0.1793 -0.6858
 9090SOL     OW38731   0.716   1.963  16.739  0.1490  0.1809  0.6616
 9090SOL    HW138732   0.699   1.960  16.645 -0.5446 -0.2945  0.8045
 9090SOL    HW238733   0.629   1.988  16.771 -1.3206 -0.7134 -2.6535
 9091SOL     OW38734   0.776   2.151   4.122 -0.2861  0.0420  0.2219
 9091SOL    HW138735   0.702   2.160   4.182 -1.7047 -2.2586 -1.1613
 9091SOL    HW238736   0.783   2.242   4.094 -0.8858 -0.2950 -1.0330
 9092SOL     OW38737   2.377   0.021   6.922 -0.1348  0.1201  0.3134
 9092SOL    HW138738   2.396   4.657   6.957  0.3930 -0.2308 -0.8621
 9092SOL    HW238739   2.424   0.068   6.990 -0.3611 -0.2649  0.7407
 9093SOL     OW38740   2.881   3.270   4.482  0.4959 -0.3790  0.1791
 9093SOL    HW138741   2.799   3.231   4.452  0.5549  0.6635 -1.3140
 9093SOL    HW238742   2.841   3.353   4.508  0.3727 -0.0425 -1.0938
 9094SOL     OW38743   4.545   1.989   4.356  0.3104 -0.3341 -0.1697
 9094SOL    HW138744   4.610   1.944   4.302 -0.4720 -1.7531  0.0770
 9094SOL    HW238745   4.478   1.998   4.289  0.0112 -1.4713 -0.0197
 9095SOL     OW38746   2.615   2.340  11.667  0.4254 -0.0056 -0.1646
 9095SOL    HW138747   2.640   2.404  11.734  1.1986 -0.3101 -0.1704
 9095SOL    HW238748   2.520   2.339  11.681  0.5460 -2.7172  0.5794
 9096SOL     OW38749   4.084   0.219   7.743 -0.4679  0.9855 -0.5063
 9096SOL    HW138750   3.994   0.243   7.723 -0.6666  0.5994 -0.0741
 9096SOL    HW238751   4.070   0.202   7.836 -0.6775 -0.9494 -0.8891
 9097SOL     OW38752   1.489   2.895   6.010  0.5129  0.2338  0.4997
 9097SOL    HW138753   1.562   2.835   6.021 -0.1654 -0.4803  1.1469
 9097SOL    HW238754   1.443   2.896   6.093 -0.0394 -0.8994  0.2075
 9098SOL     OW38755   2.638   3.437   8.588  0.4534  0.0427 -0.2295
 9098SOL    HW138756   2.673   3.379   8.656 -0.0991  0.8405  0.7422
 9098SOL    HW238757   2.567   3.389   8.545  0.6076  1.1873 -1.7401
 9099SOL     OW38758   3.495   1.343   2.410  0.2534  0.0396  0.1396
 9099SOL    HW138759   3.465   1.253   2.401 -0.3961  0.1006  1.6641
 9099SOL    HW238760   3.591   1.340   2.418  0.1987 -0.7385  0.4465
 9100SOL     OW38761   1.616   0.116   1.137  0.0069 -0.0976 -0.2309
 9100SOL    HW138762   1.600   0.210   1.148 -0.4453 -0.5272  2.6796
 9100SOL    HW238763   1.695   0.108   1.083 -0.6593 -0.4781 -1.1684
 9101SOL     OW38764   3.425   0.230  17.664 -0.1167 -0.0968  0.5787
 9101SOL    HW138765   3.358   0.173  17.627  0.8031 -0.9700  0.2471
 9101SOL    HW238766   3.465   0.157   0.018 -1.4864 -2.2346 -1.5257
 9102SOL     OW38767   2.952   0.367   4.075  0.5737 -0.3572  0.0165
 9102SOL    HW138768   2.942   0.459   4.099 -1.3910 -0.8240  1.0352
 9102SOL    HW238769   2.965   0.333   4.163  0.6203  1.5241  0.7375
 9103SOL     OW38770   4.319   0.233   7.200 -0.2290  0.2691  0.3245
 9103SOL    HW138771   4.234   0.241   7.243 -1.0017 -0.3281 -1.1136
 9103SOL    HW238772   4.314   0.147   7.160 -1.7730  0.1343  0.7940
 9104SOL     OW38773   0.472   4.479  12.135  0.0232 -0.1584  0.2618
 9104SOL    HW138774   0.533   4.408  12.154  1.2182  0.2001 -2.1744
 9104SOL    HW238775   0.500   4.495  12.045 -1.3943 -0.1743 -0.1748
 9105SOL     OW38776   1.063   4.675   2.190 -0.4746  0.1427  0.3143
 9105SOL    HW138777   1.015   4.655   2.110  0.4029  0.3868 -0.2780
 9105SOL    HW238778   1.134   0.007   2.157 -0.2209 -0.2997  0.1206
 9106SOL     OW38779   2.899   1.708  10.444 -0.0226 -0.5408  0.1222
 9106SOL    HW138780   2.972   1.705  10.505  0.8747  1.8721 -0.8450
 9106SOL    HW238781   2.827   1.740  10.499 -0.6167 -0.6676 -0.5858
 9107SOL     OW38782   1.437   4.239   3.135 -0.2362 -0.2923 -0.1637
 9107SOL    HW138783   1.500   4.310   3.143  1.6845 -2.1388  1.1418
 9107SOL    HW238784   1.441   4.211   3.227 -1.6460 -0.1308 -0.0519
 9108SOL     OW38785   0.399   2.034  15.007 -0.2033 -0.1602  0.0758
 9108SOL    HW138786   0.425   1.955  14.959  0.4159  0.2198 -0.2303
 9108SOL    HW238787   0.473   2.020  15.066  1.4823 -1.8979 -2.4179
 9109SOL     OW38788   4.289   1.048   2.825  0.0203 -1.1173 -0.3575
 9109SOL    HW138789   4.322   1.080   2.908  0.6770  0.3679 -1.1976
 9109SOL    HW238790   4.341   1.098   2.763 -1.1251 -1.9505 -2.0103
 9110SOL     OW38791   4.335   3.587   3.637 -0.1537 -0.1047 -0.2402
 9110SOL    HW138792   4.294   3.534   3.705  1.1770 -2.4157 -1.2554
 9110SOL    HW238793   4.376   3.654   3.692  0.3783 -0.2924 -0.4171
 9111SOL     OW38794   1.324   1.463   1.946 -0.1286 -0.1222  1.0251
 9111SOL    HW138795   1.333   1.370   1.968 -1.0018 -0.1486  1.2754
 9111SOL    HW238796   1.407   1.500   1.977  0.4280 -0.0760 -0.5304
 9112SOL     OW38797   3.609   0.282   3.982 -0.2460 -0.4038  0.5803
 9112SOL    HW138798   3.699   0.282   4.016  0.0039  1.0774 -0.0953
 9112SOL    HW238799   3.594   0.375   3.995 -0.8530 -0.5425  0.8574
 9113SOL     OW38800   2.490   0.575   2.990  0.0127  0.0155  0.0137
 9113SOL    HW138801   2.516   0.542   2.905 -0.0222 -0.5278  0.2158
 9113SOL    HW238802   2.410   0.523   2.999  0.3848 -0.6023 -0.2787
 9114SOL     OW38803   4.652   1.769  10.401 -0.2439 -0.4872 -0.3812
 9114SOL    HW138804   4.584   1.725  10.452  0.8799  0.0450  1.5700
 9114SOL    HW238805   4.713   1.696  10.388  0.3527 -0.1935  0.7999
 9115SOL     OW38806   4.148   2.938  11.054 -0.0063  0.4734 -0.3223
 9115SOL    HW138807   4.224   2.900  11.097 -0.2263 -0.7312 -0.9999
 9115SOL    HW238808   4.145   3.019  11.106  1.3962  0.6637 -0.5383
 9116SOL     OW38809   4.014   1.834   4.079 -0.1738 -0.5336 -0.0235
 9116SOL    HW138810   4.060   1.820   3.997 -0.2709 -1.4492  0.0822
 9116SOL    HW238811   3.921   1.838   4.054  0.1209 -0.2825 -1.0766
 9117SOL     OW38812   2.471   1.538   8.398 -0.0480 -0.1928  0.4938
 9117SOL    HW138813   2.441   1.624   8.425 -1.1632 -0.1925 -0.7543
 9117SOL    HW238814   2.502   1.542   8.308 -2.7298 -0.9466 -0.4621
 9118SOL     OW38815   1.149   1.297  11.297 -0.6735  0.0856  0.9020
 9118SOL    HW138816   1.162   1.241  11.373  0.6969  1.7327  1.8488
 9118SOL    HW238817   1.218   1.278  11.233 -1.7163 -0.0601 -0.1820
 9119SOL     OW38818   0.015   2.666   8.212  0.4002  0.2423  0.0140
 9119SOL    HW138819   0.076   2.593   8.217 -0.1949 -0.3542 -1.3991
 9119SOL    HW238820   0.075   2.736   8.237  0.8223 -0.9871  2.4137
 9120SOL     OW38821   2.510   4.698   4.809 -0.5553 -0.4435 -0.5192
 9120SOL    HW138822   2.416   4.709   4.793 -0.5978 -0.5993 -0.3881
 9120SOL    HW238823   2.532   4.614   4.769  0.9392  0.4637 -1.5697
 9121SOL     OW38824   2.638   0.639   5.848  0.3819 -0.0223 -0.0104
 9121SOL    HW138825   2.685   0.688   5.915 -0.4696 -1.2650  1.5284
 9121SOL    HW238826   2.640   0.553   5.891 -0.7088  0.8850  1.8423
 9122SOL     OW38827   0.192   3.206   4.860  0.1620  0.1323 -0.2708
 9122SOL    HW138828   0.166   3.240   4.775  0.5871  0.7998 -0.1292
 9122SOL    HW238829   0.121   3.235   4.918  1.4670 -0.0464  1.4059
 9123SOL     OW38830   3.182   3.620   3.310 -0.7039  0.4689  0.0771
 9123SOL    HW138831   3.217   3.608   3.399  0.3731 -1.0652 -0.5627
 9123SOL    HW238832   3.172   3.530   3.280  3.7391  0.6785 -1.8497
 9124SOL     OW38833   3.100   2.818   1.568  0.0870 -0.2641  0.2590
 9124SOL    HW138834   3.046   2.755   1.520  0.7341 -2.7572  2.7731
 9124SOL    HW238835   3.171   2.832   1.505 -1.0930 -1.7354 -1.3980
 9125SOL     OW38836   2.065   1.150  15.771 -0.4457  0.2545  0.0758
 9125SOL    HW138837   2.022   1.092  15.708  2.5415  0.3128 -1.9979
 9125SOL    HW238838   2.008   1.159  15.847  0.2062 -1.8080  0.8081
 9126SOL     OW38839   2.046   3.266   2.679 -0.6118  0.3061  0.5988
 9126SOL    HW138840   1.968   3.294   2.727 -0.5146 -0.9529  1.5098
 9126SOL    HW238841   2.095   3.211   2.740  1.4024  0.5775 -0.7821
 9127SOL     OW38842   3.673   2.014   8.845  0.6797 -0.0681 -0.2847
 9127SOL    HW138843   3.619   2.019   8.924  0.2669  3.7440 -0.8324
 9127SOL    HW238844   3.661   2.101   8.807  0.6968  0.8172  1.7156
 9128SOL     OW38845   0.706   0.911   0.310  0.0658 -0.2102  0.1465
 9128SOL    HW138846   0.682   0.819   0.299 -2.5927  0.7465 -1.9324
 9128SOL    HW238847   0.621   0.955   0.301  0.0175 -0.4942 -0.7145
 9129SOL     OW38848   1.202   0.444   2.855 -0.0956 -0.3308 -0.1873
 9129SOL    HW138849   1.116   0.461   2.894 -0.3043  1.1855 -1.3232
 9129SOL    HW238850   1.176   0.379   2.790  0.7289 -1.3343  0.4750
 9130SOL     OW38851   0.876   2.471   1.997  0.5899 -0.0258 -0.5367
 9130SOL    HW138852   0.928   2.449   1.919  2.4351  1.1139  0.3741
 9130SOL    HW238853   0.794   2.479   1.948  0.9330 -0.5601 -1.1956
 9131SOL     OW38854   3.589   3.386   5.605 -0.0938  0.0075  0.3450
 9131SOL    HW138855   3.632   3.356   5.685  0.0285 -2.1283 -0.5196
 9131SOL    HW238856   3.583   3.481   5.618 -0.5335  0.1113 -0.5840
 9132SOL     OW38857   3.255   3.724   8.811 -0.3433 -0.3957  0.4127
 9132SOL    HW138858   3.295   3.641   8.838  0.3495  0.0151  0.6570
 9132SOL    HW238859   3.299   3.745   8.729  1.2465  1.0382  1.6373
 9133SOL     OW38860   1.057   2.277  17.064 -0.5755  0.4969  0.9516
 9133SOL    HW138861   1.030   2.359  17.023 -1.2431  1.1747  2.7751
 9133SOL    HW238862   1.033   2.216  16.994  0.0465 -0.5567  1.6578
 9134SOL     OW38863   3.400   2.993   5.475 -0.1302  0.2464 -0.4216
 9134SOL    HW138864   3.382   3.067   5.533  2.3673  0.8171 -0.3608
 9134SOL    HW238865   3.310   2.966   5.456  0.4184 -0.7480 -1.6222
 9135SOL     OW38866   3.177   1.531   5.027 -0.1773 -0.7711  0.2585
 9135SOL    HW138867   3.249   1.471   5.049  0.4984 -0.4618 -1.1373
 9135SOL    HW238868   3.220   1.609   4.994 -0.5349 -0.8264 -0.3311
 9136SOL     OW38869   1.218   2.458   8.275  0.5503  0.0085  0.3399
 9136SOL    HW138870   1.257   2.503   8.350  0.5556 -0.5322  0.6677
 9136SOL    HW238871   1.136   2.504   8.262 -0.9934 -2.6484  0.5843
 9137SOL     OW38872   2.621   1.974  13.038  0.4559  0.3516  0.1293
 9137SOL    HW138873   2.671   2.013  13.109  0.0941  0.6396  0.2244
 9137SOL    HW238874   2.539   2.021  13.056  0.3796  0.5580 -0.7359
 9138SOL     OW38875   0.558   3.221  13.720 -0.3684 -0.0696  0.6191
 9138SOL    HW138876   0.528   3.197  13.808  0.2512 -1.7739  0.3638
 9138SOL    HW238877   0.643   3.177  13.718 -0.0365  0.5492  1.0824
 9139SOL     OW38878   2.160   2.212   6.034  0.5341  0.3930 -0.9769
 9139SOL    HW138879   2.155   2.178   5.944  1.0589  1.1980 -1.3102
 9139SOL    HW238880   2.208   2.141   6.075  0.7800  2.0280  1.5316
 9140SOL     OW38881   1.040   0.059   6.590  0.0236  0.1550  0.4121
 9140SOL    HW138882   1.085   0.108   6.660  2.4000 -1.6374  0.1337
 9140SOL    HW238883   1.029   0.131   6.528 -0.6133  0.8370  1.3051
 9141SOL     OW38884   4.681   1.102   7.138 -0.0556  0.0643 -0.2021
 9141SOL    HW138885   4.658   1.151   7.217  0.3538  1.7177 -1.1191
 9141SOL    HW238886   4.650   1.013   7.158 -0.5382  0.8639  2.6255
 9142SOL     OW38887   2.796   0.581   8.365 -0.1718  0.2642 -0.6278
 9142SOL    HW138888   2.864   0.552   8.426 -1.6051 -2.5972 -0.3603
 9142SOL    HW238889   2.727   0.523   8.398  0.3879 -2.3597 -4.1174
 9143SOL     OW38890   1.984   1.314   4.196  0.6075 -0.4920  0.6801
 9143SOL    HW138891   1.957   1.355   4.115  3.0088  2.2641  1.2807
 9143SOL    HW238892   1.961   1.380   4.262  1.0006  1.7625 -1.4563
 9144SOL     OW38893   0.720   2.709  11.203 -0.1981 -0.5348 -0.2366
 9144SOL    HW138894   0.775   2.785  11.222  1.1284 -1.1497 -1.6896
 9144SOL    HW238895   0.754   2.690  11.116 -2.0845  1.1746 -1.3503
 9145SOL     OW38896   0.864   3.329   9.424  0.0567 -0.0676 -0.0920
 9145SOL    HW138897   0.838   3.345   9.515  0.4772 -1.2113  0.2435
 9145SOL    HW238898   0.869   3.234   9.413  0.6338 -0.3473  2.5308
 9146SOL     OW38899   0.635   1.763   6.530 -0.0496  0.4979 -0.7276
 9146SOL    HW138900   0.685   1.719   6.462  0.0024 -2.5673  1.3411
 9146SOL    HW238901   0.670   1.717   6.606 -2.9275  0.9334  0.8583
 9147SOL     OW38902   2.108   2.695   7.810 -0.1160  0.6495 -0.1807
 9147SOL    HW138903   2.194   2.717   7.846 -0.0251  3.6467 -2.3515
 9147SOL    HW238904   2.057   2.748   7.871  0.7520  0.3181  0.8362
 9148SOL     OW38905   3.274   1.208   7.468  0.1994 -0.0484 -0.1128
 9148SOL    HW138906   3.324   1.204   7.386  0.3162 -2.2353  0.0620
 9148SOL    HW238907   3.226   1.127   7.457  0.9597 -0.5859  0.5195
 9149SOL     OW38908   4.382   0.810   5.916  0.0360 -0.0209  0.0499
 9149SOL    HW138909   4.355   0.764   5.996  1.3420 -0.0245  0.4860
 9149SOL    HW238910   4.307   0.860   5.883 -0.5738 -0.0919  1.3158
 9150SOL     OW38911   1.840   1.880   6.899 -0.7842 -0.0621 -0.6819
 9150SOL    HW138912   1.771   1.820   6.871 -0.1619 -0.3912 -1.4892
 9150SOL    HW238913   1.796   1.964   6.915 -0.2094  0.2464 -0.7033
 9151SOL     OW38914   1.370   0.228   0.577  0.6008 -0.6849 -0.4910
 9151SOL    HW138915   1.359   0.197   0.487 -2.4066 -1.3602  0.1260
 9151SOL    HW238916   1.279   0.243   0.601  0.8887  2.1187 -1.2303
 9152SOL     OW38917   1.447   3.981   8.127  0.2020 -0.1914  0.5678
 9152SOL    HW138918   1.435   3.886   8.124 -0.0188 -0.1903  1.2609
 9152SOL    HW238919   1.388   3.997   8.201 -1.4130  0.4161 -0.8505
 9153SOL     OW38920   0.195   3.545   9.498 -0.0349  0.0147 -0.0734
 9153SOL    HW138921   0.256   3.493   9.445 -0.1929 -0.0272 -0.2150
 9153SOL    HW238922   0.115   3.505   9.462 -0.0618  1.3667 -1.5172
 9154SOL     OW38923   1.517   2.373   3.697 -0.1447  0.2659  0.3355
 9154SOL    HW138924   1.558   2.367   3.611 -1.8278  0.7711 -0.4890
 9154SOL    HW238925   1.441   2.430   3.688  0.3566  0.8502 -0.1772
 9155SOL     OW38926   2.084   1.151   6.616 -0.8279 -0.1260 -0.5197
 9155SOL    HW138927   1.997   1.144   6.654  0.1187  1.2942  1.9027
 9155SOL    HW238928   2.083   1.243   6.588 -1.2485  0.0629  0.1249
 9156SOL     OW38929   1.107   0.660   5.791  0.1041  0.2017 -0.1916
 9156SOL    HW138930   1.150   0.740   5.820  0.9173 -0.2408 -0.1461
 9156SOL    HW238931   1.035   0.655   5.854 -0.5109 -1.6899 -1.0493
 9157SOL     OW38932   1.727   1.229   7.337 -0.1230 -0.0718 -0.0520
 9157SOL    HW138933   1.738   1.314   7.379 -0.0663 -0.0805 -0.0489
 9157SOL    HW238934   1.692   1.258   7.252  1.1926 -0.5426 -0.7551
 9158SOL     OW38935   3.493   0.586   7.346 -0.5081  0.5694  0.1328
 9158SOL    HW138936   3.458   0.675   7.337 -0.9319  0.3566 -0.3229
 9158SOL    HW238937   3.587   0.595   7.360 -0.2038 -2.4503  0.0791
 9159SOL     OW38938   2.049   3.463   3.758  0.1914  0.6389 -0.1246
 9159SOL    HW138939   2.030   3.536   3.816  0.5363 -0.1848  1.0222
 9159SOL    HW238940   2.090   3.504   3.682  1.4062 -2.7421 -1.3114
 9160SOL     OW38941   2.383   3.241   6.336  0.5433  0.3232 -0.0378
 9160SOL    HW138942   2.288   3.240   6.329  0.5668 -0.7220 -0.2500
 9160SOL    HW238943   2.394   3.176   6.405  0.8653  0.6568  0.2268
 9161SOL     OW38944   1.821   0.282   7.235  0.1544  0.1440  0.3607
 9161SOL    HW138945   1.890   0.248   7.179 -0.8809  0.1493 -0.9065
 9161SOL    HW238946   1.851   0.370   7.257 -0.5058  0.3929  0.2516
 9162SOL     OW38947   1.968   0.620  16.782  0.6511  0.3219  0.1794
 9162SOL    HW138948   2.051   0.616  16.831  1.9209 -1.2962 -2.1137
 9162SOL    HW238949   1.963   0.706  16.741  2.0091 -0.1133 -0.9167
 9163SOL     OW38950   3.026   0.299  11.286 -0.1236 -0.0656  0.0569
 9163SOL    HW138951   2.979   0.313  11.204 -1.3473  0.7966  0.9183
 9163SOL    HW238952   2.982   0.364  11.340 -0.5756  0.0750 -0.4820
 9164SOL     OW38953   0.219   0.819   2.270 -0.1803 -0.1543 -0.8210
 9164SOL    HW138954   0.173   0.876   2.209  0.5035  0.9272 -0.3364
 9164SOL    HW238955   0.181   0.843   2.355 -1.3172  0.1482 -1.4202
 9165SOL     OW38956   3.222   1.272   3.519 -0.3641 -0.1097 -0.1742
 9165SOL    HW138957   3.248   1.328   3.592 -0.3305  1.6931 -1.5537
 9165SOL    HW238958   3.229   1.186   3.561 -3.4079  0.0138  0.6053
 9166SOL     OW38959   1.455   1.607   7.853 -0.1439 -0.4939 -0.4010
 9166SOL    HW138960   1.521   1.672   7.830 -0.9383 -0.1916 -1.8880
 9166SOL    HW238961   1.501   1.550   7.914 -0.2123  0.0913  0.1985
 9167SOL     OW38962   3.143   0.432  16.424  0.4718 -0.1332  0.2085
 9167SOL    HW138963   3.180   0.512  16.387 -0.1703  0.8074  1.5618
 9167SOL    HW238964   3.162   0.446  16.517  2.0367 -0.9346  0.0120
 9168SOL     OW38965   3.654   0.383  11.183 -0.1829 -0.6070 -0.3380
 9168SOL    HW138966   3.581   0.388  11.245  0.7552  0.3535  0.6841
 9168SOL    HW238967   3.688   0.296  11.203  1.4301  0.6307  2.3851
 9169SOL     OW38968   0.910   1.765   6.171 -0.4786  0.0289 -0.2515
 9169SOL    HW138969   0.973   1.799   6.108  0.0842 -2.9570 -1.2603
 9169SOL    HW238970   0.879   1.842   6.219 -1.0757 -0.0221 -0.5483
 9170SOL     OW38971   2.623   1.578   5.264  0.2069 -0.1964 -0.1252
 9170SOL    HW138972   2.709   1.606   5.295  0.3440  1.8418 -2.3452
 9170SOL    HW238973   2.580   1.551   5.345  2.0219  1.9358  1.5516
 9171SOL     OW38974   0.758   4.639   4.256  0.0338  0.8557 -0.2302
 9171SOL    HW138975   0.728   4.583   4.184  1.1472  1.2500 -1.0106
 9171SOL    HW238976   0.853   4.644   4.245  0.0438  1.6519  0.2099
 9172SOL     OW38977   2.385   2.192  10.521 -0.2378 -0.1454  0.0565
 9172SOL    HW138978   2.450   2.260  10.506  0.8567 -1.6711 -2.1018
 9172SOL    HW238979   2.348   2.184  10.433  0.1725  2.0764 -0.3075
 9173SOL     OW38980   3.453   3.899   8.170 -0.1088 -0.2336  0.2290
 9173SOL    HW138981   3.397   3.820   8.166  0.8527 -0.9040  0.0521
 9173SOL    HW238982   3.447   3.943   8.086  0.9075  1.1749  0.8993
 9174SOL     OW38983   1.657   0.203  16.032 -0.5679 -0.3917  0.1566
 9174SOL    HW138984   1.647   0.292  16.066  2.1840 -0.5081  1.2424
 9174SOL    HW238985   1.641   0.214  15.939  2.0859 -0.2013 -0.2742
 9175SOL     OW38986   3.246   3.855   4.185  0.0001  0.2324  0.0908
 9175SOL    HW138987   3.230   3.884   4.096 -1.2591 -1.5267 -0.2783
 9175SOL    HW238988   3.335   3.823   4.178  0.2834  1.4220 -1.5281
 9176SOL     OW38989   1.837   2.975   1.321  0.0775  0.1288  0.2918
 9176SOL    HW138990   1.869   3.064   1.337  2.0261 -0.1214 -2.2282
 9176SOL    HW238991   1.918   2.925   1.316  0.2368  0.3567  0.6045
 9177SOL     OW38992   0.035   3.930   5.296 -0.3369 -0.6188  0.5267
 9177SOL    HW138993   0.073   3.855   5.250 -0.7438 -0.3456 -0.2631
 9177SOL    HW238994   0.108   3.991   5.308 -2.5645  2.5910 -2.1980
 9178SOL     OW38995   1.455   0.742   7.672  0.3374 -0.2144  0.0859
 9178SOL    HW138996   1.503   0.660   7.674  0.8281  0.0376 -2.0641
 9178SOL    HW238997   1.460   0.746   7.577  1.5072 -0.5402  0.1368
 9179SOL     OW38998   1.720   3.774   1.976 -0.4123 -0.2842 -0.7302
 9179SOL    HW138999   1.698   3.862   2.008  0.0150  0.4014 -2.3748
 9179SOL    HW239000   1.677   3.764   1.891  0.4270 -1.7523 -0.9717
 9180SOL     OW39001   1.122   0.617   6.717 -0.0640  0.5043 -0.0862
 9180SOL    HW139002   1.157   0.695   6.673 -1.6164  1.1891 -0.1444
 9180SOL    HW239003   1.178   0.594   6.791  0.2620 -0.7377 -0.7244
 9181SOL     OW39004   3.056   4.130   5.098  0.2095  0.0671  0.2833
 9181SOL    HW139005   3.058   4.176   5.182  0.0053 -0.3301  0.5067
 9181SOL    HW239006   3.118   4.185   5.050 -0.7032  0.6421 -0.2226
 9182SOL     OW39007   3.904   3.867   8.740 -0.4172 -0.3557  0.6488
 9182SOL    HW139008   3.982   3.814   8.722 -1.7202 -1.0850 -2.8092
 9182SOL    HW239009   3.852   3.819   8.803  0.8306  0.2247  2.1289
 9183SOL     OW39010   1.756   2.364   2.800 -0.2161 -0.7622 -0.0252
 9183SOL    HW139011   1.798   2.282   2.775 -0.3489 -0.5940 -0.8142
 9183SOL    HW239012   1.676   2.365   2.747 -0.7788 -0.3326  0.8244
 9184SOL     OW39013   4.239   0.136   3.839  0.4481 -0.2916 -0.1410
 9184SOL    HW139014   4.185   0.193   3.893 -0.1849 -0.2305 -0.8264
 9184SOL    HW239015   4.324   0.179   3.846  0.3504  0.0697 -1.1757
 9185SOL     OW39016   3.804   1.690   2.391 -0.2501  0.5675 -0.4785
 9185SOL    HW139017   3.735   1.717   2.452 -0.5194 -1.4504  0.1127
 9185SOL    HW239018   3.853   1.772   2.380 -1.7814  1.6875  1.0157
 9186SOL     OW39019   0.443   0.009   3.986  0.1929  0.0217  0.1079
 9186SOL    HW139020   0.444   0.082   3.925  0.4598  0.6300  0.8487
 9186SOL    HW239021   0.461   4.657   3.929  0.5545  1.8658 -2.1916
 9187SOL     OW39022   0.972   2.822  14.071  0.4566  0.3717 -0.2108
 9187SOL    HW139023   1.002   2.821  14.162  1.9562  0.7484 -0.7107
 9187SOL    HW239024   1.038   2.883  14.038 -0.4203  1.3026 -0.2264
 9188SOL     OW39025   0.764   3.502   3.061 -0.1773 -0.2805  0.0857
 9188SOL    HW139026   0.821   3.578   3.054 -0.2767 -0.2367 -0.2571
 9188SOL    HW239027   0.827   3.432   3.047 -3.0377 -2.5588 -1.4804
 9189SOL     OW39028   2.186   0.808   3.358  0.3496  0.5691 -0.8095
 9189SOL    HW139029   2.268   0.791   3.406  0.0062 -1.4539 -0.9535
 9189SOL    HW239030   2.196   0.900   3.334  3.1015 -0.3169 -3.0925
 9190SOL     OW39031   0.559   1.128   5.267 -0.1820 -0.9388 -0.1029
 9190SOL    HW139032   0.567   1.219   5.236  1.0787 -0.8192  0.5722
 9190SOL    HW239033   0.480   1.132   5.321  1.3991 -0.8481  2.1939
 9191SOL     OW39034   0.680   1.424  17.351 -0.2701  0.0708 -0.1510
 9191SOL    HW139035   0.624   1.502  17.360 -1.1565 -0.5165 -0.6212
 9191SOL    HW239036   0.623   1.353  17.378  4.6331 -2.9458  2.2917
 9192SOL     OW39037   4.603   3.765   3.698  0.4230  0.3403 -0.3175
 9192SOL    HW139038   4.644   3.785   3.613  1.1002 -1.0562 -0.3242
 9192SOL    HW239039   4.679   3.759   3.755 -0.9815 -0.4988  1.4673
 9193SOL     OW39040   3.067   3.306   8.380  0.7670 -0.2806 -0.3793
 9193SOL    HW139041   3.018   3.228   8.406  0.7179 -0.8130 -2.0635
 9193SOL    HW239042   3.142   3.272   8.332  0.5441 -2.3912  0.7928
 9194SOL     OW39043   3.806   3.759  13.560  0.2018 -0.4358  0.0690
 9194SOL    HW139044   3.884   3.731  13.513 -0.0242 -0.1441 -0.4864
 9194SOL    HW239045   3.838   3.745  13.649 -0.5622  0.4128  0.4760
 9195SOL     OW39046   3.455   4.684   1.937  0.0792  0.1557 -0.3841
 9195SOL    HW139047   3.377   4.632   1.919  0.9270 -1.1852 -0.1173
 9195SOL    HW239048   3.523   4.650   1.879 -1.2724 -0.4429 -1.6132
 9196SOL     OW39049   3.782   2.914   6.298 -0.6439 -0.4730  0.5461
 9196SOL    HW139050   3.694   2.936   6.267 -0.0991  0.0655 -0.5952
 9196SOL    HW239051   3.762   2.836   6.350 -0.5076 -1.3334 -0.7154
 9197SOL     OW39052   0.129   2.873   2.730 -0.0353  0.3525 -0.0343
 9197SOL    HW139053   0.160   2.848   2.818  0.2892  0.6794 -0.0544
 9197SOL    HW239054   0.065   2.942   2.751 -0.7138  0.3154 -2.0393
 9198SOL     OW39055   4.241   3.796  17.400 -0.5467  0.4869 -0.2289
 9198SOL    HW139056   4.148   3.810  17.420 -0.0799 -1.2500  3.1530
 9198SOL    HW239057   4.278   3.838  17.478 -3.0909 -0.0309  1.2656
 9199SOL     OW39058   2.509   2.172   1.948 -0.7312 -0.6801 -0.5394
 9199SOL    HW139059   2.509   2.077   1.940  1.2389 -0.8724  1.7209
 9199SOL    HW239060   2.448   2.196   1.879 -0.8716  1.3581  0.2793
 9200SOL     OW39061   4.278   3.239   7.098 -0.3701  0.9715  0.0479
 9200SOL    HW139062   4.364   3.279   7.111 -0.2136  1.3985 -2.3784
 9200SOL    HW239063   4.309   3.148   7.097 -0.5413  0.9506 -1.9735
 9201SOL     OW39064   1.950   3.596  15.834  0.4519  0.3115  0.0085
 9201SOL    HW139065   1.928   3.688  15.848 -1.2434  0.2092 -1.9401
 9201SOL    HW239066   1.862   3.561  15.817 -0.5962  3.0065 -0.1145
 9202SOL     OW39067   4.618   2.870  17.376 -0.2164  0.0348  0.3001
 9202SOL    HW139068   4.652   2.906  17.294  1.6353 -0.1054  0.9971
 9202SOL    HW239069   4.626   2.781  17.339  1.3394  1.2405 -2.2674
 9203SOL     OW39070   1.573   4.415  15.801 -0.4453 -0.4821  0.9957
 9203SOL    HW139071   1.525   4.481  15.752  1.0944  0.0733  0.2383
 9203SOL    HW239072   1.632   4.376  15.737 -2.5473 -0.2625 -1.0552
 9204SOL     OW39073   1.519   0.381   1.231 -0.5161  0.0432  0.8476
 9204SOL    HW139074   1.565   0.359   1.312 -1.6219 -2.1103  0.9164
 9204SOL    HW239075   1.487   0.471   1.237  0.8542  0.6314 -0.6088
 9205SOL     OW39076   4.032   1.494   8.515  0.4577  0.3051  0.2968
 9205SOL    HW139077   3.978   1.425   8.554 -0.4703  0.8303 -0.0587
 9205SOL    HW239078   4.113   1.484   8.566 -0.2748  0.6370  1.5261
 9206SOL     OW39079   4.611   1.560   4.685  0.0758 -0.3811 -0.2676
 9206SOL    HW139080   4.661   1.641   4.690 -0.1014 -0.2087 -1.2048
 9206SOL    HW239081   4.674   1.492   4.659  1.2760  0.0100  1.6451
 9207SOL     OW39082   0.788   4.552   7.012  0.6465 -0.2194  0.0874
 9207SOL    HW139083   0.851   4.624   7.008 -0.0888  0.3561 -0.9858
 9207SOL    HW239084   0.845   4.495   7.063 -1.4819 -0.9410  1.6671
 9208SOL     OW39085   1.646   2.682   8.685  0.1370  0.4223 -0.5841
 9208SOL    HW139086   1.705   2.757   8.677  1.5245 -0.7438 -1.3036
 9208SOL    HW239087   1.661   2.631   8.605  1.4225  0.1109 -0.1501
 9209SOL     OW39088   4.443   4.464   3.249  0.0908  0.4850  0.6578
 9209SOL    HW139089   4.373   4.444   3.186  1.2789 -1.5022 -0.0268
 9209SOL    HW239090   4.508   4.479   3.181 -0.3288 -0.0756  0.1258
 9210SOL     OW39091   0.471   1.593   0.692  0.1495  0.5276  0.7737
 9210SOL    HW139092   0.395   1.651   0.697  1.4623  2.2720  0.5221
 9210SOL    HW239093   0.489   1.595   0.598  0.5898  0.3387  0.8569
 9211SOL     OW39094   1.060   0.575   9.200  0.2877 -0.1128  0.7339
 9211SOL    HW139095   1.139   0.555   9.249  0.3682 -0.8006  0.3207
 9211SOL    HW239096   1.042   0.489   9.163  1.7723  0.8104 -2.1538
 9212SOL     OW39097   3.393   4.468  12.053 -0.7524  0.0121 -0.6170
 9212SOL    HW139098   3.483   4.441  12.069 -1.0570 -0.4177  0.3849
 9212SOL    HW239099   3.407   4.539  11.990  1.3277  1.3109  1.3499
 9213SOL     OW39100   3.172   1.767   1.092  0.4122  0.2909 -0.5574
 9213SOL    HW139101   3.182   1.703   1.162  0.0364  0.5745 -0.2461
 9213SOL    HW239102   3.180   1.854   1.131  1.0901  0.6110 -1.4280
 9214SOL     OW39103   3.387   2.196   9.047 -0.3730  0.4615 -0.2411
 9214SOL    HW139104   3.456   2.142   9.085  0.2842  0.8699 -0.8568
 9214SOL    HW239105   3.334   2.211   9.125  0.1848 -0.0433  0.2300
 9215SOL     OW39106   2.560   3.269  10.275  0.0072 -0.1217  0.5167
 9215SOL    HW139107   2.575   3.331  10.203  0.5266 -1.0650 -0.1959
 9215SOL    HW239108   2.649   3.265  10.311 -0.4105 -0.1542  1.5338
 9216SOL     OW39109   2.917   1.148   4.215 -0.1339 -0.9200 -1.2110
 9216SOL    HW139110   2.936   1.087   4.145 -2.5250 -2.0105 -0.9115
 9216SOL    HW239111   2.847   1.099   4.259  1.5004 -0.0340  2.4463
 9217SOL     OW39112   1.261   2.689   6.025  0.3723  0.7206 -0.3046
 9217SOL    HW139113   1.224   2.740   5.954 -2.5171 -0.4668  0.3501
 9217SOL    HW239114   1.318   2.754   6.066  2.5236 -0.9218 -0.6775
 9218SOL     OW39115   0.285   1.087   1.892 -0.4527 -0.3219 -0.3268
 9218SOL    HW139116   0.353   1.080   1.824 -0.4484 -0.9178 -0.2611
 9218SOL    HW239117   0.335   1.110   1.970 -1.7324  1.5709 -0.0702
 9219SOL     OW39118   2.671   2.217   7.788  0.0538 -0.3140 -0.3335
 9219SOL    HW139119   2.678   2.158   7.864 -0.8881  1.0929  0.8405
 9219SOL    HW239120   2.632   2.297   7.823  1.5556  0.6011 -0.7535
 9220SOL     OW39121   0.108   3.120   8.710 -0.0185 -0.2680 -0.7650
 9220SOL    HW139122   0.018   3.137   8.738  0.9845  2.1658  0.9800
 9220SOL    HW239123   0.161   3.155   8.782 -0.6616  2.7896 -1.7455
 9221SOL     OW39124   0.060   0.407   0.373 -0.2762 -0.5057  0.1584
 9221SOL    HW139125   0.089   0.399   0.464  0.2163 -0.2780  0.0225
 9221SOL    HW239126   0.109   0.334   0.336  0.7852  0.3212 -0.0730
 9222SOL     OW39127   2.295   1.689  17.517  0.0243 -0.0508 -0.4224
 9222SOL    HW139128   2.376   1.730  17.547 -0.0354 -0.0988 -0.1963
 9222SOL    HW239129   2.325   1.651  17.434  0.1489 -0.9440  0.0337
 9223SOL     OW39130   3.756   4.603  16.288  0.5821  0.5792  0.2379
 9223SOL    HW139131   3.708   4.623  16.208  1.9231 -1.0767 -0.9895
 9223SOL    HW239132   3.786   4.512  16.292 -0.6731  0.1712  0.0375
 9224SOL     OW39133   3.366   2.711   8.018  0.0106 -0.5233 -0.1002
 9224SOL    HW139134   3.284   2.748   7.987 -0.3315 -0.9440  0.2997
 9224SOL    HW239135   3.333   2.639   8.072  0.6098 -0.7549 -0.0357
 9225SOL     OW39136   1.348   2.540   1.536  0.6613 -0.2671 -0.1942
 9225SOL    HW139137   1.358   2.448   1.558 -0.6434 -0.5830 -0.9177
 9225SOL    HW239138   1.306   2.543   1.449  0.4425  0.0661 -0.0765
 9226SOL     OW39139   1.739   4.025   2.031  0.2201  0.1464  0.5401
 9226SOL    HW139140   1.831   4.040   2.010 -0.1035  2.3860  0.7090
 9226SOL    HW239141   1.690   4.096   1.990 -4.4727 -1.6675  3.0857
 9227SOL     OW39142   0.172   3.042   7.279  0.0246  0.0950  0.8367
 9227SOL    HW139143   0.218   2.980   7.335 -0.5500 -0.0296  1.1708
 9227SOL    HW239144   0.245   3.083   7.233 -1.0834  0.9956 -0.1375
 9228SOL     OW39145   2.447   3.855  13.542 -0.2618  0.0141  0.0042
 9228SOL    HW139146   2.484   3.784  13.490 -1.7751 -0.3397 -0.6100
 9228SOL    HW239147   2.519   3.913  13.518 -0.7055 -0.3794 -2.2975
 9229SOL     OW39148   2.283   1.239   1.876 -0.0253 -0.1849  0.0559
 9229SOL    HW139149   2.269   1.146   1.893  2.0644 -0.5313 -0.1942
 9229SOL    HW239150   2.367   1.255   1.919 -0.6608 -0.8696  1.5402
 9230SOL     OW39151   0.264   2.462  17.063 -0.1099 -0.0926 -0.2620
 9230SOL    HW139152   0.261   2.390  17.125 -1.1137  0.5007  0.3822
 9230SOL    HW239153   0.197   2.415  17.013  0.4565 -0.7460 -0.4001
 9231SOL     OW39154   3.692   1.176   2.572 -0.3977 -1.1250  0.0964
 9231SOL    HW139155   3.749   1.108   2.538  0.2409 -1.6605  2.2139
 9231SOL    HW239156   3.628   1.112   2.605  0.2402 -1.3889  0.8373
 9232SOL     OW39157   2.518   2.099   6.977  0.5860  0.2182 -0.2185
 9232SOL    HW139158   2.595   2.125   7.028  1.1471 -0.2903 -0.8150
 9232SOL    HW239159   2.535   2.016   6.933 -2.1973 -0.5846  0.2375
 9233SOL     OW39160   1.928   2.788  14.943 -0.3733  0.3607 -0.4004
 9233SOL    HW139161   1.915   2.806  15.036  0.9282  2.9403 -0.7378
 9233SOL    HW239162   1.910   2.695  14.957  2.1352  0.1968  1.6506
 9234SOL     OW39163   1.068   4.362   3.736 -0.3845 -0.0490  0.2160
 9234SOL    HW139164   1.097   4.441   3.783 -0.3026 -0.4830  0.9013
 9234SOL    HW239165   1.063   4.394   3.646 -1.1933 -0.9576 -0.0589
 9235SOL     OW39166   1.272   3.214   4.515  0.1986  0.5651  0.0332
 9235SOL    HW139167   1.189   3.180   4.548  0.3046  0.3641  0.0916
 9235SOL    HW239168   1.255   3.219   4.421 -1.2321  1.8512  0.3621
 9236SOL     OW39169   3.531   1.076   5.366 -0.3307  0.4318 -0.2268
 9236SOL    HW139170   3.604   1.014   5.369  0.0980  0.9348 -0.3265
 9236SOL    HW239171   3.541   1.129   5.445  1.6384  1.6739 -1.3048
 9237SOL     OW39172   4.359   1.555   2.089 -0.0318  0.1477 -0.2511
 9237SOL    HW139173   4.403   1.623   2.038  1.3675 -0.0549  0.7002
 9237SOL    HW239174   4.285   1.532   2.032 -0.7164 -0.2109  0.7841
 9238SOL     OW39175   4.174   2.769   3.780  0.1358  0.2267 -0.1191
 9238SOL    HW139176   4.200   2.683   3.814  0.2930  0.3582  0.0967
 9238SOL    HW239177   4.083   2.759   3.809  0.7201  1.6778  2.2621
 9239SOL     OW39178   1.204   3.133  11.076 -0.0457  0.2494 -0.5709
 9239SOL    HW139179   1.174   3.100  10.992  0.1953 -1.9050  0.1663
 9239SOL    HW239180   1.253   3.212  11.055 -0.8411  1.4074  1.8955
 9240SOL     OW39181   2.677   4.713   1.575 -0.2235 -0.5245  0.3251
 9240SOL    HW139182   2.658   0.067   1.630  0.7309  0.0427 -0.1423
 9240SOL    HW239183   2.620   4.640   1.597 -1.0280 -0.0427 -0.1356
 9241SOL     OW39184   3.047   2.794   8.105 -0.6775 -0.1003 -0.7492
 9241SOL    HW139185   3.072   2.756   8.021 -0.8062  0.6184 -1.1070
 9241SOL    HW239186   2.994   2.865   8.068 -1.3932 -0.2974 -0.0971
 9242SOL     OW39187   3.904   2.456   8.919 -0.5512  0.0524  0.4221
 9242SOL    HW139188   3.993   2.424   8.902 -0.3265  0.1023  1.5373
 9242SOL    HW239189   3.906   2.526   8.853 -2.8654 -1.2640 -1.0625
 9243SOL     OW39190   3.182   1.563   1.971  1.2730  0.3118  0.6546
 9243SOL    HW139191   3.185   1.476   2.011 -1.5467  0.2987  0.8671
 9243SOL    HW239192   3.095   1.559   1.930  0.9246  2.5561  1.1713
 9244SOL     OW39193   2.991   1.666   8.979  0.1951  0.7770  0.6721
 9244SOL    HW139194   3.059   1.599   8.966 -1.2233 -0.7418  1.0695
 9244SOL    HW239195   2.911   1.616   8.961  1.6860 -1.1070 -0.8241
 9245SOL     OW39196   1.230   1.712   4.000 -0.1411 -0.0760 -0.3611
 9245SOL    HW139197   1.162   1.650   4.025 -1.2535  1.7203  1.0659
 9245SOL    HW239198   1.283   1.668   3.933 -2.0043 -2.3344 -0.3319
 9246SOL     OW39199   2.495   2.227   5.923 -0.1564  0.3686 -0.4761
 9246SOL    HW139200   2.451   2.156   5.875  0.3770 -0.5700  0.4229
 9246SOL    HW239201   2.434   2.300   5.912 -1.2874 -0.2623  1.4537
 9247SOL     OW39202   3.024   0.727   9.397 -0.0136 -0.0316 -0.1279
 9247SOL    HW139203   3.053   0.722   9.488 -0.4523 -0.2300  0.0041
 9247SOL    HW239204   3.108   0.721   9.351 -0.6000  1.2414 -1.3749
 9248SOL     OW39205   3.003   0.889   3.501  0.2621  0.0937 -0.8478
 9248SOL    HW139206   2.917   0.878   3.461 -0.6209  0.0416  1.0674
 9248SOL    HW239207   3.054   0.917   3.425  2.2991  0.7186  0.7381
 9249SOL     OW39208   3.355   2.312  11.976 -0.3003 -0.2061  0.2383
 9249SOL    HW139209   3.359   2.252  11.902  0.2385  0.1085  0.0085
 9249SOL    HW239210   3.438   2.357  11.957 -1.2457  0.9058 -1.2293
 9250SOL     OW39211   3.293   4.220   1.752 -0.5181  0.2884 -0.8629
 9250SOL    HW139212   3.295   4.286   1.821 -0.6139 -0.4883 -0.1297
 9250SOL    HW239213   3.346   4.257   1.681 -1.4653  0.6255 -1.3899
 9251SOL     OW39214   2.062   3.505   5.959 -0.0431  0.6518 -0.0495
 9251SOL    HW139215   2.156   3.508   5.973 -0.2307 -1.4987  1.8156
 9251SOL    HW239216   2.055   3.434   5.895  0.1686  0.6971 -0.1197
 9252SOL     OW39217   4.669   2.331   5.278  0.2760  0.0303  0.7908
 9252SOL    HW139218   4.676   2.367   5.189  0.4043 -1.7203  0.0918
 9252SOL    HW239219   4.582   2.357   5.306 -1.1555 -1.0222 -2.7115
 9253SOL     OW39220   2.678   3.399   6.171  0.5664  0.4281 -0.3661
 9253SOL    HW139221   2.738   3.449   6.227  1.3533  0.7098 -1.4588
 9253SOL    HW239222   2.736   3.339   6.124  0.1600  0.6543 -1.1402
 9254SOL     OW39223   1.250   2.313   2.250 -0.0523 -0.7311 -0.1800
 9254SOL    HW139224   1.235   2.275   2.336  1.1659  0.6801  0.6674
 9254SOL    HW239225   1.203   2.257   2.188 -0.7339 -1.8341  1.3544
 9255SOL     OW39226   3.670   3.303  10.046  0.1255 -0.4780  0.1829
 9255SOL    HW139227   3.602   3.302  10.114 -0.2688  2.4562 -0.1474
 9255SOL    HW239228   3.630   3.370   9.991 -0.3212 -0.4080  0.5842
 9256SOL     OW39229   1.281   0.881   4.183  0.0243  0.9741  0.6598
 9256SOL    HW139230   1.363   0.833   4.195  0.0004  1.1023  1.3715
 9256SOL    HW239231   1.221   0.819   4.226  1.2503 -1.3587 -0.9883
 9257SOL     OW39232   4.350   1.717   8.494  0.0515  0.7415  1.1209
 9257SOL    HW139233   4.370   1.798   8.542  0.3285 -0.1554  2.5058
 9257SOL    HW239234   4.264   1.734   8.455  0.6760  0.2309 -0.4903
 9258SOL     OW39235   4.081   2.884   7.995 -0.1607  0.1035  0.0902
 9258SOL    HW139236   4.081   2.797   8.034 -0.9564  0.6202  1.2410
 9258SOL    HW239237   4.093   2.940   8.072  1.9999 -2.4992  1.6226
 9259SOL     OW39238   4.342   3.791   4.563  0.2893 -0.1740 -0.3699
 9259SOL    HW139239   4.280   3.829   4.626 -0.0200 -0.5323 -0.4589
 9259SOL    HW239240   4.331   3.697   4.576 -1.2761  0.0469 -0.0947
 9260SOL     OW39241   1.741   0.059   9.477 -0.1255 -0.5039  0.2149
 9260SOL    HW139242   1.723   0.068   9.383  0.0935  0.2730  0.2502
 9260SOL    HW239243   1.784   0.140   9.505  0.7196 -1.2151  0.9879
 9261SOL     OW39244   0.590   3.012   5.526 -0.0712  0.0839  0.1457
 9261SOL    HW139245   0.593   2.936   5.468 -1.4236 -1.2486  1.7861
 9261SOL    HW239246   0.591   2.971   5.613  0.1770  0.2672  0.2281
 9262SOL     OW39247   2.221   2.809  10.092 -0.0537  0.1316  0.1883
 9262SOL    HW139248   2.296   2.772  10.044  0.6152  1.9509 -0.1795
 9262SOL    HW239249   2.182   2.726  10.119 -1.9645  0.0087 -2.9158
 9263SOL     OW39250   1.018   0.278  12.840 -0.0679  0.4501  0.2588
 9263SOL    HW139251   0.983   0.362  12.811 -3.4925 -0.7977  0.7660
 9263SOL    HW239252   1.095   0.303  12.890 -0.6615  2.8225 -0.0219
 9264SOL     OW39253   1.045   0.247  11.010  0.0534  0.5593 -0.2737
 9264SOL    HW139254   1.030   0.336  10.980  1.0668  0.8830  0.1728
 9264SOL    HW239255   1.035   0.195  10.929  1.1604 -2.4422  1.5152
 9265SOL     OW39256   1.707   4.455   5.396 -0.7358  0.2320  0.1315
 9265SOL    HW139257   1.613   4.466   5.385 -0.9075 -0.5053  0.8541
 9265SOL    HW239258   1.704   4.406   5.478 -1.1831  2.0428  1.1939
 9266SOL     OW39259   1.661   2.145  14.951  0.3032  0.7475  0.3633
 9266SOL    HW139260   1.689   2.168  14.863  1.0465 -0.6889  0.2205
 9266SOL    HW239261   1.654   2.237  14.978  1.1427  1.2778 -1.2546
 9267SOL     OW39262   0.137   1.521   6.403 -0.1726  0.0834  0.1658
 9267SOL    HW139263   0.044   1.520   6.423 -0.0164 -1.3954  0.8151
 9267SOL    HW239264   0.141   1.589   6.335 -2.3263 -0.2513 -0.2729
 9268SOL     OW39265   4.616   4.477  13.386  1.1175 -0.2906 -0.0725
 9268SOL    HW139266   4.688   4.414  13.391  0.8997 -0.5416 -0.0978
 9268SOL    HW239267   4.645   4.541  13.452  0.6828  0.8133 -0.9569
 9269SOL     OW39268   4.403   0.576  10.537  0.4118  0.1556  0.0160
 9269SOL    HW139269   4.457   0.498  10.525 -0.1447 -0.4622  1.5974
 9269SOL    HW239270   4.444   0.622  10.610 -0.8403  1.6928 -0.2401
 9270SOL     OW39271   0.101   0.319   3.387 -0.0901  0.0987 -0.1721
 9270SOL    HW139272   0.046   0.315   3.309  1.1210  0.0685 -1.0089
 9270SOL    HW239273   0.139   0.406   3.377 -0.2937 -0.1348 -2.8089
 9271SOL     OW39274   4.040   4.569  17.008  0.7427 -0.4249  0.2456
 9271SOL    HW139275   4.075   4.561  16.919 -0.3655 -0.1725 -0.2091
 9271SOL    HW239276   4.107   4.523  17.058  0.3458 -0.7617  0.4624
 9272SOL     OW39277   0.293   2.226  13.065 -0.2099 -0.1053 -0.0892
 9272SOL    HW139278   0.298   2.314  13.027  0.8053  0.2521  0.8672
 9272SOL    HW239279   0.274   2.243  13.157  0.1794  4.8495 -0.9265
 9273SOL     OW39280   1.281   4.062   8.766  0.3199  0.2854  0.5245
 9273SOL    HW139281   1.217   4.127   8.739  0.2357 -0.3994 -0.9548
 9273SOL    HW239282   1.355   4.122   8.754  1.1865 -0.6812  0.9514
 9274SOL     OW39283   2.439   2.278  11.438  0.3937 -0.3272 -0.3104
 9274SOL    HW139284   2.456   2.184  11.445  1.1121 -0.1477  0.3304
 9274SOL    HW239285   2.429   2.293  11.532 -1.3581  0.4213 -0.6293
 9275SOL     OW39286   0.768   1.435   6.964 -0.3062  0.1463 -0.1015
 9275SOL    HW139287   0.777   1.344   6.935 -1.2845 -0.0145  0.0962
 9275SOL    HW239288   0.754   1.431   7.059 -1.0072 -1.0572 -0.2621
 9276SOL     OW39289   2.635   1.654   2.373 -0.6286  0.0027  0.1725
 9276SOL    HW139290   2.668   1.721   2.314  1.2108  1.3736  2.7767
 9276SOL    HW239291   2.627   1.700   2.456 -1.3863 -0.1389  0.1805
 9277SOL     OW39292   4.655   3.835   0.231 -0.1724 -0.0249  0.2557
 9277SOL    HW139293   4.598   3.912   0.229 -0.4762 -0.2261  1.1755
 9277SOL    HW239294   4.629   3.797   0.315 -1.4280  2.0525  0.8123
 9278SOL     OW39295   3.818   0.971   1.703  0.1558 -0.3284 -0.4928
 9278SOL    HW139296   3.883   1.042   1.702  0.3261 -0.4779 -0.1633
 9278SOL    HW239297   3.759   0.995   1.632  0.5974  2.1526 -0.0240
 9279SOL     OW39298   1.615   3.200   4.009 -0.1243  0.3338  0.7813
 9279SOL    HW139299   1.641   3.243   4.090 -0.3214  1.8363  0.0508
 9279SOL    HW239300   1.536   3.152   4.034 -1.3360  1.6463 -0.5431
 9280SOL     OW39301   1.391   2.815   1.877  0.0075  0.5249 -0.0789
 9280SOL    HW139302   1.297   2.800   1.885 -0.0657  1.8654  1.4212
 9280SOL    HW239303   1.424   2.729   1.851 -1.4398 -0.5821  1.8392
 9281SOL     OW39304   2.728   2.857   3.104  0.2206  0.2290 -0.7553
 9281SOL    HW139305   2.788   2.837   3.033 -1.3723 -0.8434 -1.8074
 9281SOL    HW239306   2.695   2.768   3.111 -0.2932  0.5857  1.4735
 9282SOL     OW39307   1.695   2.265   1.864 -0.1440 -0.2230 -0.5136
 9282SOL    HW139308   1.695   2.217   1.947  2.0837  2.2803  0.9467
 9282SOL    HW239309   1.702   2.355   1.897 -2.2015 -2.2069  5.3238
 9283SOL     OW39310   0.866   1.977   6.364 -0.0601  0.2610 -0.2920
 9283SOL    HW139311   0.807   1.979   6.439  3.1915  0.3206  2.3078
 9283SOL    HW239312   0.942   2.013   6.411  0.4136 -0.8218 -0.2265
 9284SOL     OW39313   1.755   3.070  10.536  0.6254 -0.3652  0.1052
 9284SOL    HW139314   1.761   2.998  10.473 -1.0151 -1.4400  1.1684
 9284SOL    HW239315   1.816   3.049  10.606 -0.1373  0.1082  0.9224
 9285SOL     OW39316   2.728   0.282   1.283 -0.2941 -0.5404  0.4030
 9285SOL    HW139317   2.709   0.188   1.279 -1.4783 -0.2075 -1.4715
 9285SOL    HW239318   2.753   0.291   1.375  1.8537 -0.7549 -0.1651
 9286SOL     OW39319   4.127   4.648   8.591  0.6072 -0.1199 -0.1158
 9286SOL    HW139320   4.208   4.596   8.585  0.4725 -0.2969 -0.4231
 9286SOL    HW239321   4.069   4.575   8.612 -1.4384  0.9225 -2.1811
 9287SOL     OW39322   2.882   3.538   9.973 -0.0821  0.6772 -0.1809
 9287SOL    HW139323   2.921   3.478   9.908  0.3155  0.9449 -0.1880
 9287SOL    HW239324   2.949   3.533  10.042 -0.3123  0.0498  0.0004
 9288SOL     OW39325   3.091   0.305   7.716  0.0017 -0.7613  0.6291
 9288SOL    HW139326   3.045   0.315   7.799  0.9013  0.7724  0.9433
 9288SOL    HW239327   3.137   0.390   7.718 -2.0717  0.4481 -2.6990
 9289SOL     OW39328   3.761   2.283   7.849 -0.5171  0.2048  0.2754
 9289SOL    HW139329   3.813   2.350   7.895  1.5021 -1.4607  0.4167
 9289SOL    HW239330   3.774   2.199   7.893  0.0360 -0.1306 -0.5387
 9290SOL     OW39331   3.398   2.466   7.216 -0.0757  0.5592  0.1237
 9290SOL    HW139332   3.451   2.394   7.251  1.0264  0.2259 -2.2438
 9290SOL    HW239333   3.427   2.467   7.125 -0.6946  0.9156 -0.0700
 9291SOL     OW39334   2.158   1.782   9.266 -0.1578 -0.2274 -0.0900
 9291SOL    HW139335   2.109   1.702   9.247 -2.7815  0.8219  2.2408
 9291SOL    HW239336   2.126   1.830   9.189  3.8421  2.2188 -0.2074
 9292SOL     OW39337   3.698   3.915  13.102  0.0109  0.0910  0.2667
 9292SOL    HW139338   3.679   3.823  13.121  0.5208  0.2973  1.8133
 9292SOL    HW239339   3.610   3.951  13.102 -0.7684 -1.8565 -0.8574
 9293SOL     OW39340   2.103   3.320   5.305  0.5851  0.2825  0.6308
 9293SOL    HW139341   2.167   3.274   5.251  0.4911  1.8294 -0.8014
 9293SOL    HW239342   2.120   3.286   5.393 -0.9315  1.1659  1.2692
 9294SOL     OW39343   3.214   2.355  10.078  0.6488  0.4090 -0.1031
 9294SOL    HW139344   3.249   2.436  10.112 -1.1129  0.9060  0.5425
 9294SOL    HW239345   3.281   2.293  10.106  1.3189  1.6449  1.0004
 9295SOL     OW39346   1.611   4.599   2.159 -0.0009 -0.0944 -0.6439
 9295SOL    HW139347   1.694   4.630   2.194 -0.7806 -0.8575  1.9639
 9295SOL    HW239348   1.633   4.517   2.114  1.8411  0.2787 -0.4203
 9296SOL     OW39349   0.805   0.086   7.690  0.3121 -0.2116  0.3535
 9296SOL    HW139350   0.874   0.142   7.652 -1.5379  1.4922 -0.4870
 9296SOL    HW239351   0.839   4.722   7.670 -0.4829 -0.2982 -0.6591
 9297SOL     OW39352   3.761   1.170  11.236  0.3928 -0.5473  0.0600
 9297SOL    HW139353   3.684   1.117  11.258 -0.6296  1.4422  1.2735
 9297SOL    HW239354   3.829   1.121  11.282  0.1868 -0.8602  0.0388
 9298SOL     OW39355   1.869   4.603  15.960  0.0965 -0.4130  0.0309
 9298SOL    HW139356   1.803   4.539  15.988 -1.0238  1.4273  1.5291
 9298SOL    HW239357   1.935   4.590  16.028 -0.8330 -0.8776  0.8440
 9299SOL     OW39358   4.468   4.412   9.414  0.2101 -0.1737  0.4516
 9299SOL    HW139359   4.529   4.359   9.363  0.5132  1.1293 -0.5270
 9299SOL    HW239360   4.493   4.503   9.398  1.5020 -0.6008  0.0892
 9300SOL     OW39361   1.490   0.176  13.978  0.1282  0.8137 -0.0908
 9300SOL    HW139362   1.477   0.184  14.073 -2.3986  3.1178 -0.6535
 9300SOL    HW239363   1.447   0.258  13.955 -0.9628  0.7324  1.6462
 9301SOL     OW39364   1.615   3.198   6.045  0.4885  0.4088 -1.0349
 9301SOL    HW139365   1.599   3.258   6.118  2.1781  0.8067 -0.9975
 9301SOL    HW239366   1.668   3.258   5.992 -1.0526  1.5293 -1.3294
 9302SOL     OW39367   0.632   3.974   1.271  0.1494 -0.4912 -0.0041
 9302SOL    HW139368   0.604   4.008   1.356  0.7650 -1.2618  0.5044
 9302SOL    HW239369   0.712   4.021   1.247  0.4384 -0.2182  1.4864
 9303SOL     OW39370   4.636   1.688  13.327  0.0306  0.0798 -0.2314
 9303SOL    HW139371   4.666   1.600  13.307 -0.3490 -0.6784  2.4638
 9303SOL    HW239372   0.002   1.719  13.342  1.0409 -2.4749 -0.9848
 9304SOL     OW39373   0.654   1.006   8.579 -0.5631  0.5527 -0.0363
 9304SOL    HW139374   0.710   1.082   8.595 -2.0090  1.3380  1.3657
 9304SOL    HW239375   0.610   0.994   8.664 -1.1041 -2.1203 -0.6714
 9305SOL     OW39376   4.469   1.924   0.089 -0.0470 -0.0608  0.2164
 9305SOL    HW139377   4.453   2.002   0.142  1.0983  0.8429 -0.7670
 9305SOL    HW239378   4.467   1.974   0.008  3.4789 -1.2223 -0.5886
 9306SOL     OW39379   2.494   2.583   4.935  0.1101  0.4273  0.1372
 9306SOL    HW139380   2.587   2.596   4.916  0.0954 -0.3057 -0.4022
 9306SOL    HW239381   2.487   2.622   5.023 -0.8189 -0.5236  0.4772
 9307SOL     OW39382   2.000   1.184  10.491 -0.2148  0.5939 -0.1046
 9307SOL    HW139383   2.074   1.123  10.488  0.4715  1.5179 -2.4316
 9307SOL    HW239384   1.966   1.172  10.402  2.4941  0.7615 -1.1804
 9308SOL     OW39385   0.338   2.344  14.857 -0.8284 -0.0604  0.5209
 9308SOL    HW139386   0.362   2.433  14.883 -0.5204  0.2541 -0.8683
 9308SOL    HW239387   0.422   2.301  14.843 -0.5200  0.5457  0.5325
 9309SOL     OW39388   3.363   3.934   3.376  0.1267 -0.1487 -0.4087
 9309SOL    HW139389   3.423   4.008   3.368  0.4478 -0.3966 -0.3005
 9309SOL    HW239390   3.363   3.922   3.281 -1.4354  1.1284 -0.5663
 9310SOL     OW39391   0.353   3.901  16.908 -0.2017  0.3074 -0.2842
 9310SOL    HW139392   0.343   3.934  16.997  2.1864 -0.4973  0.2879
 9310SOL    HW239393   0.269   3.862  16.882 -0.2598  0.4269 -0.2725
 9311SOL     OW39394   1.299   1.852   5.341 -0.2790 -0.1293 -0.5475
 9311SOL    HW139395   1.326   1.765   5.369  0.0478  0.8810  2.2208
 9311SOL    HW239396   1.205   1.841   5.353 -0.4906  1.5568 -0.6326
 9312SOL     OW39397   4.574   1.775   2.849 -0.1145 -0.1575  0.1367
 9312SOL    HW139398   4.600   1.822   2.929  1.2047  3.4381 -2.3856
 9312SOL    HW239399   4.610   1.837   2.786  0.0073  0.1944  0.5461
 9313SOL     OW39400   2.958   3.500   6.021 -0.2983  0.0953  0.1292
 9313SOL    HW139401   2.998   3.426   5.974 -1.6767 -0.7901  0.3433
 9313SOL    HW239402   3.003   3.487   6.104 -0.3295  0.4449  0.1986
 9314SOL     OW39403   1.671   2.004   9.464 -0.7195 -0.4637  0.0188
 9314SOL    HW139404   1.724   1.925   9.473 -1.7609 -1.0716  0.8726
 9314SOL    HW239405   1.602   1.991   9.529 -1.6883  0.5295 -0.8112
 9315SOL     OW39406   4.673   2.597   4.440  0.7560  0.2902  0.0649
 9315SOL    HW139407   0.044   2.606   4.458  0.5365  0.0009  1.3941
 9315SOL    HW239408   4.689   2.603   4.346  3.5898  0.1808  0.5195
 9316SOL     OW39409   0.765   2.492   0.076 -0.1772  0.6215  0.6234
 9316SOL    HW139410   0.713   2.526   0.149 -1.7771  1.5294 -0.9270
 9316SOL    HW239411   0.704   2.423   0.049  2.0547 -1.7910  1.6533
 9317SOL     OW39412   1.423   3.539   4.605  0.3919 -1.0525 -0.6895
 9317SOL    HW139413   1.457   3.528   4.693 -0.6162  1.8457  0.0819
 9317SOL    HW239414   1.380   3.456   4.584 -0.6392 -0.3351 -1.4621
 9318SOL     OW39415   2.260   0.464  13.026 -0.0018  0.1895 -0.4784
 9318SOL    HW139416   2.202   0.388  13.036  1.6011 -1.3807 -3.0233
 9318SOL    HW239417   2.340   0.417  13.003  0.4715  0.5561  0.4210
 9319SOL     OW39418   1.881   0.578   2.757  0.2644  0.2831 -0.1624
 9319SOL    HW139419   1.953   0.585   2.695  0.2428  1.9066 -0.0153
 9319SOL    HW239420   1.888   0.667   2.792  2.0588  0.1395 -0.1692
 9320SOL     OW39421   2.888   1.426   4.261  0.1464 -0.3429  0.3895
 9320SOL    HW139422   2.929   1.344   4.234  0.3780 -0.1954  0.2983
 9320SOL    HW239423   2.825   1.387   4.322  0.1540 -1.3761 -0.2767
 9321SOL     OW39424   3.613   1.796   6.662 -0.1766  0.7094  0.3851
 9321SOL    HW139425   3.625   1.884   6.625 -1.6884  0.4251 -0.7819
 9321SOL    HW239426   3.638   1.803   6.754  1.8562  0.0241 -0.1151
 9322SOL     OW39427   3.285   0.837   6.209  0.4553  0.4475 -0.0092
 9322SOL    HW139428   3.272   0.747   6.239 -3.6003  1.2483  0.6790
 9322SOL    HW239429   3.211   0.845   6.149 -1.1534  0.4029  1.9904
 9323SOL     OW39430   4.513   4.096   6.089  0.1961  0.4005  0.3899
 9323SOL    HW139431   4.582   4.055   6.141 -1.4571 -1.2570  1.2768
 9323SOL    HW239432   4.514   4.041   6.012  0.2378  1.0330 -0.0622
 9324SOL     OW39433   3.885   4.178   0.757 -0.4052 -0.1761 -0.2470
 9324SOL    HW139434   3.889   4.221   0.842 -1.8072  1.1373 -0.8480
 9324SOL    HW239435   3.927   4.094   0.773 -0.3048 -0.0832 -0.0199
 9325SOL     OW39436   1.571   4.118   5.243  0.0724  0.1134 -0.5345
 9325SOL    HW139437   1.630   4.128   5.319  0.6185  1.1759 -1.1009
 9325SOL    HW239438   1.487   4.141   5.283  0.4111  0.4949 -0.0333
 9326SOL     OW39439   1.284   0.759   0.183 -0.2737 -0.1209 -0.2405
 9326SOL    HW139440   1.285   0.837   0.237 -0.3043  0.2462 -0.7684
 9326SOL    HW239441   1.215   0.707   0.224 -0.8621  0.4863 -0.4715
 9327SOL     OW39442   0.866   4.198  12.839  0.3285  0.3260  0.6365
 9327SOL    HW139443   0.790   4.147  12.811  0.6301  0.7087 -0.8663
 9327SOL    HW239444   0.828   4.286  12.847  0.2036  0.4879 -1.8993
 9328SOL     OW39445   3.569   4.668   2.848  0.3041  0.0024 -0.0909
 9328SOL    HW139446   3.558   4.665   2.943 -0.2671 -0.4889 -0.1674
 9328SOL    HW239447   3.663   4.652   2.849  0.4796  1.1165  0.9876
 9329SOL     OW39448   0.148   3.183   3.887 -0.4526  0.4359  0.4371
 9329SOL    HW139449   0.056   3.181   3.912 -0.1576  2.2839  1.6809
 9329SOL    HW239450   0.170   3.274   3.868 -0.7478  0.9794  2.7675
 9330SOL     OW39451   2.531   4.557   2.479  0.7663 -0.5066  0.1679
 9330SOL    HW139452   2.563   4.640   2.444  0.1738 -1.1130 -1.8102
 9330SOL    HW239453   2.477   4.521   2.408  1.8300  0.0411 -0.9170
 9331SOL     OW39454   0.694   4.505   0.136 -0.2513  0.1346  0.2067
 9331SOL    HW139455   0.624   4.464   0.084  0.0199  1.1447 -0.9463
 9331SOL    HW239456   0.753   4.430   0.145 -0.8347 -0.2594  0.8133
 9332SOL     OW39457   1.315   1.750   1.513  0.8425  0.2161  0.0816
 9332SOL    HW139458   1.331   1.790   1.427  0.6314  2.0923  0.8990
 9332SOL    HW239459   1.320   1.827   1.571  0.4153  0.0174  0.3809
 9333SOL     OW39460   4.161   0.374   3.167 -0.4217  0.3695 -0.3086
 9333SOL    HW139461   4.099   0.363   3.239  0.3465 -1.0319  0.1586
 9333SOL    HW239462   4.177   0.468   3.173  0.1029  0.1098  2.6012
 9334SOL     OW39463   2.073   4.495   4.890  0.3391  0.5190  0.0643
 9334SOL    HW139464   2.004   4.556   4.917  0.2899  0.6090 -0.2708
 9334SOL    HW239465   2.020   4.417   4.871  0.1150  0.0873  2.4396
 9335SOL     OW39466   3.380   2.262   2.385 -0.6689  0.1000  0.0684
 9335SOL    HW139467   3.397   2.173   2.353 -0.5548  0.8424 -1.9097
 9335SOL    HW239468   3.343   2.237   2.469 -2.6904 -0.3758 -0.9579
 9336SOL     OW39469   1.172   2.728   4.114  0.4791  0.3509  0.5696
 9336SOL    HW139470   1.177   2.805   4.057  0.6299 -0.2358 -0.2193
 9336SOL    HW239471   1.089   2.692   4.083  0.4041  1.0733 -0.0735
 9337SOL     OW39472   4.295   0.674   6.178 -0.5665 -0.1912  0.4377
 9337SOL    HW139473   4.210   0.632   6.163 -0.8560  0.2490  0.8439
 9337SOL    HW239474   4.334   0.612   6.239 -1.2269 -0.1886  0.8538
 9338SOL     OW39475   3.585   4.178   5.154 -0.5145  0.3699  0.0335
 9338SOL    HW139476   3.611   4.187   5.246 -2.8240  0.2460  0.6804
 9338SOL    HW239477   3.541   4.260   5.134  0.6445  0.4732 -2.0702
 9339SOL     OW39478   3.128   0.003   4.299  0.0391  0.2630  0.1534
 9339SOL    HW139479   3.215   0.025   4.267  0.7272 -3.7039 -0.6866
 9339SOL    HW239480   3.100   4.653   4.244 -2.4643  1.5914 -0.3573
 9340SOL     OW39481   2.144   1.446   5.576 -0.1942  0.3163 -0.1541
 9340SOL    HW139482   2.204   1.521   5.581  0.1244  0.1028 -0.7737
 9340SOL    HW239483   2.207   1.377   5.557 -0.9998 -0.8169  1.3202
 9341SOL     OW39484   3.832   1.130   9.515  0.1058 -0.4685  0.2606
 9341SOL    HW139485   3.906   1.069   9.512  1.0289  0.6710 -0.2744
 9341SOL    HW239486   3.864   1.204   9.463  1.0316 -0.6479  0.5690
 9342SOL     OW39487   3.494   4.443   2.587  0.3112 -0.4785  0.4427
 9342SOL    HW139488   3.576   4.492   2.598  0.1439  0.1771 -1.2705
 9342SOL    HW239489   3.495   4.434   2.492  1.2783  1.8456  0.2246
 9343SOL     OW39490   0.126   2.315   3.786  0.2267  0.1245  0.1071
 9343SOL    HW139491   0.122   2.305   3.691 -1.4147 -0.5303  0.2427
 9343SOL    HW239492   0.034   2.337   3.802  0.0016  0.9656 -2.3971
 9344SOL     OW39493   2.738   2.463  13.211 -0.5398  0.4402  0.3477
 9344SOL    HW139494   2.828   2.445  13.236 -0.8301  1.1413  1.9396
 9344SOL    HW239495   2.758   2.462  13.117 -1.7705  0.9979  0.0759
 9345SOL     OW39496   3.694   0.943   5.086  0.0422  0.2749  1.0658
 9345SOL    HW139497   3.752   0.981   5.151  0.2273 -0.5547  1.3769
 9345SOL    HW239498   3.715   0.851   5.100  0.7709 -0.0459 -1.9502
 9346SOL     OW39499   2.347   1.894  14.378 -0.2288 -0.1840 -0.1938
 9346SOL    HW139500   2.318   1.974  14.333  2.7513 -0.5086 -2.7097
 9346SOL    HW239501   2.292   1.895  14.456 -0.8451  0.5157 -0.6375
 9347SOL     OW39502   4.226   3.806   3.888 -0.6841 -0.1638  0.0768
 9347SOL    HW139503   4.265   3.727   3.926  3.7366  3.0905  2.2615
 9347SOL    HW239504   4.168   3.841   3.955 -0.5783 -1.3975  0.8239
 9348SOL     OW39505   1.114   2.558   7.331  0.8872  0.0731 -0.1190
 9348SOL    HW139506   1.139   2.593   7.246  0.9255  4.9477  1.8543
 9348SOL    HW239507   1.198   2.526   7.365  1.6191  2.3212  0.2580
 9349SOL     OW39508   3.863   0.352   6.356 -0.3522  0.6588  0.4494
 9349SOL    HW139509   3.913   0.433   6.357  0.3897  0.2117 -0.4419
 9349SOL    HW239510   3.780   0.389   6.324 -0.7721  0.0042  0.7777
 9350SOL     OW39511   3.932   4.720   9.755  0.2339  0.0286  0.3609
 9350SOL    HW139512   3.960   0.074   9.804  1.2616  1.2079 -2.0779
 9350SOL    HW239513   3.901   0.042   9.677  0.3741 -0.2904  0.1225
 9351SOL     OW39514   2.040   3.844   7.134 -0.2749 -0.0767 -0.3555
 9351SOL    HW139515   2.056   3.824   7.042 -0.8040  0.2001 -0.5117
 9351SOL    HW239516   2.111   3.796   7.176  0.0723 -0.3893 -1.2960
 9352SOL     OW39517   3.112   2.791   6.992  0.2213  0.3276  0.9366
 9352SOL    HW139518   3.156   2.785   7.077  1.4049 -0.2326  0.2882
 9352SOL    HW239519   3.175   2.732   6.952  0.3151  1.7362 -0.9757
 9353SOL     OW39520   1.833   4.248   6.651  0.0196 -0.2663 -0.0951
 9353SOL    HW139521   1.922   4.268   6.678 -0.3498 -1.4394  2.0083
 9353SOL    HW239522   1.806   4.174   6.704  1.6878 -1.2844 -0.6782
 9354SOL     OW39523   2.429   0.840   5.561  0.1954  0.1075  0.3855
 9354SOL    HW139524   2.341   0.869   5.537  0.9786  1.2020 -1.1681
 9354SOL    HW239525   2.437   0.754   5.519 -0.3230 -0.0302  0.5670
 9355SOL     OW39526   2.132   3.137   5.521 -0.4747 -0.3792  0.0903
 9355SOL    HW139527   2.225   3.117   5.519 -1.0314 -3.1381  1.8344
 9355SOL    HW239528   2.108   3.058   5.473  0.7051 -1.9229  2.0448
 9356SOL     OW39529   2.910   2.981   2.905 -0.1291 -0.2830 -0.0437
 9356SOL    HW139530   2.852   3.050   2.874 -0.7677 -0.0437  1.7157
 9356SOL    HW239531   2.957   3.020   2.979  0.3995 -0.2202 -0.4060
 9357SOL     OW39532   2.071   2.321   4.877 -0.2881 -0.2577 -0.4190
 9357SOL    HW139533   2.074   2.365   4.792  0.0087 -0.3978 -0.4771
 9357SOL    HW239534   1.977   2.303   4.878 -0.8013  2.2809 -2.1163
 9358SOL     OW39535   1.691   1.011  12.484 -0.5135 -0.1258  0.3273
 9358SOL    HW139536   1.739   1.094  12.486 -0.9643  0.1752 -1.8312
 9358SOL    HW239537   1.603   1.037  12.512 -0.2801 -1.3392  2.1733
 9359SOL     OW39538   1.438   2.569   5.462  0.0259  0.3976  0.2195
 9359SOL    HW139539   1.427   2.488   5.513  1.6063 -1.5990 -2.6188
 9359SOL    HW239540   1.422   2.533   5.375  1.4749  3.2604 -1.1960
 9360SOL     OW39541   0.676   3.014   2.764 -0.3315 -0.2127  0.0315
 9360SOL    HW139542   0.708   3.006   2.674 -1.3800  0.0914 -0.3683
 9360SOL    HW239543   0.626   3.096   2.758 -1.0904 -0.7910 -1.3920
 9361SOL     OW39544   2.215   2.030   1.558 -0.6957 -0.4411  0.1811
 9361SOL    HW139545   2.243   1.957   1.503  0.1863  0.2403 -0.2663
 9361SOL    HW239546   2.121   2.037   1.539 -1.1119 -2.0628  1.6112
 9362SOL     OW39547   3.754   4.169   6.916  0.0433 -0.7119 -0.3087
 9362SOL    HW139548   3.757   4.080   6.952  2.4740 -1.1701 -1.6474
 9362SOL    HW239549   3.670   4.199   6.952 -0.5178 -3.4987  0.7042
 9363SOL     OW39550   4.579   3.266   7.667 -0.7323 -0.2358  0.1531
 9363SOL    HW139551   4.590   3.323   7.742  0.7845  0.8139 -0.8598
 9363SOL    HW239552   4.659   3.272   7.614 -0.3452 -0.4243  0.7160
 9364SOL     OW39553   3.733   3.443  13.751  0.0021  0.0768  0.2184
 9364SOL    HW139554   3.796   3.380  13.715 -0.4522  0.1215 -0.6618
 9364SOL    HW239555   3.788   3.518  13.771 -0.1699  0.4169 -0.5773
 9365SOL     OW39556   4.627   2.621   8.633 -0.1697  0.6049  0.4944
 9365SOL    HW139557   4.703   2.677   8.649 -0.4725  0.8568  1.0287
 9365SOL    HW239558   4.654   2.534   8.664  1.9976  0.9583 -0.4040
 9366SOL     OW39559   1.860   1.061  17.525  0.2195  0.0359  0.0943
 9366SOL    HW139560   1.910   1.106  17.593  1.7955 -0.6673 -0.6032
 9366SOL    HW239561   1.842   0.976  17.565 -2.1927  0.2962 -0.4352
 9367SOL     OW39562   1.920   0.175   8.697  0.2750 -0.8066  0.4525
 9367SOL    HW139563   1.847   0.149   8.642  0.4936  0.1644 -0.2945
 9367SOL    HW239564   1.874   0.179   8.781 -1.6162 -1.5097 -0.5631
 9368SOL     OW39565   2.691   3.760  13.186  0.0934 -0.0737 -0.5479
 9368SOL    HW139566   2.710   3.798  13.272 -1.0262  0.2709 -0.4589
 9368SOL    HW239567   2.646   3.681  13.215  1.4256 -1.3238 -1.8576
 9369SOL     OW39568   2.677   2.569   3.191 -0.4735 -0.5028 -0.5179
 9369SOL    HW139569   2.653   2.478   3.175 -0.2908 -0.6381 -0.0429
 9369SOL    HW239570   2.765   2.549   3.223 -1.0051  0.5798  1.6222
 9370SOL     OW39571   3.626   3.197   4.377  0.0686  0.3003 -0.5998
 9370SOL    HW139572   3.558   3.262   4.356 -0.2609 -0.0027 -0.4690
 9370SOL    HW239573   3.582   3.151   4.449 -0.7667 -0.1259 -1.3761
 9371SOL     OW39574   2.446   4.102  10.834 -0.0830 -0.2746 -0.1296
 9371SOL    HW139575   2.463   4.017  10.874  0.0860  0.8099  2.1337
 9371SOL    HW239576   2.351   4.104  10.833 -0.0762  0.0580 -0.0350
 9372SOL     OW39577   0.899   2.409   4.167 -0.0984  0.4094 -0.0843
 9372SOL    HW139578   0.841   2.462   4.222 -0.5730  0.8346 -0.9759
 9372SOL    HW239579   0.943   2.481   4.121  0.3627  0.6539  0.7339
 9373SOL     OW39580   0.735   0.351  12.942 -0.2288 -0.4842 -0.0703
 9373SOL    HW139581   0.765   0.418  12.880  0.3864 -0.2614  0.4628
 9373SOL    HW239582   0.808   0.291  12.924  0.3486  0.0692  0.4315
 9374SOL     OW39583   0.324   1.508   4.774  0.1729 -0.5413 -0.2091
 9374SOL    HW139584   0.365   1.444   4.717 -1.2761 -0.8801 -0.8827
 9374SOL    HW239585   0.371   1.491   4.855 -1.6332  1.4290  1.2610
 9375SOL     OW39586   3.251   2.902   3.561  0.0337  0.0547 -0.0198
 9375SOL    HW139587   3.184   2.971   3.565 -0.4685 -0.5258  1.7108
 9375SOL    HW239588   3.207   2.828   3.602  0.8845 -0.0753  0.6592
 9376SOL     OW39589   1.660   3.327   5.463  0.1025  0.2893  0.1264
 9376SOL    HW139590   1.703   3.296   5.383 -1.9387 -0.9832 -0.4794
 9376SOL    HW239591   1.735   3.324   5.523  0.8000 -3.3250 -0.9322
 9377SOL     OW39592   2.522   2.043   6.535  0.5799 -0.1491  0.2444
 9377SOL    HW139593   2.618   2.036   6.540  0.6423  1.5782  1.4580
 9377SOL    HW239594   2.498   2.116   6.592 -2.3371 -0.3389 -0.7688
 9378SOL     OW39595   0.526   4.553   8.554  0.2264 -0.0518  0.5436
 9378SOL    HW139596   0.609   4.507   8.552 -1.1183 -2.5416  1.8364
 9378SOL    HW239597   0.478   4.484   8.509  1.6006  0.3776 -1.5475
 9379SOL     OW39598   3.016   1.637  10.187  0.1449  0.5028  0.8555
 9379SOL    HW139599   3.111   1.635  10.176  0.2612 -0.5445  2.0583
 9379SOL    HW239600   2.999   1.659  10.278  0.1710 -0.4960  1.0901
 9380SOL     OW39601   2.841   2.721   8.907  0.6799 -0.3877 -0.2883
 9380SOL    HW139602   2.816   2.762   8.824 -1.0078 -0.1100  0.3553
 9380SOL    HW239603   2.752   2.705   8.939  0.5085  0.5316 -0.3113
 9381SOL     OW39604   0.737   4.662  16.094  0.1403 -0.0436 -0.3318
 9381SOL    HW139605   0.663   4.613  16.130  0.5731 -0.1560  0.4023
 9381SOL    HW239606   0.713   0.024  16.131 -2.3520 -0.0915 -1.8174
 9382SOL     OW39607   2.215   2.780   7.021 -0.0955  0.4117 -0.2870
 9382SOL    HW139608   2.180   2.741   7.101  0.7700 -0.1942 -0.2102
 9382SOL    HW239609   2.233   2.871   7.048  0.4838 -0.1846  1.3443
 9383SOL     OW39610   0.254   3.691   0.621  0.1437 -0.2715 -0.1893
 9383SOL    HW139611   0.246   3.598   0.602  1.5566  0.0345 -2.2669
 9383SOL    HW239612   0.273   3.689   0.715 -2.0522 -2.0064  0.1904
 9384SOL     OW39613   4.390   0.880  12.186  0.3829 -0.1105 -0.1215
 9384SOL    HW139614   4.329   0.807  12.176  3.3406 -2.5114 -0.5630
 9384SOL    HW239615   4.432   0.874  12.100 -0.7206 -2.1508 -0.5081
 9385SOL     OW39616   1.114   0.977   2.058  0.2994  0.0439  0.3781
 9385SOL    HW139617   1.205   0.951   2.072  0.8427  1.4931 -0.4319
 9385SOL    HW239618   1.117   1.072   2.047  2.9956 -0.0480  0.2264
 9386SOL     OW39619   1.485   0.422  11.732  0.1768  0.2333 -0.1052
 9386SOL    HW139620   1.530   0.476  11.668 -0.7934  1.4114  0.2147
 9386SOL    HW239621   1.530   0.339  11.748  0.0010  0.1454 -0.0638
 9387SOL     OW39622   1.324   3.375   3.491  0.6922  0.1925  0.1683
 9387SOL    HW139623   1.324   3.366   3.586  0.4463 -0.9400  0.0535
 9387SOL    HW239624   1.345   3.467   3.474 -0.0883  0.1889 -0.8130
 9388SOL     OW39625   2.162   3.422  15.637 -0.4216  0.5917 -0.5358
 9388SOL    HW139626   2.072   3.391  15.642 -0.4537  1.3194  3.7465
 9388SOL    HW239627   2.170   3.425  15.542 -1.9284 -0.8721 -0.7009
 9389SOL     OW39628   0.840   1.678   7.272  0.1182  0.0584  0.1643
 9389SOL    HW139629   0.773   1.699   7.207  3.0986 -0.3693 -3.0633
 9389SOL    HW239630   0.913   1.657   7.214 -0.0738 -0.6163  0.1701
 9390SOL     OW39631   0.157   3.180   3.167  0.0536 -0.6381  0.2340
 9390SOL    HW139632   0.071   3.144   3.149  0.0051 -0.3276 -0.1647
 9390SOL    HW239633   0.156   3.150   3.258  0.4536 -0.4108  0.3153
 9391SOL     OW39634   2.228   3.878   2.789  0.2034 -0.3371  0.0258
 9391SOL    HW139635   2.149   3.836   2.756 -0.8374 -0.0719  2.1974
 9391SOL    HW239636   2.290   3.807   2.807 -0.5180 -1.0898 -0.4465
 9392SOL     OW39637   2.558   0.358   2.818 -0.2189 -0.2843  0.7222
 9392SOL    HW139638   2.493   0.342   2.750 -1.5299  1.8781  1.4694
 9392SOL    HW239639   2.631   0.299   2.800 -0.2945  0.1816 -1.0363
 9393SOL     OW39640   0.543   1.122  17.414  0.3216  0.0254 -0.0817
 9393SOL    HW139641   0.481   1.185  17.453  0.8675  0.8255 -0.5143
 9393SOL    HW239642   0.517   1.041  17.458 -0.5876 -0.8366 -2.2089
 9394SOL     OW39643   1.403   2.595   4.392  0.9920 -0.2443 -0.0011
 9394SOL    HW139644   1.410   2.500   4.397 -0.9083 -0.5369 -2.5578
 9394SOL    HW239645   1.340   2.598   4.464  0.1041  3.5015 -0.9065
 9395SOL     OW39646   0.056   0.537   3.074  0.0374 -0.2154  0.2239
 9395SOL    HW139647   0.119   0.517   3.004  1.3262  0.2227  1.2547
 9395SOL    HW239648   0.009   0.455   3.089 -0.2671 -0.1061 -0.1204
 9396SOL     OW39649   4.201   2.340  11.594 -0.0075 -0.0860  0.2350
 9396SOL    HW139650   4.114   2.309  11.569 -0.1879  1.1618 -0.6847
 9396SOL    HW239651   4.240   2.313  11.510 -0.8197 -3.4969  0.9759
 9397SOL     OW39652   2.502   1.309   6.453  0.1451  0.0450 -0.1415
 9397SOL    HW139653   2.439   1.309   6.525  1.9929  1.1766  1.4727
 9397SOL    HW239654   2.516   1.403   6.443 -1.7918  0.1901 -1.5519
 9398SOL     OW39655   1.484   4.523   9.045  0.3399  0.5256  0.2049
 9398SOL    HW139656   1.481   4.579   9.122 -1.0650  1.6819 -0.6856
 9398SOL    HW239657   1.401   4.475   9.039 -0.4776  1.8080  1.0748
 9399SOL     OW39658   0.108   0.417  14.695 -0.5994  0.5102 -0.0063
 9399SOL    HW139659   0.167   0.426  14.769 -1.4838  0.8435  0.6649
 9399SOL    HW239660   0.069   0.504  14.690 -0.8034  0.5000  1.5543
 9400SOL     OW39661   3.930   2.646  14.673  0.6313 -0.2017  0.4181
 9400SOL    HW139662   3.941   2.622  14.581 -1.8338 -2.9227  0.8395
 9400SOL    HW239663   3.916   2.556  14.703  0.4111 -0.8107 -1.5646
 9401SOL     OW39664   4.652   2.749   1.651 -0.3583  0.0562  0.5329
 9401SOL    HW139665   4.642   2.829   1.702  0.7677  1.2515 -1.1249
 9401SOL    HW239666   4.595   2.697   1.708 -1.5993 -0.4116 -1.1256
 9402SOL     OW39667   0.157   3.338   8.025  0.0375  0.6120 -0.0199
 9402SOL    HW139668   0.142   3.247   8.051 -2.4902  0.6018 -1.4494
 9402SOL    HW239669   0.213   3.331   7.948 -1.2350  0.4512 -0.9433
 9403SOL     OW39670   2.255   4.325  16.977  0.0601 -0.7207 -0.1411
 9403SOL    HW139671   2.257   4.260  17.047  1.0721 -0.3510  0.1747
 9403SOL    HW239672   2.334   4.371  17.003 -0.5009 -1.3280  2.5894
 9404SOL     OW39673   0.827   0.855   0.066  0.1930 -0.2650  0.1914
 9404SOL    HW139674   0.786   0.886   0.147  0.4455 -0.1249  0.2636
 9404SOL    HW239675   0.861   0.937   0.031 -0.4493  0.3579  1.0305
 9405SOL     OW39676   1.793   2.949   6.655  0.4650  0.2578  0.0452
 9405SOL    HW139677   1.843   2.943   6.573 -1.7331  0.4025 -1.3119
 9405SOL    HW239678   1.856   2.968   6.724  2.0269 -0.8593 -1.0691
 9406SOL     OW39679   2.850   1.357   5.173 -0.1415  0.0199  0.2992
 9406SOL    HW139680   2.865   1.441   5.131 -2.8990  0.2553 -0.2012
 9406SOL    HW239681   2.874   1.375   5.264 -1.5511 -2.1279  1.1023
 9407SOL     OW39682   1.372   4.581   6.655  0.1108 -0.3178 -0.5635
 9407SOL    HW139683   1.307   4.522   6.616  0.5452 -2.6717  2.2225
 9407SOL    HW239684   1.370   4.547   6.744 -1.3650  0.8189 -0.1661
 9408SOL     OW39685   4.370   2.932  11.224 -0.1920 -0.1728  0.1352
 9408SOL    HW139686   4.346   3.007  11.278  1.6139 -0.0147  0.7273
 9408SOL    HW239687   4.455   2.962  11.191 -1.4818  2.2471 -0.9801
 9409SOL     OW39688   0.024   4.103   2.743 -0.9201 -0.2077  0.5017
 9409SOL    HW139689   0.099   4.072   2.693 -2.9856 -0.2743 -2.5403
 9409SOL    HW239690   4.714   4.172   2.685  0.7033 -1.3717 -1.7910
 9410SOL     OW39691   3.085   4.527   6.129 -0.2118 -0.4429  0.5257
 9410SOL    HW139692   3.071   4.451   6.186  0.8949 -0.9208  0.1472
 9410SOL    HW239693   3.163   4.510   6.077 -0.3241  1.5634 -0.2927
 9411SOL     OW39694   2.114   1.152   8.310  0.4031  0.2476  0.5121
 9411SOL    HW139695   2.203   1.170   8.279  1.0566 -0.0029  2.2769
 9411SOL    HW239696   2.136   1.147   8.403 -1.0838 -1.2865  0.7912
 9412SOL     OW39697   2.543   4.623   8.207  0.1947 -0.4293  0.4617
 9412SOL    HW139698   2.455   4.585   8.204 -1.0871  2.4926  1.1740
 9412SOL    HW239699   2.595   4.543   8.206 -1.5463 -1.5479 -0.1960
 9413SOL     OW39700   1.659   4.365   7.091  0.0927 -0.1387 -0.0301
 9413SOL    HW139701   1.699   4.443   7.052  1.3637 -0.2041  1.1247
 9413SOL    HW239702   1.725   4.333   7.153 -1.1627 -0.4457  1.1677
 9414SOL     OW39703   4.517   2.746   2.949 -0.0384  0.5458 -0.3335
 9414SOL    HW139704   4.444   2.732   2.889  0.0964 -1.8892  0.0712
 9414SOL    HW239705   4.506   2.829   2.995  2.8115  1.1211 -0.6424
 9415SOL     OW39706   2.956   3.040  12.730  0.0563 -0.3913  0.4896
 9415SOL    HW139707   2.894   3.093  12.779  1.4122  2.3531 -0.7780
 9415SOL    HW239708   3.037   3.082  12.759  2.5433 -3.4030 -2.0522
 9416SOL     OW39709   1.266   0.313  14.604  0.3505  0.3202 -0.3185
 9416SOL    HW139710   1.328   0.357  14.662  1.5469 -0.2204 -1.1967
 9416SOL    HW239711   1.320   0.253  14.553  0.4750  0.5585 -0.4635
 9417SOL     OW39712   3.097   1.117   0.697 -0.2754  0.5530  0.7586
 9417SOL    HW139713   3.034   1.119   0.625  0.1982  0.2946  0.3369
 9417SOL    HW239714   3.144   1.200   0.687 -0.0934  0.1673 -1.6091
 9418SOL     OW39715   2.727   0.032   3.974 -0.1827 -0.0303 -0.5566
 9418SOL    HW139716   2.808   0.003   3.934  1.7950  1.1623  2.5931
 9418SOL    HW239717   2.655   0.009   3.915 -0.7933 -1.7712  0.8497
 9419SOL     OW39718   2.105   2.836  15.192 -0.0856  0.1124 -0.8377
 9419SOL    HW139719   2.164   2.765  15.216 -0.5618  0.2517  0.7904
 9419SOL    HW239720   2.163   2.912  15.195  1.1461 -0.8732 -0.1443
 9420SOL     OW39721   3.861   2.224   5.860 -0.2159 -0.4935  0.1026
 9420SOL    HW139722   3.930   2.245   5.923  1.0963  0.3881 -1.6231
 9420SOL    HW239723   3.843   2.310   5.821 -1.6165 -0.8287  0.0221
 9421SOL     OW39724   3.138   2.817  10.752 -0.6389  0.1613 -0.2426
 9421SOL    HW139725   3.218   2.765  10.752  0.6724  2.1577 -1.5064
 9421SOL    HW239726   3.168   2.887  10.693  0.8457 -1.1224 -1.0198
 9422SOL     OW39727   2.810   0.734   6.063 -0.1903  0.3440 -0.2206
 9422SOL    HW139728   2.810   0.651   6.111  0.7045  1.0543  1.0035
 9422SOL    HW239729   2.806   0.805   6.128 -2.1417 -0.1751  0.2445
 9423SOL     OW39730   3.017   0.531  17.553 -0.4381 -0.1574  0.8590
 9423SOL    HW139731   3.056   0.457  17.505  1.0228  0.2369  1.4478
 9423SOL    HW239732   2.991   0.583  17.477  2.3100  2.3317  1.6320
 9424SOL     OW39733   2.854   1.531  15.992  0.1991 -0.1072  0.2327
 9424SOL    HW139734   2.832   1.465  16.058 -0.9657  1.2512  1.1778
 9424SOL    HW239735   2.807   1.492  15.918 -1.2083  1.1180  0.5000
 9425SOL     OW39736   0.467   1.421  10.626  0.0569  0.3719  0.2268
 9425SOL    HW139737   0.508   1.482  10.687  0.9443 -0.5272  0.5289
 9425SOL    HW239738   0.530   1.363  10.584  0.0036 -0.1538  0.8850
 9426SOL     OW39739   2.349   1.861   6.304 -0.2873  0.0326 -0.3492
 9426SOL    HW139740   2.436   1.847   6.264 -0.0030 -1.7305  0.9334
 9426SOL    HW239741   2.324   1.949   6.276 -0.1043 -0.1759 -1.1859
 9427SOL     OW39742   4.424   2.260  10.872 -0.0824 -0.4135 -0.1105
 9427SOL    HW139743   4.432   2.355  10.879 -1.0980 -0.2264 -1.6133
 9427SOL    HW239744   4.515   2.233  10.885  0.1667  0.5873  0.1925
 9428SOL     OW39745   0.056   4.064   3.534  0.2014  0.2197 -0.0796
 9428SOL    HW139746   0.139   4.026   3.506  0.7755 -0.1498  2.1066
 9428SOL    HW239747   4.719   4.018   3.476 -1.9328  1.3633  1.1782
 9429SOL     OW39748   0.851   2.346   5.830  0.2888 -0.3076 -0.3778
 9429SOL    HW139749   0.918   2.373   5.893  0.0273 -0.6292  0.0390
 9429SOL    HW239750   0.877   2.383   5.745  2.2324 -1.1490 -0.1474
 9430SOL     OW39751   0.774   0.691   8.020  0.2890  0.1862 -0.5266
 9430SOL    HW139752   0.753   0.617   8.079  1.3097  0.7975  0.6179
 9430SOL    HW239753   0.770   0.764   8.082  1.1543 -2.0673  2.2272
 9431SOL     OW39754   2.437   4.482   5.609  0.2633 -0.0421  0.5097
 9431SOL    HW139755   2.435   4.577   5.604  1.5408 -0.0116  0.5901
 9431SOL    HW239756   2.394   4.464   5.526  3.0114  1.1874 -1.1782
 9432SOL     OW39757   3.866   1.184   5.059 -0.2739 -0.2113  0.4688
 9432SOL    HW139758   3.960   1.196   5.050 -0.1718  0.4248  2.4378
 9432SOL    HW239759   3.848   1.111   4.999 -1.4078  1.4849 -1.2713
 9433SOL     OW39760   4.061   0.833   6.452  0.3101 -0.1294  0.0777
 9433SOL    HW139761   4.154   0.825   6.470  0.4564  0.5153 -0.3890
 9433SOL    HW239762   4.030   0.885   6.526  0.1397 -1.6402  1.0492
 9434SOL     OW39763   2.016   3.726   2.390 -0.4143  0.0169 -0.3636
 9434SOL    HW139764   2.036   3.638   2.359  0.5932 -0.5609  1.9533
 9434SOL    HW239765   2.029   3.716   2.484 -0.8601  1.1929 -0.1787
 9435SOL     OW39766   0.122   0.019  10.225  0.0147 -0.5853  0.3800
 9435SOL    HW139767   0.202   4.691  10.234  0.5820 -0.1715 -2.4623
 9435SOL    HW239768   0.160   0.103  10.199 -1.2394 -0.3612 -0.7197
 9436SOL     OW39769   1.965   0.253   6.548 -0.6071 -0.2999 -0.7113
 9436SOL    HW139770   1.905   0.326   6.563 -1.4949 -0.7952 -1.9185
 9436SOL    HW239771   1.921   0.182   6.595  1.2458  1.5023  3.8180
 9437SOL     OW39772   1.700   1.231  12.952  0.5428 -0.1438 -0.5328
 9437SOL    HW139773   1.748   1.222  12.869  0.6224 -0.7946 -0.4199
 9437SOL    HW239774   1.753   1.307  12.974 -0.1228  0.1034  0.1953
 9438SOL     OW39775   3.725   0.124  17.367 -0.2295  0.5921 -0.0890
 9438SOL    HW139776   3.804   0.176  17.351  0.8844 -1.0194  0.1344
 9438SOL    HW239777   3.734   0.069  17.289  0.6553  0.5772  0.0202
 9439SOL     OW39778   2.346   1.847   2.242  0.0714  0.2147  0.1501
 9439SOL    HW139779   2.346   1.754   2.263  0.1204 -0.2379 -1.8870
 9439SOL    HW239780   2.356   1.849   2.147 -0.4839  0.4967  0.0993
 9440SOL     OW39781   2.105   1.018   0.513 -0.5146 -0.1102 -0.2339
 9440SOL    HW139782   2.089   1.080   0.442 -1.6712  0.8850  0.9037
 9440SOL    HW239783   2.082   1.081   0.581  2.8349 -0.6573  1.3982
 9441SOL     OW39784   0.800   0.430  10.103  0.2616 -0.1996  0.8840
 9441SOL    HW139785   0.738   0.408  10.033  1.9996 -1.4823 -0.2901
 9441SOL    HW239786   0.755   0.444  10.186  0.5496 -1.3328  1.2361
 9442SOL     OW39787   3.127   3.905   9.149 -0.0840  0.1903 -0.4041
 9442SOL    HW139788   3.087   3.819   9.149 -0.7893  0.5171  1.1899
 9442SOL    HW239789   3.054   3.960   9.180 -1.4767 -0.3533 -2.7245
 9443SOL     OW39790   0.530   3.392   5.768 -0.6651 -0.0484 -0.3296
 9443SOL    HW139791   0.597   3.459   5.750 -0.1988 -0.2925  0.4952
 9443SOL    HW239792   0.574   3.316   5.730 -2.6493 -0.7049 -1.3055
 9444SOL     OW39793   4.643   3.452   4.480 -0.1664  0.5223 -0.8140
 9444SOL    HW139794   4.716   3.479   4.424 -0.4181  0.8940 -0.9671
 9444SOL    HW239795   4.603   3.536   4.503 -1.6984  0.0892 -1.9081
 9445SOL     OW39796   0.859   3.984   5.979 -0.0849 -0.0678  0.4308
 9445SOL    HW139797   0.835   4.071   5.946 -1.1689 -1.2933 -2.0686
 9445SOL    HW239798   0.906   3.940   5.908 -0.4410  2.8402 -1.6501
 9446SOL     OW39799   3.053   3.196   5.630 -0.0310  1.0786  0.3202
 9446SOL    HW139800   3.085   3.127   5.572  0.0581  1.6433 -0.3065
 9446SOL    HW239801   3.022   3.264   5.571  0.8495  0.0914 -1.2947
 9447SOL     OW39802   3.771   3.418  15.312  0.4327  0.2885 -0.3603
 9447SOL    HW139803   3.693   3.362  15.318 -0.2809  1.1045 -1.8859
 9447SOL    HW239804   3.754   3.456  15.226 -1.7813  1.1195  0.4326
 9448SOL     OW39805   1.954   2.669   8.228  0.3121 -0.8746 -0.7337
 9448SOL    HW139806   1.927   2.759   8.212 -0.5019 -0.7469  1.2608
 9448SOL    HW239807   2.026   2.685   8.289 -1.2140  1.1806  0.5278
 9449SOL     OW39808   1.580   0.716   0.878 -0.1914  0.5835  0.2627
 9449SOL    HW139809   1.538   0.802   0.873 -3.4215 -0.9393  1.1408
 9449SOL    HW239810   1.554   0.685   0.964 -0.9477  0.8312  0.1259
 9450SOL     OW39811   2.908   2.624  17.324  0.1231 -0.5226 -0.4587
 9450SOL    HW139812   2.879   2.573  17.400 -2.2268  1.4192 -0.0304
 9450SOL    HW239813   3.002   2.628  17.340 -0.0876 -1.0040  0.9335
 9451SOL     OW39814   3.501   2.996   2.633 -0.0881 -0.0172 -0.3215
 9451SOL    HW139815   3.484   3.034   2.720  1.3767  0.4939 -0.2620
 9451SOL    HW239816   3.580   2.943   2.646  0.6482  0.5135 -2.6060
 9452SOL     OW39817   0.208   2.286   9.262  0.1855  0.4586  0.1042
 9452SOL    HW139818   0.256   2.238   9.329  0.6184  0.4199 -0.2390
 9452SOL    HW239819   0.122   2.277   9.304 -0.0269  1.0831 -0.1964
 9453SOL     OW39820   1.323   3.701  15.865 -0.8343  0.0905  0.4316
 9453SOL    HW139821   1.396   3.650  15.902  0.2319  2.1909  1.2426
 9453SOL    HW239822   1.279   3.643  15.803  0.5707  0.2475 -0.7024
 9454SOL     OW39823   1.363   0.683   2.781 -0.4382 -0.6201  0.1169
 9454SOL    HW139824   1.398   0.744   2.846 -0.4919  0.5216 -0.9370
 9454SOL    HW239825   1.300   0.630   2.829 -0.1823 -0.3381  0.7654
 9455SOL     OW39826   4.098   0.318   2.263  0.5694 -0.2296  0.0011
 9455SOL    HW139827   4.116   0.227   2.286 -1.8395 -0.5388  0.6821
 9455SOL    HW239828   4.089   0.361   2.348  0.4626 -0.2028 -0.0238
 9456SOL     OW39829   3.354   3.877   8.542 -0.3342  0.2317 -0.0126
 9456SOL    HW139830   3.440   3.858   8.578 -0.2519 -1.8453 -1.2893
 9456SOL    HW239831   3.327   3.793   8.505 -2.5676  0.6129  0.7323
 9457SOL     OW39832   3.094   2.019   5.649 -0.6810  0.2005  0.0885
 9457SOL    HW139833   3.002   1.995   5.660 -0.6688 -0.5951 -1.5335
 9457SOL    HW239834   3.130   1.963   5.580 -1.0016  0.2012 -0.0778
 9458SOL     OW39835   3.909   3.618   2.865  0.2177 -0.1212  0.1962
 9458SOL    HW139836   3.816   3.599   2.855  0.9338 -1.6912 -3.5132
 9458SOL    HW239837   3.949   3.560   2.800 -0.0602  1.1813 -1.1341
 9459SOL     OW39838   0.282   0.829   5.679  0.1205 -0.8398 -0.5401
 9459SOL    HW139839   0.251   0.886   5.749  0.6101  0.9733 -1.8175
 9459SOL    HW239840   0.202   0.793   5.640 -0.5592 -1.3839  1.3699
 9460SOL     OW39841   1.028   1.728   5.616 -0.7834  0.0148  0.1454
 9460SOL    HW139842   1.059   1.694   5.532  0.0459  0.6933  0.1863
 9460SOL    HW239843   0.946   1.773   5.596 -0.6304  0.0309 -0.4398
 9461SOL     OW39844   1.482   1.970   7.356 -0.5512 -0.7592 -0.1737
 9461SOL    HW139845   1.490   1.936   7.267 -0.6688  0.2111 -0.5435
 9461SOL    HW239846   1.390   1.998   7.362 -0.4586 -0.1608 -1.7938
 9462SOL     OW39847   4.598   1.329   5.616 -0.2791 -0.0605 -0.0518
 9462SOL    HW139848   4.621   1.299   5.705  1.4636 -2.0110 -1.1685
 9462SOL    HW239849   4.502   1.325   5.622 -0.4086 -0.5270 -2.5984
 9463SOL     OW39850   1.312   1.217   1.458 -0.3209  0.4343  0.7448
 9463SOL    HW139851   1.388   1.163   1.476 -0.4244  0.3336  0.8832
 9463SOL    HW239852   1.330   1.301   1.500 -2.8706  1.8450 -0.9650
 9464SOL     OW39853   4.617   4.272   6.312 -0.5319 -0.4772 -0.1925
 9464SOL    HW139854   4.687   4.286   6.375 -0.8664 -0.4898  0.1843
 9464SOL    HW239855   4.669   4.257   6.233  1.1575  0.3798  0.7656
 9465SOL     OW39856   3.628   3.666   0.093  0.0025 -0.8403  0.1018
 9465SOL    HW139857   3.674   3.750   0.095 -0.7004 -0.4954  1.5426
 9465SOL    HW239858   3.580   3.671   0.176  1.6760  0.5480  0.9835
 9466SOL     OW39859   0.093   4.325   4.579  0.1659 -0.2856  0.5461
 9466SOL    HW139860   0.131   4.246   4.541 -0.4366  0.1169 -0.8655
 9466SOL    HW239861   0.001   4.302   4.576  0.1564 -0.3011  0.9221
 9467SOL     OW39862   0.394   4.444   1.841 -0.3850  0.5868  0.1099
 9467SOL    HW139863   0.391   4.364   1.894  0.1075  0.8581  0.5406
 9467SOL    HW239864   0.405   4.505   1.914 -1.4692  2.0021 -0.9253
 9468SOL     OW39865   0.316   2.382  16.729 -0.3196  0.0897 -0.9545
 9468SOL    HW139866   0.326   2.288  16.715  0.5851  0.0695 -0.1688
 9468SOL    HW239867   0.243   2.379  16.791 -0.6010 -0.7041 -1.3282
 9469SOL     OW39868   3.250   0.955   8.398 -0.5083  0.0306  0.2698
 9469SOL    HW139869   3.265   1.038   8.442 -0.8402 -1.0411  2.4183
 9469SOL    HW239870   3.190   0.980   8.328  0.2152  0.9424 -0.0089
 9470SOL     OW39871   3.645   0.126   5.671  0.3559  0.0795  0.5081
 9470SOL    HW139872   3.690   0.042   5.679  2.0408  0.6135 -3.3082
 9470SOL    HW239873   3.714   0.192   5.665 -1.8006  2.1792 -1.2651
 9471SOL     OW39874   3.059   3.532   7.606 -0.3036  0.3556 -0.0807
 9471SOL    HW139875   3.095   3.444   7.595 -1.9498 -0.5371  1.6274
 9471SOL    HW239876   3.079   3.563   7.517  0.0311  0.2395 -0.0442
 9472SOL     OW39877   3.079   2.989  16.689 -0.1741 -0.3436  0.5512
 9472SOL    HW139878   3.088   3.073  16.734  1.6818 -0.6330  0.7163
 9472SOL    HW239879   3.019   2.945  16.749 -0.3621 -1.0379 -0.1510
 9473SOL     OW39880   2.708   3.291   0.179  0.0538 -0.2129 -0.4691
 9473SOL    HW139881   2.734   3.263   0.091 -1.0405  0.7934 -1.1102
 9473SOL    HW239882   2.757   3.230   0.234  0.7532 -1.6488 -2.6797
 9474SOL     OW39883   3.044   1.530   7.800  0.4529 -0.2828  0.0341
 9474SOL    HW139884   3.051   1.509   7.893 -0.0344  1.8374  0.5534
 9474SOL    HW239885   3.097   1.462   7.758  0.1901 -0.2700 -0.3129
 9475SOL     OW39886   1.454   0.365   2.969  0.4879  0.2389  0.1548
 9475SOL    HW139887   1.394   0.438   2.980 -1.3134 -1.3385  0.9170
 9475SOL    HW239888   1.460   0.348   2.875  1.2660  0.1734  0.2221
 9476SOL     OW39889   4.169   0.863  13.364  0.5190 -0.4580 -0.1730
 9476SOL    HW139890   4.201   0.943  13.322  0.0766  0.5925  1.5067
 9476SOL    HW239891   4.198   0.793  13.306  0.1818  1.1873 -2.3364
 9477SOL     OW39892   2.927   2.235  17.319 -0.2778 -0.0187 -0.2186
 9477SOL    HW139893   2.997   2.180  17.284 -1.4758 -0.4829 -1.8323
 9477SOL    HW239894   2.850   2.212  17.268  0.3325  0.1638 -1.2303
 9478SOL     OW39895   4.271   1.301   6.680 -0.1442 -0.6462 -0.2099
 9478SOL    HW139896   4.219   1.374   6.712  2.7199  0.8782  1.0407
 9478SOL    HW239897   4.262   1.235   6.749  1.4818  0.7593  1.3639
 9479SOL     OW39898   0.546   2.933  14.262 -0.2150  0.0238  0.1444
 9479SOL    HW139899   0.540   2.840  14.241 -1.1739  0.2814 -0.7298
 9479SOL    HW239900   0.461   2.971  14.243 -0.6949 -0.9439  0.3425
 9480SOL     OW39901   2.597   4.136  15.086 -0.3756  0.0951  0.1783
 9480SOL    HW139902   2.558   4.185  15.013  0.1782  1.2244  0.6389
 9480SOL    HW239903   2.680   4.180  15.104  0.2031 -0.8742 -0.1350
 9481SOL     OW39904   0.838   0.883   3.930 -0.2441  0.6633 -0.0393
 9481SOL    HW139905   0.879   0.797   3.924 -0.1619  0.5973  1.5979
 9481SOL    HW239906   0.893   0.911   4.003 -1.2598  1.0518  0.5677
 9482SOL     OW39907   2.280   2.430   5.657  0.2670 -0.1993  0.4177
 9482SOL    HW139908   2.195   2.390   5.638  1.0979 -1.0907 -1.3691
 9482SOL    HW239909   2.282   2.414   5.752 -0.2338  0.7696  0.5993
 9483SOL     OW39910   2.012   0.644   0.655 -0.3771 -0.2574  0.3541
 9483SOL    HW139911   1.916   0.634   0.656 -0.5570  1.0151 -3.8335
 9483SOL    HW239912   2.040   0.634   0.746 -1.5163  0.7995  0.8343
 9484SOL     OW39913   3.742   3.900   6.983  0.0227 -0.0596  0.2979
 9484SOL    HW139914   3.690   3.870   7.058 -0.3030  0.4726  0.2832
 9484SOL    HW239915   3.827   3.876   7.021 -0.1893 -0.1128  0.7385
 9485SOL     OW39916   4.486   0.811  14.233 -0.0131 -0.0209 -0.6144
 9485SOL    HW139917   4.522   0.877  14.174  0.0804 -1.2935 -1.9939
 9485SOL    HW239918   4.520   0.733  14.189  1.6982 -0.1809  0.9604
 9486SOL     OW39919   3.669   1.842   2.838 -0.6395  0.0281  0.3195
 9486SOL    HW139920   3.668   1.832   2.933  2.0664  1.8292  0.5402
 9486SOL    HW239921   3.762   1.857   2.822 -0.8177  0.8241  0.0066
 9487SOL     OW39922   3.940   2.866   2.590  0.4204  0.1768  0.1424
 9487SOL    HW139923   3.859   2.862   2.641 -0.5154 -0.7262 -1.4448
 9487SOL    HW239924   3.928   2.957   2.564 -0.4209  0.3882  1.2539
 9488SOL     OW39925   1.610   2.811   3.953 -1.4080 -0.0774  0.0909
 9488SOL    HW139926   1.649   2.735   3.910 -0.0662  2.6337 -3.4722
 9488SOL    HW239927   1.580   2.783   4.039 -0.3216  2.8219  1.4053
 9489SOL     OW39928   4.495   1.442  13.096 -0.2275 -0.0625 -0.2950
 9489SOL    HW139929   4.447   1.515  13.134  0.0741 -0.4838  0.9173
 9489SOL    HW239930   4.531   1.395  13.172 -0.7067  0.0422 -0.0059
 9490SOL     OW39931   2.837   3.028   9.662 -0.3200  0.7516  0.3082
 9490SOL    HW139932   2.849   2.934   9.672 -2.3747  0.2130 -2.2231
 9490SOL    HW239933   2.741   3.030   9.668 -0.3304  0.2301  0.2926
 9491SOL     OW39934   2.041   3.322   7.006 -0.0770  0.0202  0.3114
 9491SOL    HW139935   2.003   3.388   7.063  1.7976 -1.3454  3.2149
 9491SOL    HW239936   2.030   3.358   6.918 -2.3880 -1.2825  0.0714
 9492SOL     OW39937   4.030   2.939  11.826  0.4017  0.4070 -0.0182
 9492SOL    HW139938   4.012   2.926  11.733  1.5366  2.8269 -0.5875
 9492SOL    HW239939   4.120   2.973  11.828  0.4368  0.3638 -0.8144
 9493SOL     OW39940   3.698   2.921   7.300 -0.1545 -0.3537  0.1049
 9493SOL    HW139941   3.667   2.928   7.209 -0.2035 -0.4230  0.1157
 9493SOL    HW239942   3.684   2.826   7.302 -0.4823 -0.2888  0.6753
 9494SOL     OW39943   4.320   3.058  17.485 -0.0612  0.4302  0.0866
 9494SOL    HW139944   4.257   3.013  17.428 -0.9577  1.1981  0.4798
 9494SOL    HW239945   4.333   3.141  17.439  1.8738  0.3877  0.5688
 9495SOL     OW39946   2.192   2.707   8.361  0.0163  0.2050 -0.2201
 9495SOL    HW139947   2.176   2.764   8.437  1.1621  1.1233 -0.6582
 9495SOL    HW239948   2.280   2.730   8.332  0.5652 -2.2773 -0.4507
 9496SOL     OW39949   4.207   0.934   4.662 -0.1043  0.2697  0.4541
 9496SOL    HW139950   4.276   0.999   4.676  0.1671 -0.0344  0.5457
 9496SOL    HW239951   4.252   0.854   4.688  2.1766  0.9163 -1.4811
 9497SOL     OW39952   4.394   0.038   5.702  0.5865 -0.4412 -0.0755
 9497SOL    HW139953   4.328   0.083   5.650  1.8144 -0.5099 -1.6954
 9497SOL    HW239954   4.476   0.088   5.691  0.7008 -0.5113  0.4315
 9498SOL     OW39955   1.443   2.807   3.029 -0.4071  0.1438 -0.8320
 9498SOL    HW139956   1.459   2.890   3.073  2.4508 -0.9995  0.3315
 9498SOL    HW239957   1.349   2.818   3.017 -0.3823  1.1057 -0.0903
 9499SOL     OW39958   4.649   4.178  17.657  0.1558 -0.2174  0.6136
 9499SOL    HW139959   4.650   4.256  17.601 -0.8300 -0.6242  0.0276
 9499SOL    HW239960   0.019   4.180  17.679  0.3098  1.2430 -0.1449
 9500SOL     OW39961   3.960   2.651   0.841 -0.4827 -0.0599 -0.4176
 9500SOL    HW139962   3.981   2.586   0.908 -0.2025 -1.1999 -1.6141
 9500SOL    HW239963   3.914   2.713   0.898  2.4141  0.5148  1.3061
 9501SOL     OW39964   2.095   1.168   8.637  0.1887  0.4350 -0.0456
 9501SOL    HW139965   2.001   1.169   8.619  0.5277  0.6071 -1.7910
 9501SOL    HW239966   2.090   1.200   8.727 -3.5627 -2.3092  0.7280
 9502SOL     OW39967   0.338   0.567   5.423 -0.2668  0.2974  0.4327
 9502SOL    HW139968   0.281   0.635   5.459  1.0736  2.4063 -1.4228
 9502SOL    HW239969   0.322   0.489   5.475  0.2290 -1.6109 -2.2903
 9503SOL     OW39970   1.638   1.049   9.793 -0.2304  0.1573  0.1481
 9503SOL    HW139971   1.598   1.052   9.880  2.0168 -0.9815  1.2047
 9503SOL    HW239972   1.584   0.975   9.765  1.1321 -1.4699  1.8916
 9504SOL     OW39973   3.417   2.556   3.359  0.3983 -0.0216  0.5002
 9504SOL    HW139974   3.485   2.512   3.309  0.2313  1.2750 -0.8835
 9504SOL    HW239975   3.347   2.556   3.294  0.1898 -1.0051  0.7337
 9505SOL     OW39976   3.035   3.439   3.675 -0.2285  0.4668  1.0548
 9505SOL    HW139977   3.112   3.490   3.650  0.1321 -0.5275  0.1235
 9505SOL    HW239978   3.066   3.386   3.748  0.0911 -1.2284 -0.3076
 9506SOL     OW39979   3.828   2.521   1.737 -0.0600  0.2011 -0.6717
 9506SOL    HW139980   3.900   2.582   1.755 -0.8995  0.7237  0.9328
 9506SOL    HW239981   3.750   2.576   1.728 -1.1748 -0.8902  2.2157
 9507SOL     OW39982   4.568   3.122   5.943 -0.5313  0.2447  0.7301
 9507SOL    HW139983   4.646   3.066   5.940  1.5209  3.1371  0.3883
 9507SOL    HW239984   4.568   3.146   5.850 -0.2917  1.7570  1.1184
 9508SOL     OW39985   1.573   1.809   9.670  0.3519  0.4709 -0.1381
 9508SOL    HW139986   1.635   1.777   9.735 -0.5313  0.0454  0.5100
 9508SOL    HW239987   1.538   1.893   9.701 -1.1073  0.3553 -1.4881
 9509SOL     OW39988   3.820   3.154  12.470 -0.2211  0.1832  0.6325
 9509SOL    HW139989   3.874   3.211  12.414 -0.7019  1.5308  1.5242
 9509SOL    HW239990   3.770   3.102  12.408  0.0363 -0.2290  0.7755
 9510SOL     OW39991   4.246   4.593  16.126  0.0657  0.2867 -0.6586
 9510SOL    HW139992   4.328   4.630  16.159 -1.2494 -0.0359  3.0762
 9510SOL    HW239993   4.259   4.602  16.032  0.8797 -1.3960 -0.7084
 9511SOL     OW39994   3.224   3.316   6.601 -0.0019 -0.5225  0.0265
 9511SOL    HW139995   3.133   3.320   6.572  0.9474 -0.2149 -2.9662
 9511SOL    HW239996   3.273   3.292   6.522 -0.4064 -4.8811  1.0901
 9512SOL     OW39997   3.474   1.234  12.500  0.5119  0.1819 -0.1189
 9512SOL    HW139998   3.468   1.191  12.586 -0.2226 -2.7047 -1.5935
 9512SOL    HW239999   3.547   1.184  12.462  0.3022 -2.2854  2.6932
 9513SOL     OW40000   3.102   1.510   1.639  0.1468 -0.6568  0.3951
 9513SOL    HW140001   3.139   1.495   1.552 -1.3521 -0.4748 -0.2808
 9513SOL    HW240002   3.024   1.454   1.633 -1.5379  1.5425  1.7647
 9514SOL     OW40003   3.593   2.016   3.892 -0.5145  0.0710 -0.4877
 9514SOL    HW140004   3.506   1.981   3.908 -0.8452  0.6250 -1.0383
 9514SOL    HW240005   3.576   2.087   3.829 -2.3308  0.2194  0.1821
 9515SOL     OW40006   3.201   2.832   4.568  0.1497 -0.5287 -0.1123
 9515SOL    HW140007   3.106   2.835   4.585  0.2478 -0.2115  0.3763
 9515SOL    HW240008   3.241   2.848   4.653 -1.0458 -1.4967  0.6461
 9516SOL     OW40009   3.607   2.892   4.141 -0.0083 -0.2968  0.1969
 9516SOL    HW140010   3.661   2.882   4.219  0.7518 -0.1090 -0.3149
 9516SOL    HW240011   3.528   2.853   4.180 -0.1763 -2.0042 -1.8589
 9517SOL     OW40012   2.161   0.714   8.366 -0.1648  0.5717 -0.7666
 9517SOL    HW140013   2.168   0.635   8.311  2.1880 -0.2303  0.6679
 9517SOL    HW240014   2.254   0.728   8.383 -0.2450 -0.0739  0.2099
 9518SOL     OW40015   3.249   1.288   9.408 -0.3358 -0.0933  0.5249
 9518SOL    HW140016   3.276   1.288   9.500 -3.1379  0.5265  1.3167
 9518SOL    HW240017   3.223   1.198   9.392  0.8329 -0.1201 -1.2792
 9519SOL     OW40018   2.216   0.754   0.521  0.4472  0.1221  0.1099
 9519SOL    HW140019   2.192   0.845   0.534 -1.9527 -0.4328 -0.3315
 9519SOL    HW240020   2.154   0.712   0.581 -0.5386  2.1270  0.4755
 9520SOL     OW40021   1.795   3.788   4.255 -0.4351  0.9988 -0.1543
 9520SOL    HW140022   1.720   3.746   4.296 -0.0698  1.5656  1.0859
 9520SOL    HW240023   1.782   3.742   4.172  0.9041 -1.0547  0.7621
 9521SOL     OW40024   1.164   3.085   5.504  0.0547 -0.3721  0.2968
 9521SOL    HW140025   1.197   3.164   5.460  0.2093  0.1430  1.3269
 9521SOL    HW240026   1.206   3.024   5.444 -0.8971 -0.1476 -0.5871
 9522SOL     OW40027   2.075   4.242   5.869 -0.2550  0.6514  0.0517
 9522SOL    HW140028   2.055   4.300   5.942 -0.0730  1.4142 -0.4998
 9522SOL    HW240029   2.039   4.287   5.793 -0.8563 -0.2750 -0.2173
 9523SOL     OW40030   4.079   0.547   6.093  0.6307 -0.0345 -0.2803
 9523SOL    HW140031   4.136   0.475   6.068  0.3683 -0.9670  1.8566
 9523SOL    HW240032   4.000   0.523   6.045 -0.0091  0.4554  0.5210
 9524SOL     OW40033   1.797   3.391   4.207  0.6650 -0.1284  0.2862
 9524SOL    HW140034   1.856   3.375   4.281  1.1456 -0.3383 -0.1485
 9524SOL    HW240035   1.849   3.376   4.128 -1.2773  0.3887 -1.0730
 9525SOL     OW40036   0.280   1.076   8.703  0.1384 -0.1757  0.5195
 9525SOL    HW140037   0.247   1.166   8.697  2.2499  0.4674 -1.4000
 9525SOL    HW240038   0.368   1.096   8.735  0.6857  0.3666 -1.2939
 9526SOL     OW40039   4.344   4.265   8.372  0.3332  0.4916  0.3425
 9526SOL    HW140040   4.255   4.283   8.343  0.9725  0.0984 -1.8307
 9526SOL    HW240041   4.333   4.197   8.439  0.4565  0.8096  0.6905
 9527SOL     OW40042   3.143   1.422   6.580  0.4560  0.0142  0.1802
 9527SOL    HW140043   3.099   1.351   6.532  1.9686 -1.4405  0.9612
 9527SOL    HW240044   3.232   1.390   6.592 -0.1322 -2.4402 -1.8210
 9528SOL     OW40045   1.118   0.786  10.078  0.4703  0.5805 -0.2827
 9528SOL    HW140046   1.211   0.769  10.096  0.4732 -0.5705 -1.3483
 9528SOL    HW240047   1.120   0.881  10.086  1.0738  0.6856 -1.5394
 9529SOL     OW40048   3.653   0.931   3.902 -0.2775  0.5723  0.4396
 9529SOL    HW140049   3.677   1.023   3.898 -0.4988  0.6538  1.0325
 9529SOL    HW240050   3.622   0.933   3.992 -0.6533 -1.0465  0.3448
 9530SOL     OW40051   3.698   4.389  10.754  0.4814  0.1581  0.2926
 9530SOL    HW140052   3.728   4.301  10.777 -2.1978 -0.4505  1.4441
 9530SOL    HW240053   3.737   4.392  10.667 -1.2993 -0.3785 -0.5359
 9531SOL     OW40054   0.985   1.766   0.309  0.9830  0.5435 -0.0380
 9531SOL    HW140055   0.907   1.818   0.323  2.0456  2.1419 -0.0364
 9531SOL    HW240056   1.047   1.821   0.358 -1.1048  0.8358  2.2380
 9532SOL     OW40057   4.527   4.714   1.660  0.0536 -0.5193 -0.4357
 9532SOL    HW140058   4.547   4.641   1.602 -0.6055 -1.6264  0.7233
 9532SOL    HW240059   4.586   4.692   1.732  2.2132  1.1611 -1.6815
 9533SOL     OW40060   3.077   0.390   9.683  0.3448  0.1501  0.4518
 9533SOL    HW140061   3.165   0.428   9.676 -0.1256  1.0913 -0.3136
 9533SOL    HW240062   3.051   0.402   9.592 -1.3653 -1.1749  0.7665
 9534SOL     OW40063   0.185   0.138   6.089  0.0995 -0.1455  0.2387
 9534SOL    HW140064   0.143   0.194   6.155 -0.4536 -2.2018  1.6392
 9534SOL    HW240065   0.114   0.121   6.027 -0.8806 -0.6851  1.5064
 9535SOL     OW40066   1.275   0.038   6.245  0.1807 -0.0479  0.5125
 9535SOL    HW140067   1.291   0.064   6.335  2.1093  1.1020 -0.1800
 9535SOL    HW240068   1.347   4.700   6.229  0.7237  0.6865  0.1742
 9536SOL     OW40069   2.768   0.953   7.888 -0.3692 -0.0629  0.1709
 9536SOL    HW140070   2.832   0.883   7.902 -0.7673 -0.5963 -0.7040
 9536SOL    HW240071   2.755   0.946   7.793 -1.3680  0.2057  0.2924
 9537SOL     OW40072   2.772   3.120   2.141 -0.4840  0.1161 -0.4467
 9537SOL    HW140073   2.803   3.159   2.059 -3.3542  1.4440 -0.8721
 9537SOL    HW240074   2.706   3.058   2.112 -0.4019  1.1604 -2.8667
 9538SOL     OW40075   0.972   2.763   2.621 -0.3290  0.1847 -0.5929
 9538SOL    HW140076   1.046   2.706   2.642 -2.0008 -0.3413  3.7511
 9538SOL    HW240077   0.906   2.749   2.688  0.6622  2.1546  0.7946
 9539SOL     OW40078   2.937   4.490   3.261  0.0973 -0.3487  0.0059
 9539SOL    HW140079   2.904   4.440   3.335  0.1731 -0.6350 -0.1547
 9539SOL    HW240080   3.020   4.451   3.235  0.7518  0.0728  1.4914
 9540SOL     OW40081   0.825   4.063   7.696  0.1185  0.1520  0.2329
 9540SOL    HW140082   0.790   4.106   7.774 -1.5915  0.6968 -0.8559
 9540SOL    HW240083   0.829   3.972   7.726  1.1749 -0.6004 -2.1787
 9541SOL     OW40084   2.522   1.098  15.908 -0.0110 -0.0934  0.2305
 9541SOL    HW140085   2.449   1.100  15.846  0.0819 -0.6746  0.0974
 9541SOL    HW240086   2.543   1.004  15.904 -3.4896 -0.8500 -0.7310
 9542SOL     OW40087   0.973   4.651   5.659 -0.7745  0.3037 -0.4620
 9542SOL    HW140088   0.911   4.675   5.727 -0.2452  0.4576 -0.0309
 9542SOL    HW240089   1.033   0.001   5.674 -0.4446  0.1079 -0.8124
 9543SOL     OW40090   4.697   0.491   2.751  0.2765 -0.7139 -0.1342
 9543SOL    HW140091   4.714   0.582   2.727  1.6480 -0.2838  2.5769
 9543SOL    HW240092   0.051   0.460   2.797 -0.0106 -3.5858 -1.5210
 9544SOL     OW40093   0.292   4.649   7.392 -0.0271  0.0224 -0.1878
 9544SOL    HW140094   0.312   0.018   7.372  1.7210 -0.2282  0.4279
 9544SOL    HW240095   0.336   4.636   7.476  1.9525  2.9316 -0.7440
 9545SOL     OW40096   3.280   3.546   2.868 -0.4735 -0.3436  0.2597
 9545SOL    HW140097   3.324   3.580   2.947 -1.5532 -0.1997  0.7979
 9545SOL    HW240098   3.316   3.611   2.807 -0.8483 -0.7518 -0.3931
 9546SOL     OW40099   3.237   2.508   7.431  0.2912  0.2075  0.1580
 9546SOL    HW140100   3.291   2.461   7.367  1.4588  0.9079  0.6292
 9546SOL    HW240101   3.296   2.527   7.504  0.8235  2.2998 -0.8072
 9547SOL     OW40102   1.258   0.418   5.847  0.3407 -0.2955  0.2106
 9547SOL    HW140103   1.343   0.461   5.859  1.3166 -1.7443 -1.5791
 9547SOL    HW240104   1.213   0.493   5.807  0.6670 -0.0587  0.2818
 9548SOL     OW40105   3.119   3.882   5.984 -0.1603  0.0027  0.3343
 9548SOL    HW140106   3.175   3.830   5.926  0.7992 -0.0729  1.3343
 9548SOL    HW240107   3.035   3.873   5.938 -0.0348 -0.6003  0.2180
 9549SOL     OW40108   1.513   2.231   1.661 -0.3006  0.7283 -0.1843
 9549SOL    HW140109   1.568   2.241   1.739  0.3344  0.9840 -0.6664
 9549SOL    HW240110   1.427   2.256   1.696 -0.3069  0.6682 -0.1570
 9550SOL     OW40111   1.030   2.123  12.100 -0.1281 -0.4441 -0.2529
 9550SOL    HW140112   0.983   2.088  12.024 -1.0923 -1.7702  0.9561
 9550SOL    HW240113   1.112   2.075  12.089  0.6847  0.4946  1.6259
 9551SOL     OW40114   1.261   3.988  13.236 -0.2387  0.0390  0.3056
 9551SOL    HW140115   1.284   4.051  13.304 -3.3278  1.2467  0.2843
 9551SOL    HW240116   1.336   3.929  13.236  0.1171  0.5009  2.1154
 9552SOL     OW40117   0.423   1.069   2.400  0.1897 -0.1339  0.0183
 9552SOL    HW140118   0.379   0.993   2.437  1.0041  0.2459  1.8099
 9552SOL    HW240119   0.365   1.137   2.433  0.2889 -0.2397  0.4144
 9553SOL     OW40120   3.955   3.005   6.614  0.1970 -0.0956  0.1908
 9553SOL    HW140121   3.994   2.957   6.687  2.9739 -0.1918 -1.3838
 9553SOL    HW240122   3.864   2.974   6.615  0.0195  0.4236  0.5618
 9554SOL     OW40123   4.714   2.053  16.833  0.0991  0.5902 -0.1506
 9554SOL    HW140124   4.700   1.967  16.872 -2.0455 -0.4863 -3.2598
 9554SOL    HW240125   4.637   2.058  16.776 -1.2558 -3.0011  1.3507
 9555SOL     OW40126   1.484   0.882   5.571  0.8179 -0.1708 -0.2594
 9555SOL    HW140127   1.475   0.861   5.478  1.4301 -1.9897  0.0762
 9555SOL    HW240128   1.473   0.977   5.573  3.6978  0.1436  0.3495
 9556SOL     OW40129   4.160   2.165   3.985  0.5382 -0.1596 -0.1515
 9556SOL    HW140130   4.186   2.153   3.894 -0.6174 -1.2832 -0.3406
 9556SOL    HW240131   4.088   2.228   3.979 -0.0194 -0.8437 -0.6491
 9557SOL     OW40132   1.323   4.649   1.176 -0.1196  0.4043  0.0619
 9557SOL    HW140133   1.326   4.718   1.242  0.5246 -0.3768  0.8374
 9557SOL    HW240134   1.296   4.705   1.104  1.7705  0.4848 -0.5919
 9558SOL     OW40135   4.639   2.947   7.202 -0.0214 -0.6542 -0.1351
 9558SOL    HW140136   4.611   2.986   7.120 -0.8591  0.3952  0.6378
 9558SOL    HW240137   4.708   3.010   7.222 -0.7259  0.6375 -1.7655
 9559SOL     OW40138   4.695   2.136   2.550  0.1724 -0.2999 -0.6408
 9559SOL    HW140139   4.660   2.222   2.529  2.1777  0.2010 -1.8924
 9559SOL    HW240140   4.655   2.086   2.478 -0.7399 -0.8501  0.2463
 9560SOL     OW40141   0.320   2.394  12.798  0.0135  0.0221 -0.5701
 9560SOL    HW140142   0.354   2.422  12.713 -2.7845 -0.4232 -1.8243
 9560SOL    HW240143   0.265   2.321  12.768  1.5066 -0.7419 -1.4426
 9561SOL     OW40144   0.230   3.451   3.522  0.0641 -0.3167 -0.0281
 9561SOL    HW140145   0.148   3.410   3.549  0.7807 -1.7734 -0.0940
 9561SOL    HW240146   0.215   3.441   3.428 -0.4596 -1.4171  0.1792
 9562SOL     OW40147   2.724   0.191  17.160  0.0243 -0.5453  0.0136
 9562SOL    HW140148   2.770   0.128  17.104 -1.2446 -3.5889  2.3541
 9562SOL    HW240149   2.650   0.203  17.102 -0.4351  0.7265  0.8612
 9563SOL     OW40150   2.101   1.913   9.964 -0.3559  0.2113 -0.4904
 9563SOL    HW140151   2.174   1.950  10.013 -1.1118 -1.6874  2.0430
 9563SOL    HW240152   2.149   1.839   9.927 -0.7441 -0.7793  1.0283
 9564SOL     OW40153   4.571   3.212   8.715 -0.2604 -0.4717  0.3121
 9564SOL    HW140154   4.523   3.288   8.682  1.8167  1.0155  0.7084
 9564SOL    HW240155   4.513   3.143   8.684  0.6726 -1.7190  1.3314
 9565SOL     OW40156   3.355   4.395  10.515 -0.2230 -0.1234 -0.1685
 9565SOL    HW140157   3.418   4.445  10.463  0.7671 -1.7437 -0.5155
 9565SOL    HW240158   3.324   4.323  10.461  0.6772 -0.8952  0.3342
 9566SOL     OW40159   1.047   3.917  13.073 -0.0866  0.1469  0.4689
 9566SOL    HW140160   1.121   3.940  13.129  1.6897 -0.9574 -1.4251
 9566SOL    HW240161   1.039   4.000  13.026  0.6744 -0.7896 -1.3185
 9567SOL     OW40162   2.648   0.830   2.569  0.1482  0.4464 -0.1320
 9567SOL    HW140163   2.619   0.740   2.555 -0.2442  0.2421  1.9692
 9567SOL    HW240164   2.562   0.870   2.578  0.0077 -0.4247  2.4043
 9568SOL     OW40165   0.860   3.726   2.645 -0.7274 -0.1588  0.8667
 9568SOL    HW140166   0.909   3.653   2.684 -1.0341 -1.8510 -1.9250
 9568SOL    HW240167   0.783   3.725   2.701 -0.1601  0.8900  1.6682
   4.72324   4.72324  17.69480
