Membrane in water
40167
    1TCq1    O1    1   1.900   2.441  11.568  0.1396 -0.1341 -0.2727
    1TCq1    C1    2   1.831   2.463  11.454  0.0106  0.7829 -0.3982
    1TCq1    O2    3   1.868   2.443  11.339  0.1800  0.2427 -0.3897
    1TCq1    C2    4   1.696   2.473  11.488  0.3810 -0.0268 -0.3434
    1TCq1    C3    5   1.656   2.539  11.599  0.7482  0.2564  0.1377
    1TCq1    C4    6   1.530   2.539  11.645 -0.5460 -0.1308 -0.1616
    1TCq1    C5    7   1.445   2.455  11.586 -0.1266 -0.0092  1.1173
    1TCq1    C6    8   1.488   2.380  11.482  0.0664  0.2763 -1.2613
    1TCq1    C7    9   1.609   2.388  11.427  0.2416  0.1660 -0.0691
    1TCq1    C8   10   1.401   2.275  11.429 -0.3947 -0.1517 -1.2666
    1TCq1    O4   11   1.394   2.271  11.304 -0.1790 -0.0019 -0.2113
    1TCq1    C9   12   1.497   2.631  11.760 -0.0113 -0.5743  0.2599
    1TCq1    O5   13   1.373   2.635  11.789  0.4802 -0.9597 -0.4004
    1TCq1    O6   14   1.575   2.727  11.788  0.2577  0.1301  0.4689
    1TCq1    H1   15   1.839   2.439  11.645 -2.9642 -0.8858 -2.7796
    1TCq1    H2   16   1.724   2.611  11.643 -0.2842  1.4021 -0.1531
    1TCq1    H3   17   1.345   2.454  11.626 -1.0189  1.2529 -1.0972
    1TCq1    H4   18   1.645   2.312  11.357  1.3140 -0.1202  0.7864
    2MPD2     C   19   1.092   1.879  11.525  0.3972 -0.4526  0.9544
    2MPD2    C1   20   1.123   1.949  11.646 -0.1052  0.1947  0.0898
    2MPD2    C2   21   1.196   2.066  11.635 -0.6731  0.4191  0.1263
    2MPD2    C3   22   1.244   2.108  11.514 -0.1133  0.2567  0.4986
    2MPD2    C4   23   1.211   2.044  11.401  0.1978 -0.2393 -0.1132
    2MPD2    C5   24   1.133   1.926  11.403  1.2837  0.0924 -0.0580
    2MPD2     H   25   1.219   2.116  11.728 -0.8288 -0.3495  0.5830
    2MPD2    H1   26   1.255   2.078  11.308 -0.6644 -1.4286 -0.9695
    2MPD2    H2   27   1.047   1.781  11.535 -0.0613 -0.0910  2.4790
    2MPD2    H3   28   1.127   1.855  11.322 -1.6271  0.7914 -0.4575
    2MPD2     N   29   1.335   2.216  11.523 -0.2133  0.4563 -0.0448
    2MPD2    H5   30   1.335   2.266  11.611 -2.3296 -0.1026  0.2892
    2MPD2    N1   31   1.067   1.914  11.772 -0.2250  0.0269 -0.1302
    2MPD2    H7   32   1.094   1.978  11.845 -0.9727  2.5587 -2.0801
    3TCq1    O1   33   4.661   2.775  10.906 -0.0746  0.3443  0.1164
    3TCq1    C1   34   0.040   2.686  10.927 -0.2271 -0.4666 -0.4043
    3TCq1    O2   35   0.039   2.578  10.870 -0.1468  0.0268 -0.1331
    3TCq1    C2   36   0.154   2.774  10.933 -0.3199 -0.2175  0.1921
    3TCq1    C3   37   0.217   2.783  10.817 -0.2144  0.6359 -0.4807
    3TCq1    C4   38   0.307   2.877  10.794  0.7907 -0.1487  0.1596
    3TCq1    C5   39   0.327   2.975  10.893  0.1483  0.0673 -0.2158
    3TCq1    C6   40   0.258   2.969  11.012  0.6687 -0.0424 -0.2756
    3TCq1    C7   41   0.173   2.863  11.036 -0.8091 -0.1035  0.0328
    3TCq1    C8   42   0.259   3.081  11.104  0.2980  0.3774 -0.2926
    3TCq1    O4   43   0.365   3.138  11.115  0.5163  0.0861  0.1757
    3TCq1    C9   44   0.389   2.867  10.670  0.3093  0.1456 -0.3970
    3TCq1    O5   45   0.472   2.961  10.652  0.2285  0.1750  0.0327
    3TCq1    O6   46   0.361   2.776  10.591  0.0403 -0.5210 -0.4917
    3TCq1    H1   47   4.680   2.871  10.910  3.4886 -0.2605 -2.2493
    3TCq1    H2   48   0.214   2.702  10.745 -3.5221  0.8403 -0.5805
    3TCq1    H3   49   0.385   3.063  10.868  1.3149 -0.2990  1.1562
    3TCq1    H4   50   0.111   2.853  11.124 -0.7244 -0.0315  0.1001
    4MPD2     C   51   4.717   3.344  11.458  0.2327  0.1877  0.7365
    4MPD2    C1   52   4.624   3.276  11.376  0.6162  0.1929 -0.2183
    4MPD2    C2   53   4.675   3.202  11.271  0.7497 -0.8545 -0.4327
    4MPD2    C3   54   0.086   3.195  11.241  0.2143 -0.0540 -0.2798
    4MPD2    C4   55   0.168   3.268  11.318 -0.8853  0.0953 -0.5924
    4MPD2    C5   56   0.128   3.345  11.419  0.5658 -0.3380  0.9719
    4MPD2     H   57   4.614   3.129  11.219 -1.4886  1.3263 -0.8622
    4MPD2    H1   58   0.274   3.271  11.293 -0.3764  0.9255  1.7095
    4MPD2    H2   59   4.680   3.396  11.546 -0.0079  1.3668 -0.0701
    4MPD2    H3   60   0.205   3.408  11.463  1.4602  0.1556 -1.3010
    4MPD2     N   61   0.129   3.113  11.140 -0.4154 -0.4177 -0.0639
    4MPD2    H5   62   0.058   3.062  11.088 -1.6944 -0.5881  1.8605
    4MPD2    N1   63   4.484   3.282  11.397  0.0159 -0.4298 -0.6271
    4MPD2    H7   64   4.426   3.238  11.327 -1.6363  0.4221  0.2078
    5TCq1    O1   65   1.710   0.024  11.583 -0.2319 -0.4090 -0.3164
    5TCq1    C1   66   1.673   4.672  11.473 -0.0391 -0.4641 -0.5371
    5TCq1    O2   67   1.743   4.648  11.375 -0.2614 -0.1463  0.0176
    5TCq1    C2   68   1.530   4.648  11.475  0.1946 -0.6574 -0.2150
    5TCq1    C3   69   1.442   0.020  11.526 -0.5393  0.9375  0.0558
    5TCq1    C4   70   1.305   0.015  11.508 -0.0366 -0.2932  0.1544
    5TCq1    C5   71   1.253   4.628  11.443  0.4207  0.4147  0.0138
    5TCq1    C6   72   1.339   4.542  11.381  0.4539  0.6316  0.2100
    5TCq1    C7   73   1.476   4.554  11.393  0.3866 -0.3189  0.3064
    5TCq1    C8   74   1.289   4.457  11.270 -0.3332 -0.2096 -0.0188
    5TCq1    O4   75   1.361   4.356  11.242  0.3980  0.1442  0.9443
    5TCq1    C9   76   1.223   0.120  11.556 -0.2795 -0.0465 -0.5420
    5TCq1    O5   77   1.098   0.116  11.538 -0.4672 -0.1715 -0.5022
    5TCq1    O6   78   1.283   0.208  11.625 -0.0827  0.1820  0.3396
    5TCq1    H1   79   1.651   0.015  11.660 -0.4739  1.1112 -0.3152
    5TCq1    H2   80   1.484   0.106  11.576  0.6169  1.1830 -1.3030
    5TCq1    H3   81   1.147   4.609  11.433  0.7089 -1.6661  0.8686
    5TCq1    H4   82   1.540   4.489  11.333 -1.1805 -0.4183 -1.2412
    6MPD2     C   83   0.989   4.536  11.065 -1.0742 -0.0013  0.1154
    6MPD2    C1   84   1.091   4.457  11.117  0.5046 -0.2673  0.1526
    6MPD2    C2   85   1.094   4.324  11.081  0.6553 -1.3582  0.7923
    6MPD2    C3   86   1.005   4.268  10.985  0.3477  0.3716  0.1316
    6MPD2    C4   87   0.910   4.351  10.937 -0.6458  0.1401  0.3573
    6MPD2    C5   88   0.900   4.477  10.981  0.1417 -0.0633  0.5118
    6MPD2     H   89   1.179   4.263  11.110 -0.3783 -2.4448  1.5870
    6MPD2    H1   90   0.841   4.325  10.857  1.3741  0.7869 -1.6025
    6MPD2    H2   91   0.974   4.641  11.091  0.7535  0.0764  0.8971
    6MPD2    H3   92   0.830   4.549  10.940  1.0358  1.0990  1.0266
    6MPD2     N   93   1.026   4.130  10.945  0.5135  0.1543  0.0262
    6MPD2    H5   94   1.108   4.085  10.984  1.1139  2.3301  1.2733
    6MPD2    N1   95   1.180   4.514  11.212  0.7080 -0.5302 -0.2219
    6MPD2    H7   96   1.158   4.604  11.255 -0.0967 -1.5944  1.5594
    7TCq1    O1   97   3.862   0.083  13.826 -0.0208  0.0685  0.2849
    7TCq1    C1   98   3.829   0.055  13.702 -0.6204  0.0735  0.1567
    7TCq1    O2   99   3.916   0.021  13.621 -0.3034  0.0052  0.0625
    7TCq1    C2  100   3.691   0.043  13.672  0.6318  0.7291 -0.7375
    7TCq1    C3  101   3.583   0.110  13.726 -0.0735 -0.6352  0.3427
    7TCq1    C4  102   3.458   0.071  13.684  0.3309 -0.3416 -0.3179
    7TCq1    C5  103   3.433   4.692  13.606  0.5238  0.1702 -0.6843
    7TCq1    C6  104   3.536   4.622  13.551  0.3812  0.2209 -0.3929
    7TCq1    C7  105   3.666   4.657  13.585 -0.5092 -0.2851 -0.1408
    7TCq1    C8  106   3.498   4.499  13.483 -0.8498 -0.5048  0.1021
    7TCq1    O4  107   3.383   4.464  13.471 -0.0397 -0.1692  0.5474
    7TCq1    C9  108   3.349   0.148  13.741 -0.3864  0.4722  0.2980
    7TCq1    O5  109   3.234   0.114  13.714  0.1973 -0.0767 -0.3606
    7TCq1    O6  110   3.382   0.231  13.825 -0.3528  0.2676 -0.5716
    7TCq1    H1  111   3.787   0.087  13.889 -0.9897 -0.0459 -0.8653
    7TCq1    H2  112   3.600   0.202  13.780 -1.7993 -0.3655  0.4165
    7TCq1    H3  113   3.335   4.650  13.589  0.5101  0.1222 -0.4910
    7TCq1    H4  114   3.755   4.606  13.550 -0.2497 -0.8221  1.3178
    8MPD2     C  115   3.605   4.093  13.203  0.3705 -0.1407 -0.2814
    8MPD2    C1  116   3.511   4.117  13.297  0.1991 -0.3918  0.0911
    8MPD2    C2  117   3.524   4.227  13.376  0.7787  0.7324 -0.0774
    8MPD2    C3  118   3.611   4.332  13.341 -0.1278  0.0832 -0.0732
    8MPD2    C4  119   3.714   4.295  13.262 -0.1939  0.3064  0.2298
    8MPD2    C5  120   3.704   4.182  13.184 -0.0309 -0.4644  0.2996
    8MPD2     H  121   3.449   4.246  13.452  1.2587 -0.6750  0.7320
    8MPD2    H1  122   3.798   4.364  13.253  1.5079 -1.9600 -1.3829
    8MPD2    H2  123   3.604   3.998  13.150 -0.6612  0.4597 -1.3592
    8MPD2    H3  124   3.786   4.158  13.117 -0.0160  0.9309 -0.1767
    8MPD2     N  125   3.612   4.455  13.417  0.0303 -0.3854  0.1626
    8MPD2    H5  126   3.696   4.512  13.420  1.0137 -1.7030 -1.6700
    8MPD2    N1  127   3.407   4.017  13.316 -0.6896 -0.0030 -0.4392
    8MPD2    H7  128   3.408   3.934  13.257  0.0348  1.0106 -1.8529
    9TCq1    O1  129   1.333   2.009  10.768  0.1211  0.0049  0.3881
    9TCq1    C1  130   1.329   1.930  10.880 -0.1989 -0.6241 -0.2898
    9TCq1    O2  131   1.346   1.811  10.872  0.2028  0.1060 -0.5970
    9TCq1    C2  132   1.232   1.985  10.967 -0.3058 -0.5121  0.5555
    9TCq1    C3  133   1.140   1.900  11.016 -0.5755 -0.2287 -0.9396
    9TCq1    C4  134   1.031   1.953  11.077  1.0570  0.2032  0.0134
    9TCq1    C5  135   1.031   2.088  11.120 -0.1687 -0.8317  0.2616
    9TCq1    C6  136   1.124   2.171  11.074  0.3249 -0.0215  0.4287
    9TCq1    C7  137   1.228   2.119  10.992  0.1079  0.2030  0.1009
    9TCq1    C8  138   1.105   2.316  11.073 -0.5126  0.2097  0.6075
    9TCq1    O4  139   1.170   2.376  10.989 -0.4419 -0.0703  0.6422
    9TCq1    C9  140   0.939   1.864  11.135  0.5460  0.7469  0.1726
    9TCq1    O5  141   0.879   1.915  11.232  0.0161  0.1194  0.1453
    9TCq1    O6  142   0.932   1.746  11.094 -0.0506  0.1105  0.0508
    9TCq1    H1  143   1.286   2.095  10.776 -1.4760 -0.9509  1.3076
    9TCq1    H2  144   1.145   1.794  10.995 -0.2819  0.0319 -2.1797
    9TCq1    H3  145   0.948   2.130  11.175 -0.3220 -1.0188  0.1723
    9TCq1    H4  146   1.310   2.186  10.970 -1.7772  2.5468  0.1187
   10MPD2     C  147   1.040   2.613  11.113 -0.7895  0.3549 -1.1069
   10MPD2    C1  148   0.975   2.500  11.182  0.1930 -0.6007  0.7805
   10MPD2    C2  149   0.868   2.533  11.267  0.2498 -0.1931 -1.0750
   10MPD2    C3  150   0.837   2.664  11.302  0.1275  0.1052  0.4568
   10MPD2    C4  151   0.902   2.766  11.238  0.4845 -0.3874 -0.3768
   10MPD2    C5  152   1.001   2.741  11.143  0.3249 -0.3885  0.2356
   10MPD2     H  153   0.820   2.451  11.319 -1.7757  0.5285 -1.8167
   10MPD2    H1  154   0.879   2.871  11.251  0.8204 -0.5163  1.2703
   10MPD2    H2  155   1.117   2.601  11.038 -0.4734  0.7616 -0.8385
   10MPD2    H3  156   1.057   2.818  11.091 -1.1336 -1.1898 -2.5336
   10MPD2     N  157   0.736   2.700  11.401  0.5203  0.1321  0.0416
   10MPD2    H5  158   0.736   2.800  11.417  0.2119  0.4229 -1.7523
   10MPD2    N1  159   1.008   2.362  11.163  0.2961 -0.4286 -0.2438
   10MPD2    H7  160   0.981   2.304  11.241  2.2950  0.4739  1.1463
   11TCq1    O1  161   1.596   3.068  13.597 -0.4837 -1.0460  0.0672
   11TCq1    C1  162   1.596   2.958  13.669 -0.2521 -0.5354  0.4679
   11TCq1    O2  163   1.503   2.881  13.669  0.1212 -0.3716 -0.2119
   11TCq1    C2  164   1.668   2.996  13.793 -0.3943  0.1087  0.1119
   11TCq1    C3  165   1.743   3.106  13.786  0.0267  0.0445  0.2400
   11TCq1    C4  166   1.798   3.156  13.900  0.4894 -0.9392  0.7912
   11TCq1    C5  167   1.749   3.120  14.024  0.3345 -0.4565 -0.2276
   11TCq1    C6  168   1.652   3.016  14.025  0.0113  0.9066 -0.5367
   11TCq1    C7  169   1.630   2.948  13.911 -0.0508  0.5283  0.4292
   11TCq1    C8  170   1.585   2.970  14.145  0.0051  0.1590  0.2401
   11TCq1    O4  171   1.591   3.047  14.237  0.4742  0.8558  0.1872
   11TCq1    C9  172   1.896   3.261  13.892 -0.0105  0.1572 -0.0913
   11TCq1    O5  173   1.957   3.284  13.784 -0.0968  0.7292  0.2719
   11TCq1    O6  174   1.932   3.301  14.005  0.4301  0.0194 -0.2415
   11TCq1    H1  175   1.682   3.116  13.596 -3.1255  3.6292  1.4688
   11TCq1    H2  176   1.791   3.137  13.693 -1.0954  0.8248 -0.0881
   11TCq1    H3  177   1.797   3.169  14.108 -0.3179 -3.5510  1.9528
   11TCq1    H4  178   1.553   2.871  13.902 -0.2612  0.6005  1.7047
   12MPD2     C  179   1.419   2.837  14.364  0.2207 -0.2124 -0.0506
   12MPD2    C1  180   1.417   2.798  14.233 -0.5246  0.0500  0.1089
   12MPD2    C2  181   1.329   2.702  14.197  0.6259  0.2036  0.1305
   12MPD2    C3  182   1.233   2.644  14.288  0.1871  0.5322  0.6386
   12MPD2    C4  183   1.238   2.694  14.416 -0.3675  0.0153 -0.0900
   12MPD2    C5  184   1.323   2.791  14.455  0.0559  0.8564  0.0348
   12MPD2     H  185   1.320   2.667  14.094  2.5712  1.4232 -0.4595
   12MPD2    H1  186   1.169   2.661  14.494  0.4462  1.5723  1.2639
   12MPD2    H2  187   1.485   2.905  14.416 -0.8439 -1.1882  2.5822
   12MPD2    H3  188   1.329   2.820  14.559  0.1404  0.5315  0.1211
   12MPD2     N  189   1.142   2.552  14.232 -0.1986  0.7297 -0.5555
   12MPD2    H5  190   1.150   2.539  14.131  1.5740 -0.5888 -0.2411
   12MPD2    N1  191   1.504   2.851  14.134  0.0118 -0.0890  0.2011
   12MPD2    H7  192   1.495   2.802  14.045 -0.0866 -0.3166  0.3378
   13TCq1    O1  193   0.811   1.673  10.571  0.8645 -0.3003  0.2387
   13TCq1    C1  194   0.804   1.782  10.493  0.1721  0.1641 -0.3678
   13TCq1    O2  195   0.866   1.790  10.390 -0.2801 -0.4959 -0.9841
   13TCq1    C2  196   0.810   1.886  10.591 -0.3373  0.3592  0.1971
   13TCq1    C3  197   0.914   1.981  10.584  0.3881  0.2621 -0.5627
   13TCq1    C4  198   0.939   2.071  10.682  0.1918 -0.2328 -0.2701
   13TCq1    C5  199   0.859   2.072  10.793 -0.2085 -0.4517  0.2787
   13TCq1    C6  200   0.753   1.985  10.801  0.9508  0.1895  0.8711
   13TCq1    C7  201   0.732   1.883  10.706 -0.4607  0.5148  0.3572
   13TCq1    C8  202   0.650   1.998  10.909  0.0383  0.6773  0.1275
   13TCq1    O4  203   0.697   2.033  11.015 -0.0543 -0.0551 -0.1966
   13TCq1    C9  204   1.034   2.173  10.660 -0.3340  0.5454 -0.2075
   13TCq1    O5  205   1.111   2.150  10.561  0.3776 -0.2778  0.7661
   13TCq1    O6  206   1.015   2.272  10.738  0.1994  0.1135  0.2539
   13TCq1    H1  207   0.788   1.691  10.665 -0.1060 -1.5768  0.2475
   13TCq1    H2  208   0.955   1.991  10.483  1.0024 -2.4192 -0.5653
   13TCq1    H3  209   0.880   2.144  10.871  1.7277 -2.6979  1.8318
   13TCq1    H4  210   0.652   1.811  10.717  0.1367 -0.0042  1.3177
   14MPD2     C  211   0.302   1.886  10.914  0.3379  0.4300  0.1707
   14MPD2    C1  212   0.415   1.947  10.960 -0.1445 -0.7868  0.4000
   14MPD2    C2  213   0.411   2.013  11.082 -0.1558  0.1435  1.0326
   14MPD2    C3  214   0.288   2.030  11.148  0.0853 -0.2785 -0.4930
   14MPD2    C4  215   0.190   1.951  11.108  0.4462 -1.1260  0.0486
   14MPD2    C5  216   0.192   1.884  10.991 -0.6668 -0.4151 -0.1538
   14MPD2     H  217   0.492   2.073  11.123  1.3175 -1.2632  0.1426
   14MPD2    H1  218   0.096   1.953  11.163 -0.2785  1.3900 -1.3171
   14MPD2    H2  219   0.299   1.837  10.817 -3.1024  2.8966 -0.9751
   14MPD2    H3  220   0.112   1.815  10.969 -0.1982 -1.8544  2.6257
   14MPD2     N  221   0.275   2.111  11.260 -0.2340 -0.0406  0.3463
   14MPD2    H5  222   0.351   2.175  11.281 -0.7850  0.5003  0.6694
   14MPD2    N1  223   0.528   1.946  10.875  0.0415 -0.1950 -0.2051
   14MPD2    H7  224   0.524   1.920  10.777 -1.2271  1.8032 -0.6846
   15TCq1    O1  225   1.832   1.778   2.586  0.0615  0.0099  0.3431
   15TCq1    C1  226   1.878   1.779   2.456  0.4976  0.0993 -0.0843
   15TCq1    O2  227   1.813   1.781   2.350  0.2306  0.0502 -0.1884
   15TCq1    C2  228   2.023   1.747   2.455 -0.7371 -0.4679  1.1102
   15TCq1    C3  229   2.085   1.672   2.559 -0.1498 -0.4191 -0.3536
   15TCq1    C4  230   2.206   1.616   2.532  0.0756 -0.1301  0.7016
   15TCq1    C5  231   2.266   1.620   2.413 -0.3612 -0.3892  0.2614
   15TCq1    C6  232   2.205   1.686   2.307  0.4888  0.4624 -0.0980
   15TCq1    C7  233   2.081   1.745   2.328  0.4104 -0.6508 -0.5613
   15TCq1    C8  234   2.272   1.703   2.185  0.1725 -0.1139  0.1119
   15TCq1    O4  235   2.376   1.642   2.171  0.1443  0.1784  0.2930
   15TCq1    C9  236   2.267   1.530   2.627  0.0834  0.2948 -0.8185
   15TCq1    O5  237   2.355   1.454   2.585 -0.2905 -0.2494 -0.1657
   15TCq1    O6  238   2.214   1.524   2.745 -0.0362 -0.4354  0.4349
   15TCq1    H1  239   1.908   1.779   2.648 -0.8993  0.9573  1.5156
   15TCq1    H2  240   2.031   1.646   2.650  0.4473  2.6083  0.8442
   15TCq1    H3  241   2.361   1.573   2.391  0.8176  1.4288  1.4168
   15TCq1    H4  242   2.033   1.802   2.249  0.1344  1.1405  0.8821
   16MPD2     C  243   2.182   1.882   1.869 -0.4544 -0.4719 -0.3160
   16MPD2    C1  244   2.240   1.781   1.950  0.0483 -0.6767 -0.5561
   16MPD2    C2  245   2.328   1.693   1.890  0.1646 -0.2856  0.0656
   16MPD2    C3  246   2.357   1.708   1.752  0.0140  0.5181  0.6599
   16MPD2    C4  247   2.287   1.796   1.676  0.2759  1.0410  0.4613
   16MPD2    C5  248   2.213   1.893   1.735 -0.1151 -0.1155  0.6643
   16MPD2     H  249   2.381   1.611   1.937  0.3351 -0.0153  0.3390
   16MPD2    H1  250   2.296   1.809   1.569  0.1462  0.0959  0.3372
   16MPD2    H2  251   2.112   1.953   1.913 -0.3790  0.4195 -1.6262
   16MPD2    H3  252   2.161   1.973   1.683  2.5360  0.8741 -0.4876
   16MPD2     N  253   2.455   1.616   1.695 -0.3723  0.2582 -0.2663
   16MPD2    H5  254   2.525   1.577   1.757  0.5321  1.1812 -0.7028
   16MPD2    N1  255   2.205   1.770   2.086 -0.5373 -0.3961 -0.2817
   16MPD2    H7  256   2.130   1.830   2.120 -0.2516  0.8164 -1.7800
   17TCq1    O1  257   0.912   2.580  11.997 -0.1729  0.2806 -0.7666
   17TCq1    C1  258   0.838   2.530  11.896 -0.9058 -0.1761  0.1554
   17TCq1    O2  259   0.730   2.475  11.907 -0.5752  0.1270  0.7710
   17TCq1    C2  260   0.931   2.494  11.788  0.1496  0.7480 -0.7055
   17TCq1    C3  261   0.906   2.381  11.716  0.5520  0.2030  0.8374
   17TCq1    C4  262   0.957   2.373  11.588  0.1714  0.0750  0.1246
   17TCq1    C5  263   1.034   2.475  11.532 -0.2744 -0.2101 -0.0132
   17TCq1    C6  264   1.064   2.582  11.615 -0.4513  0.1242 -0.6449
   17TCq1    C7  265   1.009   2.595  11.737 -0.5526  0.2823  0.2796
   17TCq1    C8  266   1.149   2.690  11.567 -0.1369  0.3919 -0.9959
   17TCq1    O4  267   1.159   2.788  11.642  0.4593 -0.8969 -0.5368
   17TCq1    C9  268   0.922   2.249  11.518  0.9545  0.1798 -0.0887
   17TCq1    O5  269   0.847   2.167  11.574  0.0450  0.3802 -0.5400
   17TCq1    O6  270   0.974   2.236  11.406  0.2636  0.1346  0.5292
   17TCq1    H1  271   1.008   2.564  11.986 -0.1450 -0.3063  0.3496
   17TCq1    H2  272   0.845   2.297  11.749 -0.2623  1.4172  2.4085
   17TCq1    H3  273   1.078   2.450  11.437  1.3051  0.1792  0.6120
   17TCq1    H4  274   1.033   2.678  11.803  1.0680  0.5897 -0.6980
   18MPD2     C  275   1.384   2.860  11.473 -0.3486  0.3240  0.0946
   18MPD2    C1  276   1.337   2.743  11.419 -0.5444  0.4136 -0.8006
   18MPD2    C2  277   1.410   2.687  11.320  0.2381  0.6627 -0.6798
   18MPD2    C3  278   1.533   2.738  11.283 -0.1428 -0.6248 -0.2552
   18MPD2    C4  279   1.582   2.851  11.342  0.1039 -0.2928 -0.5216
   18MPD2    C5  280   1.503   2.914  11.433  1.0689  0.1729 -0.8012
   18MPD2     H  281   1.372   2.596  11.275  0.1342  0.0178  0.7204
   18MPD2    H1  282   1.672   2.906  11.317 -0.0192 -0.1791 -0.7146
   18MPD2    H2  283   1.331   2.906  11.556  0.4820 -0.3478  1.0098
   18MPD2    H3  284   1.536   3.001  11.489  1.8486 -0.4075 -0.3604
   18MPD2     N  285   1.602   2.664  11.185  0.9751  0.6624  0.1194
   18MPD2    H5  286   1.561   2.579  11.148  0.9722  1.6016 -2.0448
   18MPD2    N1  287   1.225   2.663  11.460 -0.0894 -0.0676 -0.4756
   18MPD2    H7  288   1.197   2.582  11.406 -0.9018 -1.0745  1.4411
   19TMC2    C1  289   2.324   2.740  14.209  0.5789 -0.6515  0.4675
   19TMC2    C2  290   2.243   2.783  14.109 -0.2681  0.7047  0.2761
   19TMC2    C3  291   2.132   2.708  14.081  0.1697 -0.5898 -0.0952
   19TMC2    C4  292   2.276   2.640  14.295  0.5053 -0.0498 -0.2032
   19TMC2    C5  293   2.148   2.589  14.277  0.1608  0.3620 -0.4353
   19TMC2    C6  294   2.082   2.610  14.156 -0.3379  0.2340  0.1387
   19TMC2     C  295   2.445   2.819  14.237  0.5420  0.1523  0.2749
   19TMC2     O  296   2.489   2.885  14.144  0.9397 -0.2452  0.1420
   19TMC2     H  297   2.269   2.863  14.041 -1.2194  1.4373  0.7727
   19TMC2    H1  298   2.332   2.595  14.376  0.1587 -0.7092 -0.3275
   19TMC2    H2  299   1.989   2.560  14.130 -1.0027  0.5042  1.9553
   19TMC2    C7  300   2.082   2.509  14.374  0.7771  0.4483 -0.2747
   19TMC2    C8  301   2.058   2.729  13.955 -0.3235  0.2213  0.2549
   19TMC2    O1  302   1.994   2.435  14.335 -1.1615 -0.0728  0.3771
   19TMC2    O2  303   1.995   2.649  13.892  0.4936  0.3115  0.4081
   19TMC2    O5  304   2.032   2.861  13.957 -0.1745 -0.8261 -0.3244
   19TMC2    H5  305   2.075   2.924  14.019 -2.3773  0.5199 -0.1676
   20MPD2     C  306   2.718   2.906  14.329  0.3485 -0.2549  0.5626
   20MPD2    C1  307   2.635   2.821  14.396  0.0526  0.3720  0.2729
   20MPD2    C2  308   2.683   2.755  14.509 -0.0816  0.6860  0.5207
   20MPD2    C3  309   2.808   2.771  14.556  0.7409  0.0287 -0.5279
   20MPD2    C4  310   2.892   2.859  14.485 -0.6641  0.2443 -0.5096
   20MPD2    C5  311   2.847   2.929  14.378  0.3450 -0.6915 -0.2551
   20MPD2     H  312   2.604   2.704  14.564  1.3096 -0.6168  1.2830
   20MPD2    H1  313   2.995   2.867  14.517 -1.1406 -1.7001  1.5795
   20MPD2    H2  314   2.682   2.972  14.250  0.8857  0.8300  1.2257
   20MPD2    H3  315   2.912   2.989  14.316  2.6126 -0.6597  2.1797
   20MPD2     N  316   2.857   2.705  14.675  0.5432 -0.4198 -0.2117
   20MPD2    H5  317   2.954   2.713  14.704 -0.2334  0.8284  1.9972
   20MPD2    N1  318   2.506   2.782  14.355  0.2757  0.5055  0.2318
   20MPD2    H7  319   2.459   2.723  14.423 -3.3959  1.3732 -1.5959
   21MPD2     C  320   0.474   3.333  14.383 -0.4537 -0.5390  0.4104
   21MPD2    C1  321   0.471   3.197  14.353 -0.7529 -0.4600 -0.4205
   21MPD2    C2  322   0.349   3.130  14.345  0.2918  0.2802 -0.2198
   21MPD2    C3  323   0.226   3.201  14.370  0.3683  0.1160 -0.1197
   21MPD2    C4  324   0.235   3.335  14.406 -0.1679 -0.1597 -0.0668
   21MPD2    C5  325   0.360   3.396  14.413  0.0854  0.8049 -0.1898
   21MPD2     H  326   0.345   3.028  14.310  0.8051  0.5614 -1.0911
   21MPD2    H1  327   0.146   3.393  14.425  0.4439  0.8487 -0.2683
   21MPD2    H2  328   0.564   3.393  14.384  0.0409 -1.2488 -2.2148
   21MPD2    H3  329   0.362   3.501  14.439 -1.9157  1.0941 -1.1479
   21MPD2     N  330   0.095   3.144  14.369  0.4612  0.4189  0.2336
   21MPD2    H5  331   0.020   3.200  14.407 -0.0106 -0.4907  0.6521
   21MPD2    N1  332   0.583   3.116  14.323 -0.8636  0.3614 -0.2678
   21MPD2    H7  333   0.574   3.027  14.274 -0.2261  0.9593 -1.4676
   22TCq2    C1  334   0.072   3.015  14.333  0.7087  0.4392 -0.9684
   22TCq2    O2  335   0.129   2.938  14.256 -0.1728 -0.4612 -0.4350
   22TCq2    C2  336   4.657   2.980  14.361  0.7472 -0.1214 -0.1882
   22TCq2    C3  337   4.592   2.918  14.255  0.1838  0.0510 -1.7970
   22TCq2    C4  338   4.466   2.958  14.231  0.0612  0.4532  0.2187
   22TCq2    C5  339   4.398   3.036  14.314 -0.9233  0.1375  0.7374
   22TCq2    C6  340   4.458   3.083  14.426 -0.4241 -0.5911  0.5027
   22TCq2    C7  341   4.587   3.060  14.447  0.4433  0.1429 -0.1133
   22TCq2    C8  342   4.387   3.164  14.525  0.9512 -0.5536 -0.5218
   22TCq2    O4  343   4.422   3.138  14.641 -0.6366  0.1628  0.0000
   22TCq2    C9  344   4.399   2.906  14.115 -0.1960 -0.5024 -0.5592
   22TCq2    O5  345   4.314   2.982  14.063 -0.0742  0.3112 -0.3113
   22TCq2    O6  346   4.433   2.796  14.055 -0.4827 -0.1551  0.0659
   22TCq2    H2  347   4.642   2.848  14.189 -0.2363 -0.7045 -1.3105
   22TCq2    H3  348   4.297   3.061  14.285 -1.5754 -2.2506  0.9622
   22TCq2    H4  349   4.635   3.081  14.542  1.3098  1.2749 -0.7877
   23MPD2     C  350   1.646   3.944  14.679 -0.3086 -0.5962 -0.2072
   23MPD2    C1  351   1.610   3.987  14.810  0.1725 -0.4267 -0.1512
   23MPD2    C2  352   1.528   4.102  14.827  0.4418 -0.3320 -0.2623
   23MPD2    C3  353   1.490   4.181  14.721 -0.6344  0.4303 -1.0482
   23MPD2    C4  354   1.530   4.140  14.596 -0.1179 -0.7593  0.5185
   23MPD2    C5  355   1.597   4.023  14.574  0.7635  0.0136 -0.4168
   23MPD2     H  356   1.513   4.128  14.932 -0.3034  1.3836 -0.8009
   23MPD2    H1  357   1.504   4.188  14.503 -2.9716 -1.7336  0.8295
   23MPD2    H2  358   1.702   3.857  14.647 -1.7110 -0.8039 -2.0875
   23MPD2    H3  359   1.604   3.990  14.471 -2.3160 -0.3135 -0.5060
   23MPD2     N  360   1.411   4.298  14.744 -0.1276  0.4782 -0.1258
   23MPD2    H5  361   1.367   4.324  14.656  0.5535  0.2628 -0.5231
   23MPD2    N1  362   1.643   3.909  14.921 -0.0342  0.2069 -0.1385
   23MPD2    H7  363   1.645   3.960  15.009  1.9403  2.2629 -1.3584
   24TCq2    C1  364   1.349   4.331  14.860 -0.2082 -0.5016  0.0531
   24TCq2    O2  365   1.396   4.307  14.971  0.1919 -0.1561  0.7312
   24TCq2    C2  366   1.215   4.390  14.841  0.0899 -0.5055 -0.4100
   24TCq2    C3  367   1.171   4.400  14.710  0.0665 -0.7083  0.9301
   24TCq2    C4  368   1.036   4.365  14.688 -0.4988 -0.0047  0.5961
   24TCq2    C5  369   0.952   4.334  14.791 -0.9014 -0.0961  0.1935
   24TCq2    C6  370   1.000   4.336  14.923  0.3670 -1.7395  0.1521
   24TCq2    C7  371   1.134   4.359  14.944  0.4047 -0.4561 -0.1131
   24TCq2    C8  372   0.907   4.295  15.026 -0.2215  0.1056 -0.7052
   24TCq2    O4  373   0.954   4.300  15.139 -0.1410 -0.7062 -0.1889
   24TCq2    C9  374   0.985   4.370  14.554  0.1472 -0.2091 -0.5880
   24TCq2    O5  375   0.869   4.327  14.536 -0.4821 -0.2056  0.2922
   24TCq2    O6  376   1.066   4.404  14.462  0.1183 -0.3834  0.0407
   24TCq2    H2  377   1.243   4.423  14.633  0.8106 -1.1587  1.4924
   24TCq2    H3  378   0.848   4.320  14.762 -0.8211 -0.0343 -0.1178
   24TCq2    H4  379   1.177   4.350  15.043  0.8008 -0.3853 -0.2785
   25TMC2    C1  380   0.582   1.299  11.662 -0.5134  0.3494 -0.2864
   25TMC2    C2  381   0.591   1.436  11.659  0.1955  0.7823  0.8109
   25TMC2    C3  382   0.498   1.491  11.744  0.8426  0.3298 -0.6074
   25TMC2    C4  383   0.504   1.219  11.739  0.1916  0.4944 -0.3245
   25TMC2    C5  384   0.423   1.281  11.823  0.1440  0.2108 -0.4539
   25TMC2    C6  385   0.416   1.418  11.824 -0.4556  0.3202  0.1243
   25TMC2     C  386   0.651   1.234  11.549 -0.2851 -0.0839  0.7471
   25TMC2     O  387   0.749   1.287  11.508  0.1477 -0.3210 -0.4398
   25TMC2     H  388   0.660   1.487  11.592  1.5108 -0.8714  0.9212
   25TMC2    H1  389   0.514   1.111  11.734  1.2426  0.6388 -1.6207
   25TMC2    H2  390   0.330   1.458  11.877  0.1314  1.4428  0.2383
   25TMC2    C7  391   0.346   1.206  11.928  0.4576 -0.4150 -0.8415
   25TMC2    C8  392   0.518   1.632  11.763  0.8207 -0.5217 -0.0006
   25TMC2    O1  393   0.299   1.273  12.016  0.0211  0.0366  0.3356
   25TMC2    O2  394   0.612   1.691  11.710  0.5420  0.0345 -0.3466
   25TMC2    O5  395   0.406   1.691  11.813 -0.1696  0.5532  0.0199
   25TMC2    H5  396   0.334   1.630  11.841 -0.1471  0.9708  0.9936
   26MPD2     C  397   0.670   0.901  11.172 -0.2738  0.4511 -0.5812
   26MPD2    C1  398   0.546   0.892  11.221 -0.7823 -0.4174  0.3251
   26MPD2    C2  399   0.518   0.970  11.332 -0.3108  0.3210 -0.2644
   26MPD2    C3  400   0.611   1.056  11.389  0.6993 -0.0223 -0.1701
   26MPD2    C4  401   0.741   1.056  11.348  0.6373 -0.5225 -0.0752
   26MPD2    C5  402   0.766   0.981  11.237 -0.3116  0.1823  0.4553
   26MPD2     H  403   0.416   0.963  11.369 -0.6297  2.1566 -0.8097
   26MPD2    H1  404   0.817   1.129  11.373  0.5081  0.2467 -1.9629
   26MPD2    H2  405   0.699   0.839  11.088  2.0914 -1.7638  1.8686
   26MPD2    H3  406   0.867   0.981  11.197 -0.8207  1.5433 -0.8405
   26MPD2     N  407   0.567   1.129  11.498  0.1535  0.1746  0.2707
   26MPD2    H5  408   0.473   1.121  11.538  0.5052  0.3303  1.1342
   26MPD2    N1  409   0.448   0.820  11.151  0.5680 -0.3768 -0.5693
   26MPD2    H7  410   0.474   0.794  11.056  1.0340 -0.2713 -0.4719
   27TMC2    C1  411   3.732   3.424  11.918 -0.2595 -1.0600  0.4120
   27TMC2    C2  412   3.634   3.477  11.833  0.0630  0.5332  0.9676
   27TMC2    C3  413   3.633   3.610  11.805  0.6112  0.1263 -0.6454
   27TMC2    C4  414   3.824   3.505  11.978  0.6820  0.3213 -0.2871
   27TMC2    C5  415   3.813   3.638  11.951 -0.3540 -0.0202  0.4111
   27TMC2    C6  416   3.727   3.693  11.863 -0.0145  0.6333 -0.8956
   27TMC2     C  417   3.707   3.308  12.002  0.4586  1.0266  0.0531
   27TMC2     O  418   3.788   3.219  12.026 -0.6359  0.0239  0.5190
   27TMC2     H  419   3.566   3.404  11.791 -0.9835  2.2945 -0.3783
   27TMC2    H1  420   3.895   3.459  12.046  0.7015 -1.3993 -1.4710
   27TMC2    H2  421   3.745   3.793  11.826 -1.4595  1.5202  0.7747
   27TMC2    C7  422   3.851   3.715  12.062 -0.8878  0.4308  0.5033
   27TMC2    C8  423   3.557   3.656  11.691  0.5371  0.0615 -0.0059
   27TMC2    O1  424   3.921   3.667  12.154  0.2820  0.2085 -0.2868
   27TMC2    O2  425   3.506   3.583  11.609 -0.0806 -0.3807  0.5087
   27TMC2    O5  426   3.493   3.768  11.732  0.0120  0.1937  0.2738
   27TMC2    H5  427   3.527   3.814  11.811 -0.8943  0.3915  0.5420
   28MPD2     C  428   3.450   3.094  12.386  1.2200 -0.1318 -0.2400
   28MPD2    C1  429   3.428   3.230  12.385 -0.7145  0.4525 -0.3625
   28MPD2    C2  430   3.472   3.309  12.279  0.1452  0.0750 -0.2592
   28MPD2    C3  431   3.550   3.251  12.182  0.2964  0.3872  0.2475
   28MPD2    C4  432   3.568   3.112  12.180 -0.0198  0.4470  0.6997
   28MPD2    C5  433   3.513   3.038  12.274 -0.3138 -0.2148  0.0093
   28MPD2     H  434   3.458   3.415  12.295  0.8108 -0.0163  0.9283
   28MPD2    H1  435   3.622   3.070  12.096  2.3911  2.1052  1.4445
   28MPD2    H2  436   3.415   3.033  12.468  3.5458 -1.4905 -0.2708
   28MPD2    H3  437   3.542   2.934  12.270  1.0665  0.1128  1.4269
   28MPD2     N  438   3.606   3.342  12.086  0.4398 -0.0805 -0.1790
   28MPD2    H5  439   3.562   3.434  12.076 -0.5164 -0.5460 -0.2928
   28MPD2    N1  440   3.361   3.280  12.496 -0.0696  0.0910  0.0389
   28MPD2    H7  441   3.318   3.206  12.551 -1.0418  0.9960  0.4971
   29MPD2     C  442   2.844   1.028  14.559  0.5604  0.4503  0.6965
   29MPD2    C1  443   2.924   0.987  14.666 -0.1870 -0.1158 -0.6665
   29MPD2    C2  444   2.962   1.088  14.754 -0.5531  0.5165  0.5277
   29MPD2    C3  445   2.917   1.217  14.730  0.1081 -0.2856  0.0040
   29MPD2    C4  446   2.858   1.261  14.614  0.0057 -0.5215 -0.7045
   29MPD2    C5  447   2.816   1.161  14.530  0.3352  0.1309  0.5738
   29MPD2     H  448   3.022   1.070  14.843 -1.4480  0.9422  1.2209
   29MPD2    H1  449   2.831   1.365  14.599  0.1536 -0.4129 -0.2128
   29MPD2    H2  450   2.833   0.953  14.482 -0.8840  0.2431  1.1023
   29MPD2    H3  451   2.764   1.189  14.439  0.4257  2.4496  1.2443
   29MPD2     N  452   2.943   1.324  14.819  0.5189  0.1474 -0.3082
   29MPD2    H5  453   2.920   1.415  14.780 -1.5544  0.2574  1.1584
   29MPD2    N1  454   2.977   0.858  14.683  0.0406  0.1058 -0.0754
   29MPD2    H7  455   3.052   0.856  14.752  0.3728  0.2820 -0.4313
   30TCq2    C1  456   3.029   1.323  14.932 -0.1499  0.0577  0.3144
   30TCq2    O2  457   3.081   1.238  15.005  0.7471  0.2965  0.0046
   30TCq2    C2  458   3.064   1.462  14.946  0.4526 -0.4267  0.9972
   30TCq2    C3  459   3.099   1.499  15.073 -0.2949  0.2569  0.1271
   30TCq2    C4  460   3.161   1.619  15.095  0.4122 -0.0623 -0.7722
   30TCq2    C5  461   3.171   1.706  14.988  0.0732 -0.9354 -0.9606
   30TCq2    C6  462   3.133   1.674  14.860 -0.3620 -0.7386  0.6141
   30TCq2    C7  463   3.079   1.548  14.842  0.0395 -0.0326  0.0153
   30TCq2    C8  464   3.129   1.769  14.752 -0.0107 -0.0650 -0.2716
   30TCq2    O4  465   3.051   1.751  14.661  0.3529 -0.2495  0.0962
   30TCq2    C9  466   3.198   1.663  15.226  0.2245  0.2387 -0.2125
   30TCq2    O5  467   3.223   1.783  15.243  0.0975  0.1274 -0.1840
   30TCq2    O6  468   3.158   1.587  15.321 -0.3476  0.1618  0.0846
   30TCq2    H2  469   3.081   1.431  15.155 -2.4003 -0.0285 -0.5615
   30TCq2    H3  470   3.209   1.807  15.000  1.4040 -1.6445  0.6437
   30TCq2    H4  471   3.037   1.523  14.745 -2.1168 -1.9857  1.4500
   31MPD2     C  472   1.556   0.486  14.784 -0.0019  0.4560 -0.3403
   31MPD2    C1  473   1.436   0.461  14.716  0.1971 -0.5658 -0.7175
   31MPD2    C2  474   1.375   0.344  14.740 -0.3359  0.8763 -0.3357
   31MPD2    C3  475   1.417   0.265  14.849  0.3809  0.6023  0.1071
   31MPD2    C4  476   1.532   0.292  14.919 -0.4446 -0.8977  0.0991
   31MPD2    C5  477   1.604   0.397  14.879  0.1857  0.1643 -0.4513
   31MPD2     H  478   1.282   0.324  14.688 -0.1105  1.8601 -1.1144
   31MPD2    H1  479   1.558   0.232  15.005 -0.5256  0.5739  1.1437
   31MPD2    H2  480   1.619   0.569  14.753  1.6118 -0.5021  0.3807
   31MPD2    H3  481   1.694   0.425  14.933 -0.7946  2.6887 -0.1256
   31MPD2     N  482   1.342   0.160  14.907 -0.6458  0.5976  0.3629
   31MPD2    H5  483   1.393   0.107  14.976 -0.4277 -1.7462 -1.6103
   31MPD2    N1  484   1.384   0.555  14.621 -0.1247 -0.6284  0.0250
   31MPD2    H7  485   1.440   0.638  14.603  1.2277 -1.4112  0.5935
   32TCq2    C1  486   1.212   0.139  14.883  0.9377  0.3598  0.2580
   32TCq2    O2  487   1.140   0.205  14.810  0.8069 -0.3732 -0.5594
   32TCq2    C2  488   1.146   0.040  14.969  0.1820 -1.2309 -0.1067
   32TCq2    C3  489   1.012   0.027  14.942 -0.4450  0.3282 -0.2070
   32TCq2    C4  490   0.949   4.668  15.029 -0.1105  0.0403 -0.5231
   32TCq2    C5  491   1.005   4.627  15.145 -0.7821 -0.7619 -0.3881
   32TCq2    C6  492   1.133   4.647  15.174 -0.1717  0.7705 -0.0050
   32TCq2    C7  493   1.213   4.716  15.084  0.3798  0.2734  0.1593
   32TCq2    C8  494   1.184   4.604  15.300  0.1159 -0.4811 -0.0007
   32TCq2    O4  495   1.302   4.573  15.303 -0.1722 -0.0397 -0.4044
   32TCq2    C9  496   0.809   4.654  15.012 -0.1412  0.1032 -0.4240
   32TCq2    O5  497   0.741   4.610  15.108  0.7193  0.3089  0.0893
   32TCq2    O6  498   0.753   4.707  14.912  0.1134  0.1541 -0.6891
   32TCq2    H2  499   0.957   0.072  14.860  0.9504  0.1574 -1.2424
   32TCq2    H3  500   0.942   4.565  15.208 -0.9619 -0.5828 -0.3917
   32TCq2    H4  501   1.316   0.017  15.110 -0.1323  1.7092  0.8836
   33MPD2     C  502   1.668   2.459  10.371 -0.1065 -0.2057  0.3337
   33MPD2    C1  503   1.590   2.456  10.484 -0.2800  0.4006  0.1172
   33MPD2    C2  504   1.456   2.481  10.473  0.1212  1.0966  0.3000
   33MPD2    C3  505   1.395   2.502  10.348  0.7260 -0.4969  0.2872
   33MPD2    C4  506   1.472   2.498  10.237 -0.8476 -0.4897 -0.3077
   33MPD2    C5  507   1.606   2.486  10.252  0.0678  0.2079 -0.0059
   33MPD2     H  508   1.390   2.486  10.559  3.2212 -0.3489  2.7429
   33MPD2    H1  509   1.434   2.512  10.137 -0.1560 -1.1731 -0.6683
   33MPD2    H2  510   1.775   2.445  10.369  0.0415  1.1386 -1.4878
   33MPD2    H3  511   1.657   2.503  10.158 -1.5239  0.2334 -0.8678
   33MPD2     N  512   1.254   2.539  10.337  0.4554  0.9402  0.6308
   33MPD2    H5  513   1.214   2.565  10.248  1.8869  1.5169  0.1556
   33MPD2    N1  514   1.664   2.461  10.604  0.0858  0.4046 -0.1554
   33MPD2    H7  515   1.766   2.457  10.599  0.0178  1.8301 -2.5306
   34TCq2    C1  516   1.161   2.537  10.437 -0.3096 -0.0293  0.1459
   34TCq2    O2  517   1.158   2.480  10.545  0.2471 -0.0807 -0.5552
   34TCq2    C2  518   1.033   2.602  10.412 -0.3754 -0.2385  0.0253
   34TCq2    C3  519   0.927   2.557  10.481  0.2337  0.2415  0.2514
   34TCq2    C4  520   0.810   2.626  10.456 -0.7836 -0.2159 -0.3284
   34TCq2    C5  521   0.805   2.739  10.379  0.3719  0.1585 -0.7531
   34TCq2    C6  522   0.910   2.774  10.307 -0.1332 -0.6206  0.3265
   34TCq2    C7  523   1.029   2.698  10.319 -0.6118  0.7496  0.6819
   34TCq2    C8  524   0.911   2.897  10.227 -0.4102  0.1795 -0.4290
   34TCq2    O4  525   1.024   2.942  10.204 -0.7860 -0.8887 -0.2263
   34TCq2    C9  526   0.692   2.570  10.520 -0.0953 -0.3344 -0.7118
   34TCq2    O5  527   0.704   2.448  10.552  0.3267  0.1015 -0.5115
   34TCq2    O6  528   0.580   2.629  10.498 -0.6726  0.2017  0.8252
   34TCq2    H2  529   0.937   2.477  10.554  0.1524  0.0004  0.0008
   34TCq2    H3  530   0.716   2.800  10.375 -0.9622 -1.6794  0.4322
   34TCq2    H4  531   1.122   2.730  10.273  0.5365 -0.2036  2.3156
   35MPD2     C  532   2.893   4.292  12.173  0.2449 -0.2256  0.8614
   35MPD2    C1  533   2.883   4.157  12.171 -0.2063  0.0278  0.2425
   35MPD2    C2  534   2.775   4.100  12.101  0.6824  0.5968  0.0242
   35MPD2    C3  535   2.684   4.175  12.035  0.0992 -0.4151 -0.2628
   35MPD2    C4  536   2.697   4.313  12.029  0.1440  0.8364 -0.1980
   35MPD2    C5  537   2.804   4.367  12.103 -0.3071  0.2107 -0.3505
   35MPD2     H  538   2.771   3.991  12.102  0.5362  0.5825 -1.4974
   35MPD2    H1  539   2.628   4.378  11.978  0.9837  2.7659  1.1329
   35MPD2    H2  540   2.972   4.344  12.226  0.6635  0.7946 -0.7801
   35MPD2    H3  541   2.806   4.475  12.119 -0.2186  0.0844  0.4976
   35MPD2     N  542   2.580   4.103  11.963 -0.2426 -0.4936  0.0228
   35MPD2    H5  543   2.561   4.007  11.991 -1.4139 -0.3806 -0.3871
   35MPD2    N1  544   2.983   4.083  12.246 -0.2265  0.2179  0.1794
   35MPD2    H7  545   3.055   4.128  12.302 -0.5656 -0.9137  1.5411
   36TCq2    C1  546   2.499   4.171  11.865 -0.4445  0.4003 -0.2791
   36TCq2    O2  547   2.536   4.271  11.802  0.7258 -0.4907 -0.1071
   36TCq2    C2  548   2.400   4.093  11.796 -0.2860  0.5677  0.3173
   36TCq2    C3  549   2.347   4.143  11.682  0.0421  0.8165 -0.9432
   36TCq2    C4  550   2.275   4.069  11.598  0.3078  0.5108  0.2317
   36TCq2    C5  551   2.258   3.940  11.626  0.0083  0.6086  0.6260
   36TCq2    C6  552   2.305   3.888  11.744  0.1059 -0.2885 -0.3750
   36TCq2    C7  553   2.380   3.960  11.832 -0.1820  0.2873  0.5042
   36TCq2    C8  554   2.280   3.748  11.764 -0.1441  0.2792  0.3135
   36TCq2    O4  555   2.207   3.700  11.681  0.7912  0.7612 -0.0485
   36TCq2    C9  556   2.237   4.128  11.476  0.7399 -0.9237 -0.2025
   36TCq2    O5  557   2.160   4.058  11.405  0.1906 -0.1071 -0.0185
   36TCq2    O6  558   2.247   4.251  11.463  0.1693 -0.4114 -0.1952
   36TCq2    H2  559   2.358   4.247  11.653 -0.2902  1.7608  2.3757
   36TCq2    H3  560   2.206   3.876  11.556  0.2546  0.8994  0.1766
   36TCq2    H4  561   2.418   3.923  11.926 -0.0887 -2.4755 -0.6334
   37TMC2    C1  562   4.584   3.571  11.193 -0.0124 -0.0013 -0.2169
   37TMC2    C2  563   4.529   3.529  11.076 -0.0230 -0.0227  0.7399
   37TMC2    C3  564   4.611   3.473  10.982  0.5772 -0.7216 -0.2502
   37TMC2    C4  565   4.721   3.578  11.214  0.2426 -0.5788  0.2867
   37TMC2    C5  566   0.077   3.536  11.113  0.7307 -0.6572  0.2215
   37TMC2    C6  567   0.032   3.466  11.002 -0.3962 -0.1738  0.2129
   37TMC2     C  568   4.503   3.653  11.280 -0.3297 -0.0410 -0.3053
   37TMC2     O  569   4.397   3.698  11.231 -0.3978 -0.1351 -0.1330
   37TMC2     H  570   4.424   3.532  11.052  0.2048 -2.6919 -0.6332
   37TMC2    H1  571   0.047   3.622  11.300 -0.1166 -1.5769  1.0064
   37TMC2    H2  572   0.101   3.420  10.933  0.7295 -0.5025  1.5498
   37TMC2    C7  573   0.222   3.552  11.135 -0.1699  0.2041 -0.5937
   37TMC2    C8  574   4.546   3.446  10.854 -0.5515 -0.0763  0.2945
   37TMC2    O1  575   0.265   3.566  11.247 -0.0406  0.4281 -0.2121
   37TMC2    O2  576   4.444   3.499  10.825 -0.1663 -0.0775  0.0742
   37TMC2    O5  577   4.647   3.418  10.764 -0.1652 -0.0199  0.0594
   37TMC2    H5  578   4.710   3.359  10.811 -0.2024 -1.8622 -2.2065
   38MPD2     C  579   4.349   3.823  11.743 -0.4928 -0.7500 -0.8566
   38MPD2    C1  580   4.452   3.729  11.756  0.3975 -0.9052  0.2035
   38MPD2    C2  581   4.525   3.684  11.643 -0.4034  0.3135  0.7762
   38MPD2    C3  582   4.487   3.722  11.515 -0.1080 -0.0977  0.3738
   38MPD2    C4  583   4.384   3.817  11.505 -0.6543 -0.1682 -0.2955
   38MPD2    C5  584   4.323   3.867  11.617 -0.2350  0.3385 -0.1775
   38MPD2     H  585   4.618   3.631  11.663 -0.0134  0.2215 -1.3701
   38MPD2    H1  586   4.358   3.861  11.409 -0.9398 -2.0155 -1.0625
   38MPD2    H2  587   4.308   3.878  11.826 -1.5602 -1.8250 -0.6832
   38MPD2    H3  588   4.239   3.934  11.602  1.5809  2.6669  0.1048
   38MPD2     N  589   4.553   3.660  11.409 -0.2024 -0.4557 -0.2714
   38MPD2    H5  590   4.640   3.611  11.429  1.4187  1.4253 -2.6730
   38MPD2    N1  591   4.485   3.679  11.881  0.0782 -0.1708 -0.1808
   38MPD2    H7  592   4.567   3.620  11.890  1.6489  2.0896  0.3034
   39MPD2     C  593   3.260   0.696   1.335  0.0259 -0.1732 -0.3908
   39MPD2    C1  594   3.173   0.667   1.443  0.8067  0.6783  0.2656
   39MPD2    C2  595   3.037   0.702   1.427  0.0457  0.1794  0.2449
   39MPD2    C3  596   2.998   0.783   1.324 -0.2837 -0.0273 -0.2671
   39MPD2    C4  597   3.095   0.826   1.235  0.1160 -0.1689 -0.2008
   39MPD2    C5  598   3.214   0.769   1.230  0.5318  0.1401  0.2075
   39MPD2     H  599   2.971   0.685   1.512 -1.3128 -2.7921 -1.4123
   39MPD2    H1  600   3.063   0.891   1.154  2.2121 -0.1544 -1.0291
   39MPD2    H2  601   3.362   0.661   1.333  0.0801 -0.0494  0.4583
   39MPD2    H3  602   3.286   0.790   1.152  1.5612  1.2778  1.4859
   39MPD2     N  603   2.870   0.837   1.300  0.0066  0.5062  0.9066
   39MPD2    H5  604   2.854   0.880   1.210  0.7079 -1.8444 -0.3641
   39MPD2    N1  605   3.235   0.615   1.563 -0.3012  0.0821  0.2070
   39MPD2    H7  606   3.330   0.582   1.551 -0.5881 -0.6952  0.0667
   40TCq2    C1  607   3.174   0.594   1.684  0.5957  0.8723 -0.5602
   40TCq2    O2  608   3.056   0.568   1.709 -0.3864 -0.7436 -0.3679
   40TCq2    C2  609   3.268   0.558   1.791  0.3460  0.1809 -0.2861
   40TCq2    C3  610   3.214   0.521   1.909 -0.9122  0.2891 -0.4270
   40TCq2    C4  611   3.300   0.509   2.017 -0.5913  0.0365 -0.0853
   40TCq2    C5  612   3.436   0.507   1.993 -0.4991 -0.0301 -0.0191
   40TCq2    C6  613   3.484   0.557   1.876 -0.8639 -0.3606  0.0195
   40TCq2    C7  614   3.400   0.584   1.777 -0.2826 -0.2633 -0.0557
   40TCq2    C8  615   3.627   0.584   1.865  0.1454  0.5183 -0.0461
   40TCq2    O4  616   3.699   0.513   1.934  0.1283 -0.5267 -0.1896
   40TCq2    C9  617   3.255   0.457   2.154 -0.5392 -0.1236  0.2634
   40TCq2    O5  618   3.140   0.495   2.188  0.1170 -0.3221  0.0117
   40TCq2    O6  619   3.350   0.411   2.226  0.0799  0.6405  0.3648
   40TCq2    H2  620   3.111   0.490   1.920 -0.6562 -0.4262 -0.0283
   40TCq2    H3  621   3.506   0.487   2.073  0.3846  2.7652 -0.0713
   40TCq2    H4  622   3.449   0.608   1.682  2.3518 -0.9144  1.1332
   41TMC2    C1  623   2.033   4.465  13.397  0.3420  0.3044  0.0848
   41TMC2    C2  624   2.021   4.598  13.414  0.2042  0.6669 -0.1729
   41TMC2    C3  625   1.986   4.679  13.310 -0.0351  0.3577 -0.0544
   41TMC2    C4  626   2.015   4.410  13.274  0.5512 -0.0988 -0.6506
   41TMC2    C5  627   1.978   4.496  13.167  0.4928 -0.6538  0.4083
   41TMC2    C6  628   1.955   4.630  13.189  0.3898  0.2612 -0.4574
   41TMC2     C  629   2.122   4.381  13.473  0.4433  0.1611  0.1258
   41TMC2     O  630   2.179   4.301  13.400  0.1070 -0.2085 -0.1445
   41TMC2     H  631   2.046   4.640  13.511 -2.1684  0.5087  0.5047
   41TMC2    H1  632   2.012   4.303  13.260 -0.1199 -0.3797  1.6984
   41TMC2    H2  633   1.897   4.680  13.112 -1.1271  0.7807  1.0103
   41TMC2    C7  634   1.955   4.439  13.038 -0.0807 -0.4548  0.1634
   41TMC2    C8  635   1.961   0.092  13.339  0.1349  0.4780 -0.8819
   41TMC2    O1  636   1.883   4.488  12.953 -0.1267  0.3682 -0.2599
   41TMC2    O2  637   1.911   0.130  13.442 -0.5552 -0.0740 -0.1514
   41TMC2    O5  638   1.954   0.158  13.220 -0.3014 -0.0485 -0.1742
   41TMC2    H5  639   2.014   0.113  13.156  0.4027  1.3458 -0.5132
   42MPD2     C  640   2.314   4.242  13.647 -0.0957 -0.7285  0.0613
   42MPD2    C1  641   2.191   4.285  13.690  0.5745  0.2013  0.0523
   42MPD2    C2  642   2.142   4.239  13.806 -0.0945  0.8181  0.6653
   42MPD2    C3  643   2.215   4.145  13.885  0.3498 -0.4698 -0.8291
   42MPD2    C4  644   2.336   4.094  13.832  1.0474 -0.0887 -0.0172
   42MPD2    C5  645   2.388   4.152  13.714 -0.2362  0.1735 -0.0350
   42MPD2     H  646   2.060   4.295  13.849  0.5275 -0.5086  3.6030
   42MPD2    H1  647   2.394   4.015  13.877 -0.1093 -2.2876 -2.3458
   42MPD2    H2  648   2.351   4.287  13.555  0.2602 -0.2732  0.4298
   42MPD2    H3  649   2.482   4.117  13.672 -0.5560 -0.6379 -0.0862
   42MPD2     N  650   2.166   4.080  14.000 -0.0049  0.2618  0.4496
   42MPD2    H5  651   2.217   3.999  14.032  0.4371 -0.1628 -1.3590
   42MPD2    N1  652   2.118   4.378  13.613  0.4951 -0.5222 -0.7733
   42MPD2    H7  653   2.036   4.424  13.652 -0.4915 -2.5877 -0.4050
   43MPD2     C  654   3.180   1.900   0.834  0.5254  0.1081  0.1617
   43MPD2    C1  655   3.272   1.847   0.914 -0.1473 -0.2991 -0.3744
   43MPD2    C2  656   3.259   1.844   1.050  1.0728 -0.1137 -0.6810
   43MPD2    C3  657   3.150   1.905   1.110  0.2135  0.1774 -0.3677
   43MPD2    C4  658   3.055   1.963   1.028  0.4505  0.2009  0.0583
   43MPD2    C5  659   3.066   1.952   0.892 -0.3374 -0.2627  0.2036
   43MPD2     H  660   3.342   1.802   1.106  0.3901 -0.3157  0.1947
   43MPD2    H1  661   2.963   2.005   1.067  0.5089  1.2392 -0.9223
   43MPD2    H2  662   3.185   1.891   0.726  0.3786  1.0489  0.0770
   43MPD2    H3  663   2.997   1.998   0.821 -2.6266  0.8299  3.1575
   43MPD2     N  664   3.142   1.931   1.250 -0.1152  0.8954  1.1091
   43MPD2    H5  665   3.063   1.983   1.287 -0.0360  2.1932 -0.5153
   43MPD2    N1  666   3.391   1.794   0.866 -0.4550  0.7023 -0.1532
   43MPD2    H7  667   3.444   1.741   0.933 -0.7473  0.2308 -0.2917
   44TCq2    C1  668   3.228   1.759   1.817 -0.2640  0.8412  0.3771
   44TCq2    O2  669   3.314   1.678   1.778  0.0385  0.0190  0.1676
   44TCq2    C2  670   3.172   1.836   1.707  0.0101 -0.8971  0.0812
   44TCq2    C3  671   3.080   1.938   1.729 -0.6840 -0.6743 -0.3271
   44TCq2    C4  672   3.051   2.021   1.628 -0.1403  0.3736 -0.3947
   44TCq2    C5  673   3.091   2.002   1.495  0.1433  0.0104 -0.1378
   44TCq2    C6  674   3.170   1.891   1.477 -0.5160 -0.0533 -0.6227
   44TCq2    C7  675   3.211   1.807   1.578 -0.7251 -0.2988  0.3758
   44TCq2    C8  676   3.228   1.876   1.342 -0.0024 -0.2899 -0.2210
   44TCq2    O4  677   3.314   1.787   1.329 -0.0626 -0.7449  0.9052
   44TCq2    C9  678   2.983   2.149   1.659 -0.7971 -0.0491  0.6528
   44TCq2    O5  679   2.950   2.218   1.560 -0.5234 -0.4547 -0.5127
   44TCq2    O6  680   2.956   2.173   1.783  0.2811  0.2955 -0.3695
   44TCq2    H2  681   3.023   1.945   1.820  0.1105 -1.6875  0.2489
   44TCq2    H3  682   3.081   2.081   1.422  0.9520 -1.3030 -1.6692
   44TCq2    H4  683   3.266   1.717   1.556  0.8544  1.2464 -2.0391
   45TMC2    C1  684   3.946   4.251   9.288  0.0297  0.2739 -0.0949
   45TMC2    C2  685   4.030   4.239   9.182 -0.4405  0.2479  0.1587
   45TMC2    C3  686   4.125   4.338   9.170  0.3853 -0.4609 -0.4593
   45TMC2    C4  687   3.952   4.351   9.378 -0.1928 -0.3521 -0.3959
   45TMC2    C5  688   4.046   4.444   9.360  0.2279  0.1027  0.2731
   45TMC2    C6  689   4.128   4.445   9.253 -0.0212  0.4333 -0.0398
   45TMC2     C  690   3.887   4.124   9.324  0.7061  0.1892  0.3513
   45TMC2     O  691   3.936   4.022   9.277  0.3503  0.3251 -0.0266
   45TMC2     H  692   4.021   4.159   9.110 -0.8518 -0.9890  1.5964
   45TMC2    H1  693   3.908   4.341   9.477  0.2399  1.3805 -0.0407
   45TMC2    H2  694   4.183   4.536   9.232 -0.9447  1.4154  1.7652
   45TMC2    C7  695   4.067   4.551   9.451 -0.0350  0.4468  0.0166
   45TMC2    C8  696   4.228   4.310   9.075 -0.0903  0.3870 -0.0195
   45TMC2    O1  697   4.059   4.526   9.571 -0.5371 -0.0986  0.5960
   45TMC2    O2  698   4.256   4.196   9.045  0.1613 -0.2129  0.2531
   45TMC2    O5  699   4.272   4.429   9.019 -0.1691 -0.1429 -0.5130
   45TMC2    H5  700   4.221   4.509   9.041  3.7922  1.9497  1.0953
   46MPD2     C  701   3.721   3.884   9.407  0.0027  0.2073 -0.7404
   46MPD2    C1  702   3.677   4.022   9.396  0.8906  0.5526 -0.0787
   46MPD2    C2  703   3.537   4.040   9.410 -0.2235 -0.2510  0.0219
   46MPD2    C3  704   3.450   3.934   9.431  0.1421 -0.1474 -0.1008
   46MPD2    C4  705   3.504   3.809   9.447 -0.3656  0.8365 -0.3745
   46MPD2    C5  706   3.637   3.786   9.433  1.0420 -0.1272 -0.4460
   46MPD2     H  707   3.509   4.144   9.401 -0.5358 -0.2976  0.4531
   46MPD2    H1  708   3.447   3.721   9.474 -0.0145  1.3624  2.1346
   46MPD2    H2  709   3.828   3.863   9.406  0.0376  0.3009  0.6846
   46MPD2    H3  710   3.681   3.687   9.443 -0.2016 -0.8273 -1.7631
   46MPD2     N  711   3.312   3.949   9.429  0.1578  0.1179 -0.8101
   46MPD2    H5  712   3.281   4.045   9.429 -1.9717 -0.5722  0.2319
   46MPD2    N1  713   3.764   4.129   9.368  0.1302 -0.4544  0.3739
   46MPD2    H7  714   3.721   4.221   9.375 -0.0924 -0.5625  0.4138
   47TMC2    C1  715   0.887   0.573   9.176 -0.2972  0.2360  0.5605
   47TMC2    C2  716   0.941   0.538   9.052  0.6252 -0.6041  0.6344
   47TMC2    C3  717   0.849   0.520   8.947 -0.0660 -0.3029  0.2345
   47TMC2    C4  718   0.752   0.608   9.187 -0.1974 -0.1311 -0.2057
   47TMC2    C5  719   0.667   0.590   9.076  0.3228 -0.5395  0.2730
   47TMC2    C6  720   0.712   0.538   8.959 -1.0937 -0.6933  0.2193
   47TMC2     C  721   0.961   0.553   9.302 -0.0686  0.6250  0.1425
   47TMC2     O  722   0.943   0.619   9.403 -0.6685 -0.2484  0.0925
   47TMC2     H  723   1.043   0.504   9.045  0.6585 -0.4623  0.4180
   47TMC2    H1  724   0.708   0.646   9.279  1.0000 -0.6069  0.5508
   47TMC2    H2  725   0.644   0.532   8.875 -1.0387 -3.1480  0.3331
   47TMC2    C7  726   0.532   0.654   9.069  0.2359  0.1498  0.5042
   47TMC2    C8  727   0.895   0.458   8.826  0.0385  0.2331 -0.1666
   47TMC2    O1  728   0.452   0.613   8.986  0.3090 -0.0092  0.4761
   47TMC2    O2  729   0.814   0.396   8.758 -0.1191 -0.3022 -0.7442
   47TMC2    O5  730   1.025   0.480   8.812 -0.5089  0.0614  0.3039
   47TMC2    H5  731   1.044   0.563   8.861 -0.8392  1.6350 -2.2477
   48MPD2     C  732   1.147   0.456   9.513  0.6676  0.5347 -0.3195
   48MPD2    C1  733   1.111   0.382   9.403  0.1403  0.3248  0.1148
   48MPD2    C2  734   1.173   0.258   9.378  0.7382 -0.0162  0.5257
   48MPD2    C3  735   1.273   0.205   9.461  0.0695 -0.7232 -0.3003
   48MPD2    C4  736   1.300   0.278   9.578 -0.0673  0.2665 -0.8053
   48MPD2    C5  737   1.233   0.398   9.596 -0.3414 -0.0130 -0.2159
   48MPD2     H  738   1.144   0.209   9.286  0.4668 -0.4232  0.8297
   48MPD2    H1  739   1.368   0.232   9.650 -1.5379  1.3176  1.2663
   48MPD2    H2  740   1.107   0.556   9.527 -0.6184  0.0746 -0.7921
   48MPD2    H3  741   1.249   0.448   9.691 -0.8561 -1.5460  0.6795
   48MPD2     N  742   1.330   0.072   9.433 -0.2683 -0.3036 -0.4420
   48MPD2    H5  743   1.296   0.031   9.346  1.7537 -1.2830 -0.7691
   48MPD2    N1  744   1.033   0.435   9.292 -0.1622  0.4272 -0.0821
   48MPD2    H7  745   1.017   0.375   9.212 -0.1891  0.0350  0.2223
   49MPD2     C  746   4.682   1.211  10.370  0.1703  1.0948  0.6456
   49MPD2    C1  747   4.672   1.154  10.497 -0.0094  0.0201  0.0326
   49MPD2    C2  748   0.040   1.199  10.586  0.3781  0.1820 -0.9202
   49MPD2    C3  749   0.136   1.299  10.559  0.1832  0.2908 -0.6889
   49MPD2    C4  750   0.146   1.339  10.431 -0.0676 -0.7074  0.2768
   49MPD2    C5  751   0.061   1.300  10.339 -0.0316 -0.0984 -0.1160
   49MPD2     H  752   0.037   1.156  10.686  1.6666  1.3376 -0.3822
   49MPD2    H1  753   0.215   1.417  10.399 -0.8918  0.3000  0.9963
   49MPD2    H2  754   4.620   1.187  10.285  0.4608 -1.7163  1.2083
   49MPD2    H3  755   0.068   1.344  10.241 -0.1805  3.0957  1.2972
   49MPD2     N  756   0.208   1.358  10.665 -0.6801  0.6070 -0.3290
   49MPD2    H5  757   0.286   1.419  10.644 -1.3850  2.0356  1.2171
   49MPD2    N1  758   4.588   1.043  10.527  0.1229  0.3697 -0.9176
   49MPD2    H7  759   4.590   1.005  10.621  1.9709 -2.9277 -2.2851
   50TCq2    C1  760   4.489   0.991  10.443 -0.0183 -0.7682 -0.0726
   50TCq2    O2  761   4.447   1.040  10.340 -0.3968 -0.5106  0.1862
   50TCq2    C2  762   4.415   0.879  10.497 -0.3447  0.2153  0.3172
   50TCq2    C3  763   4.292   0.849  10.440  0.7227 -0.2566  0.1396
   50TCq2    C4  764   4.205   0.770  10.510 -0.0663  0.4135 -0.4802
   50TCq2    C5  765   4.246   0.721  10.628  0.4207 -0.9669 -0.5833
   50TCq2    C6  766   4.374   0.741  10.678 -0.5490  0.3032  0.4883
   50TCq2    C7  767   4.453   0.833  10.620  0.1124  0.1840  0.1766
   50TCq2    C8  768   4.394   0.716  10.823 -0.2540  0.5474  0.1863
   50TCq2    O4  769   4.508   0.738  10.873  0.5417  0.3896  0.2190
   50TCq2    C9  770   4.077   0.725  10.460  0.5042 -0.2071  0.7638
   50TCq2    O5  771   4.014   0.630  10.518  0.3897  0.1250  0.0425
   50TCq2    O6  772   4.038   0.777  10.353 -0.3731  0.3462  0.4378
   50TCq2    H2  773   4.276   0.879  10.337  1.3749  1.6148  0.5787
   50TCq2    H3  774   4.195   0.633  10.665 -0.6540  1.1369  2.9442
   50TCq2    H4  775   4.553   0.830  10.661  0.1977  1.2342  0.0389
   51MPD2     C  776   0.609   0.309   1.306 -0.1452  0.2328 -0.2315
   51MPD2    C1  777   0.533   0.322   1.192  0.3114 -0.1157 -0.2814
   51MPD2    C2  778   0.551   0.430   1.102 -0.0820  0.1277  0.5501
   51MPD2    C3  779   0.652   0.517   1.128 -0.4194 -0.1706  0.1591
   51MPD2    C4  780   0.735   0.498   1.241 -0.1369 -0.6884  0.4483
   51MPD2    C5  781   0.716   0.393   1.323 -0.3593 -0.5133  0.3097
   51MPD2     H  782   0.504   0.429   1.004  2.1260  0.2800 -0.4979
   51MPD2    H1  783   0.824   0.558   1.256  1.2831 -2.0944 -2.4444
   51MPD2    H2  784   0.603   0.226   1.376  0.1706  0.3108 -0.1139
   51MPD2    H3  785   0.779   0.377   1.410  1.0835  1.8402 -0.2955
   51MPD2     N  786   0.685   0.631   1.056 -0.7496 -0.5580 -0.1330
   51MPD2    H5  787   0.768   0.685   1.076 -1.9939  0.9082  1.0988
   51MPD2    N1  788   0.440   0.219   1.148  0.4927 -0.0609  0.1468
   51MPD2    H7  789   0.399   0.222   1.055 -2.4552  0.1543  1.4220
   52TCq2    C1  790   0.610   0.686   0.947  0.4567 -0.2171 -0.0210
   52TCq2    O2  791   0.491   0.668   0.926 -1.0508 -0.0378 -0.4185
   52TCq2    C2  792   0.674   0.808   0.898  0.6731 -0.7481 -0.4053
   52TCq2    C3  793   0.810   0.810   0.902  0.2664 -0.0735 -0.4229
   52TCq2    C4  794   0.868   0.930   0.885 -0.0220 -0.2282  0.1294
   52TCq2    C5  795   0.795   1.046   0.869 -0.4531 -0.3029  0.4196
   52TCq2    C6  796   0.657   1.040   0.862 -0.0593 -0.4054  1.0867
   52TCq2    C7  797   0.600   0.918   0.880  0.4695  0.4083 -0.2262
   52TCq2    C8  798   0.567   1.157   0.873 -0.3097 -0.6837  0.0565
   52TCq2    O4  799   0.451   1.146   0.846 -0.6923  0.5376  0.0860
   52TCq2    C9  800   1.015   0.928   0.896 -0.0251  0.0948 -0.8134
   52TCq2    O5  801   1.062   0.819   0.948  0.2216  0.3287 -0.3643
   52TCq2    O6  802   1.077   1.039   0.886 -0.4235 -0.3487  0.2319
   52TCq2    H2  803   0.868   0.718   0.910 -1.3065 -1.0640 -0.4641
   52TCq2    H3  804   0.847   1.141   0.860 -2.0740  0.5797  0.3757
   52TCq2    H4  805   0.493   0.906   0.891  0.5838 -0.7396 -0.3913
   53TMC2    C1  806   0.907   3.656  11.421  0.6420 -0.1119 -0.8160
   53TMC2    C2  807   1.041   3.677  11.447 -0.4936 -0.2401 -0.1257
   53TMC2    C3  808   1.076   3.700  11.579 -0.1251 -0.3835  0.2634
   53TMC2    C4  809   0.811   3.658  11.524 -0.2898 -0.5384 -0.1725
   53TMC2    C5  810   0.849   3.678  11.653  0.2390 -0.0645  0.5779
   53TMC2    C6  811   0.981   3.701  11.686 -0.2115 -0.7808 -0.4330
   53TMC2     C  812   0.856   3.659  11.281 -0.4395 -0.0470 -0.1110
   53TMC2     O  813   0.940   3.676  11.195  0.1176 -0.5807  0.4512
   53TMC2     H  814   1.108   3.666  11.363 -1.0184  1.4768 -0.7754
   53TMC2    H1  815   0.708   3.680  11.500  0.2149  0.2145 -1.6606
   53TMC2    H2  816   1.019   3.703  11.787 -0.9481 -3.3613 -0.1156
   53TMC2    C7  817   0.754   3.721  11.749 -0.3487  0.1719  0.9143
   53TMC2    C8  818   1.215   3.745  11.589 -0.2113 -0.8492 -0.0581
   53TMC2    O1  819   0.648   3.668  11.733  0.6915 -0.1356  0.1693
   53TMC2    O2  820   1.261   3.817  11.503  0.2658  0.1301 -0.2279
   53TMC2    O5  821   1.261   3.725  11.714 -0.1739 -0.2024 -0.7081
   53TMC2    H5  822   1.212   3.649  11.752 -1.3599  0.5412 -0.7220
   54MPD2     C  823   0.701   3.691  11.026  0.3863 -0.1025  0.8605
   54MPD2    C1  824   0.652   3.638  11.146 -0.3443  0.1414 -0.1228
   54MPD2    C2  825   0.525   3.592  11.143 -1.0002  0.6015 -0.3421
   54MPD2    C3  826   0.450   3.600  11.024 -0.1709 -0.4033  0.1513
   54MPD2    C4  827   0.500   3.655  10.911 -0.5002 -0.1369  0.5177
   54MPD2    C5  828   0.626   3.701  10.911  0.7201  0.3074  0.2497
   54MPD2     H  829   0.492   3.554  11.239 -1.0772  0.4511 -0.4279
   54MPD2    H1  830   0.440   3.682  10.825 -2.6830 -1.4671  1.6460
   54MPD2    H2  831   0.796   3.742  11.033 -0.1717  1.5501 -3.3342
   54MPD2    H3  832   0.665   3.749  10.822 -1.5971 -0.0672 -0.9505
   54MPD2     N  833   0.308   3.569  11.024  0.1345  0.3824 -0.3644
   54MPD2    H5  834   0.269   3.590  10.933 -0.6262  1.8264  0.3020
   54MPD2    N1  835   0.723   3.638  11.267  0.6557  0.2213  0.0070
   54MPD2    H7  836   0.684   3.587  11.346  1.7033 -0.2039  0.2547
   55MPD2     C  837   1.652   1.907  17.143  0.1030  0.2425 -0.7682
   55MPD2    C1  838   1.637   1.826  17.254  0.4139  1.0213  0.1386
   55MPD2    C2  839   1.544   1.867  17.348  0.2427 -0.5344  0.3024
   55MPD2    C3  840   1.484   1.988  17.341  0.1553 -0.6909  0.3100
   55MPD2    C4  841   1.506   2.068  17.228  0.1547 -0.1066 -0.1727
   55MPD2    C5  842   1.585   2.023  17.125  0.2281 -0.0033 -0.4346
   55MPD2     H  843   1.537   1.808  17.439  0.4516 -1.1790 -0.1021
   55MPD2    H1  844   1.463   2.165  17.206  2.5389  1.1399  0.7050
   55MPD2    H2  845   1.723   1.883  17.064  0.7981  0.8108 -0.3227
   55MPD2    H3  846   1.611   2.084  17.039 -0.3163  1.9802  0.8064
   55MPD2     N  847   1.405   2.028  17.454 -0.0742  0.2007 -0.1687
   55MPD2    H5  848   1.389   1.961  17.529 -1.4670  0.3133 -0.3522
   55MPD2    N1  849   1.720   1.710  17.253 -0.4796  0.0060 -1.1241
   55MPD2    H7  850   1.794   1.698  17.185  0.2767 -2.0551  0.0468
   56TCq2    C1  851   1.712   1.618  17.356 -0.1830 -0.9402 -0.3602
   56TCq2    O2  852   1.643   1.626  17.457  0.3231 -0.3775  0.2417
   56TCq2    C2  853   1.800   1.503  17.337 -0.3007  0.3550  0.3674
   56TCq2    C3  854   1.804   1.433  17.220  1.2803  0.0120  0.2794
   56TCq2    C4  855   1.833   1.298  17.226  0.4337  0.2932 -0.1488
   56TCq2    C5  856   1.846   1.236  17.346 -0.1516  0.3217 -0.0521
   56TCq2    C6  857   1.849   1.308  17.465 -0.3803 -0.2351 -0.0249
   56TCq2    C7  858   1.813   1.438  17.462  0.4820  0.4109 -0.8560
   56TCq2    C8  859   1.838   1.237  17.587 -0.0169 -0.2907 -0.1630
   56TCq2    O4  860   1.837   1.115  17.577 -0.0633  0.6352  0.7198
   56TCq2    C9  861   1.841   1.218  17.111  0.0485  0.4327  0.7938
   56TCq2    O5  862   1.869   1.278  17.001  0.0684  0.1040 -0.0237
   56TCq2    O6  863   1.863   1.095  17.129  0.2131  0.0501  0.0477
   56TCq2    H2  864   1.797   1.472  17.118  0.7039 -2.3852 -0.5880
   56TCq2    H3  865   1.862   1.129  17.351 -3.2043  0.0064  2.8846
   56TCq2    H4  866   1.804   1.493  17.555  2.3203 -1.2214  0.3052
   57TMC2    C1  867   0.718   2.897  13.712  0.1580 -0.1551  0.1628
   57TMC2    C2  868   0.784   2.879  13.828  0.2729 -0.2696  0.3215
   57TMC2    C3  869   0.911   2.833  13.820  0.4013 -0.0719 -0.0495
   57TMC2    C4  870   0.776   2.890  13.591  0.4075  0.0987  0.1016
   57TMC2    C5  871   0.903   2.841  13.590 -0.1754  0.0146  0.1603
   57TMC2    C6  872   0.975   2.809  13.702  0.2380  0.9160 -0.3253
   57TMC2     C  873   0.581   2.934  13.721  0.2869  0.6556 -0.6099
   57TMC2     O  874   0.539   2.982  13.826 -0.3293 -0.5447  0.3368
   57TMC2     H  875   0.738   2.875  13.926 -3.3494 -1.4160 -1.4291
   57TMC2    H1  876   0.728   2.916  13.497  0.4999  1.2508  0.3723
   57TMC2    H2  877   1.082   2.795  13.692  0.1553  1.8412 -2.6046
   57TMC2    C7  878   0.967   2.851  13.453 -0.7021 -0.1103 -0.3998
   57TMC2    C8  879   0.981   2.809  13.946 -0.8545 -0.3399 -0.5492
   57TMC2    O1  880   0.922   2.927  13.365  0.2732 -0.4428 -0.6835
   57TMC2    O2  881   0.941   2.826  14.059 -0.4658  0.0762  0.0414
   57TMC2    O5  882   1.073   2.721  13.918 -0.2088 -0.2156 -0.0465
   57TMC2    H5  883   1.087   2.704  13.823 -2.6893 -3.5774  0.1847
   58MPD2     C  884   0.123   3.004  13.492  0.4118  0.2640 -0.6389
   58MPD2    C1  885   0.163   3.031  13.621  0.4167  0.4093  0.6275
   58MPD2    C2  886   0.290   2.996  13.655  0.0282 -0.0506 -0.0589
   58MPD2    C3  887   0.379   2.929  13.569  0.1060  0.0768  0.5327
   58MPD2    C4  888   0.331   2.898  13.444  0.2823  0.1966  0.2638
   58MPD2    C5  889   0.207   2.947  13.406 -0.4941 -0.0502 -0.8003
   58MPD2     H  890   0.327   3.026  13.752 -1.5141  2.2732 -0.1626
   58MPD2    H1  891   0.387   2.848  13.366 -0.9112  0.8239 -1.0034
   58MPD2    H2  892   0.028   3.040  13.456  0.0575  0.6639  0.7202
   58MPD2    H3  893   0.178   2.939  13.302  0.6384  0.1494 -1.1295
   58MPD2     N  894   0.515   2.905  13.605  0.1380 -0.2207  0.6077
   58MPD2    H5  895   0.565   2.859  13.530  0.2449 -0.6556  0.9477
   58MPD2    N1  896   0.069   3.093  13.713 -0.0360  0.1980 -0.4398
   58MPD2    H7  897   0.097   3.132  13.802 -1.9856 -1.5486  0.9218
   59MPD2     C  898   2.940   2.910  13.198 -0.3436 -0.1609  0.3324
   59MPD2    C1  899   3.037   2.924  13.098 -0.3361  0.5486  0.6053
   59MPD2    C2  900   3.141   3.007  13.128 -0.5931 -0.0331 -0.1670
   59MPD2    C3  901   3.160   3.061  13.249  0.7012  0.4165  0.0332
   59MPD2    C4  902   3.068   3.035  13.351  0.6468 -0.4574 -0.2472
   59MPD2    C5  903   2.962   2.963  13.322  0.5524  0.9431  0.0130
   59MPD2     H  904   3.203   3.019  13.039 -1.2016  0.3258 -0.5402
   59MPD2    H1  905   3.082   3.085  13.446 -1.0081 -1.4073  0.4812
   59MPD2    H2  906   2.851   2.849  13.187 -0.9591  0.7163  0.3994
   59MPD2    H3  907   2.884   2.940  13.394  1.1264  0.4055  0.4584
   59MPD2     N  908   3.268   3.148  13.274  0.1455  0.0451 -0.1128
   59MPD2    H5  909   3.282   3.191  13.364  0.2277 -0.2424  0.0133
   59MPD2    N1  910   3.024   2.873  12.963  0.4745 -0.0408  0.3077
   59MPD2    H7  911   3.096   2.897  12.895  2.7822  1.4230  3.2809
   60TCq2    C1  912   2.930   2.781  12.929 -0.1584 -0.4004  0.0665
   60TCq2    O2  913   2.842   2.726  12.992  0.2291  0.0306 -0.2638
   60TCq2    C2  914   2.930   2.740  12.790  0.1286 -0.5588  0.2784
   60TCq2    C3  915   2.885   2.615  12.766 -0.4159 -0.8989  0.1209
   60TCq2    C4  916   2.888   2.570  12.638  0.0638 -0.2120  0.4479
   60TCq2    C5  917   2.926   2.658  12.531  0.0661 -0.5340  0.1983
   60TCq2    C6  918   2.970   2.789  12.557  0.4155  0.5456 -0.5877
   60TCq2    C7  919   2.976   2.823  12.693 -0.5427 -0.0237  0.3325
   60TCq2    C8  920   3.000   2.876  12.442  0.5656  0.5022 -0.1069
   60TCq2    O4  921   3.004   2.827  12.330 -0.2985 -0.4782  0.8681
   60TCq2    C9  922   2.838   2.439  12.615 -0.2221  0.6082  0.2371
   60TCq2    O5  923   2.814   2.402  12.499 -0.5659 -0.3209  0.1000
   60TCq2    O6  924   2.818   2.377  12.723 -0.1304 -0.9531 -0.4489
   60TCq2    H2  925   2.869   2.556  12.855 -1.5691  0.8991  1.1049
   60TCq2    H3  926   2.913   2.622  12.430  1.2141 -0.1701 -0.0725
   60TCq2    H4  927   3.015   2.920  12.720 -0.1201  0.0810 -0.6461
   61MPD2     C  928   2.152   4.607  14.569 -0.1979  0.5245 -0.3270
   61MPD2    C1  929   2.176   4.720  14.648  0.2700 -0.1789  0.1914
   61MPD2    C2  930   2.117   0.109  14.605  0.1587 -0.3325 -0.4275
   61MPD2    C3  931   2.014   0.111  14.501 -0.3391  0.1343  0.6781
   61MPD2    C4  932   2.000   4.721  14.426  0.5923 -0.0637  0.0409
   61MPD2    C5  933   2.074   4.614  14.456  0.0454 -0.0918 -0.0055
   61MPD2     H  934   2.127   0.206  14.652  1.6683 -1.0037  0.6383
   61MPD2    H1  935   1.917   4.704  14.359 -0.5137  3.4881  0.4941
   61MPD2    H2  936   2.198   4.511  14.590  0.8591  1.0760 -0.1190
   61MPD2    H3  937   2.054   4.522  14.402  2.8495 -0.0496 -1.1132
   61MPD2     N  938   1.921   0.215  14.474  0.1787 -0.0108 -0.0406
   61MPD2    H5  939   1.878   0.216  14.382  1.9293 -1.0665 -0.8813
   61MPD2    N1  940   2.236   4.713  14.775  0.4322 -0.2093 -0.4056
   61MPD2    H7  941   2.245   0.080  14.823  2.0899  1.4703 -3.8410
   62TCq2    C1  942   2.277   4.599  14.840 -0.2951  0.1436  0.8572
   62TCq2    O2  943   2.283   4.485  14.801 -1.0030 -0.1549 -0.2229
   62TCq2    C2  944   2.339   4.626  14.963  0.5670 -0.9018  0.3743
   62TCq2    C3  945   2.434   4.542  15.003  0.2127 -0.2274 -0.2230
   62TCq2    C4  946   2.506   4.568  15.115 -0.8335  0.3784 -0.0259
   62TCq2    C5  947   2.467   4.674  15.192 -0.2084 -1.0339 -0.0227
   62TCq2    C6  948   2.362   0.027  15.162  0.5478  0.0478  0.0306
   62TCq2    C7  949   2.303   0.005  15.043  0.8702 -1.0476 -0.5771
   62TCq2    C8  950   2.341   0.153  15.231 -0.8093  0.3113 -0.3899
   62TCq2    O4  951   2.439   0.220  15.247  0.0759 -0.6185  0.1639
   62TCq2    C9  952   2.613   4.480  15.160 -0.0665  0.3805 -0.2433
   62TCq2    O5  953   2.647   4.506  15.279  0.0144  0.7909 -0.0730
   62TCq2    O6  954   2.655   4.384  15.090 -0.0990 -0.0513 -0.3344
   62TCq2    H2  955   2.467   4.459  14.941  1.1319  0.4980 -0.6895
   62TCq2    H3  956   2.516   4.687  15.288 -0.8285 -0.4350  0.2136
   62TCq2    H4  957   2.217   0.065  15.017  1.4847  0.4329  0.8333
   63TMC2    C1  958   1.458   4.537  10.929 -0.4786  0.7002 -0.2315
   63TMC2    C2  959   1.406   4.653  10.986 -0.1744  0.0366  0.3446
   63TMC2    C3  960   1.493   4.714  11.079  0.0971  0.6105 -0.7479
   63TMC2    C4  961   1.586   4.494  10.955  0.3339  0.0844 -0.5201
   63TMC2    C5  962   1.675   4.566  11.025  0.5540 -0.3293  0.0406
   63TMC2    C6  963   1.621   4.679  11.087  0.6389 -0.1600  0.3466
   63TMC2     C  964   1.370   4.468  10.841  0.1785 -0.2849  0.1769
   63TMC2     O  965   1.283   4.533  10.784 -0.0979  0.6235 -0.3955
   63TMC2     H  966   1.302   4.678  10.968 -0.1622 -0.5927 -0.5855
   63TMC2    H1  967   1.631   4.410  10.904  0.0669 -0.1967 -0.2911
   63TMC2    H2  968   1.689   0.015  11.148  0.3676  1.1053 -0.5645
   63TMC2    C7  969   1.816   4.557  10.997  0.6520  0.1003  0.2935
   63TMC2    C8  970   1.440   0.099  11.160  0.1256 -0.1281 -0.5175
   63TMC2    O1  971   1.855   4.480  10.908 -0.0862 -0.3822 -0.5622
   63TMC2    O2  972   1.319   0.123  11.169  0.2429  0.2778 -0.2462
   63TMC2    O5  973   1.539   0.181  11.205 -0.6703 -0.0078  0.1232
   63TMC2    H5  974   1.632   0.169  11.177 -0.3064  0.1652  1.2434
   64MPD2     C  975   1.290   4.012  10.593 -0.2366  0.7635 -0.1988
   64MPD2    C1  976   1.384   4.003  10.698 -0.1321  0.0462  0.6300
   64MPD2    C2  977   1.420   4.107  10.773  0.9757  0.1542 -0.6085
   64MPD2    C3  978   1.363   4.235  10.750  0.7443 -0.3880 -0.1410
   64MPD2    C4  979   1.272   4.250  10.640 -0.0204 -0.0641  0.2050
   64MPD2    C5  980   1.235   4.133  10.570  0.0662 -0.3170 -1.0012
   64MPD2     H  981   1.501   4.099  10.844 -1.0341 -2.2306  1.4222
   64MPD2    H1  982   1.230   4.349  10.625  0.0369 -0.0842 -0.0873
   64MPD2    H2  983   1.251   3.930  10.534  0.3992  0.0264  0.4129
   64MPD2    H3  984   1.164   4.157  10.491  0.9490  0.1474 -1.6527
   64MPD2     N  985   1.414   4.336  10.830  0.2632 -0.2723  0.2186
   64MPD2    H5  986   1.487   4.313  10.898 -1.6603 -1.7813  1.7727
   64MPD2    N1  987   1.440   3.881  10.738 -0.5147 -0.1337 -0.0621
   64MPD2    H7  988   1.503   3.882  10.818 -0.9802 -1.7623  0.3236
   65MPD2     C  989   2.873   3.833  15.858 -0.1921 -0.0915  0.3593
   65MPD2    C1  990   2.965   3.849  15.758  0.7030 -0.2161  0.3378
   65MPD2    C2  991   3.000   3.730  15.685  0.2583  0.6228 -0.3716
   65MPD2    C3  992   2.958   3.601  15.723 -0.7119  0.2335  0.4797
   65MPD2    C4  993   2.852   3.596  15.815  0.9231  0.2004 -0.7829
   65MPD2    C5  994   2.816   3.712  15.884  0.1388  0.0169  0.5284
   65MPD2     H  995   3.053   3.735  15.591  0.9844 -1.7677 -0.0839
   65MPD2    H1  996   2.797   3.505  15.835 -0.2242  0.6004 -2.0920
   65MPD2    H2  997   2.826   3.915  15.912 -1.7046 -0.4127 -0.4795
   65MPD2    H3  998   2.731   3.702  15.951  0.4648  0.3120  0.9866
   65MPD2     N  999   2.999   3.478  15.670 -0.4962  0.4047 -0.1171
   65MPD2    H5 1000   2.953   3.398  15.713  0.0405 -0.8838 -1.9430
   65MPD2    N1 1001   3.016   3.972  15.711  0.4968  0.1982 -0.4834
   65MPD2    H7 1002   3.073   3.973  15.627 -2.1583 -1.0255 -2.2770
   66TCq2    C1 1003   2.986   4.085  15.772  0.5617  0.5437 -0.6485
   66TCq2    O2 1004   2.973   4.090  15.893 -0.5221 -0.0600  0.3395
   66TCq2    C2 1005   3.026   4.200  15.690 -0.7508  0.0134  0.2536
   66TCq2    C3 1006   3.050   4.193  15.558  0.3844  0.3241 -0.4173
   66TCq2    C4 1007   3.134   4.281  15.497 -0.2771  0.7066  0.3958
   66TCq2    C5 1008   3.178   4.384  15.564  0.2867 -0.5368  0.0909
   66TCq2    C6 1009   3.135   4.402  15.692  0.8220  0.2818  0.3874
   66TCq2    C7 1010   3.052   4.314  15.756  0.4300  0.0262 -0.0945
   66TCq2    C8 1011   3.122   4.542  15.733 -0.6046  0.1987  0.2452
   66TCq2    O4 1012   3.194   4.620  15.670 -0.0693  0.0083  0.3895
   66TCq2    C9 1013   3.173   4.262  15.361 -0.1026  0.4419  0.2222
   66TCq2    O5 1014   3.190   4.369  15.302 -0.4866 -0.5618  0.4289
   66TCq2    O6 1015   3.166   4.144  15.320 -0.0586 -0.5656  0.1516
   66TCq2    H2 1016   2.991   4.122  15.500  0.7282 -0.3994  0.1294
   66TCq2    H3 1017   3.248   4.454  15.520 -1.0722  0.6271 -0.1856
   66TCq2    H4 1018   3.043   4.299  15.863  0.7728  0.7753  0.0368
   67MPD2     C 1019   3.188   3.401  14.071  0.1917 -0.7401 -0.1092
   67MPD2    C1 1020   3.109   3.484  14.150  0.5155  0.8619  0.3543
   67MPD2    C2 1021   2.988   3.531  14.107 -0.1713  0.4773 -0.6583
   67MPD2    C3 1022   2.942   3.493  13.977  0.1953  0.3720 -0.1518
   67MPD2    C4 1023   3.025   3.424  13.887 -0.1462  0.5010  0.6571
   67MPD2    C5 1024   3.149   3.387  13.940 -0.5192 -0.5302  0.8195
   67MPD2     H 1025   2.920   3.594  14.163  0.9183  0.1540  1.0594
   67MPD2    H1 1026   3.001   3.397  13.785  0.3089 -0.6330  0.8518
   67MPD2    H2 1027   3.291   3.377  14.094 -0.3966 -2.1976  1.0150
   67MPD2    H3 1028   3.220   3.361  13.863 -2.8300 -1.2811 -1.0421
   67MPD2     N 1029   2.808   3.539  13.947  0.1272 -0.2094 -0.4575
   67MPD2    H5 1030   2.758   3.589  14.020 -2.0994 -3.3561  0.1626
   67MPD2    N1 1031   3.144   3.511  14.284  0.0434 -0.0795 -0.3574
   67MPD2    H7 1032   3.072   3.566  14.330  0.0068 -0.8090  0.4792
   68TCq2    C1 1033   3.259   3.469  14.348  0.4013 -0.0321  0.6311
   68TCq2    O2 1034   3.357   3.403  14.303 -0.3585 -0.0233 -0.6874
   68TCq2    C2 1035   3.257   3.494  14.486  0.2923  0.1953  0.7159
   68TCq2    C3 1036   3.150   3.548  14.559 -0.0387  0.2135  0.3942
   68TCq2    C4 1037   3.155   3.568  14.692  0.0481 -0.1456 -1.2493
   68TCq2    C5 1038   3.277   3.567  14.750  0.1514  0.8189 -0.0519
   68TCq2    C6 1039   3.391   3.529  14.674  0.5086  0.0992  0.4984
   68TCq2    C7 1040   3.382   3.492  14.542  0.3239 -0.6600 -0.4142
   68TCq2    C8 1041   3.526   3.545  14.734  0.2707 -0.1355  0.3261
   68TCq2    O4 1042   3.622   3.496  14.669  0.1701  0.5089 -0.4341
   68TCq2    C9 1043   3.029   3.588  14.772  0.2717  0.4858 -0.9478
   68TCq2    O5 1044   2.925   3.569  14.708  0.6664 -0.1997  0.4929
   68TCq2    O6 1045   3.041   3.643  14.888 -0.2106 -0.4537  0.0023
   68TCq2    H2 1046   3.050   3.540  14.516  0.0740 -0.8059  0.3215
   68TCq2    H3 1047   3.277   3.594  14.855 -0.8209 -0.9150  0.3954
   68TCq2    H4 1048   3.472   3.458  14.492 -0.1961 -2.2578 -0.2831
   69TMC2    C1 1049   0.636   4.314  12.202 -0.0242  0.4813  0.5140
   69TMC2    C2 1050   0.508   4.298  12.152 -0.0305 -0.2669  0.7115
   69TMC2    C3 1051   0.500   4.314  12.016 -0.2854 -0.2654  0.4552
   69TMC2    C4 1052   0.746   4.326  12.123 -0.0094 -0.2310  0.0259
   69TMC2    C5 1053   0.727   4.340  11.983  0.2692  0.9680 -0.3929
   69TMC2    C6 1054   0.601   4.338  11.927 -0.2241 -0.1135 -0.7892
   69TMC2     C 1055   0.666   4.286  12.341 -0.4597 -0.0639  0.5022
   69TMC2     O 1056   0.592   4.208  12.389  0.7626 -0.8254  0.2164
   69TMC2     H 1057   0.430   4.262  12.219  0.8969 -0.3276  1.7594
   69TMC2    H1 1058   0.845   4.314  12.166 -0.5937 -2.5980  0.6953
   69TMC2    H2 1059   0.581   4.351  11.821  1.8149 -0.1662 -1.1673
   69TMC2    C7 1060   0.844   4.317  11.902 -0.1289 -0.1704  0.1376
   69TMC2    C8 1061   0.366   4.278  11.958  0.5939  0.3215  0.0063
   69TMC2    O1 1062   0.953   4.289  11.952  0.5242 -0.5272 -0.7440
   69TMC2    O2 1063   0.264   4.274  12.031  0.0279 -0.6046 -0.4341
   69TMC2    O5 1064   0.372   4.220  11.833 -0.2280 -0.9595 -0.5453
   69TMC2    H5 1065   0.460   4.194  11.799 -0.6571  1.0795 -3.3094
   70MPD2     C 1066   0.914   4.465  12.553  0.2292  0.3802  0.4595
   70MPD2    C1 1067   0.822   4.365  12.525  0.3197 -0.7291 -0.8155
   70MPD2    C2 1068   0.810   4.263  12.611 -0.2751  0.1716  0.4029
   70MPD2    C3 1069   0.889   4.269  12.731  0.3755  0.0326 -0.3547
   70MPD2    C4 1070   0.985   4.367  12.750  0.4437  0.3229  0.6947
   70MPD2    C5 1071   0.993   4.471  12.665  0.5390 -0.5939 -0.5355
   70MPD2     H 1072   0.745   4.179  12.593  1.3355 -0.0830 -4.0653
   70MPD2    H1 1073   1.058   4.362  12.830  0.8209 -2.0837  0.1812
   70MPD2    H2 1074   0.914   4.544  12.479 -0.6550 -1.5891 -1.6695
   70MPD2    H3 1075   1.065   4.549  12.685 -1.9566  1.9257 -1.3805
   70MPD2     N 1076   0.886   4.166  12.827  0.1508 -0.2743  0.3343
   70MPD2    H5 1077   0.958   4.171  12.898  0.6039  2.0230 -0.3129
   70MPD2    N1 1078   0.761   4.368  12.395 -0.3500 -0.1550  0.3211
   70MPD2    H7 1079   0.794   4.441  12.333  0.2143 -0.2794  0.4818
   71TMC2    C1 1080   2.691   0.436   1.739 -0.1690 -0.1788  0.0492
   71TMC2    C2 1081   2.779   0.428   1.842 -0.2809  0.4260  0.1739
   71TMC2    C3 1082   2.734   0.456   1.969  0.0083  0.3309 -0.0924
   71TMC2    C4 1083   2.561   0.466   1.764 -0.6079  0.2025 -0.8684
   71TMC2    C5 1084   2.519   0.487   1.894 -0.3714 -0.0687 -0.2302
   71TMC2    C6 1085   2.603   0.478   2.001  0.6188 -0.2546 -0.3334
   71TMC2     C 1086   2.738   0.442   1.605  0.6302 -0.0990  0.2890
   71TMC2     O 1087   2.660   0.493   1.527  0.9169 -0.3425  0.3116
   71TMC2     H 1088   2.886   0.433   1.824  0.0763  1.9180  2.7402
   71TMC2    H1 1089   2.491   0.483   1.684 -0.0470  2.7180 -0.8418
   71TMC2    H2 1090   2.585   0.525   2.097 -1.0022  0.5631 -1.0426
   71TMC2    C7 1091   2.385   0.549   1.922 -0.4221 -0.4936  0.1049
   71TMC2    C8 1092   2.831   0.482   2.075  0.8317  0.8061  0.3660
   71TMC2    O1 1093   2.373   0.581   2.040  0.1456 -0.0281 -0.5644
   71TMC2    O2 1094   2.795   0.539   2.181  0.5287  0.1482 -0.2663
   71TMC2    O5 1095   2.941   0.414   2.053  0.2730  0.2594 -0.0345
   71TMC2    H5 1096   3.012   0.430   2.119  0.1387 -1.2270  0.4855
   72MPD2     C 1097   3.024   0.287   1.209  0.3322 -0.2886  0.5692
   72MPD2    C1 1098   2.917   0.373   1.221 -0.3732 -0.7048 -0.0952
   72MPD2    C2 1099   2.853   0.399   1.338  0.7147 -0.0539 -0.0792
   72MPD2    C3 1100   2.901   0.341   1.454 -0.1304  0.0543 -0.0210
   72MPD2    C4 1101   3.011   0.256   1.445 -0.0082  0.1567  0.6090
   72MPD2    C5 1102   3.067   0.232   1.325 -0.5024  0.1257 -0.7331
   72MPD2     H 1103   2.780   0.479   1.336  1.8851  0.9763 -1.1480
   72MPD2    H1 1104   3.057   0.213   1.534  0.2097 -3.1977 -1.1379
   72MPD2    H2 1105   3.079   0.267   1.118  1.2539  0.7768  0.8914
   72MPD2    H3 1106   3.156   0.171   1.311 -0.5017 -0.1972  0.6093
   72MPD2     N 1107   2.842   0.357   1.581  0.6090  0.0232  0.1873
   72MPD2    H5 1108   2.882   0.299   1.654  3.5280  2.4377  0.5492
   72MPD2    N1 1109   2.868   0.446   1.111 -0.3025 -0.8305  0.0371
   72MPD2    H7 1110   2.803   0.522   1.131  0.4390 -0.3318  0.5447
   73TMC2    C1 1111   2.546   2.145  14.405 -0.7904  0.1946 -0.0459
   73TMC2    C2 1112   2.445   2.166  14.493 -0.1513 -0.0981 -0.0406
   73TMC2    C3 1113   2.477   2.193  14.620 -0.3264 -0.0637  0.3474
   73TMC2    C4 1114   2.671   2.133  14.452  0.0898  0.6965  0.8897
   73TMC2    C5 1115   2.703   2.164  14.583 -0.7140 -0.2705  0.0427
   73TMC2    C6 1116   2.603   2.202  14.668 -0.4140 -0.2595 -0.8415
   73TMC2     C 1117   2.536   2.223  14.285  0.4691  0.2918  0.1520
   73TMC2     O 1118   2.643   2.273  14.258 -0.2442 -0.7006 -0.1886
   73TMC2     H 1119   2.341   2.181  14.466  0.0179 -0.6666 -1.0237
   73TMC2    H1 1120   2.754   2.114  14.386  0.8404 -0.9014  2.2740
   73TMC2    H2 1121   2.606   2.245  14.767  0.4431 -2.7643  0.2094
   73TMC2    C7 1122   2.814   2.254  14.595 -0.0186  0.1544 -0.0794
   73TMC2    C8 1123   2.374   2.250  14.702 -0.1154  0.0900  0.1667
   73TMC2    O1 1124   2.876   2.266  14.700  0.2444 -0.0249  0.2863
   73TMC2    O2 1125   2.389   2.352  14.763  0.2281  0.0744 -0.4572
   73TMC2    O5 1126   2.260   2.181  14.695  0.0539 -0.4356  0.0488
   73TMC2    H5 1127   2.275   2.091  14.660  1.1503 -0.7177  1.2665
   74MPD2     C 1128   2.315   2.456  13.869  0.5014  0.0292  0.3166
   74MPD2    C1 1129   2.411   2.497  13.960  0.3467 -0.7239 -0.1970
   74MPD2    C2 1130   2.443   2.422  14.070 -0.3988  1.0532  0.0484
   74MPD2    C3 1131   2.379   2.306  14.107 -0.2087  0.8384  0.0433
   74MPD2    C4 1132   2.280   2.268  14.019  0.7524 -0.4224 -0.0403
   74MPD2    C5 1133   2.255   2.335  13.897  0.6579 -0.0428 -0.2536
   74MPD2     H 1134   2.514   2.459  14.143 -1.9518 -0.5518  2.3711
   74MPD2    H1 1135   2.219   2.182  14.044 -0.8004  1.3258  2.0802
   74MPD2    H2 1136   2.276   2.526  13.795  1.0924 -0.5354 -0.5319
   74MPD2    H3 1137   2.175   2.294  13.837 -2.2751  2.4758  1.9293
   74MPD2     N 1138   2.411   2.231  14.224  0.1116  0.1911 -0.8960
   74MPD2    H5 1139   2.334   2.171  14.253  0.2184  0.1186 -0.7598
   74MPD2    N1 1140   2.485   2.605  13.915  0.2180 -0.3525 -0.4342
   74MPD2    H7 1141   2.451   2.649  13.830  2.5796  1.0269 -0.6684
   75TCq2    C1 1142   2.744   3.512  13.826 -0.0012  0.4421  0.0558
   75TCq2    O2 1143   2.788   3.456  13.728 -0.4485 -0.3168  0.7861
   75TCq2    C2 1144   2.605   3.550  13.815 -0.0939  0.2287 -0.0741
   75TCq2    C3 1145   2.543   3.599  13.928 -0.3932 -0.2644  0.2074
   75TCq2    C4 1146   2.434   3.678  13.900  0.2576 -0.1001  0.3056
   75TCq2    C5 1147   2.389   3.701  13.772  0.5209 -0.3085 -0.5769
   75TCq2    C6 1148   2.436   3.624  13.669 -0.2310  0.0802 -0.3887
   75TCq2    C7 1149   2.551   3.562  13.693 -0.4505 -0.2600  0.2148
   75TCq2    C8 1150   2.396   3.639  13.526  0.8446 -0.0040  0.0951
   75TCq2    O4 1151   2.427   3.549  13.453  0.1708 -0.5956 -0.4206
   75TCq2    C9 1152   2.370   3.745  14.006 -0.6741  0.3282  0.2296
   75TCq2    O5 1153   2.247   3.768  13.985  0.1693  0.3529  0.1053
   75TCq2    O6 1154   2.434   3.765  14.114  0.0198  0.5138  0.7980
   75TCq2    H2 1155   2.573   3.573  14.028 -0.4316 -0.0785  0.2661
   75TCq2    H3 1156   2.313   3.777  13.760 -0.0963 -0.8209  0.0526
   75TCq2    H4 1157   2.609   3.523  13.610  0.1555  2.6978 -0.7671
   76MPD2     C 1158   1.929   3.860  12.014 -0.0512 -0.2189 -0.1175
   76MPD2    C1 1159   1.865   3.773  11.920  0.1573 -0.5517 -0.9329
   76MPD2    C2 1160   1.882   3.638  11.934 -0.4214 -0.2458 -0.1474
   76MPD2    C3 1161   1.946   3.594  12.052 -0.0938  0.4098 -0.1691
   76MPD2    C4 1162   2.004   3.681  12.145 -0.2037  0.1842  0.2408
   76MPD2    C5 1163   1.991   3.817  12.118  0.7422  0.3439 -0.4203
   76MPD2     H 1164   1.849   3.570  11.856 -1.2282  0.1313 -0.1384
   76MPD2    H1 1165   2.073   3.660  12.225  2.0178  2.9441 -0.9685
   76MPD2    H2 1166   1.909   3.965  11.993  3.4704  0.6009  0.7616
   76MPD2    H3 1167   2.032   3.891  12.187 -2.1180  4.4549 -3.1112
   76MPD2     N 1168   1.970   3.457  12.072  0.1450  0.0936  0.6039
   76MPD2    H5 1169   2.036   3.432  12.144 -0.7035 -1.6844  0.7586
   76MPD2    N1 1170   1.784   3.818  11.819 -0.3949 -0.3165  0.0125
   76MPD2    H7 1171   1.752   3.745  11.756 -0.4447 -0.1596 -0.1445
   77TCq2    C1 1172   1.919   3.356  11.994  0.4001 -0.7029 -0.6407
   77TCq2    O2 1173   1.824   3.361  11.916 -0.1019 -0.4190 -0.2950
   77TCq2    C2 1174   1.976   3.222  12.023  0.0760 -0.1893 -0.4270
   77TCq2    C3 1175   1.894   3.115  12.019 -0.5506 -0.2902  0.5319
   77TCq2    C4 1176   1.937   2.989  12.066  0.3757  0.3610  0.4698
   77TCq2    C5 1177   2.060   2.975  12.120  0.3612  0.2697 -0.3828
   77TCq2    C6 1178   2.147   3.086  12.108  0.3378  0.0964  0.2469
   77TCq2    C7 1179   2.101   3.210  12.074 -0.4806  0.0770  0.5517
   77TCq2    C8 1180   2.266   3.080  12.189 -0.5236 -0.9024  0.3864
   77TCq2    O4 1181   2.311   2.973  12.219  0.6182 -0.3483  0.1959
   77TCq2    C9 1182   1.838   2.886  12.072  0.0229 -1.0858 -0.3275
   77TCq2    O5 1183   1.743   2.887  11.991  0.2265 -0.5421 -0.0225
   77TCq2    O6 1184   1.847   2.797  12.157 -0.2705 -0.7810  0.1411
   77TCq2    H2 1185   1.790   3.129  11.989 -0.3447  0.1203  0.0193
   77TCq2    H3 1186   2.092   2.875  12.149 -1.4976 -0.8505 -2.1454
   77TCq2    H4 1187   2.172   3.289  12.053  0.0009 -0.7556 -0.9210
   78MPD1     C 1188   2.184   0.232   1.788 -0.3154 -0.7036 -0.3786
   78MPD1    C1 1189   2.317   0.205   1.749  0.0151  0.9283  0.1616
   78MPD1    C2 1190   2.406   0.170   1.844 -0.6407  0.5447 -0.1406
   78MPD1    C3 1191   2.366   0.176   1.983  0.6343 -0.1797  0.3660
   78MPD1    C4 1192   2.237   0.186   2.012  0.1871  0.8577  0.1317
   78MPD1    C5 1193   2.151   0.219   1.918  0.5832  0.3335 -0.0127
   78MPD1     H 1194   2.510   0.155   1.815 -1.5613 -0.1554 -3.0123
   78MPD1    H1 1195   2.201   0.181   2.114 -0.0737  2.0226  0.0935
   78MPD1    H2 1196   2.105   0.255   1.717 -0.7351 -0.9918  0.0005
   78MPD1    H3 1197   2.052   0.253   1.947 -0.2931 -0.5676 -1.9712
   78MPD1     N 1198   2.461   0.160   2.084  0.1784 -0.7770 -0.8402
   78MPD1    H5 1199   2.419   0.159   2.176 -0.1186  0.7781 -0.9592
   78MPD1    N1 1200   2.332   0.184   1.609 -0.0385 -1.0464 -0.3137
   78MPD1    H6 1201   2.269   0.246   1.558  0.9615 -0.1169 -0.4278
   78MPD1    H7 1202   2.426   0.200   1.574  0.2080  1.4889  1.4682
   79TCq2    C1 1203   2.596   0.144   2.067 -0.1071 -0.7613 -0.0885
   79TCq2    O2 1204   2.663   0.141   1.966 -0.2146  0.2592 -0.3073
   79TCq2    C2 1205   2.672   0.138   2.193  0.1754  0.7429 -0.2291
   79TCq2    C3 1206   2.624   0.209   2.303  0.2482 -0.3467  0.4383
   79TCq2    C4 1207   2.716   0.232   2.402  1.4950  0.9783 -0.2635
   79TCq2    C5 1208   2.846   0.205   2.386 -0.1119 -0.1203 -0.1590
   79TCq2    C6 1209   2.893   0.144   2.274 -0.3541  0.4286  0.0274
   79TCq2    C7 1210   2.808   0.104   2.177  0.7732  0.4264 -0.3423
   79TCq2    C8 1211   3.028   0.091   2.274  0.1618 -0.0979 -0.6767
   79TCq2    O4 1212   3.065   0.029   2.176  0.2164  0.1853  0.0504
   79TCq2    C9 1213   2.673   0.290   2.518  0.1106 -0.0703  0.5567
   79TCq2    O5 1214   2.562   0.345   2.518  0.3600 -0.1188 -0.1049
   79TCq2    O6 1215   2.752   0.293   2.613  0.5897  0.3745 -0.2988
   79TCq2    H2 1216   2.521   0.233   2.324 -0.1536 -0.8213 -1.0066
   79TCq2    H3 1217   2.906   0.244   2.468 -0.5335  2.3907 -1.0350
   79TCq2    H4 1218   2.842   0.052   2.089  1.7486 -1.3607  1.0917
   80MPD2     C 1219   0.611   3.592  12.348 -0.0454 -0.3578 -0.1371
   80MPD2    C1 1220   0.553   3.559  12.231  0.8053  0.7535 -0.0213
   80MPD2    C2 1221   0.421   3.581  12.216 -0.2862  0.2465  0.2340
   80MPD2    C3 1222   0.343   3.630  12.319 -0.1456  0.8855 -0.4566
   80MPD2    C4 1223   0.401   3.640  12.445  0.1712 -0.3486  0.2391
   80MPD2    C5 1224   0.537   3.624  12.457  0.1734  0.0984 -0.1089
   80MPD2     H 1225   0.389   3.567  12.114  0.6595 -0.2746  0.0085
   80MPD2    H1 1226   0.347   3.677  12.531  0.3849  1.0621 -0.2303
   80MPD2    H2 1227   0.719   3.580  12.351  0.4462  3.7099 -1.4079
   80MPD2    H3 1228   0.584   3.639  12.553 -2.6398  2.2645  0.9293
   80MPD2     N 1229   0.205   3.647  12.304  0.1870 -0.5312  0.2787
   80MPD2    H5 1230   0.153   3.636  12.390 -1.6436 -0.1287 -0.7903
   80MPD2    N1 1231   0.628   3.510  12.116  0.2260 -0.5293 -0.2079
   80MPD2    H7 1232   0.576   3.484  12.033  1.6530 -0.8726 -0.9997
   81TCq2    C1 1233   0.761   3.484  12.112 -1.0078  0.0105  0.6076
   81TCq2    O2 1234   0.850   3.502  12.191 -0.2174  0.0386 -0.7727
   81TCq2    C2 1235   0.807   3.426  11.988 -0.0835  0.3672 -0.0691
   81TCq2    C3 1236   0.936   3.449  11.941 -0.3467 -0.7632 -0.4172
   81TCq2    C4 1237   0.979   3.384  11.827  0.4756 -0.0671  0.1789
   81TCq2    C5 1238   0.891   3.310  11.755 -0.2684 -0.3920 -0.0632
   81TCq2    C6 1239   0.764   3.289  11.807  0.1120 -0.6795  0.2722
   81TCq2    C7 1240   0.723   3.339  11.925  0.7182  0.1482  0.0466
   81TCq2    C8 1241   0.661   3.207  11.736  0.1257  0.7540  0.1773
   81TCq2    O4 1242   0.688   3.186  11.617  0.0053  0.2824  0.1798
   81TCq2    C9 1243   1.115   3.403  11.785 -0.5062  0.4311 -0.6386
   81TCq2    O5 1244   1.131   3.340  11.675 -0.5683 -0.0108  0.4946
   81TCq2    O6 1245   1.181   3.498  11.835 -0.6363  0.7081  0.2321
   81TCq2    H2 1246   0.997   3.521  11.995 -0.0208 -0.7213 -0.8458
   81TCq2    H3 1247   0.921   3.267  11.660  1.8927 -0.8408  0.8405
   81TCq2    H4 1248   0.622   3.325  11.962  0.0136  1.1131 -1.4957
   82MPD2     C 1249   3.035   3.174  10.829  0.2791 -0.0259  0.4521
   82MPD2    C1 1250   3.014   3.142  10.704 -0.0452  0.0844  0.3274
   82MPD2    C2 1251   3.076   3.034  10.646 -0.8462  0.2419 -0.0204
   82MPD2    C3 1252   3.166   2.967  10.724  0.1727  0.2132  0.3259
   82MPD2    C4 1253   3.190   3.001  10.860  0.6206  0.0447  0.0376
   82MPD2    C5 1254   3.113   3.094  10.909 -0.5147  0.4921  0.2603
   82MPD2     H 1255   3.055   3.012  10.542 -0.9606 -1.2549  0.3233
   82MPD2    H1 1256   3.250   2.942  10.928 -0.3213 -0.4923  0.3948
   82MPD2    H2 1257   2.985   3.263  10.865  0.0724  0.1578 -0.2929
   82MPD2    H3 1258   3.117   3.128  11.011 -1.2532 -1.3224  0.8941
   82MPD2     N 1259   3.242   2.864  10.672 -0.1149  0.1918  0.7068
   82MPD2    H5 1260   3.295   2.816  10.743  3.2191  1.7218 -0.7407
   82MPD2    N1 1261   2.933   3.222  10.625 -0.1140 -0.5088  0.1645
   82MPD2    H7 1262   2.916   3.311  10.671  0.7219 -0.2063 -0.1135
   83TCq2    C1 1263   3.251   2.821  10.537  0.5564  0.5180  0.0609
   83TCq2    O2 1264   3.212   2.877  10.434  0.2037 -1.0622  0.1211
   83TCq2    C2 1265   3.377   2.758  10.529  0.9388  0.4983  0.2708
   83TCq2    C3 1266   3.474   2.853  10.565 -0.7688  0.4809 -0.2828
   83TCq2    C4 1267   3.582   2.811  10.632  0.4343  0.8301 -0.0361
   83TCq2    C5 1268   3.591   2.686  10.676 -0.6123  0.5987  0.4866
   83TCq2    C6 1269   3.495   2.598  10.655  0.2644 -0.1287 -0.4643
   83TCq2    C7 1270   3.385   2.627  10.584 -0.0028 -0.5275 -0.1651
   83TCq2    C8 1271   3.517   2.461  10.704 -0.3381  0.2432  0.1040
   83TCq2    O4 1272   3.599   2.455  10.793 -0.2809  0.0186 -0.1081
   83TCq2    C9 1273   3.688   2.895  10.669 -0.1233 -0.5133  0.0416
   83TCq2    O5 1274   3.666   3.018  10.654  0.5881  0.0348  0.2873
   83TCq2    O6 1275   3.775   2.850  10.752  0.1304 -0.1826 -0.1432
   83TCq2    H2 1276   3.468   2.950  10.516 -2.9502 -0.1973 -1.3762
   83TCq2    H3 1277   3.675   2.654  10.737 -0.7628  2.2277  1.5544
   83TCq2    H4 1278   3.297   2.567  10.564  0.8212 -0.3939 -4.2457
   84TCq2    C1 1279   0.164   1.354  10.793  0.4238 -0.4213 -0.1643
   84TCq2    O2 1280   0.059   1.327  10.848 -0.1245  0.1479 -0.1167
   84TCq2    C2 1281   0.250   1.435  10.876  0.0428 -0.6028  0.3607
   84TCq2    C3 1282   0.382   1.465  10.837 -0.4826  0.6220  0.4430
   84TCq2    C4 1283   0.456   1.539  10.918 -0.6766 -0.5455  0.1506
   84TCq2    C5 1284   0.400   1.604  11.030  0.5859 -1.2988 -0.1294
   84TCq2    C6 1285   0.276   1.564  11.069  0.8841  0.1984  0.0463
   84TCq2    C7 1286   0.198   1.485  10.990  0.3577  1.0335  0.6037
   84TCq2    C8 1287   0.233   1.587  11.209 -0.2583  0.4041  0.1220
   84TCq2    O4 1288   0.308   1.652  11.283 -0.0776 -0.0389 -0.1903
   84TCq2    C9 1289   0.594   1.567  10.875  0.6706 -0.4742 -0.2419
   84TCq2    O5 1290   0.674   1.613  10.960 -0.7309 -0.0936  0.5734
   84TCq2    O6 1291   0.603   1.577  10.748  0.1230  1.0241  0.3123
   84TCq2    H2 1292   0.428   1.413  10.754  0.7700  0.5494  1.1715
   84TCq2    H3 1293   0.464   1.652  11.103  0.9070 -1.7950 -0.0865
   84TCq2    H4 1294   0.094   1.474  11.018  0.1644 -0.2447 -0.6228
   85MPD2     C 1295   4.704   0.326  16.533  0.6079  0.2145 -0.0786
   85MPD2    C1 1296   0.092   0.278  16.464 -0.1438  0.3540 -0.2596
   85MPD2    C2 1297   0.156   0.359  16.374 -0.5215  0.3455 -0.1796
   85MPD2    C3 1298   0.121   0.489  16.355 -0.1862  0.0303  0.7640
   85MPD2    C4 1299   0.022   0.542  16.434 -0.2977 -0.3166  0.0115
   85MPD2    C5 1300   4.671   0.457  16.512 -0.1664  0.0186 -0.6696
   85MPD2     H 1301   0.244   0.328  16.318  1.1910  3.8840  0.5598
   85MPD2    H1 1302   4.707   0.644  16.427  0.4758  0.0999  1.9932
   85MPD2    H2 1303   4.639   0.270  16.599 -0.1301  1.0035 -0.1310
   85MPD2    H3 1304   4.590   0.508  16.563  0.4093  0.0305  0.2452
   85MPD2     N 1305   0.199   0.568  16.261  0.4573  0.0043  0.1300
   85MPD2    H5 1306   0.286   0.530  16.225  2.5743  2.4781  2.7709
   85MPD2    N1 1307   0.139   0.145  16.486  0.4342  0.2191  0.3328
   85MPD2    H7 1308   0.223   0.115  16.437  0.4322 -0.2158  0.6004
   86TCq2    C1 1309   0.156   0.683  16.203 -0.0224 -0.2539 -0.6814
   86TCq2    O2 1310   0.056   0.743  16.219  0.3364 -0.0237 -0.2639
   86TCq2    C2 1311   0.240   0.734  16.103  0.4681  0.4953  0.5160
   86TCq2    C3 1312   0.222   0.866  16.072  0.3195  0.2598  0.0477
   86TCq2    C4 1313   0.279   0.917  15.958  0.0380  0.2219 -0.1896
   86TCq2    C5 1314   0.352   0.831  15.879  0.0811 -0.1995 -0.0026
   86TCq2    C6 1315   0.361   0.696  15.906 -0.7407  0.1601 -0.5364
   86TCq2    C7 1316   0.298   0.644  16.017  0.6608 -0.6891  0.0840
   86TCq2    C8 1317   0.441   0.608  15.819 -0.2390 -0.1067  0.2844
   86TCq2    O4 1318   0.482   0.510  15.879 -0.5854  0.2930  0.1123
   86TCq2    C9 1319   0.278   1.059  15.929  0.6120  0.3626  0.7325
   86TCq2    O5 1320   0.178   1.118  15.987 -0.2531  0.1751 -0.0313
   86TCq2    O6 1321   0.371   1.118  15.866  0.2025 -0.1639  0.5714
   86TCq2    H2 1322   0.170   0.934  16.139  3.7265  0.2901  2.6578
   86TCq2    H3 1323   0.402   0.880  15.796  1.3236  0.3792  1.0858
   86TCq2    H4 1324   0.279   0.538  16.029  0.3725 -0.5105  1.2531
   87MPD2     C 1325   3.009   3.603   1.959 -0.2764  0.2082  0.5434
   87MPD2    C1 1326   3.117   3.647   1.885  1.0766 -0.5867 -0.5775
   87MPD2    C2 1327   3.107   3.770   1.811  0.4258  1.4713  0.7564
   87MPD2    C3 1328   2.997   3.854   1.824  0.1163  0.2242  0.8273
   87MPD2    C4 1329   2.899   3.805   1.904  0.2897  0.7426  0.0642
   87MPD2    C5 1330   2.901   3.688   1.964 -0.5143  0.0533 -0.1690
   87MPD2     H 1331   3.191   3.797   1.748  0.8007  0.8589  0.9876
   87MPD2    H1 1332   2.818   3.875   1.916 -1.6525 -0.9475 -3.4907
   87MPD2    H2 1333   3.007   3.505   2.003  2.6723 -1.1472 -2.3457
   87MPD2    H3 1334   2.818   3.655   2.025 -0.1272 -0.0004  0.3326
   87MPD2     N 1335   2.982   3.979   1.760 -0.0656 -0.0027  0.7402
   87MPD2    H5 1336   2.893   4.025   1.781 -0.1430  0.3305 -0.3017
   87MPD2    N1 1337   3.238   3.571   1.867  0.3490 -0.3513 -0.1900
   87MPD2    H7 1338   3.310   3.614   1.810 -0.4377  0.7183 -0.3675
   88TCq2    C1 1339   3.276   3.451   1.926  0.2761 -0.0386  0.8816
   88TCq2    O2 1340   3.220   3.387   2.015  0.2484  0.0621 -0.0396
   88TCq2    C2 1341   3.398   3.409   1.882  1.0267 -0.1835  0.5466
   88TCq2    C3 1342   3.486   3.364   1.974 -0.9506 -0.1726 -0.2234
   88TCq2    C4 1343   3.608   3.328   1.930  0.4086  0.3318  0.0107
   88TCq2    C5 1344   3.641   3.316   1.800  0.2813  0.5781 -0.2917
   88TCq2    C6 1345   3.547   3.349   1.709 -0.6009 -0.3823 -0.1050
   88TCq2    C7 1346   3.437   3.414   1.753 -0.3306 -0.2859  0.1080
   88TCq2    C8 1347   3.582   3.358   1.565  0.4593  0.5702 -0.1691
   88TCq2    O4 1348   3.699   3.341   1.536 -0.2361 -0.0314  0.7503
   88TCq2    C9 1349   3.705   3.274   2.026 -0.1135 -1.0108 -0.3142
   88TCq2    O5 1350   3.676   3.269   2.147 -0.7478 -0.1731  0.3695
   88TCq2    O6 1351   3.828   3.276   1.990 -0.3293  0.7807 -0.5595
   88TCq2    H2 1352   3.454   3.354   2.077 -1.6322  0.4246 -0.3713
   88TCq2    H3 1353   3.735   3.264   1.786  0.0047 -0.2877  1.0023
   88TCq2    H4 1354   3.362   3.449   1.683 -1.0449 -1.0086  0.5169
   89MPD2     C 1355   3.885   0.660   1.766 -0.2720 -0.4027  0.6613
   89MPD2    C1 1356   3.780   0.746   1.757  0.6682 -0.1185  0.1441
   89MPD2    C2 1357   3.792   0.860   1.681  0.4571  0.2287 -0.0538
   89MPD2    C3 1358   3.917   0.893   1.620  0.1969  0.3790  0.0730
   89MPD2    C4 1359   4.030   0.806   1.637  0.4406 -0.1715 -1.2520
   89MPD2    C5 1360   4.007   0.696   1.710  0.4266 -0.1898 -0.2602
   89MPD2     H 1361   3.705   0.923   1.669 -0.3319 -0.6388  1.1212
   89MPD2    H1 1362   4.122   0.804   1.579  0.4286 -0.1888 -1.2706
   89MPD2    H2 1363   3.884   0.555   1.794  2.9943 -0.4937  0.4923
   89MPD2    H3 1364   4.077   0.613   1.711  2.7228  1.7600 -0.6376
   89MPD2     N 1365   3.922   1.014   1.541 -0.0842 -0.0734 -0.4243
   89MPD2    H5 1366   3.839   1.073   1.539 -0.8002 -1.0746 -0.2508
   89MPD2    N1 1367   3.655   0.704   1.799 -0.6168 -0.1366  0.3673
   89MPD2    H7 1368   3.579   0.767   1.776 -1.9170 -1.4897  0.9366
   90TCq2    C1 1369   4.030   1.067   1.478  0.2345  0.8008 -0.3824
   90TCq2    O2 1370   4.138   1.009   1.464 -0.0229  0.3234  0.3452
   90TCq2    C2 1371   4.001   1.187   1.401 -0.3486  0.6387 -0.3689
   90TCq2    C3 1372   3.874   1.230   1.381  0.1612  0.1844  0.7048
   90TCq2    C4 1373   3.860   1.345   1.308  0.2864 -0.4724 -0.3965
   90TCq2    C5 1374   3.976   1.408   1.256  0.3643 -0.7030  0.2889
   90TCq2    C6 1375   4.102   1.358   1.279  0.2526 -0.0085 -0.0375
   90TCq2    C7 1376   4.114   1.240   1.347  0.4394  0.1675  0.1529
   90TCq2    C8 1377   4.223   1.413   1.221  0.8269 -0.5048 -0.1140
   90TCq2    O4 1378   4.329   1.346   1.225 -0.1775  0.4807  0.0622
   90TCq2    C9 1379   3.730   1.396   1.296  0.8586 -0.0422  0.2616
   90TCq2    O5 1380   3.649   1.356   1.384  0.3350  0.2827  0.5065
   90TCq2    O6 1381   3.697   1.467   1.198  0.2763  0.1010 -0.0021
   90TCq2    H2 1382   3.783   1.177   1.406 -0.5928  0.1836 -1.9865
   90TCq2    H3 1383   3.966   1.497   1.195 -2.6444 -1.1140  0.1692
   90TCq2    H4 1384   4.206   1.222   1.401 -2.0547 -1.1022  3.9016
   91TMC2    C1 1385   0.538   1.786  16.327  0.1198  0.0733 -0.8741
   91TMC2    C2 1386   0.593   1.902  16.282  0.3866 -0.7762  0.3660
   91TMC2    C3 1387   0.513   2.011  16.297 -0.0760 -0.4882  0.5238
   91TMC2    C4 1388   0.405   1.776  16.367 -0.2176 -0.3144  0.8259
   91TMC2    C5 1389   0.338   1.893  16.380 -0.0801  0.4534  0.2346
   91TMC2    C6 1390   0.389   2.010  16.350  0.1474 -0.2902  0.2023
   91TMC2     C 1391   0.601   1.664  16.293 -0.3348  0.2863  0.1000
   91TMC2     O 1392   0.524   1.566  16.274  0.0931  0.4538  0.3913
   91TMC2     H 1393   0.701   1.907  16.277  0.2901 -0.2033 -0.9802
   91TMC2    H1 1394   0.377   1.676  16.398  0.2128  0.2885  3.1317
   91TMC2    H2 1395   0.332   2.102  16.350  0.4654 -0.0975 -0.6854
   91TMC2    C7 1396   0.193   1.893  16.427  0.4566  0.1663 -0.1956
   91TMC2    C8 1397   0.577   2.144  16.281  0.1824 -0.2392 -0.2540
   91TMC2    O1 1398   0.146   2.002  16.448  0.1410  0.6512  0.4521
   91TMC2    O2 1399   0.523   2.242  16.330  0.2992  0.0510  0.2286
   91TMC2    O5 1400   0.636   2.138  16.164  0.3083  0.0624 -0.2632
   91TMC2    H5 1401   0.659   2.044  16.146  1.1502  0.2388 -0.1273
   92MPD2     C 1402   0.788   1.431  16.300  0.6605 -0.2032  0.7567
   92MPD2    C1 1403   0.810   1.559  16.345 -0.5462  0.0152 -0.5996
   92MPD2    C2 1404   0.934   1.583  16.399  0.9380  0.6589  0.3132
   92MPD2    C3 1405   1.041   1.497  16.399  0.2987  0.1098 -0.2142
   92MPD2    C4 1406   1.020   1.374  16.345  0.3557 -0.0666 -0.2710
   92MPD2    C5 1407   0.894   1.336  16.296 -0.5531 -0.1455 -0.0796
   92MPD2     H 1408   0.959   1.681  16.439  2.1959  1.3029 -2.0337
   92MPD2    H1 1409   1.093   1.294  16.347 -0.1932 -0.6130 -1.9030
   92MPD2    H2 1410   0.689   1.406  16.262  0.6507  0.9909 -0.0086
   92MPD2    H3 1411   0.862   1.236  16.268 -2.6887  0.6100 -0.3203
   92MPD2     N 1412   1.167   1.546  16.456 -0.8705 -0.1695  0.4319
   92MPD2    H5 1413   1.176   1.646  16.474  0.7362 -0.2799  0.2032
   92MPD2    N1 1414   0.726   1.665  16.335 -0.6680 -0.5943  0.4213
   92MPD2    H7 1415   0.758   1.756  16.366 -2.7415 -0.5949  2.5509
   93MPD2     C 1416   2.031   1.992  13.964 -0.5372 -0.1076 -0.3798
   93MPD2    C1 1417   2.009   1.969  14.098  0.8609 -0.1448  0.0113
   93MPD2    C2 1418   1.883   1.949  14.139  0.3581 -0.2989 -0.2029
   93MPD2    C3 1419   1.771   1.967  14.055 -0.2756  0.4017 -0.1819
   93MPD2    C4 1420   1.794   1.983  13.923 -0.3387 -0.3099 -0.2564
   93MPD2    C5 1421   1.922   1.994  13.879  0.5049  0.6356 -0.5644
   93MPD2     H 1422   1.874   1.921  14.244 -0.8330 -1.8712 -0.7239
   93MPD2    H1 1423   1.718   1.990  13.846 -0.2658 -2.6260 -0.5433
   93MPD2    H2 1424   2.132   2.007  13.927 -0.8871 -0.8310 -1.6480
   93MPD2    H3 1425   1.936   1.997  13.772 -0.4308  1.0134 -0.6741
   93MPD2     N 1426   1.637   1.954  14.095  0.0077 -0.2748 -0.6226
   93MPD2    H5 1427   1.573   1.941  14.017  1.4324 -1.6323 -1.5599
   93MPD2    N1 1428   2.118   1.944  14.188 -0.9218  0.0138 -0.1238
   93MPD2    H7 1429   2.084   1.922  14.281 -0.8819  0.9774  0.1115
   94TCq2    C1 1430   2.257   1.918  14.156  0.0747 -0.0201 -0.8356
   94TCq2    O2 1431   2.309   1.929  14.045 -0.2655 -0.2136 -0.5005
   94TCq2    C2 1432   2.333   1.867  14.263  0.0744 -0.0685  0.0450
   94TCq2    C3 1433   2.298   1.899  14.395 -0.2245  0.0963  0.0483
   94TCq2    C4 1434   2.378   1.844  14.493 -0.0728  0.0426 -0.8422
   94TCq2    C5 1435   2.486   1.763  14.458  0.3122  0.2574  0.3485
   94TCq2    C6 1436   2.524   1.742  14.329  0.0329 -0.1835  0.1350
   94TCq2    C7 1437   2.445   1.792  14.229 -0.7627  0.1663  0.1101
   94TCq2    C8 1438   2.647   1.674  14.296 -0.0299 -0.6156  0.0631
   94TCq2    O4 1439   2.726   1.670  14.391  0.0461  0.5283 -0.0680
   94TCq2    C9 1440   2.340   1.849  14.626  0.8763 -1.4549  0.9340
   94TCq2    O5 1441   2.261   1.939  14.660  0.0502  0.1206  0.3735
   94TCq2    O6 1442   2.388   1.765  14.704 -0.1663 -0.0232  0.1030
   94TCq2    H2 1443   2.202   1.939  14.426  0.3989  1.9255 -0.3818
   94TCq2    H3 1444   2.549   1.714  14.532  1.7418 -1.7977 -2.2634
   94TCq2    H4 1445   2.457   1.774  14.123  0.4235 -0.9452  0.4340
   95TMC2    C1 1446   2.518   3.042  16.115  0.6057 -0.8760  0.2691
   95TMC2    C2 1447   2.412   2.965  16.154  0.0507  0.5393  0.8082
   95TMC2    C3 1448   2.347   3.009  16.272 -0.1981 -0.7408 -0.1233
   95TMC2    C4 1449   2.564   3.156  16.178 -0.2600  0.1642 -0.5964
   95TMC2    C5 1450   2.496   3.193  16.295  0.2433  0.4437 -0.4346
   95TMC2    C6 1451   2.393   3.117  16.351  0.3261  0.3290 -0.3975
   95TMC2     C 1452   2.581   3.024  15.986 -0.2149  0.0395  0.1321
   95TMC2     O 1453   2.665   3.107  15.945  0.1745  0.0487 -0.6256
   95TMC2     H 1454   2.392   2.869  16.109  0.4861  2.2071 -2.9605
   95TMC2    H1 1455   2.656   3.207  16.153 -1.3851  2.5369  0.0901
   95TMC2    H2 1456   2.345   3.151  16.442  0.2351  0.0379 -0.3345
   95TMC2    C7 1457   2.535   3.312  16.361 -0.3316  0.3208  0.3135
   95TMC2    C8 1458   2.247   2.922  16.320 -0.6206  0.2552  0.0984
   95TMC2    O1 1459   2.494   3.322  16.475 -0.0168  0.1768 -0.1943
   95TMC2    O2 1460   2.225   2.805  16.285  0.1611 -0.0072  0.8319
   95TMC2    O5 1461   2.146   3.010  16.338  0.5692  0.3459 -0.2560
   95TMC2    H5 1462   2.167   3.105  16.325 -0.8842  0.7559  0.3946
   96MPD2     C 1463   2.659   2.808  15.523  0.4580  0.3866  0.1318
   96MPD2    C1 1464   2.742   2.897  15.596 -1.0045  0.3971  0.9969
   96MPD2    C2 1465   2.707   2.922  15.727  1.0650  0.8779 -0.2009
   96MPD2    C3 1466   2.592   2.875  15.789  0.1191  0.8193  0.9250
   96MPD2    C4 1467   2.515   2.794  15.713  0.0499  0.1321 -0.7961
   96MPD2    C5 1468   2.547   2.758  15.580  0.7888 -0.4561 -0.5247
   96MPD2     H 1469   2.774   2.986  15.783 -0.2288  1.1323  1.0514
   96MPD2    H1 1470   2.428   2.740  15.749  0.3236 -0.8656 -1.6247
   96MPD2    H2 1471   2.682   2.786  15.419  1.5849  0.6845  0.3109
   96MPD2    H3 1472   2.485   2.689  15.523 -0.7506  1.1915 -0.8622
   96MPD2     N 1473   2.545   2.910  15.915  0.2665  0.0814 -0.3383
   96MPD2    H5 1474   2.463   2.857  15.944  0.2530  0.4271  0.2659
   96MPD2    N1 1475   2.860   2.950  15.536  0.0883 -0.4021  0.7115
   96MPD2    H7 1476   2.863   2.948  15.434 -2.4040  0.4897  0.6158
   97MPD2     C 1477   4.515   0.314   0.829  0.2024 -0.4324  0.2388
   97MPD2    C1 1478   4.609   0.315   0.926 -1.2580 -0.2300 -0.3720
   97MPD2    C2 1479   0.022   0.326   0.888 -0.7998  0.0927 -0.7760
   97MPD2    C3 1480   0.059   0.334   0.754  0.1602  0.3791  0.5545
   97MPD2    C4 1481   4.678   0.316   0.662 -0.3363 -0.1271  0.0219
   97MPD2    C5 1482   4.552   0.306   0.701 -0.0042  0.3472  0.1317
   97MPD2     H 1483   0.091   0.347   0.969  1.7983  0.4262 -3.0806
   97MPD2    H1 1484   4.705   0.297   0.558 -1.4494 -0.5358 -0.1927
   97MPD2    H2 1485   4.411   0.312   0.860 -0.3844  0.9246 -1.6396
   97MPD2    H3 1486   4.475   0.291   0.626 -0.4857  1.9789  0.3027
   97MPD2     N 1487   0.189   0.355   0.710  0.9017 -0.0407 -0.0810
   97MPD2    H5 1488   0.210   0.361   0.610 -0.2374  1.9319 -0.2114
   97MPD2    N1 1489   4.560   0.301   1.060 -0.4675  0.4184 -0.5321
   97MPD2    H7 1490   4.458   0.297   1.067 -0.3208 -0.8459  1.0063
   98TCq2    C1 1491   0.300   0.358   0.790  0.3397 -0.0449  0.1545
   98TCq2    O2 1492   0.318   0.330   0.910 -0.4830 -0.2296  0.7430
   98TCq2    C2 1493   0.415   0.394   0.718 -0.4903 -0.0184  0.2835
   98TCq2    C3 1494   0.540   0.344   0.757  0.1188  0.3033 -0.3133
   98TCq2    C4 1495   0.651   0.391   0.694  0.1838  0.6137  0.9320
   98TCq2    C5 1496   0.645   0.504   0.616 -0.5409 -0.8258  0.2151
   98TCq2    C6 1497   0.523   0.564   0.594 -0.1647 -1.3670 -0.7370
   98TCq2    C7 1498   0.408   0.509   0.638  0.3847 -0.1327  0.2415
   98TCq2    C8 1499   0.537   0.709   0.565 -0.1943  0.1521 -0.6447
   98TCq2    O4 1500   0.632   0.753   0.506  0.4002  0.4574 -0.0997
   98TCq2    C9 1501   0.782   0.347   0.734  0.2014  0.4448  0.3101
   98TCq2    O5 1502   0.884   0.411   0.691 -0.2965 -0.4045 -0.1721
   98TCq2    O6 1503   0.786   0.245   0.812  1.0146  1.3565  0.3770
   98TCq2    H2 1504   0.556   0.253   0.814 -0.0435  0.3010 -0.2712
   98TCq2    H3 1505   0.740   0.544   0.580 -0.3313 -2.4939 -1.1063
   98TCq2    H4 1506   0.314   0.559   0.618  1.1456  2.4959  3.2476
   99MPD2     C 1507   3.267   1.553   2.284 -0.1426 -0.4945  0.1329
   99MPD2    C1 1508   3.166   1.647   2.291 -0.4623 -0.0425  0.5046
   99MPD2    C2 1509   3.128   1.715   2.168 -0.3228 -0.6449 -0.1086
   99MPD2    C3 1510   3.195   1.694   2.050  0.0743 -0.0495 -0.2566
   99MPD2    C4 1511   3.282   1.590   2.054 -0.1465  0.5271  0.0129
   99MPD2    C5 1512   3.328   1.526   2.168  0.3608  0.6258 -0.3849
   99MPD2     H 1513   3.047   1.784   2.151 -0.5608 -0.8478  0.1879
   99MPD2    H1 1514   3.341   1.554   1.971 -2.4334 -0.7164 -1.0714
   99MPD2    H2 1515   3.313   1.507   2.370 -0.4447 -0.8554  0.1025
   99MPD2    H3 1516   3.402   1.450   2.147  1.6871  1.8264 -0.0315
   99MPD2     N 1517   3.161   1.767   1.936  0.3796  0.4145  0.2783
   99MPD2    H5 1518   3.074   1.821   1.940 -0.5601 -1.0229 -0.8127
   99MPD2    N1 1519   3.105   1.688   2.414  0.0780  0.0463 -0.9605
   99MPD2    H7 1520   3.037   1.763   2.413  0.4794  0.4401  0.5768
  100TCq2    C1 1521   3.110   1.618   2.533 -0.1346 -0.6392  0.1208
  100TCq2    O2 1522   3.182   1.527   2.566  0.1957  0.3782  0.0890
  100TCq2    C2 1523   3.033   1.681   2.636  0.3303 -0.3549 -0.0907
  100TCq2    C3 1524   3.097   1.681   2.759  0.1658  0.3398  0.4796
  100TCq2    C4 1525   3.030   1.730   2.867 -0.0961  0.4342 -0.1923
  100TCq2    C5 1526   2.910   1.791   2.848  0.1146  0.0721  0.0685
  100TCq2    C6 1527   2.844   1.790   2.720  0.2175 -0.0050  1.1135
  100TCq2    C7 1528   2.907   1.730   2.614  0.1992  0.0324 -0.2617
  100TCq2    C8 1529   2.709   1.822   2.720 -0.0434  0.6401  0.8368
  100TCq2    O4 1530   2.647   1.832   2.824 -0.1565 -0.0507 -0.1471
  100TCq2    C9 1531   3.096   1.737   2.997  0.0637  0.1960 -0.4501
  100TCq2    O5 1532   3.222   1.733   2.986 -0.2783  0.1087 -0.1209
  100TCq2    O6 1533   3.016   1.754   3.097  0.3800 -0.1032  0.4040
  100TCq2    H2 1534   3.197   1.645   2.780 -0.4982 -2.3532 -0.9588
  100TCq2    H3 1535   2.846   1.832   2.925  0.9960 -0.1249  0.9069
  100TCq2    H4 1536   2.851   1.718   2.523  0.6765 -0.3660 -0.5083
  101MPD2     C 1537   4.064   3.432  12.761  0.2017  0.2645 -0.7838
  101MPD2    C1 1538   4.013   3.527  12.849 -0.2295  0.3016 -0.7249
  101MPD2    C2 1539   3.939   3.491  12.956 -0.1352 -0.0674 -0.6477
  101MPD2    C3 1540   3.920   3.357  12.986  0.4882 -0.0803  0.8660
  101MPD2    C4 1541   3.979   3.264  12.902 -0.1351  0.1192 -0.5009
  101MPD2    C5 1542   4.050   3.297  12.785 -0.6380  0.3265 -0.8712
  101MPD2     H 1543   3.890   3.568  13.013  0.0106 -0.9273  0.6497
  101MPD2    H1 1544   3.957   3.158  12.914  1.5635 -0.2176 -0.3844
  101MPD2    H2 1545   4.124   3.459  12.675  2.2436 -0.6989  0.3298
  101MPD2    H3 1546   4.080   3.219  12.716  0.9926  1.4678 -1.4546
  101MPD2     N 1547   3.842   3.318  13.098  0.1059 -0.2753  0.4426
  101MPD2    H5 1548   3.821   3.220  13.114  0.9118 -0.4657  0.3469
  101MPD2    N1 1549   4.032   3.661  12.804  0.1991 -0.3866 -0.5048
  101MPD2    H7 1550   4.069   3.678  12.711 -0.2499  3.8667  0.1076
  102TCq2    C1 1551   4.138   3.984  12.455  0.0496  0.1374 -0.7034
  102TCq2    O2 1552   4.242   3.925  12.457  0.1047  0.2293  0.6998
  102TCq2    C2 1553   4.054   3.988  12.576 -0.2622  0.0029 -0.4780
  102TCq2    C3 1554   3.975   4.096  12.608 -0.2809 -0.2515  0.0798
  102TCq2    C4 1555   3.919   4.097  12.728  0.3595  0.7270  0.3185
  102TCq2    C5 1556   3.927   3.996  12.814  0.2396  0.1314 -1.0399
  102TCq2    C6 1557   4.015   3.898  12.791 -0.2730  0.0434  0.6291
  102TCq2    C7 1558   4.073   3.886  12.669 -0.0726 -0.6040  0.6231
  102TCq2    C8 1559   3.999   3.778  12.870 -0.0563  0.2964  0.2068
  102TCq2    O4 1560   3.937   3.788  12.977 -0.3069 -0.3572  0.0478
  102TCq2    C9 1561   3.810   4.189  12.747 -0.1300 -0.5077 -0.0603
  102TCq2    O5 1562   3.792   4.267  12.649 -0.2074 -0.2764  0.0093
  102TCq2    O6 1563   3.762   4.201  12.861  0.1922 -0.4031  0.3214
  102TCq2    H2 1564   3.964   4.179  12.540 -0.7033 -0.9707 -0.7256
  102TCq2    H3 1565   3.863   3.998  12.901  0.7526 -1.6114 -0.6189
  102TCq2    H4 1566   4.152   3.817  12.639  0.1401  0.0136 -0.2322
  103TMC2    C1 1567   2.482   3.651  12.677  0.0908 -0.0560 -0.3241
  103TMC2    C2 1568   2.586   3.624  12.756  0.2325 -0.9791 -0.0984
  103TMC2    C3 1569   2.599   3.695  12.865 -0.4381  0.1169  0.1975
  103TMC2    C4 1570   2.392   3.743  12.707 -0.2773  0.2027  0.2889
  103TMC2    C5 1571   2.411   3.814  12.827 -0.6238 -0.4820 -0.3174
  103TMC2    C6 1572   2.520   3.792  12.910  0.1666 -0.4472 -0.0374
  103TMC2     C 1573   2.454   3.573  12.559  0.2586  0.0424  0.2362
  103TMC2     O 1574   2.343   3.590  12.508  0.5078 -0.3366 -0.2604
  103TMC2     H 1575   2.665   3.550  12.745 -0.0603 -1.2168 -0.5689
  103TMC2    H1 1576   2.313   3.770  12.637  0.9269  1.1145 -0.7221
  103TMC2    H2 1577   2.563   3.863  12.980 -0.0565  1.9634 -2.3670
  103TMC2    C7 1578   2.315   3.910  12.876  0.3077  0.5853  0.0340
  103TMC2    C8 1579   2.723   3.671  12.940 -0.2174 -0.3498 -0.0604
  103TMC2    O1 1580   2.364   3.981  12.963 -1.0732 -0.3969  1.0284
  103TMC2    O2 1581   2.811   3.613  12.879  0.6008  0.7785 -0.0184
  103TMC2    O5 1582   2.678   3.636  13.063  0.0985 -0.3493  0.3200
  103TMC2    H5 1583   2.617   3.695  13.111 -0.7624  1.0585 -2.5223
  104MPD2     C 1584   2.638   3.270  12.481  0.2376  0.1939 -0.2885
  104MPD2    C1 1585   2.545   3.371  12.454 -0.1551 -0.2048  0.3213
  104MPD2    C2 1586   2.431   3.340  12.380  0.6213  0.3419  1.0639
  104MPD2    C3 1587   2.415   3.221  12.312  0.3096 -0.3532 -0.7415
  104MPD2    C4 1588   2.514   3.125  12.334  0.5193  0.6672 -0.5882
  104MPD2    C5 1589   2.623   3.152  12.419  0.1053 -0.0208  0.7282
  104MPD2     H 1590   2.349   3.410  12.372  0.8066  0.4185 -0.1622
  104MPD2    H1 1591   2.507   3.024  12.295 -2.1376  1.1320 -1.2862
  104MPD2    H2 1592   2.725   3.282  12.545  0.3469 -0.0070 -0.4012
  104MPD2    H3 1593   2.698   3.077  12.439  0.1430  0.0410  0.8176
  104MPD2     N 1594   2.306   3.199  12.229  0.4937 -0.3162  0.2573
  104MPD2    H5 1595   2.260   3.286  12.203  1.3873  0.4316  1.1488
  104MPD2    N1 1596   2.559   3.491  12.529  0.4212 -0.0277  0.4708
  104MPD2    H7 1597   2.642   3.504  12.586  0.0875 -2.4362  1.4983
  105MPD2     C 1598   4.167   3.379   0.180  0.3303 -0.3885 -0.8631
  105MPD2    C1 1599   4.053   3.456   0.200 -0.4015  0.0271  0.3589
  105MPD2    C2 1600   4.019   3.500   0.333 -0.4505  0.3540  0.1001
  105MPD2    C3 1601   4.103   3.474   0.437  0.3161 -1.1655  0.5536
  105MPD2    C4 1602   4.223   3.407   0.413 -0.4310  0.6459 -0.1428
  105MPD2    C5 1603   4.246   3.351   0.287  0.2450  0.3256 -0.0101
  105MPD2     H 1604   3.928   3.555   0.356 -1.8555 -1.6225 -0.6700
  105MPD2    H1 1605   4.299   3.389   0.488 -2.2311 -0.4006  1.4624
  105MPD2    H2 1606   4.203   3.335   0.087  1.9185 -0.4581 -0.2224
  105MPD2    H3 1607   4.338   3.297   0.267  1.3549  1.3621  2.3685
  105MPD2     N 1608   4.068   3.526   0.564 -0.0869  0.3910 -0.3826
  105MPD2    H5 1609   3.974   3.564   0.575  0.7968  2.2766  0.6338
  105MPD2    N1 1610   3.989   3.517   0.088 -0.9102 -0.4942 -0.0977
  105MPD2    H7 1611   3.915   3.584   0.102  0.0502  0.5224  0.1095
  106TCq2    C1 1612   4.156   3.530   0.668  0.8887  0.4596  0.4401
  106TCq2    O2 1613   4.281   3.532   0.666 -0.8634 -0.0494  0.3929
  106TCq2    C2 1614   4.091   3.575   0.788  0.3222 -0.6994 -0.0257
  106TCq2    C3 1615   4.170   3.618   0.897 -0.0112 -0.2585 -0.1201
  106TCq2    C4 1616   4.109   3.629   1.014  0.1407  0.2327 -0.1554
  106TCq2    C5 1617   3.975   3.613   1.032 -0.2909 -0.4352 -0.0347
  106TCq2    C6 1618   3.896   3.584   0.923  0.1294  0.6857  0.6755
  106TCq2    C7 1619   3.947   3.560   0.798  0.7183  0.0172 -0.1801
  106TCq2    C8 1620   3.754   3.551   0.946 -0.5212  0.3634  0.0410
  106TCq2    O4 1621   3.679   3.544   0.850 -0.1623  0.7828 -0.2227
  106TCq2    C9 1622   4.184   3.664   1.129  0.4078  0.0156  0.0634
  106TCq2    O5 1623   4.132   3.627   1.241  0.3159 -0.0063 -0.2051
  106TCq2    O6 1624   4.308   3.679   1.120 -0.3190  0.2829 -0.3232
  106TCq2    H2 1625   4.277   3.629   0.885 -0.0870  3.4687  2.4689
  106TCq2    H3 1626   3.941   3.636   1.132  2.5519 -1.6912  1.1938
  106TCq2    H4 1627   3.887   3.521   0.717  0.0277  1.1768 -0.2341
  107TMC2    C1 1628   4.392   2.198  11.707 -0.4331  0.5326  0.1182
  107TMC2    C2 1629   4.391   2.256  11.580  0.4044  0.1811  0.4972
  107TMC2    C3 1630   4.474   2.207  11.482  0.1052  0.2048  0.2287
  107TMC2    C4 1631   4.472   2.091  11.726  0.6287  0.5687  0.2153
  107TMC2    C5 1632   4.541   2.033  11.630 -0.4582 -0.1347  0.7896
  107TMC2    C6 1633   4.547   2.090  11.505  0.5022 -0.3379  0.0311
  107TMC2     C 1634   4.299   2.243  11.806  0.0569 -0.0437  0.4541
  107TMC2     O 1635   4.296   2.171  11.905  0.5426 -0.0915  0.2592
  107TMC2     H 1636   4.342   2.351  11.565  1.0102  0.3908 -0.1371
  107TMC2    H1 1637   4.472   2.042  11.823 -2.4381  1.3182  0.5956
  107TMC2    H2 1638   4.586   2.041  11.417  1.6878 -0.2741  0.5205
  107TMC2    C7 1639   4.580   1.895  11.653  0.2012  1.0730 -0.7623
  107TMC2    C8 1640   4.444   2.239  11.346 -0.5398 -0.5799  1.1830
  107TMC2    O1 1641   4.537   1.828  11.751 -0.1107 -0.0429  0.3578
  107TMC2    O2 1642   4.525   2.209  11.258  0.5709 -0.4733 -0.0263
  107TMC2    O5 1643   4.308   2.253  11.334 -0.6081  0.3818  0.5174
  107TMC2    H5 1644   4.263   2.255  11.421 -1.6960  2.4133 -0.0790
  108MPD2     C 1645   4.016   2.475  11.767  0.3579 -0.3154  0.3073
  108MPD2    C1 1646   4.094   2.388  11.844  0.0599  0.1982  0.8629
  108MPD2    C2 1647   4.051   2.336  11.969  0.2810 -0.0293  0.1174
  108MPD2    C3 1648   3.928   2.382  12.009  0.1692  0.3121  0.4808
  108MPD2    C4 1649   3.866   2.487  11.946 -0.2482  0.6905 -0.6933
  108MPD2    C5 1650   3.911   2.536  11.826 -0.1384 -0.0371 -0.3612
  108MPD2     H 1651   4.105   2.258  12.020  1.2898 -0.6125 -1.8427
  108MPD2    H1 1652   3.769   2.528  11.972  0.5967  0.5997  2.6091
  108MPD2    H2 1653   4.048   2.501  11.667 -0.8924 -0.0243 -0.0166
  108MPD2    H3 1654   3.858   2.615  11.774 -1.5031 -1.2547 -0.8141
  108MPD2     N 1655   3.848   2.321  12.109 -0.1756 -0.4351  0.0658
  108MPD2    H5 1656   3.757   2.363  12.121  0.7449  1.2181  1.3137
  108MPD2    N1 1657   4.215   2.345  11.775  0.8892 -0.5562  0.2697
  108MPD2    H7 1658   4.225   2.383  11.682  0.9834 -1.1939  0.0224
  109MPD2     C 1659   4.038   4.508   2.544 -0.0447 -0.0511 -0.1337
  109MPD2    C1 1660   4.072   4.526   2.416 -0.6607  0.3721  0.1500
  109MPD2    C2 1661   4.203   4.507   2.366  0.5543  0.7792  0.4219
  109MPD2    C3 1662   4.297   4.459   2.447  0.0592 -0.2284 -0.1354
  109MPD2    C4 1663   4.267   4.443   2.579  0.1062  0.0339 -0.0780
  109MPD2    C5 1664   4.138   4.466   2.628 -0.1443 -0.3915 -0.4490
  109MPD2     H 1665   4.222   4.513   2.260  0.5741  1.1537  0.4471
  109MPD2    H1 1666   4.337   4.409   2.654 -1.5178 -0.7043  1.1175
  109MPD2    H2 1667   3.938   4.533   2.577  0.5802  2.2708 -0.0326
  109MPD2    H3 1668   4.115   4.458   2.733 -0.1911 -1.2272 -0.5276
  109MPD2     N 1669   4.423   4.428   2.390  0.0016  0.0494 -0.3940
  109MPD2    H5 1670   4.426   4.420   2.289 -1.0556 -2.4231 -0.2441
  109MPD2    N1 1671   3.957   4.557   2.328  0.6769 -0.4896 -0.2301
  109MPD2    H7 1672   3.865   4.537   2.368  1.4869 -1.6505  1.0493
  110TCq2    C1 1673   4.538   4.397   2.463  0.0897  0.1146 -0.7599
  110TCq2    O2 1674   4.548   4.375   2.583  0.8819 -0.6663  0.3339
  110TCq2    C2 1675   4.664   4.400   2.388 -0.1676  0.1959 -0.3980
  110TCq2    C3 1676   0.063   4.364   2.451 -0.3276  0.6657 -0.2619
  110TCq2    C4 1677   0.185   4.392   2.387 -0.0930  0.0539  0.4680
  110TCq2    C5 1678   0.187   4.469   2.273 -0.0717 -0.0994 -0.0792
  110TCq2    C6 1679   0.067   4.503   2.214 -0.2237 -0.0953 -0.8102
  110TCq2    C7 1680   4.672   4.462   2.265  0.4731 -0.1408  0.3160
  110TCq2    C8 1681   0.058   4.571   2.085  0.1830  0.4647 -0.0773
  110TCq2    O4 1682   4.675   4.612   2.042 -0.1422 -0.2553 -0.5674
  110TCq2    C9 1683   0.307   4.334   2.446  0.3889 -0.0345 -0.1849
  110TCq2    O5 1684   0.418   4.379   2.400 -0.6526  0.4889 -0.7068
  110TCq2    O6 1685   0.305   4.243   2.527 -0.3312  0.2693 -0.2553
  110TCq2    H2 1686   0.064   4.300   2.538  1.1100 -0.4670 -1.1289
  110TCq2    H3 1687   0.281   4.492   2.226  1.7131 -0.9790  3.0188
  110TCq2    H4 1688   4.579   4.479   2.211  0.3096  0.8717  0.9229
  111TMC2    C1 1689   4.502   3.834  10.925  1.1774 -0.0564  0.4018
  111TMC2    C2 1690   4.585   3.793  10.828  0.2119  0.3686  0.4781
  111TMC2    C3 1691   4.718   3.821  10.838  0.0555  0.4093 -0.8933
  111TMC2    C4 1692   4.557   3.891  11.035 -0.6023  0.4271 -1.0817
  111TMC2    C5 1693   4.689   3.913  11.040 -0.3348  0.2789  0.1028
  111TMC2    C6 1694   0.052   3.872  10.945 -0.2464  0.3563 -0.5039
  111TMC2     C 1695   4.355   3.825  10.898 -0.2069  0.3974  0.6486
  111TMC2     O 1696   4.317   3.880  10.796  0.1925  0.4806  0.1459
  111TMC2     H 1697   4.521   3.760  10.748  1.5216 -2.5920  0.6646
  111TMC2    H1 1698   4.488   3.935  11.106 -2.2198 -1.7255 -1.3298
  111TMC2    H2 1699   0.160   3.880  10.940 -0.1280 -0.6134  0.6400
  111TMC2    C7 1700   0.017   3.966  11.167 -0.4618  0.0207  0.2483
  111TMC2    C8 1701   0.085   3.749  10.749  0.5972  0.1922  0.6197
  111TMC2    O1 1702   4.658   3.964  11.255  0.6199  0.2504  0.1149
  111TMC2    O2 1703   0.166   3.675  10.806  0.6875  0.3674  0.1372
  111TMC2    O5 1704   0.017   3.719  10.644  0.0149  0.5357  0.5817
  111TMC2    H5 1705   4.681   3.794  10.619 -0.7256  0.7828  2.9899
  112MPD2     C 1706   3.901   3.926  11.105  0.4736 -0.2940  0.3492
  112MPD2    C1 1707   3.941   3.940  10.973  0.1374 -0.6031  0.2768
  112MPD2    C2 1708   4.063   3.893  10.928 -0.3286  0.0057  0.1817
  112MPD2    C3 1709   4.145   3.832  11.029 -0.1770 -0.4339  0.5958
  112MPD2    C4 1710   4.100   3.806  11.155  0.1713 -0.1721 -0.0628
  112MPD2    C5 1711   3.981   3.856  11.195 -0.5608  0.0353 -0.1897
  112MPD2     H 1712   4.092   3.899  10.824 -2.8071  0.2802 -0.5119
  112MPD2    H1 1713   4.163   3.757  11.228 -0.3895  1.2437  1.3781
  112MPD2    H2 1714   3.806   3.964  11.142  0.4611  1.5735 -1.5858
  112MPD2    H3 1715   3.948   3.845  11.298  1.7146  4.3728  0.9802
  112MPD2     N 1716   4.284   3.799  11.009  0.3456 -0.4243 -0.2455
  112MPD2    H5 1717   4.325   3.765  11.096 -0.0580 -1.7689 -0.5867
  112MPD2    N1 1718   3.873   4.026  10.882 -0.7156 -0.0100 -0.1945
  112MPD2    H7 1719   3.907   4.026  10.787  0.1608 -0.6095  0.1132
  113MPD2     C 1720   2.646   2.455   1.538 -0.2357 -0.7721  0.5861
  113MPD2    C1 1721   2.574   2.578   1.551 -0.1473  0.4237  0.0019
  113MPD2    C2 1722   2.460   2.594   1.483 -0.9521  0.5327  0.3876
  113MPD2    C3 1723   2.412   2.490   1.403  0.1957 -0.1728  0.5015
  113MPD2    C4 1724   2.480   2.371   1.383 -0.0437  0.0892  0.4528
  113MPD2    C5 1725   2.598   2.360   1.456 -0.0652  0.0791 -0.8578
  113MPD2     H 1726   2.401   2.683   1.504 -3.6317 -1.1805  0.2105
  113MPD2    H1 1727   2.443   2.286   1.328 -3.3393  0.4668  2.0929
  113MPD2    H2 1728   2.741   2.433   1.587  0.2261  1.1475  0.5594
  113MPD2    H3 1729   2.643   2.261   1.465  0.8088  0.4873 -0.7760
  113MPD2     N 1730   2.288   2.502   1.334 -0.1676 -0.6226  0.1582
  113MPD2    H5 1731   2.254   2.418   1.288 -0.1693 -1.1635  1.1341
  113MPD2    N1 1732   2.621   2.677   1.646 -0.2163  0.4699 -0.6348
  113MPD2    H7 1733   2.569   2.764   1.637 -0.4571  0.4166  0.2473
  114TCq2    C1 1734   2.199   2.607   1.345  0.0853 -0.7500 -0.0173
  114TCq2    O2 1735   2.218   2.721   1.385  0.0052 -0.7698 -0.3858
  114TCq2    C2 1736   2.080   2.575   1.270  0.5346 -0.5542 -0.3107
  114TCq2    C3 1737   2.056   2.657   1.170  0.1443 -0.0033 -0.5752
  114TCq2    C4 1738   1.981   2.609   1.065 -0.0281  0.1661 -0.1779
  114TCq2    C5 1739   1.945   2.480   1.052 -0.6492 -0.9963  0.3637
  114TCq2    C6 1740   1.958   2.399   1.161  0.2263  0.2938  1.0611
  114TCq2    C7 1741   2.036   2.442   1.261  0.4963 -0.1240  0.1824
  114TCq2    C8 1742   1.963   2.257   1.134 -0.1959  0.4072 -1.1206
  114TCq2    O4 1743   1.957   2.222   1.016 -1.0190 -0.5470 -0.0664
  114TCq2    C9 1744   1.941   2.702   0.971  0.4662  0.3497  0.1328
  114TCq2    O5 1745   1.970   2.826   0.994 -0.2824 -0.8085 -0.0188
  114TCq2    O6 1746   1.914   2.654   0.861  0.0094  0.9360  0.4433
  114TCq2    H2 1747   2.091   2.759   1.174 -0.7557  0.2544  0.8308
  114TCq2    H3 1748   1.892   2.448   0.963  1.5129 -0.8392 -0.9813
  114TCq2    H4 1749   2.041   2.381   1.351  0.1108 -1.3541 -0.6318
  115TMC2    C1 1750   3.584   0.609   0.549 -0.4977 -0.0073 -0.1432
  115TMC2    C2 1751   3.643   0.490   0.593 -0.8819  0.2820  0.0572
  115TMC2    C3 1752   3.779   0.490   0.576  0.1254 -0.0903  0.0575
  115TMC2    C4 1753   3.650   0.712   0.490 -0.2846 -0.0813  0.1841
  115TMC2    C5 1754   3.790   0.697   0.469 -0.4109 -0.8899 -0.2433
  115TMC2    C6 1755   3.860   0.584   0.512 -0.2776 -0.3962 -0.1305
  115TMC2     C 1756   3.439   0.624   0.551 -1.0898 -0.3937  0.6118
  115TMC2     O 1757   3.389   0.741   0.556  0.0763 -0.2930 -0.1457
  115TMC2     H 1758   3.592   0.416   0.653  0.7924 -1.0899 -0.1927
  115TMC2    H1 1759   3.597   0.805   0.471 -0.5396 -0.3764 -0.5429
  115TMC2    H2 1760   3.967   0.581   0.497 -0.2832 -1.0138 -0.0733
  115TMC2    C7 1761   3.864   0.804   0.394  0.1537 -0.7598 -0.6061
  115TMC2    C8 1762   3.855   0.370   0.592 -0.1009 -0.1176  0.6198
  115TMC2    O1 1763   3.985   0.791   0.400 -0.6470 -0.7249 -0.2089
  115TMC2    O2 1764   3.978   0.379   0.589  0.1638  0.1704  0.3537
  115TMC2    O5 1765   3.780   0.275   0.530 -0.0340  0.6847 -0.0293
  115TMC2    H5 1766   3.684   0.294   0.530 -0.7362 -2.8559 -1.3470
  116MPD2     C 1767   2.957   0.479   0.431 -0.5700  0.2982 -0.3783
  116MPD2    C1 1768   3.042   0.384   0.377  0.9098 -0.1496  0.3651
  116MPD2    C2 1769   3.178   0.394   0.416 -0.1672 -0.7641  0.2921
  116MPD2    C3 1770   3.236   0.496   0.492  0.6425 -0.4124  0.8101
  116MPD2    C4 1771   3.149   0.592   0.535 -0.8404 -0.3824  0.0947
  116MPD2    C5 1772   3.013   0.577   0.514 -0.3491  0.3499 -0.9578
  116MPD2     H 1773   3.249   0.322   0.375 -0.7752 -1.8575  1.1500
  116MPD2    H1 1774   3.182   0.673   0.599  0.2617 -1.1151  0.4604
  116MPD2    H2 1775   2.850   0.461   0.425 -0.5703  0.4461 -0.8267
  116MPD2    H3 1776   2.943   0.651   0.549  0.4586  0.2999  0.7371
  116MPD2     N 1777   3.377   0.509   0.509 -0.0463 -0.0212  0.1429
  116MPD2    H5 1778   3.439   0.431   0.489  0.5024  1.1324 -2.7037
  116MPD2    N1 1779   2.977   0.283   0.301  0.0955 -0.1436  0.3096
  116MPD2    H7 1780   2.876   0.283   0.300  0.0991 -0.2778 -0.0743
  117TMC2    C1 1781   1.510   1.949  14.754  1.0238 -0.1102  0.2970
  117TMC2    C2 1782   1.543   1.923  14.886 -0.3462  0.8543  0.3140
  117TMC2    C3 1783   1.661   1.969  14.933  0.4475  0.4115 -0.8857
  117TMC2    C4 1784   1.596   2.025  14.679  0.2292  0.2739 -0.2449
  117TMC2    C5 1785   1.707   2.080  14.735  0.2703  0.0852  0.4783
  117TMC2    C6 1786   1.743   2.048  14.861  0.6421 -0.2014 -0.2912
  117TMC2     C 1787   1.404   1.875  14.696  0.1105  0.0201 -1.0339
  117TMC2     O 1788   1.363   1.779  14.757  0.0851  0.1085  0.1293
  117TMC2     H 1789   1.479   1.874  14.959 -0.4164  0.1268 -0.2364
  117TMC2    H1 1790   1.596   2.041  14.572 -1.3122 -0.3704 -0.3516
  117TMC2    H2 1791   1.837   2.074  14.910  2.3454 -0.9621 -3.1756
  117TMC2    C7 1792   1.768   2.195  14.673  0.2024 -0.1368  0.3193
  117TMC2    C8 1793   1.695   1.953  15.077 -0.5304 -0.1245 -0.6470
  117TMC2    O1 1794   1.732   2.237  14.562 -0.2697 -0.2329 -0.2514
  117TMC2    O2 1795   1.814   1.976  15.100 -0.5904 -0.6051 -0.1706
  117TMC2    O5 1796   1.596   2.021  15.138 -0.0167 -0.6244  0.3761
  117TMC2    H5 1797   1.510   2.004  15.094 -0.6956 -0.5813  1.7050
  118MPD2     C 1798   1.957   2.427  14.873 -0.7056 -0.0909 -0.2047
  118MPD2    C1 1799   1.902   2.374  14.756  0.8057 -0.2459 -0.1498
  118MPD2    C2 1800   1.951   2.411  14.628 -0.0147 -0.2978  0.1500
  118MPD2    C3 1801   2.056   2.500  14.621  0.6587 -0.5620 -0.0396
  118MPD2    C4 1802   2.097   2.565  14.739  0.2043  0.0143 -0.2645
  118MPD2    C5 1803   2.049   2.527  14.865  0.2513 -0.3126 -0.9225
  118MPD2     H 1804   1.928   2.349  14.542 -1.7555 -0.7371  0.9417
  118MPD2    H1 1805   2.178   2.637  14.733 -1.8455  2.2889 -0.6605
  118MPD2    H2 1806   1.916   2.391  14.967  1.2962  0.2957  0.8245
  118MPD2    H3 1807   2.082   2.575  14.956  1.8950 -0.0747 -1.6371
  118MPD2     N 1808   2.124   2.540  14.504  0.2694 -0.0629 -0.0429
  118MPD2    H5 1809   2.191   2.616  14.514 -1.2476  1.0004  2.1140
  118MPD2    N1 1810   1.817   2.272  14.777 -0.1479  0.5839 -0.0202
  118MPD2    H7 1811   1.809   2.237  14.872  2.6129  0.6323  0.2430
  119MPD2     C 1812   0.316   3.300  14.016  0.2188 -0.0849 -1.0876
  119MPD2    C1 1813   0.199   3.361  13.986 -0.6016  0.2669 -0.6841
  119MPD2    C2 1814   0.162   3.395  13.854 -0.0490 -0.2933  0.2103
  119MPD2    C3 1815   0.240   3.361  13.746  0.4166 -0.6239 -0.2024
  119MPD2    C4 1816   0.356   3.299  13.778  0.5401 -1.2207  0.0102
  119MPD2    C5 1817   0.392   3.275  13.910 -0.3143 -1.2429 -0.1839
  119MPD2     H 1818   0.073   3.453  13.829 -0.0197  0.2547  1.3523
  119MPD2    H1 1819   0.420   3.246  13.709  0.5135  0.4348 -1.2941
  119MPD2    H2 1820   0.350   3.279  14.117  1.8129  0.2008 -1.5615
  119MPD2    H3 1821   0.493   3.240  13.931  0.0105  0.5727  1.3313
  119MPD2     N 1822   0.198   3.376  13.610 -0.0842 -0.1364 -0.0175
  119MPD2    H5 1823   0.255   3.335  13.537 -2.5989 -0.7227 -1.6356
  119MPD2    N1 1824   0.117   3.402  14.093 -0.1124  0.3455 -0.6007
  119MPD2    H7 1825   0.160   3.428  14.181  0.9066  1.5028 -1.4259
  120TCq2    C1 1826   0.071   3.408  13.561 -0.1127  0.4555 -0.3515
  120TCq2    O2 1827   4.691   3.428  13.631  0.6773  0.3018 -0.3529
  120TCq2    C2 1828   0.044   3.390  13.420  0.3500  0.5275 -0.1036
  120TCq2    C3 1829   0.135   3.407  13.319  0.4472 -0.2103 -0.5011
  120TCq2    C4 1830   0.097   3.397  13.188 -0.5918  0.0541 -0.1847
  120TCq2    C5 1831   4.692   3.374  13.158 -0.0409  0.2334 -0.4979
  120TCq2    C6 1832   4.605   3.335  13.260 -0.3623 -0.6413 -0.3263
  120TCq2    C7 1833   4.640   3.342  13.389 -0.0929 -1.1369  0.0799
  120TCq2    C8 1834   4.469   3.277  13.227 -0.0417  0.0876  0.0139
  120TCq2    O4 1835   4.437   3.268  13.109 -0.3912 -0.1204 -0.2841
  120TCq2    C9 1836   0.189   3.413  13.079 -0.4144 -0.4129 -0.4162
  120TCq2    O5 1837   0.149   3.429  12.964  0.4700 -0.1606 -0.6810
  120TCq2    O6 1838   0.311   3.417  13.118  0.4844 -0.0574  0.7313
  120TCq2    H2 1839   0.237   3.435  13.341  0.0383  2.4859 -2.0710
  120TCq2    H3 1840   4.661   3.383  13.054  1.1276  1.1497 -0.7648
  120TCq2    H4 1841   4.579   3.312  13.473  1.4754  1.6168  2.1901
  121TMC2    C1 1842   1.530   0.479  14.186 -0.4886 -0.5302 -0.4646
  121TMC2    C2 1843   1.568   0.374  14.259  0.0810 -0.4619  0.1021
  121TMC2    C3 1844   1.480   0.271  14.265  0.4334  0.4221 -0.5658
  121TMC2    C4 1845   1.408   0.500  14.141  0.1579  0.6330 -0.0168
  121TMC2    C5 1846   1.321   0.399  14.164  0.2209  1.1827  0.1456
  121TMC2    C6 1847   1.352   0.287  14.228 -1.0226  0.2841  0.0213
  121TMC2     C 1848   1.632   0.566  14.142  1.0797 -0.4055  0.4038
  121TMC2     O 1849   1.719   0.600  14.222  0.3694 -0.2455  0.2050
  121TMC2     H 1850   1.674   0.371  14.283  0.1915 -1.3312 -0.4766
  121TMC2    H1 1851   1.379   0.596  14.099 -0.5795  0.9550  1.2160
  121TMC2    H2 1852   1.275   0.213  14.246  1.1266 -1.8209  0.5732
  121TMC2    C7 1853   1.187   0.423  14.101 -0.2876  0.3308  0.1282
  121TMC2    C8 1854   1.504   0.164  14.355 -1.2268 -0.0889  0.1658
  121TMC2    O1 1855   1.171   0.537  14.064  0.4151  0.3024  0.0469
  121TMC2    O2 1856   1.408   0.103  14.400  0.0889 -0.2367  0.3574
  121TMC2    O5 1857   1.635   0.152  14.368 -0.3113 -0.1588 -0.1142
  121TMC2    H5 1858   1.686   0.179  14.288 -2.4447 -0.6956 -1.6445
  122MPD2     C 1859   1.822   0.713  13.972  0.3044 -0.2204  0.5035
  122MPD2    C1 1860   1.708   0.650  13.920  0.5459  0.0375  0.2311
  122MPD2    C2 1861   1.681   0.677  13.784 -0.1462  0.8897  0.0503
  122MPD2    C3 1862   1.763   0.754  13.705 -0.1004  0.1384 -0.7564
  122MPD2    C4 1863   1.881   0.803  13.757  0.3995 -0.5975  0.1236
  122MPD2    C5 1864   1.902   0.788  13.889  0.8387  0.2364 -0.2125
  122MPD2     H 1865   1.592   0.632  13.741  1.6460 -2.3390 -0.2514
  122MPD2    H1 1866   1.950   0.871  13.708  0.7847 -0.2238  1.1888
  122MPD2    H2 1867   1.860   0.704  14.073  2.6849  0.6445 -0.3300
  122MPD2    H3 1868   1.987   0.835  13.937  0.0160 -1.5243  2.9714
  122MPD2     N 1869   1.731   0.790  13.572  0.3837  0.3866  0.3472
  122MPD2    H5 1870   1.792   0.861  13.532  1.7351 -1.3899 -0.7266
  122MPD2    N1 1871   1.615   0.582  14.006  0.2869  0.8086 -0.1518
  122MPD2    H7 1872   1.541   0.535  13.955  0.9391 -1.5348  1.0970
  123MPD2     C 1873   4.325   3.179   9.396 -0.2371  0.3266  0.3047
  123MPD2    C1 1874   4.372   3.121   9.512 -0.5957 -0.0310  0.3361
  123MPD2    C2 1875   4.501   3.144   9.555 -0.5580  0.8744 -0.1960
  123MPD2    C3 1876   4.588   3.202   9.457 -0.4869 -0.3285 -0.0637
  123MPD2    C4 1877   4.536   3.261   9.345 -0.4526 -0.4327  0.1534
  123MPD2    C5 1878   4.409   3.250   9.315 -0.2341 -0.6480 -0.5345
  123MPD2     H 1879   4.545   3.110   9.648 -1.2459 -2.7012 -1.1948
  123MPD2    H1 1880   4.599   3.301   9.267 -1.7107  0.5110 -0.3736
  123MPD2    H2 1881   4.221   3.170   9.367  0.6009 -3.1732 -1.5869
  123MPD2    H3 1882   4.363   3.292   9.226 -1.7953 -0.6758  0.2702
  123MPD2     N 1883   0.002   3.208   9.494 -0.6951  1.0013 -0.4864
  123MPD2    H5 1884   0.026   3.182   9.589 -0.3239 -2.1603 -1.4446
  123MPD2    N1 1885   4.278   3.056   9.591  0.0080  0.4611 -0.2787
  123MPD2    H7 1886   4.183   3.065   9.557  0.0000  0.8247 -0.1565
  124TCq2    C1 1887   0.110   3.260   9.419  0.1958 -0.3804 -0.2844
  124TCq2    O2 1888   0.112   3.324   9.318  0.4231  0.4651 -0.3262
  124TCq2    C2 1889   0.227   3.293   9.504  0.5197 -0.4286  0.3447
  124TCq2    C3 1890   0.318   3.372   9.446 -0.0103  0.1977 -0.5996
  124TCq2    C4 1891   0.408   3.435   9.527 -0.2336  0.2045 -0.1100
  124TCq2    C5 1892   0.405   3.426   9.660 -0.3379 -0.4066 -0.2893
  124TCq2    C6 1893   0.307   3.348   9.715  0.0862 -0.0817  0.3878
  124TCq2    C7 1894   0.215   3.280   9.639  0.0243  0.0319  0.1046
  124TCq2    C8 1895   0.293   3.335   9.858  0.6854  0.2975 -0.1847
  124TCq2    O4 1896   0.244   3.234   9.899  0.0774 -0.3751  0.8378
  124TCq2    C9 1897   0.507   3.524   9.468  0.3415  0.2337  0.6300
  124TCq2    O5 1898   0.508   3.533   9.342  0.2322 -0.2804  0.5048
  124TCq2    O6 1899   0.584   3.588   9.542  0.2396 -0.1313 -0.0922
  124TCq2    H2 1900   0.328   3.389   9.340  1.0025  0.3527 -0.4762
  124TCq2    H3 1901   0.490   3.468   9.713 -1.6739 -1.8654  3.0422
  124TCq2    H4 1902   0.135   3.226   9.690  1.5151 -3.1771 -0.9660
  125TMC2    C1 1903   4.309   0.643   9.198  0.0116 -0.0377 -0.1267
  125TMC2    C2 1904   4.318   0.551   9.102  0.3184  0.4876  0.4217
  125TMC2    C3 1905   4.432   0.553   9.025 -0.1621  0.7594  0.2421
  125TMC2    C4 1906   4.406   0.726   9.232 -0.0543  0.0591 -0.2815
  125TMC2    C5 1907   4.520   0.721   9.154 -0.5654 -0.3635  0.1633
  125TMC2    C6 1908   4.538   0.640   9.049 -0.6492 -0.0419 -1.0335
  125TMC2     C 1909   4.187   0.638   9.274 -0.7502 -0.3715  0.0566
  125TMC2     O 1910   4.084   0.602   9.218 -0.8379 -0.1436 -0.2089
  125TMC2     H 1911   4.237   0.487   9.068 -1.0558  2.0886  0.6932
  125TMC2    H1 1912   4.394   0.798   9.313 -0.2482  0.5541 -0.7462
  125TMC2    H2 1913   4.624   0.641   8.983  0.6398  0.3115  0.6644
  125TMC2    C7 1914   4.624   0.811   9.197 -0.5847  0.5665 -0.1777
  125TMC2    C8 1915   4.438   0.448   8.921 -0.6734 -0.2937  0.0073
  125TMC2    O1 1916   4.596   0.924   9.232 -0.2494  0.2150  0.5727
  125TMC2    O2 1917   4.388   0.337   8.941  0.0147 -0.5272  0.4318
  125TMC2    O5 1918   4.529   0.475   8.827  0.0531  0.0534  0.1637
  125TMC2    H5 1919   4.522   0.572   8.815  1.4246 -0.1285 -2.2609
  126MPD1     C 1920   3.911   0.736   9.694  1.2011  0.2854  0.0850
  126MPD1    C1 1921   4.040   0.778   9.721  0.4886 -0.3913 -0.2334
  126MPD1    C2 1922   4.137   0.760   9.620  0.5921 -1.1325 -0.5856
  126MPD1    C3 1923   4.102   0.704   9.496  0.2897 -0.4716 -0.7153
  126MPD1    C4 1924   3.972   0.658   9.480 -0.0455  0.6307  0.2432
  126MPD1    C5 1925   3.883   0.676   9.575 -0.6563  0.9231  0.0105
  126MPD1     H 1926   4.235   0.805   9.634  0.7047 -1.6798  0.3383
  126MPD1    H1 1927   3.929   0.625   9.386 -0.4155  3.7032 -0.6763
  126MPD1    H2 1928   3.824   0.742   9.758  0.6871 -0.8569 -0.5076
  126MPD1    H3 1929   3.785   0.639   9.550 -0.6576  0.2010  1.0935
  126MPD1     N 1930   4.201   0.698   9.398  0.0639 -0.4533  0.6723
  126MPD1    H5 1931   4.293   0.729   9.428 -0.9285  0.7637  2.4989
  126MPD1    N1 1932   4.065   0.865   9.829 -0.4087  0.1089 -0.1663
  126MPD1    H6 1933   3.994   0.851   9.901  1.2315  1.3260  1.6908
  126MPD1    H7 1934   4.159   0.844   9.860 -1.3413 -2.6333  0.7479
  127MPD2     C 1935   0.986   3.923   9.402  0.5971  1.1715 -0.3774
  127MPD2    C1 1936   1.074   3.925   9.503 -0.5294 -0.9985 -0.5781
  127MPD2    C2 1937   1.160   4.030   9.506  0.5511 -1.0870 -0.5164
  127MPD2    C3 1938   1.165   4.117   9.408  0.3841 -0.6362 -0.1057
  127MPD2    C4 1939   1.094   4.095   9.291 -0.7292 -0.4911  0.6366
  127MPD2    C5 1940   0.996   4.005   9.291 -0.4010  0.1907  0.0291
  127MPD2     H 1941   1.227   4.040   9.591 -0.4905  3.5429 -0.2694
  127MPD2    H1 1942   1.097   4.164   9.207  0.1782 -1.3486 -0.0318
  127MPD2    H2 1943   0.904   3.853   9.403  1.6396 -0.0576 -1.1233
  127MPD2    H3 1944   0.925   4.015   9.209  1.1181  1.0052 -1.1927
  127MPD2     N 1945   1.263   4.220   9.419  0.1015 -1.1846  0.0632
  127MPD2    H5 1946   1.310   4.219   9.509  0.2842  1.3350  0.0075
  127MPD2    N1 1947   1.079   3.820   9.598  0.2992  0.3063  0.2169
  127MPD2    H7 1948   1.008   3.748   9.601 -1.5270  2.1344  0.8645
  128TCq2    C1 1949   1.178   3.815   9.698  0.6938  0.4293  0.2186
  128TCq2    O2 1950   1.284   3.876   9.707 -0.5572  0.4745 -0.0510
  128TCq2    C2 1951   1.162   3.710   9.800 -0.4923 -0.2080 -0.9030
  128TCq2    C3 1952   1.274   3.663   9.863  0.4670  0.3384 -0.1441
  128TCq2    C4 1953   1.269   3.565   9.947 -0.6698 -0.2782  0.4159
  128TCq2    C5 1954   1.147   3.506   9.970  1.0121 -0.3318 -0.4633
  128TCq2    C6 1955   1.032   3.557   9.919  0.2600 -0.2661  0.8352
  128TCq2    C7 1956   1.037   3.667   9.835 -0.3089  0.0708  0.5396
  128TCq2    C8 1957   0.908   3.475   9.923  0.3699  0.5754 -0.1432
  128TCq2    O4 1958   0.819   3.510   9.847  0.2686  0.0145 -0.4440
  128TCq2    C9 1959   1.383   3.505  10.014  0.4252 -0.4178 -0.2699
  128TCq2    O5 1960   1.366   3.413  10.100  0.0652  0.0712 -0.4495
  128TCq2    O6 1961   1.493   3.560   9.997  0.0702  0.3273  0.1815
  128TCq2    H2 1962   1.371   3.704   9.836  1.7344 -2.4655  0.1270
  128TCq2    H3 1963   1.146   3.423  10.040 -3.7751 -0.3918 -0.5868
  128TCq2    H4 1964   0.946   3.693   9.783  1.3408  1.6576 -1.5491
  129MPD2     C 1965   4.481   4.404   1.634  0.0760  0.4183 -0.2291
  129MPD2    C1 1966   4.613   4.373   1.638 -0.3242  0.0913 -0.3261
  129MPD2    C2 1967   4.690   4.425   1.540  0.5276 -0.0855  0.2518
  129MPD2    C3 1968   4.632   4.500   1.439 -0.1905 -0.4783 -0.0998
  129MPD2    C4 1969   4.500   4.530   1.433 -1.3521  0.3955 -0.5058
  129MPD2    C5 1970   4.428   4.484   1.535 -0.2871  0.3759 -0.2556
  129MPD2     H 1971   0.073   4.400   1.543  0.5397 -0.2119 -1.0786
  129MPD2    H1 1972   4.448   4.577   1.351 -2.6326 -0.6990 -0.3208
  129MPD2    H2 1973   4.405   4.381   1.709 -0.9102  1.3593 -0.9284
  129MPD2    H3 1974   4.321   4.497   1.529 -0.3929 -0.8976 -1.2359
  129MPD2     N 1975   0.004   4.540   1.341  0.7329 -0.3104  0.9403
  129MPD2    H5 1976   0.101   4.516   1.356  0.9378 -1.0192 -1.5967
  129MPD2    N1 1977   4.684   4.298   1.738  0.4564 -0.5898 -0.0813
  129MPD2    H7 1978   0.060   4.277   1.725  0.2797 -2.2735  1.3001
  130TCq2    C1 1979   4.621   4.260   1.854  0.0755  0.2845  0.0363
  130TCq2    O2 1980   4.508   4.277   1.890 -0.0985 -0.0348 -0.1990
  130TCq2    C2 1981   4.716   4.203   1.940  0.4946 -0.6012  0.1108
  130TCq2    C3 1982   0.132   4.235   1.930  1.3090  0.1530  0.0865
  130TCq2    C4 1983   0.210   4.197   2.033 -0.0805 -0.0501  0.4248
  130TCq2    C5 1984   0.163   4.135   2.142 -0.8049  0.9796 -0.5656
  130TCq2    C6 1985   0.030   4.109   2.151 -0.0471  0.2284  0.1831
  130TCq2    C7 1986   4.663   4.144   2.051 -0.3051 -0.2106 -0.0561
  130TCq2    C8 1987   4.692   4.037   2.266 -0.0695  0.1912  0.1791
  130TCq2    O4 1988   4.585   3.980   2.241 -0.3099 -0.2864 -0.4561
  130TCq2    C9 1989   0.352   4.221   2.024 -0.6264 -0.1596 -0.1048
  130TCq2    O5 1990   0.415   4.248   1.917 -0.8435  0.1373 -0.3149
  130TCq2    O6 1991   0.404   4.218   2.136  0.0187  0.2871 -0.8573
  130TCq2    H2 1992   0.176   4.280   1.841 -0.2044  2.0929  0.3192
  130TCq2    H3 1993   0.232   4.104   2.219 -1.6129  2.7107  0.8517
  130TCq2    H4 1994   4.557   4.127   2.065 -0.3496 -0.2283 -0.4193
  131MPD2     C 1995   3.634   3.510   9.658  0.2020  0.7883 -0.2271
  131MPD2    C1 1996   3.769   3.533   9.691  0.2401 -0.1734 -0.1951
  131MPD2    C2 1997   3.838   3.420   9.722 -0.2725 -0.6216 -0.2009
  131MPD2    C3 1998   3.785   3.298   9.733  0.1405 -0.0247 -0.0499
  131MPD2    C4 1999   3.658   3.269   9.704  0.6036  0.8839  0.1228
  131MPD2    C5 2000   3.584   3.377   9.665 -0.2845  0.0360  0.1750
  131MPD2     H 2001   3.939   3.432   9.759 -0.5409 -0.3206  0.4305
  131MPD2    H1 2002   3.622   3.169   9.682  0.4750  1.3133 -1.6583
  131MPD2    H2 2003   3.563   3.591   9.646  0.2848  0.7918 -0.6967
  131MPD2    H3 2004   3.481   3.355   9.640 -0.5551 -1.1069  2.2306
  131MPD2     N 2005   3.874   3.192   9.759 -0.0660  0.5017 -0.1442
  131MPD2    H5 2006   3.972   3.219   9.754 -0.2238  1.1230  0.0380
  131MPD2    N1 2007   3.812   3.666   9.685 -0.0782 -0.5004  0.1493
  131MPD2    H7 2008   3.749   3.739   9.651  0.4373 -1.2508 -2.3785
  132TCq2    C1 2009   4.202   4.072   9.561 -0.4248 -0.0213  0.1486
  132TCq2    O2 2010   4.265   3.984   9.498 -0.4100 -0.0402  0.3656
  132TCq2    C2 2011   4.083   4.035   9.634 -0.6107  0.7074 -0.2624
  132TCq2    C3 2012   3.993   4.127   9.676 -0.2100  0.7704 -0.2124
  132TCq2    C4 2013   3.877   4.076   9.733 -0.4470  1.0361 -0.4555
  132TCq2    C5 2014   3.850   3.936   9.731 -0.4408  0.5010  0.1665
  132TCq2    C6 2015   3.952   3.849   9.689  0.1755  0.2557 -0.2308
  132TCq2    C7 2016   4.064   3.899   9.641 -0.1567  0.2929  0.3439
  132TCq2    C8 2017   3.942   3.707   9.702  0.7716  0.2842  0.0325
  132TCq2    O4 2018   4.048   3.641   9.699  0.6429  0.0764 -0.5209
  132TCq2    C9 2019   3.783   4.169   9.779  0.0561 -0.1022 -0.2661
  132TCq2    O5 2020   3.701   4.126   9.863 -0.6210  0.0931  0.2110
  132TCq2    O6 2021   3.799   4.289   9.747  0.7573  0.1480  0.2269
  132TCq2    H2 2022   4.005   4.234   9.661  1.2569  0.5647 -0.4875
  132TCq2    H3 2023   3.757   3.901   9.775 -1.1171  0.6016 -1.2082
  132TCq2    H4 2024   4.133   3.829   9.597 -1.3891 -0.4878 -0.3426
  133MPD2     C 2025   2.248   3.589   9.494 -0.2847  1.0809 -0.8746
  133MPD2    C1 2026   2.364   3.512   9.489  0.3533  0.5965  0.2045
  133MPD2    C2 2027   2.487   3.576   9.460 -0.1727 -0.5041  0.7759
  133MPD2    C3 2028   2.493   3.712   9.455  0.3577  0.5446 -0.1900
  133MPD2    C4 2029   2.378   3.785   9.449 -0.3659  0.4346 -0.0343
  133MPD2    C5 2030   2.252   3.725   9.463 -0.4655 -0.0440 -0.1595
  133MPD2     H 2031   2.576   3.516   9.443 -1.7351 -3.0328  1.6334
  133MPD2    H1 2032   2.369   3.892   9.441 -2.2305  0.5226  3.2966
  133MPD2    H2 2033   2.150   3.547   9.509  1.6189 -3.2009 -0.4399
  133MPD2    H3 2034   2.159   3.779   9.451  0.3226  1.0808 -1.1540
  133MPD2     N 2035   2.617   3.785   9.449 -0.3598 -0.2962 -0.3061
  133MPD2    H5 2036   2.604   3.885   9.444  2.5908  0.0646 -0.9128
  133MPD2    N1 2037   2.344   3.372   9.511  0.2216  0.3804 -0.8171
  133MPD2    H7 2038   2.257   3.329   9.541  1.7839 -2.9091 -0.9512
  134TCq2    C1 2039   2.438   3.275   9.481 -0.0199 -0.3553  0.4129
  134TCq2    O2 2040   2.543   3.293   9.419 -0.1279  0.0416 -0.0120
  134TCq2    C2 2041   2.396   3.139   9.521 -0.4551 -0.6094  0.0482
  134TCq2    C3 2042   2.464   3.035   9.463 -0.0985 -0.8631  0.4620
  134TCq2    C4 2043   2.407   2.908   9.472 -0.0988  0.2638 -0.8529
  134TCq2    C5 2044   2.295   2.886   9.542  0.0120 -0.0231 -0.0418
  134TCq2    C6 2045   2.236   2.991   9.613 -0.9278  0.2818 -0.0290
  134TCq2    C7 2046   2.291   3.114   9.603  0.2508 -0.1507 -1.0518
  134TCq2    C8 2047   2.091   2.987   9.628 -0.1007  0.6515 -0.0355
  134TCq2    O4 2048   2.045   3.092   9.661 -0.2073 -0.0274  0.5247
  134TCq2    C9 2049   2.457   2.799   9.396  0.7242  0.5105  0.3901
  134TCq2    O5 2050   2.569   2.821   9.338  0.5449 -0.5248 -0.1894
  134TCq2    O6 2051   2.380   2.698   9.378  0.4949  0.1927  0.0622
  134TCq2    H2 2052   2.550   3.060   9.402  0.8982 -2.5633  1.1488
  134TCq2    H3 2053   2.257   2.784   9.545  3.4429 -1.2823  1.1110
  134TCq2    H4 2054   2.255   3.198   9.661  0.4096 -0.9386  0.2021
  135MPD2     C 2055   1.603   0.614   9.490 -0.2644  0.0949  0.6490
  135MPD2    C1 2056   1.535   0.566   9.383  0.4616 -0.7672  0.1723
  135MPD2    C2 2057   1.565   0.436   9.331 -0.6332  0.0722  0.3628
  135MPD2    C3 2058   1.667   0.366   9.388  0.0692  0.7916 -0.5029
  135MPD2    C4 2059   1.738   0.418   9.493  0.8266  0.1755  0.8709
  135MPD2    C5 2060   1.702   0.537   9.549  0.0505 -0.3808 -0.2184
  135MPD2     H 2061   1.497   0.388   9.261 -1.2175  1.4281 -0.0046
  135MPD2    H1 2062   1.806   0.349   9.543  0.1421 -0.5470  0.8132
  135MPD2    H2 2063   1.585   0.710   9.536  1.3281  0.6432  0.1174
  135MPD2    H3 2064   1.760   0.567   9.635  0.6818  3.3619 -1.9196
  135MPD2     N 2065   1.704   0.235   9.350 -0.1321  1.0040  0.3797
  135MPD2    H5 2066   1.777   0.190   9.404 -1.2307  0.4987  1.4525
  135MPD2    N1 2067   1.432   0.640   9.326  0.1912  0.1896 -0.1328
  135MPD2    H7 2068   1.396   0.606   9.237 -1.2208  3.6200 -0.8795
  136TCq2    C1 2069   1.358   0.740   9.375 -0.2953 -1.0478  0.7697
  136TCq2    O2 2070   1.353   0.782   9.492  0.4172  0.3115  0.1200
  136TCq2    C2 2071   1.267   0.797   9.275 -0.6626 -0.4622 -0.0935
  136TCq2    C3 2072   1.281   0.762   9.142 -0.8054  0.3064  0.5401
  136TCq2    C4 2073   1.174   0.807   9.068 -0.2205  0.7665  0.6648
  136TCq2    C5 2074   1.071   0.885   9.111  0.0116 -0.3606 -0.3168
  136TCq2    C6 2075   1.062   0.920   9.239  0.0291 -0.1403  0.2077
  136TCq2    C7 2076   1.158   0.870   9.321 -0.2821 -0.5623 -0.1892
  136TCq2    C8 2077   0.936   0.979   9.283 -1.2404  0.0061 -0.3593
  136TCq2    O4 2078   0.905   1.078   9.219  0.1081 -0.1065  0.3409
  136TCq2    C9 2079   1.176   0.766   8.928  0.1759 -0.6911 -0.2310
  136TCq2    O5 2080   1.060   0.752   8.879  0.4119 -0.0321 -0.4240
  136TCq2    O6 2081   1.272   0.700   8.884 -0.5681 -0.4514 -0.8947
  136TCq2    H2 2082   1.368   0.714   9.098 -2.1894 -1.9763  0.3184
  136TCq2    H3 2083   0.990   0.916   9.045 -0.3924  0.8732  0.7731
  136TCq2    H4 2084   1.144   0.889   9.427  1.3725  0.5058 -0.1589
  137MPD2     C 2085   0.905   4.444   9.437  0.0812 -0.1715  0.2841
  137MPD2    C1 2086   0.928   4.578   9.447 -0.0273  0.3034 -0.7765
  137MPD2    C2 2087   1.033   4.618   9.526  0.1043  0.8538  0.1272
  137MPD2    C3 2088   1.101   4.533   9.608  0.6646 -0.9834 -0.0961
  137MPD2    C4 2089   1.067   4.400   9.603 -0.2503 -0.2047 -0.0232
  137MPD2    C5 2090   0.963   4.357   9.523  0.4773 -0.9165 -0.0530
  137MPD2     H 2091   1.068   4.720   9.523 -1.5966  1.4948  2.2159
  137MPD2    H1 2092   1.117   4.327   9.667  0.9536  0.8960  0.2949
  137MPD2    H2 2093   0.824   4.407   9.374 -1.3930  0.7788  1.5999
  137MPD2    H3 2094   0.938   4.252   9.527  0.6110 -0.9695 -0.6983
  137MPD2     N 2095   1.191   4.582   9.702  0.1205  0.0752 -0.1467
  137MPD2    H5 2096   1.212   4.681   9.694 -0.1965  0.3105  2.0506
  137MPD2    N1 2097   0.847   4.661   9.370 -0.7503  0.2344  0.7667
  137MPD2    H7 2098   0.777   4.617   9.311  1.8574 -2.2827 -0.4954
  138TCq2    C1 2099   0.857   0.072   9.362  0.2825  0.1263 -0.5193
  138TCq2    O2 2100   0.901   0.146   9.450  0.0704 -0.3321  0.1377
  138TCq2    C2 2101   0.749   0.119   9.284 -0.4301  0.4848 -0.3451
  138TCq2    C3 2102   0.680   0.032   9.196  0.4013  0.0361 -0.6992
  138TCq2    C4 2103   0.551   0.056   9.172  0.0333 -0.0948  1.0727
  138TCq2    C5 2104   0.475   0.161   9.213  0.3458  0.2143  1.2258
  138TCq2    C6 2105   0.549   0.251   9.291 -0.4043 -0.2670 -0.3596
  138TCq2    C7 2106   0.681   0.235   9.328 -0.2041  0.5727 -0.1101
  138TCq2    C8 2107   0.493   0.378   9.330  0.0377 -0.4001  0.4941
  138TCq2    O4 2108   0.562   0.465   9.377  0.2574 -0.0534 -0.1865
  138TCq2    C9 2109   0.479   4.676   9.095  0.5654 -0.4451  0.1007
  138TCq2    O5 2110   0.535   4.562   9.082  0.3264 -0.2744  0.0765
  138TCq2    O6 2111   0.355   4.692   9.080  0.0485  0.6439  0.2843
  138TCq2    H2 2112   0.726   4.667   9.150 -1.5591 -0.7239 -1.1989
  138TCq2    H3 2113   0.379   0.185   9.169  2.0889  3.1231 -1.0138
  138TCq2    H4 2114   0.731   0.306   9.393  1.2456  0.3506 -0.9908
  139TMC2    C1 2115   1.454   2.938  13.317  0.1845  0.3833 -0.3549
  139TMC2    C2 2116   1.511   3.051  13.259  0.2276 -0.1629  0.0840
  139TMC2    C3 2117   1.456   3.171  13.271 -0.0452 -0.4778 -0.2350
  139TMC2    C4 2118   1.344   2.949  13.401 -0.4034 -0.2341  0.5609
  139TMC2    C5 2119   1.294   3.075  13.410 -0.1477 -0.3583  0.5110
  139TMC2    C6 2120   1.334   3.185  13.339 -0.3715 -0.3581 -0.4345
  139TMC2     C 2121   1.494   2.804  13.283  0.1290 -0.1403 -0.1964
  139TMC2     O 2122   1.453   2.707  13.342  0.5529 -0.8172  0.3025
  139TMC2     H 2123   1.602   3.059  13.201 -1.4676 -0.0718 -2.5514
  139TMC2    H1 2124   1.289   2.868  13.447 -1.5057  1.3250  1.9857
  139TMC2    H2 2125   1.293   3.283  13.364  2.9659  0.4637  1.8740
  139TMC2    C7 2126   1.200   3.099  13.525 -0.0547  0.7212 -0.3438
  139TMC2    C8 2127   1.503   3.270  13.178 -0.5585 -0.4648 -0.4245
  139TMC2    O1 2128   1.133   3.201  13.515  0.7716  0.2713 -0.2838
  139TMC2    O2 2129   1.622   3.287  13.162 -0.2512 -0.0832  0.1723
  139TMC2    O5 2130   1.406   3.296  13.087 -0.5353 -0.1108  0.1572
  139TMC2    H5 2131   1.318   3.264  13.116 -2.5049  3.9079 -1.3783
  140MPD2     C 2132   1.643   2.728  12.961  0.5119  0.2289 -0.3868
  140MPD2    C1 2133   1.595   2.702  13.089 -0.6645  0.5384 -0.6689
  140MPD2    C2 2134   1.609   2.567  13.141  0.1883  0.4982  0.8336
  140MPD2    C3 2135   1.664   2.464  13.065  0.2979  0.1124  0.0011
  140MPD2    C4 2136   1.721   2.503  12.940  0.9612  0.2285  0.1988
  140MPD2    C5 2137   1.709   2.633  12.892  0.5338  0.0273 -0.7665
  140MPD2     H 2138   1.598   2.558  13.249  0.7065 -1.1149  0.7502
  140MPD2    H1 2139   1.783   2.432  12.886  0.3714 -1.3546  1.5742
  140MPD2    H2 2140   1.632   2.827  12.919  1.3622  1.6936  2.8370
  140MPD2    H3 2141   1.762   2.663  12.802 -0.6989  0.6196 -1.2882
  140MPD2     N 2142   1.701   2.334  13.108  0.3114 -0.0163  0.1258
  140MPD2    H5 2143   1.738   2.268  13.041  0.4179  0.5218 -0.3455
  140MPD2    N1 2144   1.544   2.811  13.159 -0.3022  0.3588 -0.0339
  140MPD2    H7 2145   1.526   2.895  13.106  0.1734 -0.5797 -1.6772
  141TCq2    C1 2146   2.073   4.125  14.083  0.4723 -0.0800 -0.1988
  141TCq2    O2 2147   2.056   4.243  14.098 -0.0590 -0.1224  0.3389
  141TCq2    C2 2148   2.044   4.032  14.194  0.1168 -0.1874  0.7981
  141TCq2    C3 2149   2.012   3.902  14.167 -0.1836  0.3508  0.1583
  141TCq2    C4 2150   1.998   3.820  14.278 -0.0935 -0.0864  0.0782
  141TCq2    C5 2151   1.982   3.869  14.402  1.1046 -0.3746  0.3560
  141TCq2    C6 2152   1.989   4.005  14.421 -0.3481  0.2080 -0.3563
  141TCq2    C7 2153   2.019   4.094  14.315  0.7678 -0.1992 -0.4372
  141TCq2    C8 2154   1.957   4.051  14.553  0.1002  0.4365 -0.4272
  141TCq2    O4 2155   1.968   3.963  14.637 -0.4789 -0.0701  0.2420
  141TCq2    C9 2156   1.976   3.686  14.255 -0.5249  0.0393 -0.1186
  141TCq2    O5 2157   1.980   3.647  14.134 -0.0847 -0.4447 -0.8099
  141TCq2    O6 2158   1.957   3.607  14.352 -0.3191  0.2602 -0.0345
  141TCq2    H2 2159   2.024   3.858  14.069  1.5009 -3.3076  2.0134
  141TCq2    H3 2160   1.963   3.800  14.483  1.0805 -0.3728  0.3519
  141TCq2    H4 2161   2.037   4.197  14.341 -0.6691  0.1426 -0.7967
  142MPD2     C 2162   4.326   2.404  10.546  0.2596 -0.2932 -0.1300
  142MPD2    C1 2163   4.324   2.486  10.436  0.2424  0.0801  0.4220
  142MPD2    C2 2164   4.405   2.595  10.430  0.4284  0.1150  0.1169
  142MPD2    C3 2165   4.478   2.619  10.544  0.0614  0.3310 -0.0205
  142MPD2    C4 2166   4.476   2.541  10.658  0.4187 -0.5980  0.0723
  142MPD2    C5 2167   4.394   2.434  10.658  0.0638  0.6358 -0.3298
  142MPD2     H 2168   4.420   2.647  10.336  0.5288  1.2879  0.7772
  142MPD2    H1 2169   4.553   2.551  10.734 -1.9440  0.4461  2.3126
  142MPD2    H2 2170   4.261   2.318  10.541 -1.2381  0.7623  1.2646
  142MPD2    H3 2171   4.392   2.367  10.744  0.7959  0.4038 -0.4891
  142MPD2     N 2172   4.574   2.721  10.548  0.7032 -0.3613  0.7166
  142MPD2    H5 2173   4.620   2.740  10.636  0.9609  0.3301  0.4378
  142MPD2    N1 2174   4.243   2.436  10.329  0.1072  0.8083  0.0091
  142MPD2    H7 2175   4.200   2.345  10.339 -2.6478  2.3021  1.4509
  143TCq2    C1 2176   4.609   2.799  10.449  0.5641  0.2520 -0.4995
  143TCq2    O2 2177   4.604   2.782  10.328 -0.0488  0.2337 -0.1042
  143TCq2    C2 2178   4.691   2.910  10.503  0.2164 -0.8672 -0.5718
  143TCq2    C3 2179   4.669   2.959  10.631  0.9896 -0.3157 -0.7898
  143TCq2    C4 2180   0.009   3.073  10.674  0.3937  0.7653  0.0720
  143TCq2    C5 2181   0.096   3.144  10.589  0.0479  0.2796 -0.7598
  143TCq2    C6 2182   0.113   3.092  10.460 -0.3713  0.2254 -0.0111
  143TCq2    C7 2183   0.041   2.985  10.411  0.1850 -0.5835 -0.6142
  143TCq2    C8 2184   0.171   3.175  10.355 -0.1344 -0.1687 -1.0544
  143TCq2    O4 2185   0.199   3.115  10.252  0.1680  0.1256 -0.2018
  143TCq2    C9 2186   0.004   3.109  10.814 -0.7253  0.7566  0.2682
  143TCq2    O5 2187   4.681   3.018  10.893  0.9012 -0.2721 -0.4588
  143TCq2    O6 2188   0.055   3.221  10.844  0.0717 -0.1440  0.2725
  143TCq2    H2 2189   4.603   2.917  10.706  1.2192  0.3753 -0.1885
  143TCq2    H3 2190   0.163   3.219  10.627 -0.2284  0.9466 -1.5843
  143TCq2    H4 2191   0.069   2.957  10.311  3.2715  2.3449 -0.5939
  144MPD2     C 2192   2.384   1.812   0.734  0.2395 -0.3765 -0.3220
  144MPD2    C1 2193   2.459   1.710   0.664 -0.6812 -0.0709 -0.7233
  144MPD2    C2 2194   2.582   1.670   0.721  0.2942 -0.0824 -0.3609
  144MPD2    C3 2195   2.640   1.756   0.821 -0.8424  0.1303 -0.0990
  144MPD2    C4 2196   2.568   1.858   0.879 -0.1671 -0.2046  0.2592
  144MPD2    C5 2197   2.438   1.875   0.845  0.5817 -0.2568 -0.2357
  144MPD2     H 2198   2.647   1.591   0.686  0.2860 -0.3746  0.2864
  144MPD2    H1 2199   2.612   1.928   0.950 -1.7720 -1.1320  2.1665
  144MPD2    H2 2200   2.283   1.834   0.703 -0.1522  0.4059  1.4850
  144MPD2    H3 2201   2.386   1.955   0.898 -0.1036  0.3296 -1.7773
  144MPD2     N 2202   2.768   1.731   0.872 -0.7431  0.2489 -0.3414
  144MPD2    H5 2203   2.786   1.780   0.959 -0.7854 -0.5638  0.1173
  144MPD2    N1 2204   2.416   1.639   0.552  0.6860  0.5614  0.4090
  144MPD2    H7 2205   2.490   1.583   0.511 -1.3002  0.1522 -2.6076
  145TCq2    C1 2206   2.858   1.643   0.822  0.5000 -0.2225  0.6730
  145TCq2    O2 2207   2.875   1.594   0.710  0.1955  0.2576  0.2405
  145TCq2    C2 2208   2.973   1.629   0.912  0.0779  0.0171 -0.2741
  145TCq2    C3 2209   3.084   1.563   0.865 -0.2525  0.2560  0.6178
  145TCq2    C4 2210   3.173   1.512   0.951 -0.2021  0.2098 -0.4545
  145TCq2    C5 2211   3.157   1.511   1.085 -0.3833 -0.0655  0.6299
  145TCq2    C6 2212   3.039   1.561   1.128  0.0160 -0.3884 -0.3793
  145TCq2    C7 2213   2.945   1.625   1.045 -0.1634  0.2772  0.2065
  145TCq2    C8 2214   3.010   1.523   1.263 -0.2213 -0.7431  0.2754
  145TCq2    O4 2215   3.044   1.412   1.301  0.7953  0.3338 -0.8841
  145TCq2    C9 2216   3.280   1.432   0.891 -0.3690  0.0704  0.2566
  145TCq2    O5 2217   3.357   1.375   0.972 -0.2058 -0.3914  0.0758
  145TCq2    O6 2218   3.270   1.404   0.769 -0.0056  0.5318 -0.2679
  145TCq2    H2 2219   3.094   1.553   0.757  1.6030 -0.2479  0.8354
  145TCq2    H3 2220   3.229   1.465   1.151 -0.6609  2.0273  2.4047
  145TCq2    H4 2221   2.848   1.660   1.078 -1.0223 -2.0118  0.0750
  146TMC2    C1 2222   4.644   4.488  11.896 -0.4893 -0.3493  0.5920
  146TMC2    C2 2223   4.647   4.498  11.758  0.2632  0.3001  0.0716
  146TMC2    C3 2224   0.039   4.556  11.705  0.0677  0.8638  0.5889
  146TMC2    C4 2225   0.020   4.539  11.980  0.0748  0.3588  0.3307
  146TMC2    C5 2226   0.140   4.566  11.923  0.8634 -0.5072  0.0842
  146TMC2    C6 2227   0.142   4.597  11.792  0.0136  0.2032  0.1204
  146TMC2     C 2228   4.524   4.434  11.954 -0.8093 -0.0108 -0.9276
  146TMC2     O 2229   4.435   4.420  11.872  0.0041 -0.3117  0.1013
  146TMC2     H 2230   4.566   4.473  11.691 -1.2797 -1.8529  2.7858
  146TMC2    H1 2231   0.006   4.531  12.087  2.8274  0.1793  0.6825
  146TMC2    H2 2232   0.230   4.649  11.754  0.1638 -1.9242 -2.4608
  146TMC2    C7 2233   0.254   4.605  12.007  0.0693 -1.0720 -0.3417
  146TMC2    C8 2234   0.025   4.643  11.587 -0.3294 -0.0337 -0.3507
  146TMC2    O1 2235   0.352   4.646  11.948  0.3103  0.0849 -0.7140
  146TMC2    O2 2236   0.063   0.038  11.597  0.1812  0.2744  0.3527
  146TMC2    O5 2237   4.655   4.583  11.509  0.2451  0.6699  0.2565
  146TMC2    H5 2238   4.655   4.485  11.518  3.3871  0.7452  1.0027
  147MPD2     C 2239   0.515   4.601  12.437  0.5072 -0.2616  0.9515
  147MPD2    C1 2240   0.404   4.526  12.450 -0.1594  0.3427  0.0888
  147MPD2    C2 2241   0.310   4.508  12.353 -0.4316  0.0313 -0.0533
  147MPD2    C3 2242   0.325   4.580  12.238 -0.5130 -0.4903  0.7156
  147MPD2    C4 2243   0.432   4.672  12.224 -0.0015  0.5393  0.1395
  147MPD2    C5 2244   0.527   4.678  12.324 -0.3206 -0.1971  0.2992
  147MPD2     H 2245   0.236   4.429  12.357 -0.5916  0.2876  2.0672
  147MPD2    H1 2246   0.452   0.006  12.134  0.5855 -0.5414 -0.3987
  147MPD2    H2 2247   0.594   4.598  12.512  1.2890 -0.1058  0.1430
  147MPD2    H3 2248   0.620   0.012  12.313 -0.4497  0.5000  2.6816
  147MPD2     N 2249   0.237   4.560  12.131  0.0162  0.4533  0.1158
  147MPD2    H5 2250   0.151   4.511  12.155 -0.4729  1.7240  0.9173
  147MPD2    N1 2251   0.406   4.458  12.576 -0.0228  0.5129 -0.3318
  147MPD2    H7 2252   0.485   4.465  12.639 -1.3773  0.9160  1.3243
  148MPD2     C 2253   3.580   4.634  10.031  0.2460  0.1731 -0.0999
  148MPD2    C1 2254   3.640   4.513  10.016  0.5415 -0.2684 -0.0455
  148MPD2    C2 2255   3.572   4.397  10.051 -0.1389 -0.1186 -0.2669
  148MPD2    C3 2256   3.440   4.398  10.077  0.2107  0.2410 -0.0707
  148MPD2    C4 2257   3.371   4.515  10.073 -0.3111  0.1654 -0.3959
  148MPD2    C5 2258   3.441   4.632  10.058 -0.1434 -0.1469  0.0645
  148MPD2     H 2259   3.625   4.304  10.067 -0.5156 -0.2434  0.2433
  148MPD2    H1 2260   3.263   4.517  10.081 -0.2736  0.0957  0.1062
  148MPD2    H2 2261   3.631   0.003  10.001 -1.9602  1.0120 -1.3608
  148MPD2    H3 2262   3.375   4.718  10.047  0.6766  0.6465  1.3275
  148MPD2     N 2263   3.371   4.276  10.101  0.2839  0.6802 -0.8348
  148MPD2    H5 2264   3.270   4.284  10.113  0.1196 -0.2475 -1.5315
  148MPD2    N1 2265   3.775   4.488   9.979  0.0659  0.0302  0.7100
  148MPD2    H7 2266   3.794   4.391   9.954 -0.4019 -0.3272  1.7573
  149TCq2    C1 2267   3.879   4.575   9.990  0.2128  0.3598 -0.1733
  149TCq2    O2 2268   3.870   4.693  10.018 -0.3742 -0.2784 -0.9127
  149TCq2    C2 2269   4.002   4.519   9.928 -0.2356 -0.7711 -0.7049
  149TCq2    C3 2270   4.107   4.602   9.898 -0.5907 -0.0369  0.1931
  149TCq2    C4 2271   4.222   4.542   9.861 -0.1518 -0.0814  0.4738
  149TCq2    C5 2272   4.249   4.413   9.885 -0.1719  0.4161  1.3268
  149TCq2    C6 2273   4.146   4.330   9.921  0.3847  0.1391 -0.7425
  149TCq2    C7 2274   4.024   4.382   9.951 -0.0164  0.0149  0.1637
  149TCq2    C8 2275   4.165   4.193   9.966  0.2889 -0.2136  0.1776
  149TCq2    O4 2276   4.096   4.166  10.061 -0.2238  0.0071  0.0031
  149TCq2    C9 2277   4.345   4.623   9.854  0.1055 -0.0200  0.0942
  149TCq2    O5 2278   4.450   4.561   9.822 -0.8997 -0.6060 -0.9354
  149TCq2    O6 2279   4.324   0.027   9.862 -0.4472  0.6745  0.3744
  149TCq2    H2 2280   4.099   4.710   9.895 -0.5745  0.0242  2.2088
  149TCq2    H3 2281   4.346   4.364   9.887  0.1000  0.9301  0.5839
  149TCq2    H4 2282   3.946   4.316   9.989 -0.7800  1.4980  1.1680
  150MPD2     C 2283   0.643   3.046  12.186 -0.3219  0.6475  0.2845
  150MPD2    C1 2284   0.710   3.008  12.071 -0.3506  0.3871  0.3857
  150MPD2    C2 2285   0.835   3.053  12.052 -0.5219  0.2795  0.8637
  150MPD2    C3 2286   0.895   3.137  12.142 -0.3742  0.3482  0.2598
  150MPD2    C4 2287   0.826   3.179  12.251  0.0943 -0.4382  0.1188
  150MPD2    C5 2288   0.703   3.134  12.277 -0.4641  0.4746  0.0027
  150MPD2     H 2289   0.894   3.042  11.962 -1.4468 -1.6771  0.4908
  150MPD2    H1 2290   0.862   3.257  12.317  3.9063 -2.4031  0.3801
  150MPD2    H2 2291   0.547   3.009  12.219 -0.4369  0.5862 -0.1146
  150MPD2    H3 2292   0.651   3.159  12.369  0.8452 -0.3893  0.9767
  150MPD2     N 2293   1.027   3.179  12.110 -0.4564 -0.0821 -0.2365
  150MPD2    H5 2294   1.071   3.139  12.027  1.3290  0.0953  0.6144
  150MPD2    N1 2295   0.647   2.927  11.972  0.1283 -0.6506 -0.3612
  150MPD2    H7 2296   0.555   2.899  12.006 -0.4163  1.3822 -0.1581
  151TCq2    C1 2297   1.105   3.264  12.185 -0.0238 -0.5560 -0.5628
  151TCq2    O2 2298   1.084   3.329  12.286 -0.3696  0.4148  0.4735
  151TCq2    C2 2299   1.236   3.270  12.130  0.6966 -0.7557 -0.2331
  151TCq2    C3 2300   1.261   3.193  12.018 -0.7691  0.7035 -0.1596
  151TCq2    C4 2301   1.381   3.145  11.991 -0.1576 -0.4723  0.4519
  151TCq2    C5 2302   1.490   3.172  12.079 -0.7329  0.1813  0.6695
  151TCq2    C6 2303   1.460   3.257  12.181  0.8176 -0.3449  0.3436
  151TCq2    C7 2304   1.334   3.295  12.213 -0.1998 -0.4636 -0.0976
  151TCq2    C8 2305   1.564   3.324  12.254 -0.1282  0.1851 -1.0195
  151TCq2    O4 2306   1.544   3.440  12.284 -0.0412  0.4188 -0.2295
  151TCq2    C9 2307   1.401   3.063  11.870  0.2857  0.2915 -0.6676
  151TCq2    O5 2308   1.301   3.066  11.788  0.1846 -0.4214 -0.1033
  151TCq2    O6 2309   1.471   2.960  11.885 -0.4040 -0.1391  0.1565
  151TCq2    H2 2310   1.186   3.197  11.940  0.2375  1.0909 -1.0975
  151TCq2    H3 2311   1.591   3.146  12.050 -1.4571 -0.7658 -1.0314
  151TCq2    H4 2312   1.312   3.361  12.296 -0.7470  1.0792 -1.4907
  152MPD2     C 2313   0.711   2.694  12.680 -0.2049  0.0893  0.0169
  152MPD2    C1 2314   0.725   2.717  12.542 -0.5267  0.4295  0.6161
  152MPD2    C2 2315   0.625   2.675  12.454  0.4081 -0.1412 -0.2462
  152MPD2    C3 2316   0.510   2.616  12.496 -0.2171 -0.5345 -0.5168
  152MPD2    C4 2317   0.486   2.603  12.637  0.0956  0.6492  0.1508
  152MPD2    C5 2318   0.595   2.629  12.721 -0.6756  0.1594 -0.2709
  152MPD2     H 2319   0.636   2.694  12.348 -1.2198 -1.5939 -0.6613
  152MPD2    H1 2320   0.393   2.572  12.683 -0.5861  1.6232 -0.5837
  152MPD2    H2 2321   0.792   2.713  12.749 -0.0893  3.2363 -0.9775
  152MPD2    H3 2322   0.585   2.602  12.825  3.3360 -2.4945 -0.6198
  152MPD2     N 2323   0.411   2.594  12.395  0.3574  0.0897  0.3330
  152MPD2    H5 2324   0.441   2.582  12.299 -0.5361 -4.4930  0.5931
  152MPD2    N1 2325   0.849   2.770  12.500 -0.3252  1.0489 -0.2892
  152MPD2    H7 2326   0.907   2.799  12.579 -0.6152 -0.4004  0.4504
  153TCq2    C1 2327   0.889   2.772  12.368  0.1184  0.7375 -0.2134
  153TCq2    O2 2328   0.849   2.721  12.267 -0.8008 -0.2928 -0.1033
  153TCq2    C2 2329   1.023   2.829  12.359  0.2156 -1.2596 -0.4049
  153TCq2    C3 2330   1.113   2.791  12.261  0.5863 -0.7818  0.1126
  153TCq2    C4 2331   1.229   2.858  12.256 -0.1358 -0.6387  1.0791
  153TCq2    C5 2332   1.265   2.956  12.341 -0.3584 -0.3814 -0.1561
  153TCq2    C6 2333   1.174   2.998  12.428 -0.5581 -0.5707 -0.1725
  153TCq2    C7 2334   1.052   2.937  12.444  0.5963 -0.3459  0.0947
  153TCq2    C8 2335   1.204   3.107  12.508 -0.6595 -0.5150 -0.9737
  153TCq2    O4 2336   1.115   3.180  12.546 -0.2170  0.3623 -0.4508
  153TCq2    C9 2337   1.332   2.818  12.159  0.0574 -0.0054 -0.0559
  153TCq2    O5 2338   1.292   2.757  12.062 -0.7575 -0.3983  0.3454
  153TCq2    O6 2339   1.449   2.846  12.186  0.1515 -0.1477 -0.3555
  153TCq2    H2 2340   1.097   2.701  12.203  0.9516 -0.3132 -0.7252
  153TCq2    H3 2341   1.363   3.000  12.323  0.2716 -1.2879  1.0531
  153TCq2    H4 2342   0.980   2.976  12.516  0.0680 -1.7836  0.3445
  154MPD2     C 2343   2.388   3.243   0.537 -0.8162 -0.0656  0.1252
  154MPD2    C1 2344   2.471   3.339   0.603  0.9477 -0.3324 -0.2271
  154MPD2    C2 2345   2.434   3.390   0.726 -0.1393 -1.1761  0.5599
  154MPD2    C3 2346   2.312   3.352   0.779  0.1691  0.4562 -0.0661
  154MPD2    C4 2347   2.232   3.258   0.713  0.3538 -0.4585  0.0813
  154MPD2    C5 2348   2.269   3.207   0.591 -0.1608 -0.1470  0.3633
  154MPD2     H 2349   2.499   3.459   0.779 -1.9067 -0.6018  1.9892
  154MPD2    H1 2350   2.133   3.236   0.753  0.0390  0.7940  0.0006
  154MPD2    H2 2351   2.424   3.190   0.450  2.2523 -0.1562  1.4372
  154MPD2    H3 2352   2.203   3.130   0.552 -0.3154 -0.2277  0.7924
  154MPD2     N 2353   2.270   3.409   0.903 -0.9233 -0.0580  0.2597
  154MPD2    H5 2354   2.329   3.478   0.948 -0.0722 -1.6268  1.5703
  154MPD2    N1 2355   2.585   3.397   0.542  0.2733  0.3652 -0.3408
  154MPD2    H7 2356   2.619   3.341   0.465 -0.2979 -2.3059  1.3757
  155TCq2    C1 2357   2.654   3.512   0.579 -0.1281  0.8570  0.1311
  155TCq2    O2 2358   2.627   3.605   0.652  0.2197 -0.6976  0.1567
  155TCq2    C2 2359   2.785   3.522   0.516 -0.4152  0.7705 -0.0064
  155TCq2    C3 2360   2.854   3.408   0.488 -0.0648 -0.6388  0.1542
  155TCq2    C4 2361   2.986   3.413   0.472 -0.4636 -0.6581  0.2565
  155TCq2    C5 2362   3.056   3.527   0.476  0.3727 -0.3178 -0.3496
  155TCq2    C6 2363   2.988   3.643   0.509  0.2459  0.0653 -0.0575
  155TCq2    C7 2364   2.854   3.637   0.542 -0.3935  0.2013 -0.0911
  155TCq2    C8 2365   3.059   3.763   0.523  0.1175  0.3332 -0.1653
  155TCq2    O4 2366   3.005   3.862   0.573  0.1444  0.0748  0.1526
  155TCq2    C9 2367   3.056   3.287   0.428  0.1074  0.1162 -0.0661
  155TCq2    O5 2368   3.185   3.290   0.436 -0.1651 -0.3171 -0.4119
  155TCq2    O6 2369   2.985   3.192   0.393 -0.2867 -0.2386  0.0215
  155TCq2    H2 2370   2.799   3.318   0.464  0.0407 -0.9406  1.0579
  155TCq2    H3 2371   3.163   3.516   0.457  1.0355  0.7716  2.6459
  155TCq2    H4 2372   2.798   3.725   0.571 -0.0432  1.2411 -2.5543
  156MPD2     C 2373   1.322   1.372  12.546 -0.0101 -0.4560  0.1500
  156MPD2    C1 2374   1.275   1.281  12.452 -0.3107  0.4938  0.4232
  156MPD2    C2 2375   1.193   1.172  12.488 -0.0885 -0.4845  0.3096
  156MPD2    C3 2376   1.138   1.170  12.617 -0.4968 -0.2905 -0.4205
  156MPD2    C4 2377   1.193   1.261  12.708 -0.0038 -0.4421  0.4098
  156MPD2    C5 2378   1.285   1.360  12.671 -0.2684  0.5169 -0.0590
  156MPD2     H 2379   1.183   1.085  12.424 -0.2198  0.7291 -1.3290
  156MPD2    H1 2380   1.160   1.262  12.811 -2.2697  1.8972 -0.3402
  156MPD2    H2 2381   1.379   1.460  12.515  1.9525 -0.9530  2.3440
  156MPD2    H3 2382   1.329   1.416  12.752  0.5542  0.0326 -0.1687
  156MPD2     N 2383   1.042   1.068  12.654 -0.2620  0.4494  0.0604
  156MPD2    H5 2384   1.037   0.990  12.589  0.4763 -0.0157  0.5665
  156MPD2    N1 2385   1.341   1.299  12.324  0.1743 -0.1092 -0.0673
  156MPD2    H7 2386   1.413   1.368  12.306  1.2532 -1.5241 -1.0769
  157TCq2    C1 2387   1.306   1.232  12.213 -0.8566  0.6120 -0.1857
  157TCq2    O2 2388   1.210   1.157  12.205  0.0321 -0.5049  0.4450
  157TCq2    C2 2389   1.399   1.253  12.106  0.4694 -0.0516 -0.2993
  157TCq2    C3 2390   1.527   1.304  12.128 -0.4085 -0.5828  0.2991
  157TCq2    C4 2391   1.611   1.309  12.022 -0.2775 -0.7103  0.2188
  157TCq2    C5 2392   1.572   1.266  11.900  0.6005 -0.8506 -0.4064
  157TCq2    C6 2393   1.456   1.201  11.887  0.1159  0.2165 -0.3703
  157TCq2    C7 2394   1.361   1.206  11.980  0.6010  0.7326  0.4370
  157TCq2    C8 2395   1.403   1.214  11.750  0.1572  0.1118  0.0005
  157TCq2    O4 2396   1.455   1.294  11.676 -0.5797 -0.4952  0.1254
  157TCq2    C9 2397   1.752   1.353  12.037  0.0439  0.0535 -0.8582
  157TCq2    O5 2398   1.797   1.362  12.154 -0.1207 -0.0015  0.2187
  157TCq2    O6 2399   1.826   1.375  11.934 -0.2397 -0.0362 -0.2622
  157TCq2    H2 2400   1.568   1.317  12.227 -1.8174 -1.8983  1.0448
  157TCq2    H3 2401   1.645   1.268  11.820  0.8678 -0.5368 -0.1499
  157TCq2    H4 2402   1.267   1.154  11.964 -0.5018  2.6597  0.6232
  158TMC2    C1 2403   1.362   4.185  13.776 -0.1681  0.2003  0.0357
  158TMC2    C2 2404   1.432   4.290  13.733 -0.6263  0.2678  0.3890
  158TMC2    C3 2405   1.356   4.382  13.665 -0.1189  0.5158  0.1113
  158TMC2    C4 2406   1.228   4.166  13.764  0.4636  0.0531 -0.3294
  158TMC2    C5 2407   1.153   4.274  13.715  0.2606 -0.2107 -0.1742
  158TMC2    C6 2408   1.215   4.380  13.660 -0.6472 -0.6850 -0.0075
  158TMC2     C 2409   1.441   4.098  13.860 -0.6449  0.0063  0.9083
  158TMC2     O 2410   1.558   4.099  13.851 -0.1104 -0.3870  0.2115
  158TMC2     H 2411   1.540   4.300  13.739 -0.4689 -0.7541 -0.7329
  158TMC2    H1 2412   1.177   4.070  13.774 -0.7194  0.6735 -0.3574
  158TMC2    H2 2413   1.157   4.464  13.623  0.5412  0.6593  1.1804
  158TMC2    C7 2414   1.011   4.255  13.677  0.5702  0.0550  0.3404
  158TMC2    C8 2415   1.402   4.515  13.682  0.1433 -0.2709  0.5818
  158TMC2    O1 2416   0.965   4.335  13.602  0.3288  0.1107 -0.1204
  158TMC2    O2 2417   1.482   4.541  13.772 -0.2510  0.3249  0.1349
  158TMC2    O5 2418   1.372   4.592  13.577  0.0529  0.0237  0.0572
  158TMC2    H5 2419   1.330   4.536  13.509  1.3058 -1.1713  0.2688
  159MPD2     C 2420   1.484   3.775  14.244  0.4558 -0.5769  0.8160
  159MPD2    C1 2421   1.372   3.857  14.265  0.6686 -0.7668 -0.0866
  159MPD2    C2 2422   1.333   3.933  14.154 -0.1279  0.0733 -0.3011
  159MPD2    C3 2423   1.405   3.946  14.039  0.2624 -0.1206 -0.8298
  159MPD2    C4 2424   1.524   3.874  14.027  0.1845  0.0183 -0.7215
  159MPD2    C5 2425   1.563   3.785  14.129  0.0706 -0.0394 -0.0667
  159MPD2     H 2426   1.255   4.007  14.161  0.9930  1.3786 -1.7338
  159MPD2    H1 2427   1.594   3.885  13.945  0.1099  1.0082 -0.6491
  159MPD2    H2 2428   1.535   3.721  14.323  0.7885 -1.7068 -0.1695
  159MPD2    H3 2429   1.656   3.730  14.131 -0.9528 -1.6233  2.7744
  159MPD2     N 2430   1.354   4.036  13.950  0.1938 -0.4891 -0.0127
  159MPD2    H5 2431   1.258   4.068  13.957  0.9998  1.6827  0.8368
  159MPD2    N1 2432   1.337   3.876  14.406 -0.2512 -0.4045  0.0068
  159MPD2    H7 2433   1.375   3.808  14.471 -2.5818 -2.4568 -0.7909
  160TMC2    C1 2434   1.482   2.057   2.103  0.6451 -0.3577  0.4740
  160TMC2    C2 2435   1.607   2.059   2.165 -0.8393 -0.4942 -0.3248
  160TMC2    C3 2436   1.719   2.049   2.090 -0.4807 -0.3592 -0.7464
  160TMC2    C4 2437   1.469   2.048   1.968 -0.7074 -0.8711 -0.6192
  160TMC2    C5 2438   1.590   2.047   1.901  0.7922 -0.4359 -0.0625
  160TMC2    C6 2439   1.714   2.062   1.957 -0.5023  1.0766  0.0516
  160TMC2     C 2440   1.366   2.094   2.189  0.0905  0.4657 -0.0051
  160TMC2     O 2441   1.353   2.041   2.295  0.1456  0.5551 -0.1002
  160TMC2     H 2442   1.610   2.069   2.272 -0.8044  1.9961 -0.5688
  160TMC2    H1 2443   1.377   2.034   1.912  0.7076 -1.0252 -2.8961
  160TMC2    H2 2444   1.801   2.068   1.893 -2.0322  1.4389 -1.9720
  160TMC2    C7 2445   1.593   2.087   1.756 -0.4740  0.5207  0.8678
  160TMC2    C8 2446   1.850   2.051   2.151  0.5435 -0.7652 -0.0844
  160TMC2    O1 2447   1.522   2.020   1.680  0.1832  0.0893 -0.5460
  160TMC2    O2 2448   1.938   1.972   2.119  0.0040 -0.3067 -0.4322
  160TMC2    O5 2449   1.856   2.139   2.257 -0.0622 -0.4359 -0.0028
  160TMC2    H5 2450   1.788   2.210   2.264  1.5960  1.1078  0.3727
  161MPD2     C 2451   1.123   2.232   2.283  0.2213  0.3281 -0.8600
  161MPD2    C1 2452   1.183   2.260   2.163  0.3344 -0.0720  0.3420
  161MPD2    C2 2453   1.115   2.334   2.071  0.0282 -0.6625 -0.6688
  161MPD2    C3 2454   0.999   2.401   2.101  0.1915 -0.4446 -0.1297
  161MPD2    C4 2455   0.942   2.380   2.226 -0.1772  0.1116 -0.0544
  161MPD2    C5 2456   1.006   2.299   2.315  0.7280  0.4726  0.5216
  161MPD2     H 2457   1.153   2.337   1.970  1.3380 -1.5200 -0.1988
  161MPD2    H1 2458   0.848   2.424   2.255  0.3740  1.1661  0.1204
  161MPD2    H2 2459   1.168   2.171   2.361  0.5750 -0.1798 -1.4636
  161MPD2    H3 2460   0.965   2.287   2.414 -4.0532  1.1984 -1.3922
  161MPD2     N 2461   0.928   2.493   2.017 -0.6624 -0.0995  0.2630
  161MPD2    H5 2462   0.847   2.538   2.058 -0.7769  0.1630 -0.2522
  161MPD2    N1 2463   1.302   2.194   2.122 -0.6944  0.1459  0.2517
  161MPD2    H7 2464   1.344   2.218   2.032  0.7513 -0.7697  0.6737
  162TMC2    C1 2465   3.790   3.946   1.689  0.1524 -0.5405 -0.8060
  162TMC2    C2 2466   3.710   3.832   1.713 -0.9810 -0.2406  0.2146
  162TMC2    C3 2467   3.667   3.816   1.845  0.2878  0.4440 -0.5577
  162TMC2    C4 2468   3.822   4.046   1.781 -0.3859 -0.0112 -0.4306
  162TMC2    C5 2469   3.785   4.013   1.912 -0.1809 -0.3326 -0.1868
  162TMC2    C6 2470   3.705   3.903   1.945 -0.0770 -0.4669  0.1974
  162TMC2     C 2471   3.830   3.967   1.554  0.4947  0.0755 -0.4937
  162TMC2     O 2472   3.930   4.030   1.533 -0.1028 -0.0429 -0.6755
  162TMC2     H 2473   3.689   3.755   1.640  0.4359 -0.3830 -0.0251
  162TMC2    H1 2474   3.874   4.135   1.749  0.5716 -0.5793 -0.4668
  162TMC2    H2 2475   3.673   3.899   2.048 -0.2724 -2.1279  0.0768
  162TMC2    C7 2476   3.849   4.087   2.019 -0.1691  0.1929  0.1650
  162TMC2    C8 2477   3.576   3.720   1.884  0.0123 -0.7110  0.2371
  162TMC2    O1 2478   3.905   4.193   1.988 -0.0214  0.0656  0.2985
  162TMC2    O2 2479   3.549   3.683   1.997 -0.7507  0.1997 -0.3205
  162TMC2    O5 2480   3.491   3.725   1.779 -0.1037 -0.5404 -0.0856
  162TMC2    H5 2481   3.514   3.783   1.704 -2.0477  0.1758 -0.1298
  163MPD2     C 2482   3.786   3.891   1.048 -0.9179 -0.0975 -0.4402
  163MPD2    C1 2483   3.889   3.952   1.117 -0.3167  0.3173  0.0225
  163MPD2    C2 2484   3.876   3.972   1.254  0.8107 -0.9176  0.5654
  163MPD2    C3 2485   3.759   3.927   1.320 -0.0503  0.5634 -0.3211
  163MPD2    C4 2486   3.652   3.881   1.247 -0.2542  0.2179  0.7116
  163MPD2    C5 2487   3.666   3.859   1.110 -0.4627 -0.0407 -0.5168
  163MPD2     H 2488   3.955   4.027   1.304 -1.1684  1.2378  1.3252
  163MPD2    H1 2489   3.562   3.847   1.295  0.5778 -0.5223  1.7341
  163MPD2    H2 2490   3.793   3.864   0.943  1.7610  1.4325 -0.6678
  163MPD2    H3 2491   3.585   3.804   1.064 -0.6424  0.3753 -0.6979
  163MPD2     N 2492   3.740   3.929   1.460  0.1623  0.2227  0.4660
  163MPD2    H5 2493   3.647   3.902   1.489  0.1942 -0.7320 -0.3213
  163MPD2    N1 2494   4.009   3.980   1.044 -0.2381 -0.7966  0.2671
  163MPD2    H7 2495   4.000   3.991   0.943 -0.3702  1.9223  0.5660
  164TCq2    C1 2496   4.411   3.321  11.508 -0.4798  0.7879  0.7974
  164TCq2    O2 2497   4.450   3.369  11.612  0.4822 -0.1718  0.1160
  164TCq2    C2 2498   4.261   3.305  11.491 -0.0966  0.0788  0.1323
  164TCq2    C3 2499   4.224   3.229  11.382  0.2350  0.5442 -0.1222
  164TCq2    C4 2500   4.093   3.243  11.332 -0.7187  0.1963 -0.0618
  164TCq2    C5 2501   4.010   3.336  11.386  0.7724 -0.5065  0.4867
  164TCq2    C6 2502   4.048   3.412  11.495 -0.5777 -0.1647  0.2328
  164TCq2    C7 2503   4.183   3.409  11.541 -0.0512 -0.1355  0.7354
  164TCq2    C8 2504   3.951   3.515  11.534 -0.2638  0.0926  0.1970
  164TCq2    O4 2505   3.838   3.501  11.492 -0.3936 -0.0447 -0.4507
  164TCq2    C9 2506   4.046   3.162  11.225  0.4558 -0.1870  0.1790
  164TCq2    O5 2507   3.923   3.175  11.196 -0.3262 -0.0271 -0.2470
  164TCq2    O6 2508   4.130   3.084  11.169 -0.0612  0.4367  0.1763
  164TCq2    H2 2509   4.283   3.148  11.342  0.9382  1.0584 -0.1272
  164TCq2    H3 2510   3.915   3.354  11.336  0.9560  1.2614  0.7612
  164TCq2    H4 2511   4.218   3.472  11.622  2.9625  1.5140 -1.8507
  165MPD2     C 2512   0.442   1.428   0.911  0.1970  0.6910 -0.2657
  165MPD2    C1 2513   0.570   1.391   0.955  0.3254 -0.4397  0.2978
  165MPD2    C2 2514   0.647   1.485   1.028 -0.3757 -0.3408  0.0266
  165MPD2    C3 2515   0.596   1.610   1.057 -0.0420 -0.5694 -0.5031
  165MPD2    C4 2516   0.465   1.633   1.023  0.3350  0.0304 -1.1864
  165MPD2    C5 2517   0.391   1.546   0.939  0.3875 -0.2393 -0.4701
  165MPD2     H 2518   0.750   1.463   1.050  0.3636  0.3154 -2.7984
  165MPD2    H1 2519   0.420   1.729   1.044  0.4222 -0.6822  2.1551
  165MPD2    H2 2520   0.372   1.359   0.865 -0.6768  2.1016 -1.0264
  165MPD2    H3 2521   0.295   1.575   0.898 -0.5945 -0.1395  1.9049
  165MPD2     N 2522   0.658   1.708   1.133  0.2161 -0.1311 -0.3117
  165MPD2    H5 2523   0.603   1.788   1.162 -0.8147 -1.0371  0.2436
  165MPD2    N1 2524   0.627   1.261   0.933  0.4507 -0.7646  0.5298
  165MPD2    H7 2525   0.718   1.245   0.975  0.7854 -0.4450 -0.0737
  166TCq2    C1 2526   0.792   1.705   1.177 -0.3506 -0.0007  0.1040
  166TCq2    O2 2527   0.878   1.621   1.155  0.3812  0.3222  0.4599
  166TCq2    C2 2528   0.829   1.813   1.271  0.4159  0.6403 -0.3065
  166TCq2    C3 2529   0.739   1.905   1.308  0.2584 -0.9727 -0.5936
  166TCq2    C4 2530   0.769   1.976   1.419 -0.0199 -0.1765 -0.3184
  166TCq2    C5 2531   0.880   1.962   1.489  0.1430  0.1338  0.3706
  166TCq2    C6 2532   0.969   1.869   1.449 -0.2594  0.2506  0.7359
  166TCq2    C7 2533   0.943   1.795   1.342  0.0212 -0.3159  0.1980
  166TCq2    C8 2534   1.076   1.817   1.535 -0.6349 -0.3482  0.3057
  166TCq2    O4 2535   1.166   1.755   1.478 -0.1309 -0.4003  0.0794
  166TCq2    C9 2536   0.683   2.082   1.472 -0.2059 -0.2741  0.2155
  166TCq2    O5 2537   0.590   2.119   1.392 -0.5103 -0.3841  0.3212
  166TCq2    O6 2538   0.699   2.119   1.588 -0.1406  0.3910  0.2439
  166TCq2    H2 2539   0.641   1.918   1.264  0.4592  1.8657 -0.1812
  166TCq2    H3 2540   0.901   2.032   1.570  0.8055 -0.9880  1.1610
  166TCq2    H4 2541   1.013   1.718   1.311  1.8080  2.5631 -2.8537
  167TMC2    C1 2542   3.628   3.744  12.752 -0.4029  0.2007  0.2163
  167TMC2    C2 2543   3.556   3.784  12.861 -0.5761 -0.0908 -0.2359
  167TMC2    C3 2544   3.525   3.695  12.955 -0.2872  0.1534  0.0147
  167TMC2    C4 2545   3.662   3.610  12.735  0.1629 -0.1207 -0.2040
  167TMC2    C5 2546   3.622   3.524  12.836 -1.0153  0.1261 -0.0762
  167TMC2    C6 2547   3.548   3.560  12.949 -0.3396 -0.0808 -0.1804
  167TMC2     C 2548   3.638   3.840  12.652  0.7050  0.5043 -1.2024
  167TMC2     O 2549   3.567   3.939  12.672  0.0617 -0.0742 -0.0865
  167TMC2     H 2550   3.548   3.889  12.887  0.1600 -0.0829 -0.0399
  167TMC2    H1 2551   3.746   3.584  12.672  1.5219 -0.6490  1.8287
  167TMC2    H2 2552   3.494   3.500  13.020  0.5958  1.0631  1.5092
  167TMC2    C7 2553   3.640   3.384  12.824 -0.0435  0.0585 -0.7361
  167TMC2    C8 2554   3.459   3.747  13.076  0.8761 -0.0614 -1.2334
  167TMC2    O1 2555   3.579   3.322  12.908 -0.5012  0.1452  0.2556
  167TMC2    O2 2556   3.504   3.727  13.189 -0.1889 -0.0307 -0.0702
  167TMC2    O5 2557   3.396   3.863  13.045 -0.5085 -0.3461 -0.1944
  167TMC2    H5 2558   3.355   3.854  12.956 -0.2985 -2.4214 -0.0830
  168MPD2     C 2559   3.693   4.023  12.420  0.3178  0.8393 -0.0660
  168MPD2    C1 2560   3.724   3.886  12.429  0.1282  0.4915  0.1845
  168MPD2    C2 2561   3.750   3.821  12.310  0.0331 -0.0743 -0.0395
  168MPD2    C3 2562   3.756   3.896  12.191 -0.5558  0.0601 -0.7795
  168MPD2    C4 2563   3.727   4.032  12.188  0.3955 -0.2674  0.1441
  168MPD2    C5 2564   3.704   4.094  12.302 -0.3285 -0.0398 -0.4476
  168MPD2     H 2565   3.767   3.714  12.315 -0.0298 -0.0759  0.1295
  168MPD2    H1 2566   3.728   4.092  12.098 -0.0768 -0.9693 -0.3267
  168MPD2    H2 2567   3.654   4.074  12.508  0.3841  0.9449 -0.0969
  168MPD2    H3 2568   3.682   4.200  12.314 -5.1018 -0.9136 -1.4606
  168MPD2     N 2569   3.784   3.832  12.066  0.0895  0.3210  0.0897
  168MPD2    H5 2570   3.741   3.883  11.990  2.9014 -1.0180 -2.3876
  168MPD2    N1 2571   3.719   3.809  12.547  0.1492  0.0824 -0.7519
  168MPD2    H7 2572   3.750   3.712  12.538 -0.3128 -0.0646 -0.7355
  169MPD1     C 2573   4.710   2.865   9.542  0.2788 -0.3781  0.7361
  169MPD1    C1 2574   0.023   2.846   9.672 -0.9421 -0.2534 -0.6386
  169MPD1    C2 2575   0.155   2.849   9.705 -0.7429 -0.0646 -0.2027
  169MPD1    C3 2576   0.251   2.897   9.628  0.2606 -0.1466  0.2530
  169MPD1    C4 2577   0.223   2.932   9.497 -0.3973  0.5333 -0.1890
  169MPD1    C5 2578   0.091   2.911   9.460  0.7716 -0.3288 -0.1950
  169MPD1     H 2579   0.186   2.826   9.806  0.9687 -0.1265 -0.7348
  169MPD1    H1 2580   0.286   2.991   9.432  1.3249 -0.3662  0.6713
  169MPD1    H2 2581   4.613   2.842   9.500  0.3758  0.4902  0.0176
  169MPD1    H3 2582   0.067   2.937   9.357  0.9173 -1.0108 -0.4066
  169MPD1     N 2583   0.379   2.930   9.686 -0.0203 -0.0358  0.6650
  169MPD1    H5 2584   0.404   2.899   9.779  0.1145 -1.2556  0.2239
  169MPD1    N1 2585   4.645   2.789   9.761  0.1276 -0.2525 -0.1581
  169MPD1    H6 2586   4.671   2.797   9.859 -0.9484  1.1093  0.0173
  169MPD1    H7 2587   4.555   2.836   9.750  0.1612 -1.0497 -3.9431
  170MPD1     C 2588   4.510   0.983  13.108  0.2839  0.3485  0.1959
  170MPD1    C1 2589   4.494   1.118  13.084  0.2586 -0.4532 -0.5099
  170MPD1    C2 2590   4.558   1.204  13.166 -0.0401  0.0191 -0.4987
  170MPD1    C3 2591   4.651   1.159  13.262 -0.0122  0.2324  0.4530
  170MPD1    C4 2592   4.672   1.023  13.266  0.2061 -0.9961  0.4615
  170MPD1    C5 2593   4.592   0.933  13.197  0.4223  0.3075  0.0923
  170MPD1     H 2594   4.522   1.307  13.168  1.2890  0.4852 -0.8628
  170MPD1    H1 2595   0.016   0.974  13.337  1.3691 -0.6485 -0.3663
  170MPD1    H2 2596   4.451   0.909  13.054 -0.8378  1.4266 -0.0586
  170MPD1    H3 2597   4.590   0.825  13.203 -3.4518  0.3258 -0.7091
  170MPD1     N 2598   0.001   1.250  13.341 -0.0646 -0.1206 -0.0773
  170MPD1    H5 2599   4.703   1.348  13.323 -0.9969  0.0449  1.8292
  170MPD1    N1 2600   4.394   1.167  13.002  0.0066 -0.0746 -0.1698
  170MPD1    H6 2601   4.377   1.093  12.934  1.0608 -0.7227  0.2720
  170MPD1    H7 2602   4.419   1.256  12.960 -1.1718 -0.0398 -0.7889
  171MPD1     C 2603   3.755   2.880  15.490  0.0672  0.2327  0.8155
  171MPD1    C1 2604   3.812   2.773  15.431  0.1510 -0.4615 -0.2536
  171MPD1    C2 2605   3.783   2.644  15.477  0.6199 -0.0811  0.2169
  171MPD1    C3 2606   3.691   2.632  15.581  0.1217  0.8414 -0.2280
  171MPD1    C4 2607   3.632   2.741  15.639  1.0723 -0.7038 -1.0128
  171MPD1    C5 2608   3.664   2.868  15.596  0.2359  0.5202 -0.1405
  171MPD1     H 2609   3.826   2.558  15.425 -3.0776 -1.5908 -0.3344
  171MPD1    H1 2610   3.582   2.727  15.734  0.9243  1.9400 -0.7126
  171MPD1    H2 2611   3.789   2.980  15.464 -0.6834  0.4595  0.7188
  171MPD1    H3 2612   3.620   2.953  15.647  2.1297  1.0399  0.6309
  171MPD1     N 2613   3.661   2.498  15.638  0.9434 -0.6368  0.2710
  171MPD1    H5 2614   3.597   2.491  15.716  2.4430  0.7761  1.6334
  171MPD1    N1 2615   3.904   2.790  15.335 -0.4612 -0.4792  0.1074
  171MPD1    H6 2616   3.891   2.859  15.261 -3.1524 -2.5937 -1.3884
  171MPD1    H7 2617   3.912   2.706  15.277  3.2216  0.8348 -1.3155
  172MPD1     C 2618   2.697   1.065   0.190  1.2535  0.5168  0.0364
  172MPD1    C1 2619   2.622   1.131   0.284 -1.1170  0.4624  0.0455
  172MPD1    C2 2620   2.656   1.262   0.326 -0.2154 -0.0035 -0.5608
  172MPD1    C3 2621   2.779   1.313   0.282  1.0719 -0.0750 -0.5098
  172MPD1    C4 2622   2.863   1.235   0.207  0.3088 -0.9493  0.0017
  172MPD1    C5 2623   2.818   1.120   0.151 -0.2525  0.2477  0.2700
  172MPD1     H 2624   2.586   1.312   0.393 -0.0597  0.5276 -0.7975
  172MPD1    H1 2625   2.958   1.276   0.175 -1.1560  1.1643 -1.6107
  172MPD1    H2 2626   2.663   0.969   0.154  0.3101  0.6511  0.5732
  172MPD1    H3 2627   2.881   1.071   0.077 -1.4911 -0.8123 -0.0833
  172MPD1     N 2628   2.822   1.439   0.321 -0.1369  0.3069 -0.6583
  172MPD1    H5 2629   2.903   1.476   0.272  0.5778  0.4053  0.5897
  172MPD1    N1 2630   2.490   1.076   0.312  0.6824  0.6497 -0.1222
  172MPD1    H6 2631   2.465   0.984   0.276 -0.7303  0.4510  1.3569
  172MPD1    H7 2632   2.462   1.087   0.409 -0.5169  1.4724 -0.5650
  173MPD1     C 2633   3.840   2.021  14.682  0.1488 -0.3540  0.0215
  173MPD1    C1 2634   3.823   1.928  14.573 -0.5382 -0.6128 -0.0060
  173MPD1    C2 2635   3.732   1.823  14.589 -0.5330  0.5963 -1.5761
  173MPD1    C3 2636   3.661   1.815  14.713 -0.1387  0.1825 -0.5674
  173MPD1    C4 2637   3.680   1.905  14.812 -0.6078  0.2893  0.5544
  173MPD1    C5 2638   3.772   2.004  14.797  0.5618 -0.5586 -0.1919
  173MPD1     H 2639   3.717   1.748  14.512  1.4309 -0.8260 -0.5797
  173MPD1    H1 2640   3.640   1.900  14.913  0.0998  0.9035  0.8675
  173MPD1    H2 2641   3.912   2.102  14.673  1.6552 -1.5919  0.9935
  173MPD1    H3 2642   3.790   2.072  14.880 -1.9663 -1.0123  0.7167
  173MPD1     N 2643   3.565   1.710  14.729  0.2294  0.0241 -0.1138
  173MPD1    H5 2644   3.560   1.640  14.656 -1.1941  1.1749 -1.1351
  173MPD1    N1 2645   3.912   1.936  14.466  0.4640 -0.1389 -0.4920
  173MPD1    H6 2646   3.878   1.890  14.382  1.4227 -0.6592 -0.5946
  173MPD1    H7 2647   3.955   2.026  14.446 -2.2784  1.3172  0.1910
  174MPD1     C 2648   3.097   0.937  14.295  0.4947  0.0196 -0.6628
  174MPD1    C1 2649   3.067   1.074  14.304 -0.2984 -0.1962  0.3792
  174MPD1    C2 2650   3.116   1.147  14.409  0.1733  0.0222 -0.6016
  174MPD1    C3 2651   3.204   1.086  14.494 -0.1763  0.4085 -0.0966
  174MPD1    C4 2652   3.249   0.957  14.484 -0.4522  0.1577  0.3801
  174MPD1    C5 2653   3.190   0.879  14.384  0.2610 -0.0047  0.0446
  174MPD1     H 2654   3.076   1.247  14.418 -0.6638 -0.2403 -1.3764
  174MPD1    H1 2655   3.326   0.915  14.547  1.6932  1.5075 -1.3416
  174MPD1    H2 2656   3.052   0.874  14.218 -0.5525  0.4892 -0.4285
  174MPD1    H3 2657   3.222   0.778  14.362 -2.6676 -0.7483 -0.7933
  174MPD1     N 2658   3.254   1.163  14.607  0.1943 -0.4694 -0.2059
  174MPD1    H5 2659   3.311   1.108  14.670  0.5423 -0.5404 -0.5809
  174MPD1    N1 2660   2.989   1.132  14.204  0.2807  0.1117  0.1072
  174MPD1    H6 2661   3.005   1.233  14.207  2.4855 -0.3391  3.6882
  174MPD1    H7 2662   3.000   1.088  14.113  1.0287  1.4668 -0.4597
  175MPD1     C 2663   2.287   2.476  15.748  0.6971 -0.0105  0.0754
  175MPD1    C1 2664   2.405   2.437  15.815  0.4737  0.5910  0.1139
  175MPD1    C2 2665   2.395   2.432  15.952 -0.2209  0.5754 -0.9051
  175MPD1    C3 2666   2.284   2.482  16.025 -0.6675  0.3398 -0.0334
  175MPD1    C4 2667   2.178   2.532  15.955  0.9787 -0.7419 -0.1245
  175MPD1    C5 2668   2.182   2.524  15.815  0.1912  0.5083  0.2368
  175MPD1     H 2669   2.485   2.386  15.992 -1.8553  0.3124  2.5224
  175MPD1    H1 2670   2.099   2.581  16.011  0.5592 -1.2737 -0.2570
  175MPD1    H2 2671   2.279   2.474  15.640  0.7622  0.7668  0.0596
  175MPD1    H3 2672   2.093   2.548  15.760 -0.2108 -0.2108  0.5666
  175MPD1     N 2673   2.284   2.473  16.165  0.5998 -0.4884 -0.0171
  175MPD1    H5 2674   2.204   2.516  16.211  1.5010 -1.8739  2.8242
  175MPD1    N1 2675   2.494   2.355  15.750 -0.1046 -0.2940 -0.2774
  175MPD1    H6 2676   2.579   2.356  15.806  0.4549  0.2089 -1.1461
  175MPD1    H7 2677   2.519   2.385  15.656  0.9311 -1.2440 -0.3047
  176MPD1     C 2678   4.156   4.206  17.225  0.5779  0.3037  0.0537
  176MPD1    C1 2679   4.151   4.327  17.152  0.7468 -0.4468 -0.3429
  176MPD1    C2 2680   4.144   4.441  17.229  0.2399 -0.0701  0.1331
  176MPD1    C3 2681   4.126   4.445  17.366  0.5166  0.5489  0.4911
  176MPD1    C4 2682   4.106   4.323  17.429 -0.0085 -0.3067 -0.2584
  176MPD1    C5 2683   4.140   4.207  17.362  0.2208 -0.4524 -0.2004
  176MPD1     H 2684   4.151   4.534  17.174 -0.5102  1.2522  2.2383
  176MPD1    H1 2685   4.083   4.308  17.534  3.1439 -1.0139  0.3001
  176MPD1    H2 2686   4.183   4.115  17.173  0.8983  0.4196  0.0171
  176MPD1    H3 2687   4.122   4.110  17.406  0.4194 -0.0226  0.8242
  176MPD1     N 2688   4.116   4.563  17.439 -0.0475 -0.2104 -0.1753
  176MPD1    H5 2689   4.112   4.649  17.385 -0.8329 -0.6419 -0.8012
  176MPD1    N1 2690   4.170   4.332  17.011 -0.5803 -0.0910 -0.0331
  176MPD1    H6 2691   4.128   4.250  16.969 -2.3148  0.8393 -0.0985
  176MPD1    H7 2692   4.131   4.413  16.965  1.4378  1.3785  0.8156
  177MPD1     C 2693   1.870   3.946   9.856 -0.0833  0.7224 -0.0930
  177MPD1    C1 2694   1.879   3.917   9.723 -1.1834  1.1306 -0.4537
  177MPD1    C2 2695   1.841   4.019   9.634  0.4711  0.3368 -0.3469
  177MPD1    C3 2696   1.776   4.136   9.678 -0.5043 -0.2981  0.0529
  177MPD1    C4 2697   1.749   4.142   9.816 -0.4019  0.0293 -0.2740
  177MPD1    C5 2698   1.798   4.047   9.898 -0.0990 -0.0163  0.2987
  177MPD1     H 2699   1.855   4.014   9.527  0.4421  0.4956 -0.3586
  177MPD1    H1 2700   1.692   4.219   9.867 -0.2696  1.4428 -2.2550
  177MPD1    H2 2701   1.906   3.882   9.936 -0.4137  0.9122  0.2075
  177MPD1    H3 2702   1.775   4.063  10.003 -0.9521 -0.6790  0.2079
  177MPD1     N 2703   1.721   4.234   9.588 -0.2080  0.4013 -0.0103
  177MPD1    H5 2704   1.709   4.209   9.491  2.3691 -0.3219 -0.1555
  177MPD1    N1 2705   1.953   3.805   9.671 -0.1678  0.1105  0.2141
  177MPD1    H6 2706   1.932   3.779   9.575 -0.3399 -1.1772  0.6030
  177MPD1    H7 2707   1.947   3.717   9.722  2.8584  0.1857  0.7003
  178MPD1     C 2708   0.640   0.217   0.408  0.0838 -0.6341  0.6123
  178MPD1    C1 2709   0.509   0.213   0.465 -0.1252 -0.4831 -0.0254
  178MPD1    C2 2710   0.407   0.280   0.401  0.0776  0.3232 -0.5596
  178MPD1    C3 2711   0.439   0.387   0.319  0.5270  0.1018  0.3319
  178MPD1    C4 2712   0.572   0.410   0.284 -0.0680 -0.2697 -0.4287
  178MPD1    C5 2713   0.674   0.313   0.316  0.7572 -0.2049  0.3376
  178MPD1     H 2714   0.306   0.260   0.434  0.3316 -0.6773 -0.3652
  178MPD1    H1 2715   0.595   0.490   0.216 -1.7628 -1.1783 -2.0655
  178MPD1    H2 2716   0.714   0.144   0.437  0.8324  0.4988  1.5744
  178MPD1    H3 2717   0.774   0.309   0.276  0.8838  1.3420  0.5225
  178MPD1     N 2718   0.350   0.466   0.243  0.5552  0.0792 -0.1900
  178MPD1    H5 2719   0.386   0.515   0.161  1.5654  2.1290  1.4578
  178MPD1    N1 2720   0.487   0.111   0.553 -0.1145 -0.2934 -0.1701
  178MPD1    H6 2721   0.402   0.124   0.608 -0.6060  0.0064 -1.0009
  178MPD1    H7 2722   0.561   0.107   0.622 -0.5471 -1.7283  0.2119
  179MPD1     C 2723   0.148   4.002  16.060  0.2851  0.2286  0.0725
  179MPD1    C1 2724   0.100   3.966  15.934 -0.5004  0.0583 -0.1726
  179MPD1    C2 2725   0.068   3.835  15.911  0.5803  0.5666 -0.8168
  179MPD1    C3 2726   0.076   3.739  16.011  0.2363 -0.4715 -0.7109
  179MPD1    C4 2727   0.138   3.780  16.127  0.9896 -0.6935  1.2140
  179MPD1    C5 2728   0.169   3.912  16.160  0.1651  0.3471  0.0857
  179MPD1     H 2729   0.029   3.813  15.813 -1.5466  3.1792 -0.5462
  179MPD1    H1 2730   0.167   3.706  16.202 -0.2727 -0.4803  1.9062
  179MPD1    H2 2731   0.168   4.105  16.084  0.7792 -0.0611  0.9262
  179MPD1    H3 2732   0.217   3.952  16.248 -0.2478  0.5348  0.2223
  179MPD1     N 2733   0.021   3.609  16.010 -0.5030 -0.2822 -0.6308
  179MPD1    H5 2734   0.029   3.563  16.099 -2.2542 -0.2135 -0.4289
  179MPD1    N1 2735   0.102   4.068  15.839 -0.3838  0.3686  0.4127
  179MPD1    H6 2736   0.029   4.051  15.770  0.0884 -3.0153  0.7660
  179MPD1    H7 2737   0.095   4.161  15.879  0.4678  0.1796  1.0091
  180MPD1     C 2738   3.136   0.200  14.870  0.2351  0.5201 -0.0308
  180MPD1    C1 2739   3.129   0.073  14.821 -0.5701 -0.0943  0.1562
  180MPD1    C2 2740   3.246   0.031  14.764  0.0506 -0.2885  0.5649
  180MPD1    C3 2741   3.369   0.099  14.759 -0.2295 -0.6777  0.1288
  180MPD1    C4 2742   3.367   0.226  14.812  0.2259  0.1961  0.0110
  180MPD1    C5 2743   3.251   0.275  14.864  0.5870  0.5035  0.2502
  180MPD1     H 2744   3.235   4.655  14.718  0.4680  0.3731 -0.9515
  180MPD1    H1 2745   3.459   0.284  14.809  0.1747  0.2611 -0.2858
  180MPD1    H2 2746   3.038   0.239  14.896 -0.6906 -1.3021 -0.7968
  180MPD1    H3 2747   3.258   0.378  14.899  1.0886  0.4167  0.4149
  180MPD1     N 2748   3.477   0.044  14.686  0.4724 -0.2568 -0.2501
  180MPD1    H5 2749   3.446   4.689  14.628  1.1994 -0.2086 -0.7018
  180MPD1    N1 2750   3.017   4.709  14.831 -0.2656 -0.3766  0.6474
  180MPD1    H6 2751   2.930   0.040  14.835  0.4734  1.0734 -2.7522
  180MPD1    H7 2752   3.020   4.627  14.771 -3.7000  0.4905 -0.7006
  181MPD1     C 2753   1.409   0.658   9.915 -0.3665  0.1087 -1.0376
  181MPD1    C1 2754   1.371   0.778   9.984 -0.2352  0.0988 -0.1320
  181MPD1    C2 2755   1.467   0.874  10.004 -0.0701 -0.3886 -0.2616
  181MPD1    C3 2756   1.582   0.883   9.923  0.0073  0.3846  0.5234
  181MPD1    C4 2757   1.608   0.778   9.836  0.1247  0.7868 -0.2112
  181MPD1    C5 2758   1.528   0.661   9.847  0.4194  0.0836  0.3760
  181MPD1     H 2759   1.449   0.959  10.069 -4.8040 -1.5847 -0.0453
  181MPD1    H1 2760   1.700   0.774   9.778  0.3611  1.7848  0.1075
  181MPD1    H2 2761   1.341   0.576   9.899  1.8166 -2.1287  1.2439
  181MPD1    H3 2762   1.556   0.569   9.797  0.0922 -1.0459  2.2427
  181MPD1     N 2763   1.669   0.989   9.920 -0.6598 -0.4057 -0.0904
  181MPD1    H5 2764   1.742   0.973   9.851  0.6894  0.1665  1.2263
  181MPD1    N1 2765   1.252   0.785  10.055  0.2558 -0.1373 -0.1531
  181MPD1    H6 2766   1.203   0.875  10.055  1.6207  0.6007  1.5611
  181MPD1    H7 2767   1.196   0.721   9.999 -0.4206 -0.1350  0.5243
  182MPD1     C 2768   2.363   0.724   1.508 -0.5583  0.0209 -0.1198
  182MPD1    C1 2769   2.359   0.648   1.390  0.0158 -0.0897 -0.2195
  182MPD1    C2 2770   2.286   0.691   1.282 -0.1468 -0.4312  0.2517
  182MPD1    C3 2771   2.217   0.809   1.295  0.2622 -0.0507  0.6116
  182MPD1    C4 2772   2.216   0.882   1.407 -0.6142 -0.1953  0.3303
  182MPD1    C5 2773   2.283   0.835   1.515  0.8240  0.4194  0.5671
  182MPD1     H 2774   2.292   0.635   1.190  0.2026 -0.3198  0.2052
  182MPD1    H1 2775   2.152   0.968   1.421  0.2986  0.5038  0.1829
  182MPD1    H2 2776   2.435   0.713   1.588 -1.4154 -2.2809  0.3180
  182MPD1    H3 2777   2.266   0.886   1.609 -2.2833  0.3697  0.0281
  182MPD1     N 2778   2.150   0.864   1.189  0.2547 -0.0834 -0.5160
  182MPD1    H5 2779   2.131   0.963   1.200  3.1841  0.5550 -1.0999
  182MPD1    N1 2780   2.426   0.524   1.387  0.3247  0.4601  0.0981
  182MPD1    H6 2781   2.507   0.517   1.448  0.3064  2.5636  0.3623
  182MPD1    H7 2782   2.461   0.512   1.292 -2.6090  0.0362 -0.9238
  183MPD1     C 2783   2.373   2.318   9.434  0.4988 -0.1005 -0.6897
  183MPD1    C1 2784   2.486   2.363   9.497  0.5524  0.2221  0.5792
  183MPD1    C2 2785   2.565   2.277   9.571  0.2882 -0.4079  0.6002
  183MPD1    C3 2786   2.527   2.147   9.593 -0.3395 -0.1057 -0.3814
  183MPD1    C4 2787   2.405   2.108   9.538 -0.2083  0.2480 -0.0176
  183MPD1    C5 2788   2.337   2.187   9.452  0.2764 -0.4356 -0.7373
  183MPD1     H 2789   2.655   2.305   9.624  1.5162 -3.2888  0.0236
  183MPD1    H1 2790   2.371   2.007   9.559  1.0651 -0.2673 -0.4325
  183MPD1    H2 2791   2.314   2.387   9.375  0.3907  0.2957 -0.1121
  183MPD1    H3 2792   2.246   2.146   9.409 -0.0221  0.4801 -0.9785
  183MPD1     N 2793   2.605   2.067   9.677  0.2139 -0.6593 -0.3621
  183MPD1    H5 2794   2.685   2.114   9.718 -0.1407 -2.2018  2.1042
  183MPD1    N1 2795   2.536   2.488   9.476  0.0304  0.5428 -0.0779
  183MPD1    H6 2796   2.464   2.556   9.450 -0.5665  0.0068  0.1721
  183MPD1    H7 2797   2.596   2.522   9.551  0.5671 -0.6129  0.0197
  184MPD1     C 2798   1.662   3.160  10.576  0.2007  0.2817  0.3593
  184MPD1    C1 2799   1.744   3.270  10.588 -0.1489 -0.3427  0.4318
  184MPD1    C2 2800   1.701   3.387  10.522  0.6627 -0.6451  0.0664
  184MPD1    C3 2801   1.571   3.393  10.465 -0.2855  0.0413 -0.2423
  184MPD1    C4 2802   1.491   3.285  10.468  0.2355 -0.4562 -0.1553
  184MPD1    C5 2803   1.542   3.165  10.521 -0.4802 -0.5812 -0.0220
  184MPD1     H 2804   1.767   3.471  10.504  0.2018 -0.5129 -1.0359
  184MPD1    H1 2805   1.394   3.287  10.421 -0.7230 -0.3870  1.8042
  184MPD1    H2 2806   1.702   3.062  10.598  0.9324  0.4551 -0.1866
  184MPD1    H3 2807   1.479   3.077  10.522 -2.1929  0.6513 -0.4745
  184MPD1     N 2808   1.511   3.512  10.419  0.2248  0.5633  0.6104
  184MPD1    H5 2809   1.410   3.516  10.406  0.4294 -2.6124 -1.8805
  184MPD1    N1 2810   1.870   3.257  10.650 -0.1517  0.5344  1.2168
  184MPD1    H6 2811   1.904   3.339  10.700  1.8798  0.5633 -0.2174
  184MPD1    H7 2812   1.871   3.182  10.718 -0.6365 -1.8388 -1.3812
  185MPD1     C 2813   0.704   3.489  10.244 -0.3416 -0.6827  0.0950
  185MPD1    C1 2814   0.724   3.616  10.201 -0.3960 -0.1675  0.0309
  185MPD1    C2 2815   0.850   3.671  10.203 -0.2121 -0.7734 -0.0132
  185MPD1    C3 2816   0.965   3.599  10.246  0.4195 -0.3781 -0.3593
  185MPD1    C4 2817   0.941   3.473  10.289 -0.2867  0.0348  0.5197
  185MPD1    C5 2818   0.816   3.423  10.280  0.6277 -0.4248  0.1494
  185MPD1     H 2819   0.861   3.772  10.164 -1.8408 -1.1125 -1.3429
  185MPD1    H1 2820   1.024   3.412  10.323  0.6114  0.8581 -0.2066
  185MPD1    H2 2821   0.607   3.440  10.248 -0.4039 -0.4608  1.1509
  185MPD1    H3 2822   0.816   3.321  10.315  1.7830 -0.5866 -0.3096
  185MPD1     N 2823   1.100   3.650  10.256 -0.2271  0.3695  0.5080
  185MPD1    H5 2824   1.172   3.587  10.290 -0.0462 -0.4311 -1.3936
  185MPD1    N1 2825   0.613   3.697  10.166  0.5041  0.6944 -0.7183
  185MPD1    H6 2826   0.530   3.650  10.131 -0.4462 -0.4028  3.0131
  185MPD1    H7 2827   0.645   3.765  10.097  1.3449  0.2611 -0.7508
  186MPD1     C 2828   0.265   3.283  16.117  0.3985  0.0504 -0.6359
  186MPD1    C1 2829   0.340   3.397  16.091  0.8772  0.2131  0.0160
  186MPD1    C2 2830   0.359   3.475  16.200  0.0816 -0.1776  0.5511
  186MPD1    C3 2831   0.302   3.456  16.327 -0.1857 -0.0098  0.5896
  186MPD1    C4 2832   0.232   3.339  16.350 -0.7112  0.0386 -0.0041
  186MPD1    C5 2833   0.222   3.258  16.242 -0.4150  0.2396  0.1682
  186MPD1     H 2834   0.413   3.566  16.176 -0.9882  0.1178 -0.7634
  186MPD1    H1 2835   0.182   3.315  16.443 -1.5978  0.0777 -0.4702
  186MPD1    H2 2836   0.232   3.213  16.041 -1.9376 -1.4319  1.7201
  186MPD1    H3 2837   0.163   3.167  16.249  0.6694 -0.2384  3.3208
  186MPD1     N 2838   0.313   3.553  16.433  0.1215  0.2710  0.3868
  186MPD1    H5 2839   0.252   3.542  16.514 -0.6912  0.3407 -0.2143
  186MPD1    N1 2840   0.400   3.412  15.973 -0.4394 -0.2821 -0.3456
  186MPD1    H6 2841   0.418   3.510  15.954  0.5002 -0.7450 -1.8716
  186MPD1    H7 2842   0.336   3.388  15.897 -1.0191  0.4599 -0.0899
  187MPD1     C 2843   4.705   0.916   0.084  0.9085  0.4506 -0.0244
  187MPD1    C1 2844   4.612   0.855   0.169 -0.7713  0.0150 -0.3664
  187MPD1    C2 2845   4.477   0.845   0.130  0.6553 -0.3294 -0.1918
  187MPD1    C3 2846   4.439   0.893   0.002 -0.0701 -0.0755 -0.1678
  187MPD1    C4 2847   4.538   0.955  17.608 -0.2760  0.0109 -0.2251
  187MPD1    C5 2848   4.666   0.955  17.651 -0.0939 -0.0720  0.0704
  187MPD1     H 2849   4.408   0.812   0.207 -1.2595 -2.6126 -2.9122
  187MPD1    H1 2850   4.513   1.009  17.517 -0.5894 -0.9767 -0.7246
  187MPD1    H2 2851   0.090   0.920   0.098  1.1001  0.9647 -1.6738
  187MPD1    H3 2852   0.013   1.017  17.593  0.2886 -0.4648  0.1049
  187MPD1     N 2853   4.305   0.902  17.652  0.4044  0.1305 -0.6940
  187MPD1    H5 2854   4.286   0.964  17.574  0.6163  1.8519  0.6392
  187MPD1    N1 2855   4.663   0.822   0.293  0.2117  0.0274 -0.0491
  187MPD1    H6 2856   4.612   0.741   0.327  2.7032 -1.6495 -0.2940
  187MPD1    H7 2857   0.042   0.808   0.289  0.1618 -0.3406 -0.0358
  188MPD1     C 2858   4.247   1.076   8.974  0.1874 -0.1163 -0.0938
  188MPD1    C1 2859   4.145   1.121   9.054  0.5453 -0.7423  0.3466
  188MPD1    C2 2860   4.044   1.032   9.098 -0.3910  0.2084 -0.2664
  188MPD1    C3 2861   4.031   0.908   9.031  0.2482  0.3000 -0.0153
  188MPD1    C4 2862   4.120   0.876   8.933 -0.3785  0.1898  0.3827
  188MPD1    C5 2863   4.239   0.947   8.918 -0.1398 -0.2634 -0.6286
  188MPD1     H 2864   3.978   1.071   9.175  1.0439  2.0982  0.0155
  188MPD1    H1 2865   4.107   0.783   8.879 -0.7092  0.5055 -0.0798
  188MPD1    H2 2866   4.329   1.144   8.952 -0.5196  0.8994  0.4269
  188MPD1    H3 2867   4.312   0.914   8.844  0.2051  3.4208 -1.9732
  188MPD1     N 2868   3.918   0.822   9.054  0.1224  0.2817 -0.0545
  188MPD1    H5 2869   3.910   0.743   8.990 -1.2892  1.1281 -0.9247
  188MPD1    N1 2870   4.142   1.250   9.113  0.5886  0.4829 -0.0352
  188MPD1    H6 2871   4.056   1.276   9.161  1.0450 -0.5720  1.3587
  188MPD1    H7 2872   4.165   1.326   9.050  0.0379  0.3831 -0.3550
  189MPD1     C 2873   1.560   1.524   0.116 -0.4925  0.2761 -0.2754
  189MPD1    C1 2874   1.512   1.609   0.212 -0.2934 -0.0528  0.1927
  189MPD1    C2 2875   1.386   1.588   0.263 -0.3577  0.0098 -0.1515
  189MPD1    C3 2876   1.310   1.475   0.224 -1.1741  0.3731 -0.2957
  189MPD1    C4 2877   1.359   1.385   0.132 -0.2298 -0.2171 -0.1297
  189MPD1    C5 2878   1.486   1.408   0.085  0.0856 -0.0208 -0.2201
  189MPD1     H 2879   1.339   1.663   0.325  2.0560  1.6542 -0.3460
  189MPD1    H1 2880   1.301   1.303   0.091  0.3152  0.2120 -1.7508
  189MPD1    H2 2881   1.660   1.539   0.079 -0.2462  1.0335  0.6975
  189MPD1    H3 2882   1.533   1.333   0.022  0.6907  0.7008 -0.6345
  189MPD1     N 2883   1.178   1.474   0.281  0.0142 -0.2747 -0.0433
  189MPD1    H5 2884   1.143   1.558   0.326  1.1990  0.4813 -0.5566
  189MPD1    N1 2885   1.583   1.729   0.232  0.5410  0.5428  0.5027
  189MPD1    H6 2886   1.575   1.765   0.327 -3.5088 -1.5320  0.9562
  189MPD1    H7 2887   1.682   1.735   0.211  0.4921 -0.2918  0.0366
  190MPD1     C 2888   4.586   0.601  15.159 -0.1971 -0.3088  0.4161
  190MPD1    C1 2889   4.679   0.502  15.138 -1.1600 -0.2375  0.4555
  190MPD1    C2 2890   4.684   0.401  15.234 -0.1644 -0.1947  0.1696
  190MPD1    C3 2891   4.594   0.395  15.345  0.1217 -0.8916  0.5975
  190MPD1    C4 2892   4.494   0.487  15.352  0.4574 -0.0576  0.2894
  190MPD1    C5 2893   4.487   0.580  15.260 -0.5147  0.2494  0.8121
  190MPD1     H 2894   0.045   0.332  15.221  1.3156  1.9456 -1.7500
  190MPD1    H1 2895   4.425   0.496  15.436  1.1962  0.8246  0.8099
  190MPD1    H2 2896   4.575   0.690  15.098  0.3469 -1.2042 -0.9862
  190MPD1    H3 2897   4.402   0.647  15.272  0.7352  1.5937  2.1527
  190MPD1     N 2898   4.613   0.285  15.440 -0.1324 -0.2371  0.1318
  190MPD1    H5 2899   4.683   0.215  15.417  1.2990  1.3959 -0.4780
  190MPD1    N1 2900   0.054   0.515  15.039  0.8094 -0.5987  0.1781
  190MPD1    H6 2901   0.090   0.421  15.019  1.7161 -0.6443  1.9606
  190MPD1    H7 2902   0.012   0.549  14.953  2.3226 -0.4372 -0.4936
  191MPD1     C 2903   3.793   0.316  11.960 -0.5511 -0.2956  0.2628
  191MPD1    C1 2904   3.937   0.328  11.966 -0.0201 -0.2554  0.2582
  191MPD1    C2 2905   3.992   0.404  12.063 -0.0910  0.1143 -0.2032
  191MPD1    C3 2906   3.912   0.468  12.156 -0.2866  0.1671  0.3320
  191MPD1    C4 2907   3.777   0.468  12.139 -0.2721 -0.3053  0.1986
  191MPD1    C5 2908   3.718   0.390  12.047  0.4451 -0.3761  0.3234
  191MPD1     H 2909   4.100   0.408  12.075 -0.4470 -1.3156  3.6579
  191MPD1    H1 2910   3.716   0.518  12.213 -1.1577 -0.3948 -0.4826
  191MPD1    H2 2911   3.739   0.252  11.891 -0.5763  1.7391 -1.6104
  191MPD1    H3 2912   3.611   0.378  12.037  0.0386  2.8691  0.7936
  191MPD1     N 2913   3.976   0.539  12.257  0.2972  0.0543 -0.2505
  191MPD1    H5 2914   4.077   0.535  12.251  0.0889 -0.8393 -2.8177
  191MPD1    N1 2915   4.012   0.254  11.865  0.5364 -0.0034 -0.7668
  191MPD1    H6 2916   3.965   0.174  11.823 -0.2127  1.0378 -1.9447
  191MPD1    H7 2917   4.107   0.227  11.891  0.0307 -0.1670  0.8764
  192MPD1     C 2918   3.922   1.290  13.079  0.3910  0.2284  0.5574
  192MPD1    C1 2919   3.831   1.195  13.035 -0.0389  0.3699 -0.0318
  192MPD1    C2 2920   3.863   1.108  12.928  0.4841  0.0291 -0.5338
  192MPD1    C3 2921   3.983   1.116  12.858 -0.1109 -0.5572 -0.5962
  192MPD1    C4 2922   4.067   1.213  12.908  0.3127  0.4773 -0.1264
  192MPD1    C5 2923   4.039   1.296  13.011 -0.7149 -0.4317  0.2556
  192MPD1     H 2924   3.778   1.047  12.898 -0.2403  0.5787  0.3899
  192MPD1    H1 2925   4.168   1.217  12.869  0.1766 -0.0558 -0.5348
  192MPD1    H2 2926   3.889   1.359  13.156 -0.8306 -0.9670  1.0989
  192MPD1    H3 2927   4.104   1.377  13.042 -2.3360 -0.1899  2.9696
  192MPD1     N 2928   4.009   1.044  12.740  0.7538  0.2064  0.1984
  192MPD1    H5 2929   4.099   1.066  12.698  1.4854  0.2100  1.7502
  192MPD1    N1 2930   3.724   1.165  13.120 -0.3435  0.7242  0.2673
  192MPD1    H6 2931   3.685   1.248  13.165  0.1720  0.4063  1.2969
  192MPD1    H7 2932   3.654   1.106  13.074 -0.3230  0.1619  0.9517
  193MPD1     C 2933   3.140   2.243  16.416 -0.3259  0.6211 -0.3098
  193MPD1    C1 2934   3.134   2.382  16.426 -0.0285 -0.5416  0.0507
  193MPD1    C2 2935   3.241   2.442  16.491  0.2886 -0.1299  0.7686
  193MPD1    C3 2936   3.323   2.375  16.576  0.3946 -0.2313  0.8388
  193MPD1    C4 2937   3.319   2.234  16.570  0.5175 -0.1021 -0.4984
  193MPD1    C5 2938   3.229   2.167  16.493 -1.3207  0.2749  0.1829
  193MPD1     H 2939   3.256   2.550  16.493  1.7203 -0.2985 -1.5062
  193MPD1    H1 2940   3.395   2.181  16.625 -0.5046  1.1290  2.0942
  193MPD1    H2 2941   3.073   2.194  16.346 -0.2044 -1.1458  0.8042
  193MPD1    H3 2942   3.223   2.061  16.475  2.7445  0.3006 -1.3427
  193MPD1     N 2943   3.415   2.430  16.664  0.1237 -0.0942 -0.9326
  193MPD1    H5 2944   3.478   2.367  16.713 -1.8046 -0.2178  1.3851
  193MPD1    N1 2945   3.050   2.453  16.337  0.7197 -0.0036 -0.2450
  193MPD1    H6 2946   2.971   2.400  16.302  1.5617  0.2610 -2.6125
  193MPD1    H7 2947   3.034   2.551  16.362  1.7940 -0.2992  1.5737
  194MPD1     C 2948   2.592   4.669  16.835 -0.2499  0.6623 -0.1877
  194MPD1    C1 2949   2.594   4.677  16.971  0.1259  0.1230  0.9350
  194MPD1    C2 2950   2.566   4.569  17.047  0.0273 -0.4514  0.1845
  194MPD1    C3 2951   2.548   4.443  16.989  0.5499 -0.1141 -0.0519
  194MPD1    C4 2952   2.565   4.436  16.853 -1.8077 -0.1045  0.5401
  194MPD1    C5 2953   2.582   4.549  16.775  0.5997 -0.2549 -0.5062
  194MPD1     H 2954   2.569   4.579  17.155  0.6995  1.7358 -0.0381
  194MPD1    H1 2955   2.557   4.339  16.804 -0.1328  0.6310 -1.1652
  194MPD1    H2 2956   2.593   0.038  16.777 -0.2489  1.4360  1.0284
  194MPD1    H3 2957   2.594   4.548  16.668  0.3403 -0.4979 -0.5317
  194MPD1     N 2958   2.525   4.322  17.061  0.2818 -0.2159 -0.1749
  194MPD1    H5 2959   2.508   4.241  17.002 -0.9601  1.6109 -2.2990
  194MPD1    N1 2960   2.615   0.077  17.034 -0.3241 -0.1696 -0.7148
  194MPD1    H6 2961   2.629   0.079  17.135 -2.9073 -0.2621 -0.3564
  194MPD1    H7 2962   2.693   0.123  16.988  0.7643  1.4883  2.8482
  195MPD1     C 2963   4.391   1.720   0.591  0.7749  0.2957  0.7294
  195MPD1    C1 2964   4.267   1.684   0.542 -0.3760  0.1569 -0.2102
  195MPD1    C2 2965   4.236   1.547   0.536 -0.1489 -0.6244  0.7931
  195MPD1    C3 2966   4.313   1.451   0.599 -0.3211  0.4772  0.3492
  195MPD1    C4 2967   4.429   1.491   0.656  0.3198  0.5623  0.2087
  195MPD1    C5 2968   4.470   1.620   0.648 -0.6720  0.3278 -0.2706
  195MPD1     H 2969   4.140   1.511   0.499  1.3541 -1.3040 -2.4723
  195MPD1    H1 2970   4.488   1.422   0.715  0.7603  0.0686 -0.8221
  195MPD1    H2 2971   4.427   1.822   0.598  1.8740 -0.0639  0.3978
  195MPD1    H3 2972   4.565   1.638   0.698 -0.2990  0.3208 -0.9724
  195MPD1     N 2973   4.280   1.315   0.596 -0.3680 -0.3815 -0.5385
  195MPD1    H5 2974   4.347   1.245   0.628 -0.8363 -0.5677  0.0454
  195MPD1    N1 2975   4.169   1.779   0.524 -0.1748  1.1345  0.6060
  195MPD1    H6 2976   4.196   1.872   0.493 -1.6216  1.6766  0.9834
  195MPD1    H7 2977   4.087   1.751   0.471  0.4697  0.5834 -0.1059
  196MPD1     C 2978   2.454   0.252   0.197  0.8378 -0.5184 -0.2785
  196MPD1    C1 2979   2.512   0.379   0.198 -0.3046 -0.1814  0.7104
  196MPD1    C2 2980   2.562   0.435   0.318 -0.7529 -0.4857 -0.3935
  196MPD1    C3 2981   2.565   0.357   0.435  0.0141 -0.6155 -0.4516
  196MPD1    C4 2982   2.514   0.227   0.435 -0.4543 -0.5612  0.3025
  196MPD1    C5 2983   2.475   0.180   0.310 -1.3411  0.1591  0.5005
  196MPD1     H 2984   2.593   0.538   0.304  0.8292 -1.0268 -0.8822
  196MPD1    H1 2985   2.516   0.164   0.523 -0.0579 -2.0283 -0.7576
  196MPD1    H2 2986   2.420   0.211   0.103  1.3418  0.4290 -0.8765
  196MPD1    H3 2987   2.439   0.078   0.298 -0.7832  0.1187 -0.9667
  196MPD1     N 2988   2.600   0.420   0.559  0.7146  0.4259  0.4632
  196MPD1    H5 2989   2.603   0.366   0.645  3.6468 -0.1676 -0.0206
  196MPD1    N1 2990   2.492   0.459   0.082 -0.6659  0.2176  0.1298
  196MPD1    H6 2991   2.487   0.399   0.000  1.2145  0.5093 -0.1908
  196MPD1    H7 2992   2.565   0.529   0.066 -1.7456  1.3324  0.0826
  197MPD1     C 2993   2.331   2.565   0.147 -0.3866 -0.0508 -0.6568
  197MPD1    C1 2994   2.399   2.686   0.149 -0.3898  0.1087  0.3308
  197MPD1    C2 2995   2.381   2.776   0.050 -0.0281  0.0909 -0.7619
  197MPD1    C3 2996   2.304   2.747  17.626  0.4279  0.8698 -0.0096
  197MPD1    C4 2997   2.250   2.616  17.620  0.1147  0.0128  0.5172
  197MPD1    C5 2998   2.259   2.525   0.035  0.8267  0.2615 -0.2004
  197MPD1     H 2999   2.426   2.873   0.066  1.5086 -0.8712  0.7519
  197MPD1    H1 3000   2.189   2.587  17.535  1.3020  1.1717 -0.7442
  197MPD1    H2 3001   2.340   2.489   0.224 -0.2460  0.9960  0.3558
  197MPD1    H3 3002   2.213   2.427   0.024  1.6886 -0.2987  1.1842
  197MPD1     N 3003   2.287   2.830  17.516  0.3012 -0.2557 -0.4337
  197MPD1    H5 3004   2.242   2.793  17.433 -2.7828 -0.4579  1.3383
  197MPD1    N1 3005   2.467   2.732   0.265  0.1309 -0.3298 -0.0688
  197MPD1    H6 3006   2.540   2.798   0.240  0.0882 -0.0800  0.4769
  197MPD1    H7 3007   2.512   2.662   0.324  0.9429  0.4935  0.2846
  198MPD1     C 3008   3.598   1.117  16.492  0.1156  1.1970  0.1380
  198MPD1    C1 3009   3.700   1.110  16.584 -0.1685 -0.1997  0.8013
  198MPD1    C2 3010   3.822   1.123  16.530  0.4900 -0.1932 -0.2925
  198MPD1    C3 3011   3.846   1.131  16.394 -0.5244 -0.0935 -0.1219
  198MPD1    C4 3012   3.741   1.129  16.306 -0.0185  0.2184  0.3897
  198MPD1    C5 3013   3.613   1.121  16.357 -0.0637 -0.3478  0.8403
  198MPD1     H 3014   3.900   1.129  16.605  0.8512  0.4608 -0.7185
  198MPD1    H1 3015   3.762   1.133  16.199  2.1405 -0.3050  0.8044
  198MPD1    H2 3016   3.502   1.110  16.542  0.1362 -0.6727 -0.0887
  198MPD1    H3 3017   3.529   1.117  16.288  0.1802 -0.1949  0.5376
  198MPD1     N 3018   3.980   1.142  16.340 -0.2655  0.2173  0.2882
  198MPD1    H5 3019   4.056   1.157  16.407  2.4139  0.5641 -2.8305
  198MPD1    N1 3020   3.678   1.104  16.724  0.0917  0.6619 -0.1555
  198MPD1    H6 3021   3.582   1.072  16.735  0.9193 -1.3938  0.9084
  198MPD1    H7 3022   3.742   1.051  16.782 -1.4653 -0.5994  0.4143
  199MPD1     C 3023   2.412   2.735   9.850 -0.5483 -0.8552 -0.2564
  199MPD1    C1 3024   2.301   2.809   9.894 -0.8029  0.2493 -0.3135
  199MPD1    C2 3025   2.181   2.749   9.888  0.4295 -0.4028 -0.1663
  199MPD1    C3 3026   2.154   2.633   9.819 -0.2344  0.2108 -0.2405
  199MPD1    C4 3027   2.260   2.581   9.749 -0.3445  0.1705  0.8140
  199MPD1    C5 3028   2.388   2.623   9.777  0.0818  0.4421  0.4680
  199MPD1     H 3029   2.100   2.792   9.946  0.8871  0.9170 -0.5045
  199MPD1    H1 3030   2.246   2.492   9.688  3.2834 -0.4698  0.9044
  199MPD1    H2 3031   2.515   2.764   9.865 -0.6423  0.5857 -2.4042
  199MPD1    H3 3032   2.471   2.569   9.733  0.1868  0.5035  0.5879
  199MPD1     N 3033   2.031   2.565   9.816  0.0294 -0.4833 -0.2314
  199MPD1    H5 3034   2.041   2.479   9.765  0.3930 -0.3181 -0.4391
  199MPD1    N1 3035   2.322   2.932   9.964  0.0815 -0.2334 -0.1009
  199MPD1    H6 3036   2.406   2.980   9.931  0.5466 -0.1791  1.1860
  199MPD1    H7 3037   2.243   2.995   9.967  1.3279  1.2895  0.3395
  200MPD1     C 3038   0.118   2.103  15.567 -0.5212 -0.7477 -0.1886
  200MPD1    C1 3039   0.136   2.010  15.464 -0.1285  0.1604 -1.2672
  200MPD1    C2 3040   0.232   2.047  15.372  0.0133  0.1169  0.0146
  200MPD1    C3 3041   0.310   2.155  15.386  0.9177 -0.4256 -0.1019
  200MPD1    C4 3042   0.309   2.232  15.497 -0.1109 -0.5252 -0.8804
  200MPD1    C5 3043   0.197   2.214  15.581  0.0622  0.5468  0.5710
  200MPD1     H 3044   0.237   1.990  15.280  0.6780  0.4375 -0.1459
  200MPD1    H1 3045   0.382   2.309  15.519  0.7556 -1.3900 -0.7045
  200MPD1    H2 3046   0.034   2.095  15.635 -0.5977 -1.2786 -0.3404
  200MPD1    H3 3047   0.185   2.281  15.665 -0.0184 -0.5074  1.3979
  200MPD1     N 3048   0.384   2.193  15.268  0.0884 -0.2927 -0.5382
  200MPD1    H5 3049   0.375   2.137  15.184  1.2215 -2.7041  0.9477
  200MPD1    N1 3050   0.053   1.897  15.451  0.6190 -0.2119  0.1903
  200MPD1    H6 3051   0.054   1.861  15.356  1.4146  1.1906 -0.3279
  200MPD1    H7 3052   4.683   1.934  15.469  1.1457  0.8836  0.6115
  201MPD1     C 3053   2.286   1.073  13.996  0.0940 -0.4604  0.7438
  201MPD1    C1 3054   2.289   1.043  13.855  0.0362 -0.1456 -0.5788
  201MPD1    C2 3055   2.389   0.955  13.812  0.4979 -0.2978  0.1160
  201MPD1    C3 3056   2.473   0.897  13.899  0.0656 -0.5939  0.4569
  201MPD1    C4 3057   2.452   0.915  14.036 -0.0817  0.1051  0.5437
  201MPD1    C5 3058   2.362   0.999  14.081 -1.0188 -0.0776 -0.2506
  201MPD1     H 3059   2.396   0.925  13.708 -0.4248  3.4723 -1.0539
  201MPD1    H1 3060   2.507   0.854  14.107  1.9032 -0.4861 -1.5032
  201MPD1    H2 3061   2.221   1.149  14.038 -2.8156 -2.3877 -0.3244
  201MPD1    H3 3062   2.352   1.023  14.187  0.3798 -0.0465 -0.1190
  201MPD1     N 3063   2.581   0.827  13.848  0.2447  1.3842 -0.1693
  201MPD1    H5 3064   2.589   0.826  13.746  2.1961  0.0395 -0.0016
  201MPD1    N1 3065   2.224   1.136  13.762  0.4314 -0.3071 -0.0357
  201MPD1    H6 3066   2.207   1.095  13.670 -2.0081 -1.9146  1.1392
  201MPD1    H7 3067   2.135   1.174  13.794 -0.4200 -0.9249 -1.6932
  202MPD1     C 3068   3.767   1.338   9.823  0.0062 -0.5821  0.4603
  202MPD1    C1 3069   3.794   1.204   9.830  0.5669  0.4127 -0.1496
  202MPD1    C2 3070   3.698   1.123   9.881 -0.3549  0.3985 -0.3528
  202MPD1    C3 3071   3.567   1.163   9.893 -0.0547 -0.3648  0.1859
  202MPD1    C4 3072   3.536   1.301   9.871  0.0811 -0.0805 -0.4410
  202MPD1    C5 3073   3.638   1.389   9.838  0.1936  0.4016  0.2477
  202MPD1     H 3074   3.728   1.019   9.888 -0.2644  0.5668  1.6407
  202MPD1    H1 3075   3.435   1.335   9.890 -0.4755 -0.4505 -2.7437
  202MPD1    H2 3076   3.839   1.416   9.803 -1.8030  0.9999  0.1595
  202MPD1    H3 3077   3.624   1.496   9.832  2.0143  0.6580  0.5917
  202MPD1     N 3078   3.458   1.082   9.944 -0.2176  0.3042 -0.3489
  202MPD1    H5 3079   3.365   1.123   9.932  0.4321  2.0078  0.4470
  202MPD1    N1 3080   3.927   1.163   9.844  0.1615 -0.5868 -0.7977
  202MPD1    H6 3081   3.947   1.063   9.833  2.7610 -0.2277  0.6377
  202MPD1    H7 3082   3.992   1.210   9.781  0.6860  0.3976  0.4630
  203MPD1     C 3083   2.164   2.190  12.313  0.4648  0.1404  0.0994
  203MPD1    C1 3084   2.205   2.084  12.237 -0.7994 -0.2483 -0.4424
  203MPD1    C2 3085   2.211   1.959  12.298  0.0710 -0.0007  0.5092
  203MPD1    C3 3086   2.165   1.933  12.428  0.7628  0.2508  0.3403
  203MPD1    C4 3087   2.124   2.045  12.498  0.7893 -0.1095  0.0924
  203MPD1    C5 3088   2.133   2.169  12.445  0.7785  0.1901  0.6574
  203MPD1     H 3089   2.241   1.876  12.236  2.3532 -0.4679  2.2146
  203MPD1    H1 3090   2.077   2.034  12.594 -1.4370 -0.6972 -1.0716
  203MPD1    H2 3091   2.149   2.292  12.280 -3.4539 -0.2520  0.5462
  203MPD1    H3 3092   2.101   2.252  12.507 -0.2115  1.2509 -1.2714
  203MPD1     N 3093   2.167   1.800  12.475 -0.8146  0.5680  0.1114
  203MPD1    H5 3094   2.199   1.723  12.417 -3.3003  0.8460 -1.6579
  203MPD1    N1 3095   2.222   2.101  12.098  0.2507  0.2779  0.1681
  203MPD1    H6 3096   2.265   2.021  12.051 -1.8504  1.0790 -3.0819
  203MPD1    H7 3097   2.275   2.187  12.087  2.0187 -0.9080 -0.8009
  204MPD1     C 3098   0.697   2.604   0.352  0.5220 -0.4565  0.6310
  204MPD1    C1 3099   0.806   2.651   0.282  0.1519 -0.0887  0.0059
  204MPD1    C2 3100   0.814   2.610   0.149 -0.2307  0.5566  0.2615
  204MPD1    C3 3101   0.726   2.531   0.091 -0.2784 -0.5264  0.1696
  204MPD1    C4 3102   0.616   2.482   0.163  0.2856 -0.0366  0.4280
  204MPD1    C5 3103   0.609   2.520   0.291 -0.0447 -0.6663 -0.3594
  204MPD1     H 3104   0.899   2.640   0.089  1.0958 -1.8018  0.9668
  204MPD1    H1 3105   0.540   2.413   0.130 -0.2192  0.9197 -0.3989
  204MPD1    H2 3106   0.669   2.635   0.453  1.4641 -0.0092  0.7556
  204MPD1    H3 3107   0.531   2.479   0.354  0.3709  0.3911  0.8396
  204MPD1     N 3108   0.741   2.504  17.642 -0.5999 -0.2706  0.5345
  204MPD1    H5 3109   0.829   2.531  17.600 -0.5526 -0.5691  0.4399
  204MPD1    N1 3110   0.885   2.758   0.334 -0.2339 -0.2807  0.7568
  204MPD1    H6 3111   0.982   2.758   0.304  0.4377  1.3518  2.9024
  204MPD1    H7 3112   0.898   2.736   0.432  1.5551 -1.5355  0.2421
  205MPD1     C 3113   1.960   1.897  16.729 -0.9695  0.5200 -0.0547
  205MPD1    C1 3114   1.964   1.771  16.778  0.2734  0.0404  0.0639
  205MPD1    C2 3115   1.852   1.702  16.807  0.4962 -0.3144  0.4605
  205MPD1    C3 3116   1.727   1.761  16.786 -0.0217 -0.0278  0.5746
  205MPD1    C4 3117   1.720   1.881  16.723 -0.0533 -0.0225  0.8503
  205MPD1    C5 3118   1.837   1.953  16.705  0.1606 -0.3235 -0.0543
  205MPD1     H 3119   1.874   1.613  16.864  0.9537 -0.2910  0.3277
  205MPD1    H1 3120   1.630   1.940  16.707  0.5282  1.4193  2.8090
  205MPD1    H2 3121   2.043   1.961  16.704 -1.4882  0.8271 -0.9917
  205MPD1    H3 3122   1.837   2.057  16.675  0.4272 -0.3968 -0.3127
  205MPD1     N 3123   1.606   1.706  16.830  0.4539  0.3422 -0.7721
  205MPD1    H5 3124   1.517   1.756  16.829  1.1102  1.5244  0.3435
  205MPD1    N1 3125   2.089   1.719  16.805 -0.3127  0.5600  0.1377
  205MPD1    H6 3126   2.090   1.618  16.818 -0.1829  0.8275  2.1205
  205MPD1    H7 3127   2.167   1.743  16.745  1.6504  0.5635  2.6992
  206MPD1     C 3128   1.718   4.004  16.696  0.1107  0.0484  0.1618
  206MPD1    C1 3129   1.687   4.133  16.655 -0.7313 -0.4914  1.2802
  206MPD1    C2 3130   1.687   4.169  16.519 -0.9813  0.5186  0.1879
  206MPD1    C3 3131   1.724   4.079  16.418  0.2709 -0.6017 -0.6391
  206MPD1    C4 3132   1.758   3.952  16.460 -0.7976  0.0332  0.5641
  206MPD1    C5 3133   1.760   3.917  16.595 -0.2101  0.4346  0.1973
  206MPD1     H 3134   1.650   4.264  16.483 -0.7689  0.8314  0.7972
  206MPD1    H1 3135   1.780   3.872  16.391  0.4447  0.1357  0.8433
  206MPD1    H2 3136   1.718   3.957  16.794 -1.4951  0.6895  0.4593
  206MPD1    H3 3137   1.790   3.820  16.632  1.2646 -0.1658 -2.6059
  206MPD1     N 3138   1.702   4.102  16.281 -0.1106  0.0735  0.0798
  206MPD1    H5 3139   1.716   4.027  16.215 -3.3042 -0.0142 -0.5297
  206MPD1    N1 3140   1.623   4.218  16.746  0.0611 -0.3158  0.0545
  206MPD1    H6 3141   1.641   4.196  16.844 -1.7781 -0.1536  0.4426
  206MPD1    H7 3142   1.637   4.317  16.725 -3.1210 -0.3512 -2.2599
  207MPD1     C 3143   4.154   2.714   9.388  0.2252 -0.4007 -0.0261
  207MPD1    C1 3144   4.032   2.653   9.430 -0.2425  0.5300  0.0918
  207MPD1    C2 3145   4.046   2.559   9.534 -0.1824  0.2464 -0.1379
  207MPD1    C3 3146   4.158   2.558   9.612 -0.3284 -1.1506  0.1781
  207MPD1    C4 3147   4.267   2.633   9.579  0.3625 -0.7003 -0.3047
  207MPD1    C5 3148   4.269   2.721   9.468  0.3341 -0.1922 -0.1537
  207MPD1     H 3149   3.965   2.489   9.550  1.0650 -1.3634 -0.8306
  207MPD1    H1 3150   4.362   2.639   9.631  0.9471 -0.6243 -1.3939
  207MPD1    H2 3151   4.147   2.778   9.301  3.4992 -2.2070 -1.6249
  207MPD1    H3 3152   4.360   2.764   9.429  1.0552 -0.2220  1.5210
  207MPD1     N 3153   4.160   2.490   9.733 -0.1380  0.3179  0.2391
  207MPD1    H5 3154   4.228   2.521   9.802  0.5360 -0.7012  0.0218
  207MPD1    N1 3155   3.914   2.636   9.350 -0.0509  0.1218 -0.2383
  207MPD1    H6 3156   3.832   2.605   9.401  0.7612 -0.4417  0.7436
  207MPD1    H7 3157   3.872   2.717   9.305 -1.0005 -1.2911 -1.8913
  208MPD1     C 3158   2.352   1.331  17.007  1.0627  0.0905 -0.4557
  208MPD1    C1 3159   2.264   1.240  16.948 -0.5827 -0.0474 -0.3634
  208MPD1    C2 3160   2.188   1.154  17.030  0.0025 -0.4201 -0.0609
  208MPD1    C3 3161   2.229   1.143  17.163  0.6790  0.6203  0.1549
  208MPD1    C4 3162   2.341   1.209  17.208  0.3234  0.1443  0.3001
  208MPD1    C5 3163   2.392   1.314  17.134  0.2008 -0.0665 -0.3516
  208MPD1     H 3164   2.100   1.104  16.991 -0.4942 -0.2999  0.8884
  208MPD1    H1 3165   2.371   1.215  17.312 -1.1968 -2.7978  0.9116
  208MPD1    H2 3166   2.398   1.412  16.953  0.4912  2.1155  2.0982
  208MPD1    H3 3167   2.467   1.381  17.175  0.6051 -0.0202 -1.1648
  208MPD1     N 3168   2.146   1.061  17.240 -0.3531 -0.4161 -0.5027
  208MPD1    H5 3169   2.060   1.036  17.194 -1.1803 -0.2825  0.9696
  208MPD1    N1 3170   2.230   1.247  16.813 -0.2833 -0.9182  0.5055
  208MPD1    H6 3171   2.304   1.278  16.751  1.2892 -0.9343  2.3679
  208MPD1    H7 3172   2.189   1.161  16.776  1.9541 -1.5054 -0.6129
  209MPD1     C 3173   3.919   0.940  10.690 -0.6613 -0.1474 -0.7191
  209MPD1    C1 3174   3.933   0.987  10.566 -0.0128  0.0403 -0.1062
  209MPD1    C2 3175   4.036   1.075  10.531 -0.1079  0.0230  0.0454
  209MPD1    C3 3176   4.134   1.100  10.628 -0.4899 -0.6466 -0.1648
  209MPD1    C4 3177   4.127   1.039  10.751  0.4452  0.1611 -0.2072
  209MPD1    C5 3178   4.017   0.958  10.784 -0.3769 -0.1620 -0.5492
  209MPD1     H 3179   4.047   1.133  10.440 -0.2852 -0.0425 -0.0194
  209MPD1    H1 3180   4.213   1.036  10.816  0.0015  0.9444  0.4188
  209MPD1    H2 3181   3.851   0.858  10.711 -1.2500 -0.2728 -3.0500
  209MPD1    H3 3182   4.021   0.890  10.868  0.1815 -0.0549 -0.4916
  209MPD1     N 3183   4.232   1.193  10.591 -0.2594  0.5817 -0.7731
  209MPD1    H5 3184   4.237   1.224  10.495 -1.2026  1.2240 -0.6155
  209MPD1    N1 3185   3.822   0.961  10.483 -0.3407  0.0218  0.2476
  209MPD1    H6 3186   3.782   0.867  10.483 -3.1131  1.1816 -0.6309
  209MPD1    H7 3187   3.853   0.966  10.386 -0.1430  0.4195  0.3313
  210MPD1     C 3188   4.515   1.819  11.181 -0.5542  0.5895 -0.2816
  210MPD1    C1 3189   4.549   1.873  11.058  0.2550  0.5993  0.1984
  210MPD1    C2 3190   4.561   1.787  10.949  0.1936 -0.6550  0.0257
  210MPD1    C3 3191   4.542   1.650  10.964 -0.0769  0.6232  0.0049
  210MPD1    C4 3192   4.524   1.597  11.089 -0.2024 -0.1275  0.4150
  210MPD1    C5 3193   4.504   1.685  11.197  0.2481  0.2065  0.6250
  210MPD1     H 3194   4.561   1.840  10.854  2.3000  1.0850  0.9855
  210MPD1    H1 3195   4.515   1.491  11.106 -1.0043 -0.5338 -2.4619
  210MPD1    H2 3196   4.511   1.887  11.266  0.3872  0.7358 -0.3610
  210MPD1    H3 3197   4.497   1.639  11.295  0.1736  1.1484  1.0626
  210MPD1     N 3198   4.564   1.565  10.857  0.1644 -0.4319  0.0358
  210MPD1    H5 3199   4.546   1.468  10.883 -0.1725  0.0944  1.7910
  210MPD1    N1 3200   4.541   2.005  11.029 -0.1837  0.1901 -0.0085
  210MPD1    H6 3201   4.615   2.040  10.967 -1.1138  0.0879 -1.1778
  210MPD1    H7 3202   4.551   2.067  11.109 -3.6692 -0.0597  0.5877
  211MPD1     C 3203   2.250   1.455  16.457 -0.2480 -0.3974  0.4030
  211MPD1    C1 3204   2.202   1.568  16.397 -0.1338 -0.7256  0.9693
  211MPD1    C2 3205   2.074   1.604  16.429 -0.0504 -0.1643 -0.0121
  211MPD1    C3 3206   1.985   1.523  16.492 -0.4754 -1.1132  0.5742
  211MPD1    C4 3207   2.033   1.397  16.529  0.1683  0.1341 -0.1062
  211MPD1    C5 3208   2.167   1.370  16.524 -0.7569 -0.3571  0.1061
  211MPD1     H 3209   2.037   1.702  16.401  1.8353  0.2707 -0.9387
  211MPD1    H1 3210   1.972   1.311  16.553 -0.0633 -0.2661 -2.1591
  211MPD1    H2 3211   2.356   1.430  16.461 -0.3214 -0.6928  0.5459
  211MPD1    H3 3212   2.193   1.270  16.556  0.6620  0.0457  0.2107
  211MPD1     N 3213   1.850   1.554  16.492  0.2684 -0.6350 -0.6705
  211MPD1    H5 3214   1.823   1.619  16.420 -0.7431  1.8662  1.9694
  211MPD1    N1 3215   2.294   1.659  16.345 -0.4827  0.0050 -0.2722
  211MPD1    H6 3216   2.380   1.611  16.319 -0.5879  0.3719 -1.2884
  211MPD1    H7 3217   2.252   1.714  16.270 -3.0328 -0.8077  0.5575
  212MPD1     C 3218   1.375   0.033  16.994  0.7152 -0.6312 -0.2609
  212MPD1    C1 3219   1.302   0.079  17.102 -0.5225 -0.3537 -0.0224
  212MPD1    C2 3220   1.205   4.718  17.149  0.2313  0.3116 -0.5723
  212MPD1    C3 3221   1.182   4.592  17.099  0.0797 -0.2297  0.4755
  212MPD1    C4 3222   1.264   4.547  16.999 -0.0949  0.2725 -0.4929
  212MPD1    C5 3223   1.357   4.625  16.960 -0.4979 -0.8468 -0.0357
  212MPD1     H 3224   1.146   0.037  17.229 -1.0561  0.6953 -1.7298
  212MPD1    H1 3225   1.258   4.443  16.969  2.0326 -0.0757  0.3012
  212MPD1    H2 3226   1.455   0.086  16.945 -0.7844  1.3991 -0.5050
  212MPD1    H3 3227   1.432   4.578  16.897 -1.0262  0.5762 -1.7159
  212MPD1     N 3228   1.087   4.499  17.148  0.0902 -0.3933 -0.0924
  212MPD1    H5 3229   1.076   4.414  17.093 -1.6902  0.1748 -0.5963
  212MPD1    N1 3230   1.326   0.207  17.158  0.6851  0.0475 -0.3999
  212MPD1    H6 3231   1.246   0.253  17.202  2.2946  0.3230  2.2605
  212MPD1    H7 3232   1.371   0.278  17.101 -1.6392  1.4550 -0.4897
  213MPD1     C 3233   3.832   0.385  15.621  0.0850 -0.0784 -0.5123
  213MPD1    C1 3234   3.700   0.348  15.643 -0.7736 -0.0762 -0.4647
  213MPD1    C2 3235   3.604   0.445  15.591  0.4350  0.1235  0.3969
  213MPD1    C3 3236   3.635   0.531  15.488  0.0454 -0.3789 -0.7606
  213MPD1    C4 3237   3.771   0.544  15.463 -0.2650 -0.5868 -0.0951
  213MPD1    C5 3238   3.861   0.486  15.541 -0.6766 -0.4437 -0.4397
  213MPD1     H 3239   3.501   0.435  15.624 -0.3626  1.8095 -1.5764
  213MPD1    H1 3240   3.811   0.616  15.393  1.2056 -1.1495  0.1711
  213MPD1    H2 3241   3.912   0.342  15.681 -0.9951 -1.6005 -0.1660
  213MPD1    H3 3242   3.965   0.505  15.518 -0.6905 -0.5549 -0.5963
  213MPD1     N 3243   3.537   0.590  15.404 -0.4009  0.1786 -0.1873
  213MPD1    H5 3244   3.440   0.563  15.419 -0.1730 -0.6962 -0.2811
  213MPD1    N1 3245   3.664   0.281  15.757  0.0442 -0.4584 -0.7159
  213MPD1    H6 3246   3.574   0.234  15.747 -0.0080 -0.1665 -1.5991
  213MPD1    H7 3247   3.732   0.208  15.778  0.7997  0.5743  0.4693
  214MPD1     C 3248   2.835   0.190  15.270  1.3430  0.2732 -0.4158
  214MPD1    C1 3249   2.810   0.285  15.168 -0.1711  0.4082 -0.4043
  214MPD1    C2 3250   2.914   0.367  15.129 -0.4395  0.2714  0.0028
  214MPD1    C3 3251   3.032   0.366  15.205 -0.4166  0.9347 -0.3285
  214MPD1    C4 3252   3.042   0.284  15.318  0.7066  0.1520 -0.4127
  214MPD1    C5 3253   2.945   0.193  15.342 -0.3751  0.2031  0.3115
  214MPD1     H 3254   2.895   0.438  15.050  1.7250  2.3237  1.3275
  214MPD1    H1 3255   3.130   0.270  15.380  0.0828 -1.9084  0.0356
  214MPD1    H2 3256   2.756   0.118  15.290  1.2790  0.2737 -0.6648
  214MPD1    H3 3257   2.962   0.115  15.416 -1.9848 -0.5882 -0.1565
  214MPD1     N 3258   3.143   0.446  15.179 -0.4808  0.1089 -0.0893
  214MPD1    H5 3259   3.226   0.422  15.232  0.0068  0.1425 -0.8433
  214MPD1    N1 3260   2.698   0.282  15.089  0.3574 -0.1450 -0.5853
  214MPD1    H6 3261   2.679   0.367  15.037  2.6227  0.8900  0.3262
  214MPD1    H7 3262   2.612   0.243  15.127  0.4579  1.3873  1.1716
  215MPD1     C 3263   3.419   0.841  11.366 -0.2908 -0.4791 -0.0596
  215MPD1    C1 3264   3.531   0.781  11.409 -0.2470  0.9205  1.4215
  215MPD1    C2 3265   3.651   0.828  11.351  0.2491 -0.0947  0.1251
  215MPD1    C3 3266   3.655   0.919  11.248  0.3426  0.0686  0.1323
  215MPD1    C4 3267   3.535   0.966  11.196  0.1746 -0.4446 -0.2914
  215MPD1    C5 3268   3.421   0.935  11.267  0.1656 -0.0494  0.5597
  215MPD1     H 3269   3.739   0.787  11.399 -0.2564 -0.7431  0.4947
  215MPD1    H1 3270   3.531   1.033  11.111  2.1561  1.5703  1.2153
  215MPD1    H2 3271   3.317   0.817  11.393 -0.6641  4.1619  2.8066
  215MPD1    H3 3272   3.320   0.968  11.245 -0.7663 -2.1919  1.5379
  215MPD1     N 3273   3.785   0.946  11.186 -1.1083  0.2798 -0.0879
  215MPD1    H5 3274   3.866   0.909  11.234  0.8234  1.3116 -2.5575
  215MPD1    N1 3275   3.540   0.691  11.521  0.0898 -0.5108 -0.0934
  215MPD1    H6 3276   3.624   0.638  11.539 -0.8181 -2.3535 -1.2276
  215MPD1    H7 3277   3.466   0.624  11.543 -1.3779  1.1177  0.0057
  216MPD1     C 3278   1.367   3.532  16.848  0.1941 -0.0059 -0.0233
  216MPD1    C1 3279   1.406   3.597  16.964 -0.1133  0.1770  0.5889
  216MPD1    C2 3280   1.379   3.529  17.083  0.1732 -0.0593  0.0559
  216MPD1    C3 3281   1.289   3.424  17.098  0.1910 -0.5931  0.2634
  216MPD1    C4 3282   1.254   3.358  16.981  0.4129 -0.1991 -0.5075
  216MPD1    C5 3283   1.293   3.413  16.860 -0.2824  0.1130 -0.0330
  216MPD1     H 3284   1.420   3.570  17.174 -1.2444 -1.3290  1.2674
  216MPD1    H1 3285   1.206   3.261  16.983  0.5203 -0.2489 -0.3718
  216MPD1    H2 3286   1.384   3.573  16.749 -1.1579  0.0269 -0.2453
  216MPD1    H3 3287   1.270   3.356  16.771 -0.2261 -1.1226  0.7551
  216MPD1     N 3288   1.264   3.366  17.228 -0.3828 -0.2561 -0.7950
  216MPD1    H5 3289   1.297   3.424  17.305  0.1575 -0.3792 -0.9353
  216MPD1    N1 3290   1.497   3.702  16.953 -0.2187 -0.0507 -0.5615
  216MPD1    H6 3291   1.510   3.748  17.043  2.2428 -3.1634  0.6840
  216MPD1    H7 3292   1.474   3.775  16.885  0.0886 -0.8474 -1.5211
  217MPD1     C 3293   1.742   4.205   8.543  0.2085 -0.3259  0.2871
  217MPD1    C1 3294   1.654   4.311   8.558  0.0832 -0.1049 -0.1022
  217MPD1    C2 3295   1.673   4.388   8.673 -0.2518  0.3014  0.4354
  217MPD1    C3 3296   1.770   4.364   8.768  0.3177  0.0489  0.3026
  217MPD1    C4 3297   1.855   4.258   8.746  0.0140 -0.5023  0.0991
  217MPD1    C5 3298   1.849   4.187   8.628 -0.1401  0.6086  0.7691
  217MPD1     H 3299   1.598   4.466   8.684 -0.6093  0.3215 -2.1620
  217MPD1    H1 3300   1.932   4.233   8.817  0.4595  1.3025  0.2498
  217MPD1    H2 3301   1.736   4.127   8.468  1.1733 -0.8053  0.7011
  217MPD1    H3 3302   1.917   4.109   8.597 -0.6570  1.2149 -1.8439
  217MPD1     N 3303   1.781   4.435   8.894 -0.2813  0.5666 -0.2739
  217MPD1    H5 3304   1.866   4.416   8.947 -0.2370 -1.3771 -1.0449
  217MPD1    N1 3305   1.528   4.326   8.496  0.1887  0.0596  0.3926
  217MPD1    H6 3306   1.497   4.420   8.520 -0.0878  0.0262  0.1678
  217MPD1    H7 3307   1.515   4.285   8.404  1.4808 -1.2311  0.7838
  218MPD1     C 3308   4.362   1.985  12.670  0.4367  0.2052  0.8829
  218MPD1    C1 3309   4.297   1.878  12.716  0.4371  0.1263 -0.0204
  218MPD1    C2 3310   4.265   1.773  12.625  0.7519  0.7986  0.3381
  218MPD1    C3 3311   4.296   1.789  12.498 -0.1380  0.6059  0.2102
  218MPD1    C4 3312   4.369   1.897  12.452  0.5850  0.0644  0.2342
  218MPD1    C5 3313   4.398   1.996  12.538  0.1175  0.6441  0.7527
  218MPD1     H 3314   4.223   1.678  12.655  0.9803  0.7564  0.5197
  218MPD1    H1 3315   4.409   1.903  12.352  0.1863 -0.3909  0.0422
  218MPD1    H2 3316   4.385   2.073  12.728 -2.5113  2.4482 -1.3513
  218MPD1    H3 3317   4.463   2.074  12.501  1.0148 -0.3377  0.2818
  218MPD1     N 3318   4.266   1.681  12.417  0.2051  0.2765 -0.4929
  218MPD1    H5 3319   4.209   1.606  12.454 -0.7097  0.2794 -1.8870
  218MPD1    N1 3320   4.258   1.866  12.850 -0.0092  0.4815  0.5444
  218MPD1    H6 3321   4.160   1.838  12.853  0.2490 -0.6978 -2.3100
  218MPD1    H7 3322   4.276   1.955  12.896  2.2538  0.4724 -0.3188
  219MPD1     C 3323   4.082   1.378  11.411 -0.2582  0.4210 -0.2085
  219MPD1    C1 3324   4.204   1.407  11.462 -0.0091 -0.0477  0.2465
  219MPD1    C2 3325   4.217   1.407  11.602  0.5645  0.8236  0.5565
  219MPD1    C3 3326   4.115   1.366  11.687 -0.9643  0.1360 -0.6138
  219MPD1    C4 3327   3.992   1.333  11.636 -1.0505  0.0663  0.0147
  219MPD1    C5 3328   3.977   1.340  11.494 -0.1482  0.2230 -0.3968
  219MPD1     H 3329   4.313   1.441  11.641  1.3079 -0.5366 -0.0617
  219MPD1    H1 3330   3.912   1.301  11.701 -1.7365 -0.4452 -1.0806
  219MPD1    H2 3331   4.057   1.379  11.306  0.5642 -1.7205 -0.4109
  219MPD1    H3 3332   3.883   1.323  11.443 -0.0006  1.4315 -1.0596
  219MPD1     N 3333   4.131   1.369  11.828  0.3657  0.6559 -0.2448
  219MPD1    H5 3334   4.049   1.337  11.878  1.2456 -0.2202  0.6563
  219MPD1    N1 3335   4.292   1.488  11.379 -0.1592  0.1298 -0.4914
  219MPD1    H6 3336   4.389   1.479  11.410 -0.8710  1.8454  2.2184
  219MPD1    H7 3337   4.286   1.453  11.284  0.3881 -2.7400  0.5164
  220MPD1     C 3338   3.763   2.462   9.842 -0.2293  0.7171  0.2879
  220MPD1    C1 3339   3.821   2.461   9.965  0.4040 -1.0978  0.1210
  220MPD1    C2 3340   3.839   2.340  10.028  0.3063  0.2825 -0.0987
  220MPD1    C3 3341   3.805   2.222   9.965 -0.0088 -0.1917 -0.5836
  220MPD1    C4 3342   3.751   2.230   9.842 -0.2320  0.0458  0.9210
  220MPD1    C5 3343   3.727   2.351   9.780  0.4551 -0.0856  0.5007
  220MPD1     H 3344   3.889   2.332  10.124  1.0560  3.3793 -0.2457
  220MPD1    H1 3345   3.731   2.143   9.780  0.4735 -0.0651  0.8482
  220MPD1    H2 3346   3.739   2.558   9.798 -0.2005 -0.4247 -2.2319
  220MPD1    H3 3347   3.693   2.349   9.677 -0.8322 -0.3393  0.9238
  220MPD1     N 3348   3.826   2.099  10.038 -0.1991 -0.9138  0.5832
  220MPD1    H5 3349   3.858   2.109  10.133 -0.0376 -0.3449  0.4719
  220MPD1    N1 3350   3.863   2.592  10.007 -0.2339 -0.3238 -0.8063
  220MPD1    H6 3351   3.883   2.615  10.104 -1.2856  1.0823 -0.9325
  220MPD1    H7 3352   3.822   2.668   9.954  0.8170  0.0870 -1.0440
  221MPD1     C 3353   0.584   0.985  16.286 -0.4790 -0.6767 -0.0790
  221MPD1    C1 3354   0.674   1.016  16.383 -0.5152  0.6474 -0.2866
  221MPD1    C2 3355   0.809   0.988  16.375 -0.9898 -0.4184 -0.0970
  221MPD1    C3 3356   0.858   0.944  16.259  0.3020  0.0515  0.4846
  221MPD1    C4 3357   0.772   0.917  16.154 -0.2055  0.4750 -0.3978
  221MPD1    C5 3358   0.637   0.928  16.170 -0.0106  0.1186 -0.6715
  221MPD1     H 3359   0.863   1.013  16.465  0.9659 -0.9202 -1.1195
  221MPD1    H1 3360   0.807   0.886  16.057 -0.9302 -0.9291 -0.2081
  221MPD1    H2 3361   0.478   0.996  16.309 -0.0014  0.7975  1.3829
  221MPD1    H3 3362   0.572   0.898  16.088 -1.4962  2.8279 -0.5049
  221MPD1     N 3363   0.999   0.926  16.233 -0.2951 -0.1433 -0.5400
  221MPD1    H5 3364   1.020   0.877  16.146  1.6170 -0.9993  0.3891
  221MPD1    N1 3365   0.624   1.051  16.507  0.1051 -0.2038 -0.3377
  221MPD1    H6 3366   0.687   1.121  16.545  1.5560 -1.0257 -1.2664
  221MPD1    H7 3367   0.533   1.098  16.505  0.4027  0.3805 -0.0766
  222MPD1     C 3368   1.745   4.604  17.229  0.0277  0.2393 -0.4139
  222MPD1    C1 3369   1.675   4.534  17.130  0.2224 -0.1398 -0.6051
  222MPD1    C2 3370   1.574   4.452  17.177 -0.8006  0.1087 -0.1098
  222MPD1    C3 3371   1.543   4.441  17.311 -0.3547  0.1834 -0.6173
  222MPD1    C4 3372   1.605   4.518  17.399 -0.5520  1.0837  0.0250
  222MPD1    C5 3373   1.712   4.597  17.363 -0.3773 -0.1513  0.1466
  222MPD1     H 3374   1.519   4.396  17.102 -1.8527 -0.2641  0.9309
  222MPD1    H1 3375   1.580   4.506  17.504  1.0733  1.0729  0.4028
  222MPD1    H2 3376   1.836   4.660  17.207 -0.5803  1.3271 -0.1521
  222MPD1    H3 3377   1.763   4.659  17.436 -0.3476 -0.1287  0.1068
  222MPD1     N 3378   1.439   4.361  17.367  0.1600  0.0279 -0.0229
  222MPD1    H5 3379   1.425   4.356  17.467  2.0991  1.8109  0.3081
  222MPD1    N1 3380   1.735   4.516  16.997  0.1236 -0.1685 -0.1905
  222MPD1    H6 3381   1.778   4.601  16.962 -1.2862  0.1749 -1.0830
  222MPD1    H7 3382   1.677   4.483  16.920 -2.1455 -0.8325  1.8117
  223MPD1     C 3383   0.919   3.409  17.517 -0.2163  0.4264 -0.5223
  223MPD1    C1 3384   0.953   3.479  17.635 -0.0444  0.1289 -0.4090
  223MPD1    C2 3385   1.005   3.606  17.627  0.1990  0.4082 -0.2240
  223MPD1    C3 3386   1.034   3.667  17.506  0.5642  0.4703  0.6098
  223MPD1    C4 3387   1.010   3.590  17.390  0.7047 -0.3321 -0.5787
  223MPD1    C5 3388   0.960   3.462  17.395  0.2028  0.6978 -0.0723
  223MPD1     H 3389   1.019   3.668   0.024  0.8331  1.1560 -0.8552
  223MPD1    H1 3390   1.052   3.624  17.295  1.4966 -0.6422 -0.3459
  223MPD1    H2 3391   0.875   3.310  17.519  0.0518  0.2698 -2.3852
  223MPD1    H3 3392   0.928   3.410  17.306  2.4786 -1.1266  0.1569
  223MPD1     N 3393   1.082   3.795  17.515 -0.7434  0.3018  0.3901
  223MPD1    H5 3394   1.099   3.828  17.610  0.4265  2.2477 -0.4971
  223MPD1    N1 3395   0.933   3.426   0.073  0.1371  0.4572  0.5427
  223MPD1    H6 3396   0.873   3.343   0.073  0.1781  0.4256 -3.4375
  223MPD1    H7 3397   0.880   3.488   0.133  1.7198  0.0188  2.3649
  224MPD1     C 3398   3.502   0.374   9.939  0.7323  0.4897 -0.2006
  224MPD1    C1 3399   3.463   0.487   9.875 -0.8227  0.3422  0.3764
  224MPD1    C2 3400   3.330   0.524   9.881 -0.2790  0.6755  0.5129
  224MPD1    C3 3401   3.242   0.437   9.942  0.3341  0.5438 -0.6156
  224MPD1    C4 3402   3.282   0.321  10.003 -0.1232 -0.7727 -0.8671
  224MPD1    C5 3403   3.414   0.293  10.002 -0.4043  0.3392 -0.1386
  224MPD1     H 3404   3.286   0.609   9.831 -0.6637 -0.4496 -1.0743
  224MPD1    H1 3405   3.209   0.263  10.059 -1.9144  2.2658 -0.0688
  224MPD1    H2 3406   3.599   0.328   9.931  0.5994 -0.2204  2.3009
  224MPD1    H3 3407   3.464   0.204  10.038  1.8929  0.6173 -2.6688
  224MPD1     N 3408   3.101   0.469   9.952 -0.1944  0.1988  0.3259
  224MPD1    H5 3409   3.051   0.396  10.002 -0.6019 -0.8853 -1.6585
  224MPD1    N1 3410   3.560   0.574   9.823  0.0549  0.3545  0.2412
  224MPD1    H6 3411   3.645   0.529   9.789 -0.2348 -1.6401  2.1481
  224MPD1    H7 3412   3.533   0.638   9.748 -2.6928 -0.2447  0.7119
  225MPD1     C 3413   3.355   2.505  12.906  0.1098 -0.3392 -0.9493
  225MPD1    C1 3414   3.353   2.373  12.885  0.2565  0.6955 -0.2336
  225MPD1    C2 3415   3.272   2.331  12.785  0.1684  0.3069 -0.1058
  225MPD1    C3 3416   3.221   2.413  12.690  0.1824  0.0896 -0.0372
  225MPD1    C4 3417   3.228   2.547  12.711 -0.0313 -0.3744  0.1480
  225MPD1    C5 3418   3.301   2.591  12.819  0.0908 -0.8145 -0.4394
  225MPD1     H 3419   3.254   2.224  12.779  1.3585  0.1533 -0.8978
  225MPD1    H1 3420   3.183   2.621  12.645 -1.7130 -1.0144  0.5849
  225MPD1    H2 3421   3.405   2.553  12.989  0.1962 -2.0705 -0.0047
  225MPD1    H3 3422   3.313   2.695  12.847 -0.3847 -0.4563 -1.5585
  225MPD1     N 3423   3.167   2.367  12.570  0.0401  0.2045 -0.2553
  225MPD1    H5 3424   3.118   2.433  12.510 -2.6008 -0.1123  1.5524
  225MPD1    N1 3425   3.392   2.289  12.989  0.4170 -0.2667  0.9449
  225MPD1    H6 3426   3.407   2.192  12.961  0.0451  0.2052 -0.9247
  225MPD1    H7 3427   3.468   2.324  13.046  0.1420 -1.0297  1.7736
  226MPD1     C 3428   2.645   3.126   9.849  0.0115 -0.7851  0.2588
  226MPD1    C1 3429   2.730   3.185   9.761 -0.4135  0.3134  0.9088
  226MPD1    C2 3430   2.849   3.118   9.737 -0.7622 -0.2275 -0.1055
  226MPD1    C3 3431   2.868   2.988   9.773 -0.0108 -0.0163  0.4668
  226MPD1    C4 3432   2.775   2.923   9.852 -0.1892  0.0821 -0.2229
  226MPD1    C5 3433   2.669   2.997   9.891  0.3280  0.3836  0.1161
  226MPD1     H 3434   2.916   3.166   9.667 -0.0945 -0.4666  0.3791
  226MPD1    H1 3435   2.800   2.829   9.899  0.5895  0.5211  0.2410
  226MPD1    H2 3436   2.562   3.187   9.884  0.8795  0.4820  0.0628
  226MPD1    H3 3437   2.601   2.949   9.960 -1.1327  0.4578 -1.2759
  226MPD1     N 3438   2.978   2.924   9.703  0.1675  0.2064  0.2435
  226MPD1    H5 3439   3.042   2.989   9.658  0.3223 -0.7595 -0.9354
  226MPD1    N1 3440   2.713   3.318   9.725 -0.2308 -0.3970  0.3292
  226MPD1    H6 3441   2.754   3.326   9.633  1.8059 -4.0310  0.9195
  226MPD1    H7 3442   2.615   3.342   9.708  0.5544  2.6494  0.1076
  227MPD1     C 3443   3.858   3.173   9.344 -0.1782 -0.4432  0.5891
  227MPD1    C1 3444   3.882   3.044   9.399 -0.5690  0.2645  0.0172
  227MPD1    C2 3445   3.777   2.977   9.452  0.6243  0.1518 -0.0861
  227MPD1    C3 3446   3.646   3.018   9.448  0.2110 -0.0172  0.4279
  227MPD1    C4 3447   3.615   3.141   9.388  0.3569 -0.2295 -0.5200
  227MPD1    C5 3448   3.720   3.213   9.336 -0.1394  0.0440  0.1159
  227MPD1     H 3449   3.799   2.880   9.494 -1.3967 -0.8533 -1.3340
  227MPD1    H1 3450   3.519   3.193   9.387 -0.0209 -0.8954  0.6969
  227MPD1    H2 3451   3.932   3.244   9.308  1.1572 -1.7776  0.7236
  227MPD1    H3 3452   3.705   3.309   9.288 -0.9384 -0.0808  0.1236
  227MPD1     N 3453   3.548   2.936   9.510 -0.5609 -0.4231 -0.7292
  227MPD1    H5 3454   3.585   2.856   9.562  0.2365 -0.5739 -1.5306
  227MPD1    N1 3455   4.018   3.002   9.412  0.2078  0.0534  0.1673
  227MPD1    H6 3456   4.013   2.900   9.416 -0.2534  0.1579  1.8374
  227MPD1    H7 3457   4.066   3.032   9.326 -0.0800 -0.2833 -0.1109
  228MPD1     C 3458   1.004   4.417  13.215 -0.3673  0.2800  0.3743
  228MPD1    C1 3459   0.986   4.489  13.099  0.1992 -0.1666  0.1888
  228MPD1    C2 3460   0.873   4.475  13.028  0.0558  0.2935  0.2528
  228MPD1    C3 3461   0.767   4.394  13.065 -0.2538 -0.3119  0.5923
  228MPD1    C4 3462   0.789   4.328  13.186 -0.1193 -0.6591 -0.1686
  228MPD1    C5 3463   0.904   4.336  13.256 -0.1388  0.2682  0.7005
  228MPD1     H 3464   0.862   4.526  12.933  2.1964  1.6327  0.7172
  228MPD1    H1 3465   0.716   4.258  13.225  1.1135 -2.1723 -0.5611
  228MPD1    H2 3466   1.100   4.430  13.265 -0.3533 -1.0848  0.6965
  228MPD1    H3 3467   0.911   4.272  13.344 -0.2026 -0.4740  0.1683
  228MPD1     N 3468   0.641   4.396  12.999  0.0726 -0.5484 -0.1608
  228MPD1    H5 3469   0.630   4.453  12.916  1.4284 -0.0776 -0.0177
  228MPD1    N1 3470   1.096   4.560  13.047 -0.0130 -0.0659 -0.2375
  228MPD1    H6 3471   1.155   4.602  13.118 -0.4640  0.5056 -0.2034
  228MPD1    H7 3472   1.061   4.628  12.980  1.6127 -1.2889 -2.3221
  229MPD1     C 3473   4.038   3.789  14.485 -0.0511 -1.0152 -0.3402
  229MPD1    C1 3474   4.007   3.813  14.620  0.1501 -0.0507 -0.8054
  229MPD1    C2 3475   4.093   3.766  14.714 -0.6339 -0.4966  0.1139
  229MPD1    C3 3476   4.201   3.690  14.680 -0.7595  0.5011  0.3306
  229MPD1    C4 3477   4.231   3.669  14.546 -0.1967  0.2547 -0.8810
  229MPD1    C5 3478   4.143   3.715  14.451 -0.0917 -0.2135 -0.5240
  229MPD1     H 3479   4.076   3.793  14.817  1.0459  1.0047 -0.0071
  229MPD1    H1 3480   4.303   3.602  14.500  2.9151  1.2699  2.5673
  229MPD1    H2 3481   3.964   3.804  14.407 -0.8168 -2.5191  0.1054
  229MPD1    H3 3482   4.151   3.704  14.343  0.5023 -3.3238 -0.1490
  229MPD1     N 3483   4.301   3.641  14.770  0.2846 -0.2219 -0.1583
  229MPD1    H5 3484   4.380   3.593  14.727  1.1457  0.2271  0.9266
  229MPD1    N1 3485   3.886   3.870  14.666  0.0274 -0.2501  0.9475
  229MPD1    H6 3486   3.896   3.893  14.765 -1.2543  3.2959  0.2308
  229MPD1    H7 3487   3.863   3.952  14.611 -1.0438  0.2899  2.1858
  230MPD1     C 3488   4.300   2.757  15.329  0.8042  0.0303 -0.1119
  230MPD1    C1 3489   4.384   2.764  15.219  0.3206 -0.2259 -0.6679
  230MPD1    C2 3490   4.405   2.885  15.155 -0.0880  1.3368  0.0047
  230MPD1    C3 3491   4.341   2.997  15.201  0.2349 -0.4711  0.0425
  230MPD1    C4 3492   4.252   2.990  15.305  0.7106  0.2288  0.1327
  230MPD1    C5 3493   4.236   2.867  15.367 -1.0790  0.0644  0.1359
  230MPD1     H 3494   4.475   2.889  15.072 -1.3830 -0.0752 -1.1856
  230MPD1    H1 3495   4.188   3.068  15.343  0.0615 -0.0662 -0.3715
  230MPD1    H2 3496   4.288   2.671  15.394 -0.7210  1.1117  1.0587
  230MPD1    H3 3497   4.172   2.860  15.454 -0.3405  1.5663  0.8107
  230MPD1     N 3498   4.374   3.109  15.122  0.5660 -0.2521 -0.2702
  230MPD1    H5 3499   4.448   3.097  15.055 -0.0979  0.9533 -1.2213
  230MPD1    N1 3500   4.474   2.660  15.201  0.1281 -0.3748  0.2212
  230MPD1    H6 3501   4.492   2.651  15.102  0.2143 -0.0073  0.2048
  230MPD1    H7 3502   4.434   2.574  15.239  1.0420 -0.8343  0.1288
  231MPD1     C 3503   2.414   0.140  15.800 -0.1560  0.0337  0.0600
  231MPD1    C1 3504   2.353   0.203  15.694  0.1953  0.5832 -0.0866
  231MPD1    C2 3505   2.428   0.285  15.612 -0.5490 -0.6843 -0.0481
  231MPD1    C3 3506   2.566   0.281  15.616 -0.3360  0.2010  0.7071
  231MPD1    C4 3507   2.622   0.207  15.711  0.3662  0.4962  0.3611
  231MPD1    C5 3508   2.544   0.141  15.805 -0.1220 -0.1473  0.5278
  231MPD1     H 3509   2.382   0.353  15.541 -1.4720  1.9530  3.0782
  231MPD1    H1 3510   2.730   0.209  15.726  0.0802  0.7564  2.4365
  231MPD1    H2 3511   2.360   0.084  15.875 -0.1184 -0.4448 -0.2756
  231MPD1    H3 3512   2.587   0.081  15.884  1.1237  1.9892  1.4502
  231MPD1     N 3513   2.632   0.365  15.525 -0.0016  0.0450  0.0132
  231MPD1    H5 3514   2.571   0.407  15.456 -0.6051 -0.7488  0.0685
  231MPD1    N1 3515   2.211   0.213  15.685 -0.1839  0.0574  0.4522
  231MPD1    H6 3516   2.170   0.228  15.593 -0.8528  1.7073  1.0049
  231MPD1    H7 3517   2.170   0.129  15.725  2.3420 -1.1812  0.3882
  232MPD1     C 3518   0.582   3.419  17.446  0.6341  0.6338  0.4944
  232MPD1    C1 3519   0.528   3.475  17.565 -0.8356  0.9277  0.9530
  232MPD1    C2 3520   0.439   3.398  17.639  0.6569  0.7090  0.2059
  232MPD1    C3 3521   0.392   3.274  17.592 -0.0492 -0.1283  0.0445
  232MPD1    C4 3522   0.448   3.225  17.473 -0.2621  0.0492  0.0891
  232MPD1    C5 3523   0.536   3.300  17.402  0.2809 -0.2732 -0.7598
  232MPD1     H 3524   0.405   3.437   0.045 -0.1931 -2.1075  1.0269
  232MPD1    H1 3525   0.425   3.127  17.431 -2.1279  0.2503  0.6846
  232MPD1    H2 3526   0.655   3.473  17.385 -0.5691 -0.1022 -1.6013
  232MPD1    H3 3527   0.573   3.253  17.311  3.8072  0.1288  0.4448
  232MPD1     N 3528   0.307   3.198  17.678 -0.7935 -0.2534 -0.1677
  232MPD1    H5 3529   0.283   3.240   0.078 -1.3136  0.0869 -0.4688
  232MPD1    N1 3530   0.591   3.585  17.610  0.3079  0.3159 -0.1293
  232MPD1    H6 3531   0.621   3.651  17.538 -0.0280  1.5644  0.8617
  232MPD1    H7 3532   0.521   3.637  17.663 -0.8546  1.3621 -2.7227
  233MPD1     C 3533   1.042   2.310   1.560 -0.0592  0.1765 -0.4966
  233MPD1    C1 3534   1.057   2.293   1.427  0.3515 -0.2577  0.1566
  233MPD1    C2 3535   1.140   2.189   1.385 -0.0451 -0.1903 -0.0533
  233MPD1    C3 3536   1.231   2.126   1.466  0.0700  0.4272 -0.5353
  233MPD1    C4 3537   1.228   2.166   1.599  0.0630  0.3458  0.1693
  233MPD1    C5 3538   1.131   2.256   1.649 -0.9978  0.4268  0.3850
  233MPD1     H 3539   1.124   2.153   1.284 -0.9628  2.6658 -0.9224
  233MPD1    H1 3540   1.290   2.112   1.670 -0.6523 -0.8881 -0.1278
  233MPD1    H2 3541   0.971   2.388   1.584  0.7826  0.8207 -0.1255
  233MPD1    H3 3542   1.121   2.275   1.756  2.4020  0.6102  0.6679
  233MPD1     N 3543   1.330   2.041   1.423 -0.1957  0.7976 -0.3732
  233MPD1    H5 3544   1.394   2.010   1.496 -0.3367  0.3456 -0.4376
  233MPD1    N1 3545   0.963   2.337   1.339  0.6973 -0.8623  0.1299
  233MPD1    H6 3546   0.925   2.429   1.360 -1.3136 -1.9643  1.2440
  233MPD1    H7 3547   0.995   2.339   1.242  0.3521  0.9067  0.0507
  234MPD1     C 3548   2.402   3.647  10.507  0.0571 -0.3753 -0.1300
  234MPD1    C1 3549   2.356   3.621  10.379 -0.1870 -0.0334  0.3785
  234MPD1    C2 3550   2.322   3.726  10.302  0.0189  0.4123  0.0538
  234MPD1    C3 3551   2.354   3.858  10.343  0.3941  0.2488 -0.6115
  234MPD1    C4 3552   2.396   3.882  10.473 -0.1040  0.1320  0.4852
  234MPD1    C5 3553   2.430   3.774  10.548 -0.7963  0.1374 -0.0954
  234MPD1     H 3554   2.296   3.697  10.201 -0.4330  0.6073  0.1117
  234MPD1    H1 3555   2.412   3.981  10.514 -2.1704  0.2977  0.9359
  234MPD1    H2 3556   2.431   3.573  10.581  0.3952 -1.3974 -1.2946
  234MPD1    H3 3557   2.466   3.788  10.649  0.3383 -1.6896 -0.2366
  234MPD1     N 3558   2.325   3.969  10.263 -0.0518  0.6094 -0.0389
  234MPD1    H5 3559   2.341   4.062  10.301 -1.1003 -0.1755  2.3198
  234MPD1    N1 3560   2.313   3.486  10.336 -0.1033 -0.0287  0.1007
  234MPD1    H6 3561   2.342   3.481  10.239 -2.2738 -1.0032 -0.4886
  234MPD1    H7 3562   2.354   3.414  10.395  2.6063 -0.0636 -1.8637
  235MPD1     C 3563   4.336   3.000  10.535  0.6142 -0.2401 -0.4674
  235MPD1    C1 3564   4.378   3.081  10.435 -0.1730  0.3762  0.3495
  235MPD1    C2 3565   4.306   3.072  10.312  0.0990  0.1543 -0.3173
  235MPD1    C3 3566   4.239   2.953  10.288 -0.3390  0.3532  0.2421
  235MPD1    C4 3567   4.215   2.861  10.389 -0.6479  0.7914 -0.1604
  235MPD1    C5 3568   4.256   2.896  10.514  0.3980  0.2998 -0.9860
  235MPD1     H 3569   4.315   3.138  10.227  0.2867  1.0875  0.4277
  235MPD1    H1 3570   4.154   2.772  10.380  1.8715 -0.8067 -1.0980
  235MPD1    H2 3571   4.366   3.030  10.635  2.3012  1.6393 -1.5427
  235MPD1    H3 3572   4.241   2.830  10.598 -1.7431  0.6991 -1.0450
  235MPD1     N 3573   4.207   2.917  10.157 -0.4201  0.2173 -0.0898
  235MPD1    H5 3574   4.246   2.978  10.086 -2.0652  0.6859 -0.5910
  235MPD1    N1 3575   4.449   3.196  10.463  0.1410  0.3473 -0.1027
  235MPD1    H6 3576   4.495   3.229  10.379  0.6590 -1.4530 -0.5412
  235MPD1    H7 3577   4.524   3.188  10.532 -1.2606  0.8171  1.4781
  236MPD1     C 3578   2.528   4.158   9.779  0.4330  0.3573 -0.0583
  236MPD1    C1 3579   2.578   4.032   9.794 -0.0190  0.6079 -0.0105
  236MPD1    C2 3580   2.699   4.013   9.857  0.1416  0.3078 -0.5446
  236MPD1    C3 3581   2.770   4.110   9.915  0.3336 -0.0470 -0.5419
  236MPD1    C4 3582   2.712   4.235   9.923  0.0504 -0.0019 -0.4381
  236MPD1    C5 3583   2.596   4.255   9.855 -0.0701  0.3992  0.5356
  236MPD1     H 3584   2.740   3.913   9.862 -0.3395  0.0960 -0.8316
  236MPD1    H1 3585   2.769   4.323   9.953 -0.2475 -0.4076  1.3103
  236MPD1    H2 3586   2.443   4.180   9.717  0.0690 -0.8275  0.0218
  236MPD1    H3 3587   2.563   4.357   9.837 -2.4813 -0.2950  0.9843
  236MPD1     N 3588   2.905   4.093   9.965  0.0413 -0.4761 -0.0837
  236MPD1    H5 3589   2.956   4.173  10.003  1.2756 -0.3936 -1.9436
  236MPD1    N1 3590   2.517   3.921   9.732  0.4712 -1.0553  0.1034
  236MPD1    H6 3591   2.415   3.919   9.729  0.3806 -0.1534  3.2077
  236MPD1    H7 3592   2.538   3.834   9.780  1.3439 -0.6640  0.4127
  237MPD1     C 3593   3.274   2.164  15.867 -0.1915  0.2828 -0.0061
  237MPD1    C1 3594   3.209   2.078  15.952  0.0577 -0.4018 -0.2949
  237MPD1    C2 3595   3.134   1.983  15.886 -0.5197  0.0776 -0.7294
  237MPD1    C3 3596   3.117   1.979  15.751  0.1559 -0.5375 -0.6861
  237MPD1    C4 3597   3.167   2.082  15.677  0.6222 -0.5684 -0.4245
  237MPD1    C5 3598   3.252   2.171  15.733 -0.0786 -0.1637 -0.4527
  237MPD1     H 3599   3.094   1.904  15.950 -0.6897  0.1641 -0.7294
  237MPD1    H1 3600   3.155   2.096  15.570  0.0871 -2.2436 -0.5937
  237MPD1    H2 3601   3.347   2.229  15.913  0.1420  1.3027 -1.9520
  237MPD1    H3 3602   3.310   2.243  15.677  0.2593 -1.2130 -1.4376
  237MPD1     N 3603   3.045   1.884  15.676  0.0411 -1.3555  0.0048
  237MPD1    H5 3604   3.026   1.903  15.578  1.1161  1.3213  0.2909
  237MPD1    N1 3605   3.234   2.080  16.092 -0.5212  0.0458  0.2355
  237MPD1    H6 3606   3.156   2.046  16.148  0.7857 -0.2367  1.8873
  237MPD1    H7 3607   3.252   2.176  16.120 -0.5494 -0.7732  3.1060
  238MPD1     C 3608   0.309   0.640  14.539  0.4722  0.7456  0.2456
  238MPD1    C1 3609   0.262   0.615  14.665 -0.2402 -0.2141  0.0633
  238MPD1    C2 3610   0.140   0.666  14.697 -0.4558 -0.8178  0.1169
  238MPD1    C3 3611   0.064   0.729  14.601  0.1621  0.8198  0.0100
  238MPD1    C4 3612   0.121   0.760  14.480  0.0472  0.5051  0.3193
  238MPD1    C5 3613   0.240   0.718  14.448 -0.5537  0.0942 -0.3088
  238MPD1     H 3614   0.088   0.617  14.779 -0.6717  1.4994  1.3568
  238MPD1    H1 3615   0.067   0.813  14.402 -1.5658 -1.7490 -0.0974
  238MPD1    H2 3616   0.399   0.596  14.497  0.7081  0.6685  0.8258
  238MPD1    H3 3617   0.271   0.732  14.345  1.9006 -0.3123  0.3690
  238MPD1     N 3618   4.644   0.761  14.610  0.3213 -0.1147 -0.3817
  238MPD1    H5 3619   4.603   0.805  14.528 -4.1482 -1.1307  1.2833
  238MPD1    N1 3620   0.312   0.503  14.743  0.1881 -0.9903 -0.0068
  238MPD1    H6 3621   0.296   0.520  14.842 -1.1486  2.9328 -0.8792
  238MPD1    H7 3622   0.412   0.486  14.732  0.0316 -2.8964  1.5627
  239MPD1     C 3623   0.572   1.249  14.959 -0.7807 -1.0917 -0.1483
  239MPD1    C1 3624   0.473   1.347  14.985  0.2444 -0.7774 -0.5577
  239MPD1    C2 3625   0.412   1.399  14.883  0.4418 -0.0674 -0.1917
  239MPD1    C3 3626   0.447   1.362  14.754 -0.0878 -0.6223  0.0924
  239MPD1    C4 3627   0.543   1.268  14.731 -0.2391 -0.9319  0.0801
  239MPD1    C5 3628   0.611   1.209  14.832 -0.3183  0.3669  0.6322
  239MPD1     H 3629   0.343   1.481  14.900 -2.7296 -2.3213 -2.3583
  239MPD1    H1 3630   0.560   1.245  14.626 -0.4214  0.5264 -0.2667
  239MPD1    H2 3631   0.612   1.195  15.044  0.3685 -0.4651 -0.2861
  239MPD1    H3 3632   0.694   1.141  14.820  0.1883  1.1148 -0.0878
  239MPD1     N 3633   0.391   1.415  14.634 -0.6862 -0.1843  0.5657
  239MPD1    H5 3634   0.441   1.405  14.547 -2.5326 -1.5009 -0.3441
  239MPD1    N1 3635   0.458   1.392  15.115 -0.1018  0.2448  0.0348
  239MPD1    H6 3636   0.375   1.450  15.117  0.4404  1.0698 -1.3564
  239MPD1    H7 3637   0.436   1.316  15.179  1.8167 -1.0073 -0.7735
  240MPD1     C 3638   3.780   1.284  13.698  0.7618  0.1176 -0.2347
  240MPD1    C1 3639   3.691   1.213  13.774  0.5948  0.5902  1.2451
  240MPD1    C2 3640   3.731   1.170  13.900 -0.2228 -0.5445  0.2615
  240MPD1    C3 3641   3.854   1.196  13.944 -0.0758  0.1709  0.8810
  240MPD1    C4 3642   3.939   1.272  13.869 -0.3619 -0.2165 -0.4694
  240MPD1    C5 3643   3.900   1.323  13.749 -0.2954  0.0056  1.0256
  240MPD1     H 3644   3.674   1.108  13.969  0.9296 -1.5028  0.3675
  240MPD1    H1 3645   4.042   1.287  13.898 -0.3219  0.1687 -0.8023
  240MPD1    H2 3646   3.748   1.293  13.595  1.5578  1.7952 -0.3227
  240MPD1    H3 3647   3.965   1.373  13.679  0.2947 -0.8076  0.9991
  240MPD1     N 3648   3.892   1.149  14.069  0.1186  0.3253 -0.1487
  240MPD1    H5 3649   3.836   1.076  14.111 -1.8739  1.8169 -0.2150
  240MPD1    N1 3650   3.564   1.182  13.726 -0.0652  0.6613 -0.8963
  240MPD1    H6 3651   3.522   1.103  13.773 -1.8984  1.7751 -0.6890
  240MPD1    H7 3652   3.552   1.185  13.625  1.7961  0.0548 -1.1470
  241MPD1     C 3653   4.336   1.340  15.065 -0.3282  0.0129  0.3116
  241MPD1    C1 3654   4.313   1.423  14.960 -0.2696 -0.3813 -0.0263
  241MPD1    C2 3655   4.234   1.383  14.850  0.2161  0.5018  0.0308
  241MPD1    C3 3656   4.186   1.252  14.855  0.1239 -0.2145  0.0749
  241MPD1    C4 3657   4.189   1.179  14.970 -1.1620 -0.2396  0.2838
  241MPD1    C5 3658   4.269   1.217  15.076 -0.2591  0.0833 -0.4813
  241MPD1     H 3659   4.224   1.443  14.760 -1.1981  1.5604  0.8887
  241MPD1    H1 3660   4.143   1.081  14.979  2.0542 -1.5301  2.8247
  241MPD1    H2 3661   4.391   1.372  15.153  0.3920 -0.2475 -0.0411
  241MPD1    H3 3662   4.276   1.159  15.167 -0.6543  2.7693  1.2735
  241MPD1     N 3663   4.129   1.192  14.737  0.1715  0.1578  0.5771
  241MPD1    H5 3664   4.090   1.102  14.763  0.7441 -0.2074  0.1546
  241MPD1    N1 3665   4.375   1.549  14.952  0.8325 -0.0901  0.0623
  241MPD1    H6 3666   4.330   1.607  14.882 -1.8248 -1.4457  0.6589
  241MPD1    H7 3667   4.381   1.591  15.045  0.6956  1.3473 -0.5809
  242MPD1     C 3668   3.726   3.747  15.959 -0.7497  0.1561 -0.0831
  242MPD1    C1 3669   3.672   3.860  15.894 -0.4055 -0.9427 -0.0499
  242MPD1    C2 3670   3.735   3.915  15.782 -0.2944 -0.6658 -0.0981
  242MPD1    C3 3671   3.837   3.843  15.720  0.4664  0.0656 -0.5193
  242MPD1    C4 3672   3.885   3.738  15.790  0.1903  0.5930 -0.1013
  242MPD1    C5 3673   3.835   3.689  15.907 -0.0010  0.0531  0.4560
  242MPD1     H 3674   3.694   4.009  15.746  0.8253  0.2316  0.9432
  242MPD1    H1 3675   3.966   3.683  15.744 -0.8620  0.4101 -1.7095
  242MPD1    H2 3676   3.683   3.719  16.054 -1.1950  0.1622 -0.2838
  242MPD1    H3 3677   3.887   3.605  15.950 -0.0892  0.1994  0.8471
  242MPD1     N 3678   3.889   3.879  15.596 -0.8026 -0.0568  0.7750
  242MPD1    H5 3679   3.972   3.827  15.571 -1.4027 -1.1827  1.1543
  242MPD1    N1 3680   3.579   3.937  15.965  0.5299 -0.1496  0.4680
  242MPD1    H6 3681   3.531   3.887  16.040 -0.4709  0.4230  0.2159
  242MPD1    H7 3682   3.511   3.974  15.898  1.0534 -2.0063 -1.0818
  243MPD1     C 3683   1.837   3.886  17.327 -0.2899  0.3194  0.3004
  243MPD1    C1 3684   1.802   3.832  17.448  0.4686 -0.5030  0.3835
  243MPD1    C2 3685   1.763   3.697  17.448  0.1859  0.0016 -0.7394
  243MPD1    C3 3686   1.772   3.617  17.332  0.4610 -0.1264  0.5999
  243MPD1    C4 3687   1.823   3.668  17.211 -0.6960  0.7110 -0.6631
  243MPD1    C5 3688   1.860   3.801  17.218  0.0616 -0.1428  0.1728
  243MPD1     H 3689   1.725   3.654  17.540  0.6460  0.4777 -0.3170
  243MPD1    H1 3690   1.836   3.608  17.121 -1.7274 -2.3326  1.1929
  243MPD1    H2 3691   1.850   3.991  17.302  1.0011  0.1933  0.4809
  243MPD1    H3 3692   1.912   3.846  17.134 -1.3004 -0.0337 -0.6211
  243MPD1     N 3693   1.742   3.474  17.339 -0.4234  0.0011  0.2885
  243MPD1    H5 3694   1.734   3.437  17.433 -0.1020 -1.0401 -0.1010
  243MPD1    N1 3695   1.749   3.911  17.551  0.0744  0.2776 -0.3832
  243MPD1    H6 3696   1.808   3.995  17.555  0.9963 -0.4541  1.1493
  243MPD1    H7 3697   1.761   3.867  17.641 -0.6299 -0.0454 -0.4515
  244MPD1     C 3698   1.551   3.002   0.346  0.1316 -0.1095 -0.2876
  244MPD1    C1 3699   1.556   3.134   0.309 -1.0234 -0.3978 -0.2583
  244MPD1    C2 3700   1.565   3.167   0.178 -0.7815 -0.3665 -0.0123
  244MPD1    C3 3701   1.552   3.071   0.080  0.2923 -0.2134 -0.4736
  244MPD1    C4 3702   1.526   2.940   0.118  0.1421 -0.2986 -0.3815
  244MPD1    C5 3703   1.519   2.908   0.255 -0.3148 -0.3656  0.7867
  244MPD1     H 3704   1.584   3.271   0.156 -1.2885 -0.3255 -0.2606
  244MPD1    H1 3705   1.503   2.862   0.046  2.1077 -2.3965  1.2655
  244MPD1    H2 3706   1.556   2.966   0.449 -0.1834 -1.6693 -0.8220
  244MPD1    H3 3707   1.494   2.809   0.292 -2.3781 -0.6571 -1.3323
  244MPD1     N 3708   1.569   3.111  17.639  0.2891 -0.1028  0.0235
  244MPD1    H5 3709   1.597   3.208  17.625 -1.6131  0.8049  2.5825
  244MPD1    N1 3710   1.586   3.234   0.406  0.2265 -0.0176 -0.8078
  244MPD1    H6 3711   1.548   3.327   0.386 -2.5879 -0.9443  0.2701
  244MPD1    H7 3712   1.547   3.206   0.496 -0.1274  0.4861 -0.8066
  245MPD1     C 3713   2.729   3.253  13.181  0.2352 -0.1341  0.2049
  245MPD1    C1 3714   2.679   3.353  13.261  0.2077 -0.3118 -0.4873
  245MPD1    C2 3715   2.762   3.459  13.300 -0.3861  0.6027  0.1394
  245MPD1    C3 3716   2.902   3.459  13.273 -0.9446  0.2539 -0.3670
  245MPD1    C4 3717   2.954   3.362  13.192 -0.0435 -0.1859  0.2584
  245MPD1    C5 3718   2.864   3.265  13.148  0.0074 -1.3260 -0.0864
  245MPD1     H 3719   2.726   3.539  13.363 -1.4711  0.1475  0.0873
  245MPD1    H1 3720   3.061   3.351  13.178 -0.0083 -0.8668  1.0659
  245MPD1    H2 3721   2.673   3.178  13.126  0.8218 -0.6479  0.3133
  245MPD1    H3 3722   2.905   3.190  13.081 -0.7276 -0.2284 -1.7254
  245MPD1     N 3723   2.977   3.567  13.337  0.2152 -0.7359 -0.0720
  245MPD1    H5 3724   2.933   3.636  13.397  0.0227  1.3439 -2.5811
  245MPD1    N1 3725   2.532   3.350  13.282  0.2142  0.2974 -0.5742
  245MPD1    H6 3726   2.497   3.404  13.361 -1.1718 -1.0651 -0.2775
  245MPD1    H7 3727   2.495   3.256  13.289 -0.3408  0.5407 -0.2530
  246MPD1     C 3728   1.645   2.775   9.566  0.3600 -0.7059 -0.4818
  246MPD1    C1 3729   1.741   2.685   9.528  0.2176 -0.6652 -0.8226
  246MPD1    C2 3730   1.871   2.725   9.524 -0.2038  0.3033  0.1350
  246MPD1    C3 3731   1.901   2.844   9.572  0.6089 -0.0826  0.2425
  246MPD1    C4 3732   1.810   2.930   9.622 -0.1014 -0.9317 -0.6000
  246MPD1    C5 3733   1.680   2.889   9.626  0.3421 -0.0625 -0.2532
  246MPD1     H 3734   1.951   2.664   9.485 -0.4336  0.8503 -1.2069
  246MPD1    H1 3735   1.831   3.036   9.632 -0.2878 -0.6714 -2.9128
  246MPD1    H2 3736   1.540   2.748   9.564  0.1052  0.2347  0.4139
  246MPD1    H3 3737   1.605   2.966   9.640 -0.7980 -0.5433 -3.7292
  246MPD1     N 3738   2.037   2.871   9.580  0.5506 -0.3887  0.2080
  246MPD1    H5 3739   2.103   2.806   9.539  1.9297  1.2114 -0.1015
  246MPD1    N1 3740   1.710   2.559   9.473 -0.4256 -0.2351 -0.0977
  246MPD1    H6 3741   1.785   2.493   9.489 -0.3442  0.1531  1.1263
  246MPD1    H7 3742   1.621   2.515   9.498 -2.1073  2.4473 -1.3316
  247MPD1     C 3743   2.614   3.812  16.312 -0.0583  0.8316  1.0566
  247MPD1    C1 3744   2.629   3.734  16.422  0.0974 -0.1695  0.0299
  247MPD1    C2 3745   2.599   3.599  16.401 -0.1246  0.2715 -0.3349
  247MPD1    C3 3746   2.582   3.544  16.276 -0.0565 -0.2959  0.5333
  247MPD1    C4 3747   2.587   3.626  16.169  0.2464  0.3066 -0.4755
  247MPD1    C5 3748   2.599   3.764  16.189 -0.4103 -0.1805  0.9058
  247MPD1     H 3749   2.591   3.536  16.488 -1.7575  0.5738 -0.2721
  247MPD1    H1 3750   2.582   3.582  16.071 -2.8799  1.2496 -0.7351
  247MPD1    H2 3751   2.616   3.920  16.313  1.1472  0.8266 -1.5125
  247MPD1    H3 3752   2.578   3.824  16.102  2.4554 -0.6513 -0.0831
  247MPD1     N 3753   2.563   3.403  16.265 -0.1791 -0.2494  0.0267
  247MPD1    H5 3754   2.562   3.366  16.170  0.2950 -0.2937  0.0389
  247MPD1    N1 3755   2.636   3.791  16.556 -0.0507 -0.1138  0.2165
  247MPD1    H6 3756   2.685   3.880  16.555  1.4668 -0.9434  0.2241
  247MPD1    H7 3757   2.696   3.735  16.617  1.9349  2.9977  1.0895
  248MPD1     C 3758   3.477   4.059   0.469  0.0838  0.0008  0.3361
  248MPD1    C1 3759   3.496   3.950   0.389  0.3725 -0.4096 -0.1112
  248MPD1    C2 3760   3.393   3.856   0.384  0.2925 -0.1469  0.2304
  248MPD1    C3 3761   3.275   3.872   0.461 -0.5600  0.3282 -0.3314
  248MPD1    C4 3762   3.265   3.979   0.547 -0.2919  0.0018  0.1622
  248MPD1    C5 3763   3.373   4.071   0.554  0.0250 -0.2628 -0.4937
  248MPD1     H 3764   3.402   3.762   0.332 -2.1077  1.5334 -3.2275
  248MPD1    H1 3765   3.179   3.987   0.612 -0.5248 -1.1346 -0.0027
  248MPD1    H2 3766   3.558   4.130   0.484  0.8466 -0.8420  0.2307
  248MPD1    H3 3767   3.371   4.150   0.629  1.2176  0.0137 -0.7457
  248MPD1     N 3768   3.184   3.763   0.465  0.6542  0.4713  0.0523
  248MPD1    H5 3769   3.214   3.677   0.421 -4.0038 -1.5996  0.9325
  248MPD1    N1 3770   3.613   3.931   0.314  0.3210  0.4997 -0.1780
  248MPD1    H6 3771   3.599   3.897   0.219 -0.5410  0.2597  0.0365
  248MPD1    H7 3772   3.680   4.007   0.304 -0.4635  1.3337  0.8976
  249MPD1     C 3773   4.197   0.659  11.296 -0.0655  0.1737 -0.4961
  249MPD1    C1 3774   4.098   0.679  11.204  0.5495  0.0758 -0.0398
  249MPD1    C2 3775   4.126   0.701  11.069  0.5894  0.1756 -0.1991
  249MPD1    C3 3776   4.252   0.699  11.023  0.1009 -0.0236  0.1894
  249MPD1    C4 3777   4.352   0.674  11.112  0.2127  0.1080 -0.6391
  249MPD1    C5 3778   4.324   0.655  11.249  0.8662  0.0818  0.2444
  249MPD1     H 3779   4.040   0.702  11.002 -1.4261 -3.0392  2.3893
  249MPD1    H1 3780   4.452   0.652  11.075 -0.2735 -3.4248  0.1077
  249MPD1    H2 3781   4.173   0.644  11.401 -0.8948  1.5022 -0.4956
  249MPD1    H3 3782   4.401   0.625  11.319  0.4637 -0.5482  0.4223
  249MPD1     N 3783   4.268   0.709  10.883 -0.0778  0.5938  0.3921
  249MPD1    H5 3784   4.190   0.717  10.820  1.4783  0.2304 -1.5729
  249MPD1    N1 3785   3.970   0.693  11.254  0.7320 -0.1377  0.8770
  249MPD1    H6 3786   3.970   0.656  11.348  2.1050 -2.1660  0.0818
  249MPD1    H7 3787   3.897   0.655  11.194 -0.4071 -0.6344  2.5750
  250MPD2     C 3788   0.899   1.693  13.445 -0.0887 -0.3469 -0.4302
  250MPD2    C1 3789   0.919   1.712  13.314 -0.0918  0.3923 -0.2067
  250MPD2    C2 3790   0.866   1.623  13.224 -0.2739 -0.6758  0.4001
  250MPD2    C3 3791   0.776   1.523  13.269 -0.1908 -0.1416 -0.0274
  250MPD2    C4 3792   0.756   1.509  13.402 -0.1871 -0.2334 -0.0740
  250MPD2    C5 3793   0.815   1.595  13.488  0.3373 -0.0569 -0.8032
  250MPD2     H 3794   0.888   1.637  13.118 -1.7050 -3.5895 -0.2842
  250MPD2    H1 3795   0.688   1.437  13.446 -2.1986  1.1109 -0.9579
  250MPD2    H2 3796   0.945   1.765  13.511  1.4450 -2.0935  0.4102
  250MPD2    H3 3797   0.797   1.578  13.594  0.6313  1.2243 -0.5409
  250MPD2     N 3798   0.699   1.449  13.179 -0.1315  0.2539 -0.4076
  250MPD2    H5 3799   0.630   1.394  13.229 -0.0323  0.8075  0.3276
  250MPD2    N1 3800   1.001   1.817  13.272  0.0877  0.6208 -0.3702
  250MPD2    H7 3801   1.055   1.861  13.345  0.9176  1.7929 -1.6851
  251TMC3    C1 3802   1.146   1.944  13.148  0.0614 -0.3504 -0.0419
  251TMC3    C2 3803   1.158   2.043  13.240  0.5533  0.5748 -0.3203
  251TMC3    C3 3804   1.238   2.149  13.209 -0.2368 -0.5863 -0.2431
  251TMC3    C4 3805   1.222   1.942  13.035  0.1951  0.0999 -0.4215
  251TMC3    C5 3806   1.298   2.051  13.005  0.7142 -0.8837  0.0576
  251TMC3    C6 3807   1.311   2.150  13.095  0.6579 -0.2786  0.3858
  251TMC3     C 3808   1.039   1.847  13.141  0.1908 -0.2485 -0.3117
  251TMC3     O 3809   1.006   1.806  13.032  0.2378 -0.5620  0.7116
  251TMC3     H 3810   1.079   2.056  13.312  1.1148 -0.5967  0.5190
  251TMC3    H1 3811   1.209   1.867  12.958  1.2245 -1.7430  1.1771
  251TMC3    H2 3812   1.385   2.227  13.080  0.1126  0.0886 -0.3770
  251TMC3    C7 3813   1.399   2.026  12.913 -0.3911  0.4531 -0.3140
  251TMC3    C8 3814   1.212   2.273  13.277 -0.3026  0.2988 -0.0707
  251TMC3    O1 3815   1.423   1.909  12.891 -0.0631  0.7472 -0.8152
  251TMC3    O2 3816   1.147   2.274  13.381  0.0939 -0.2687  0.0071
  252TMC3    C1 3817   0.596   3.008   9.696 -0.7250  0.1046  0.4671
  252TMC3    C2 3818   0.685   3.101   9.652  0.1643 -0.2120  0.2855
  252TMC3    C3 3819   0.814   3.100   9.707  0.2417 -0.0740 -0.1042
  252TMC3    C4 3820   0.631   2.895   9.775 -0.4371 -0.1383 -0.0638
  252TMC3    C5 3821   0.763   2.899   9.816  1.1528  0.0115  0.3948
  252TMC3    C6 3822   0.859   2.995   9.787 -0.2713 -0.0697  0.1762
  252TMC3     C 3823   0.470   3.004   9.619 -0.1284 -0.2932  0.7214
  252TMC3     O 3824   0.476   3.068   9.511 -0.4132 -0.0567  0.0545
  252TMC3     H 3825   0.652   3.192   9.604  2.7248 -0.7793 -2.5675
  252TMC3    H1 3826   0.565   2.810   9.789 -0.0391 -0.0763  2.1867
  252TMC3    H2 3827   0.962   3.000   9.821 -0.4438  1.2428  0.5347
  252TMC3    C7 3828   0.807   2.770   9.879  0.2777  0.3178 -0.6631
  252TMC3    C8 3829   0.910   3.206   9.665 -0.1364 -0.9349  0.4056
  252TMC3    O1 3830   0.722   2.702   9.934 -0.1132 -0.5258 -0.2237
  252TMC3    O2 3831   0.856   3.302   9.613  0.1724 -0.1798  0.2285
  253MPD2     C 3832   2.830   2.154  15.555  0.0011  0.3709 -0.3879
  253MPD2    C1 3833   2.719   2.070  15.548  0.5575  0.3971 -0.7631
  253MPD2    C2 3834   2.649   2.035  15.666  0.1090 -0.2251  0.4051
  253MPD2    C3 3835   2.683   2.088  15.788  0.0213 -0.4283 -0.5749
  253MPD2    C4 3836   2.798   2.174  15.793 -0.1614  0.4811 -0.1362
  253MPD2    C5 3837   2.861   2.211  15.676  0.0524 -0.1293  0.5700
  253MPD2     H 3838   2.563   1.969  15.664 -0.4268  0.4416  1.7655
  253MPD2    H1 3839   2.835   2.216  15.886 -2.6170  1.7493  0.2760
  253MPD2    H2 3840   2.887   2.185  15.468 -1.0096  1.1566 -0.7729
  253MPD2    H3 3841   2.950   2.272  15.671  0.3677 -0.5285  1.3279
  253MPD2     N 3842   2.600   2.084  15.905  0.1437  0.4866 -0.4170
  253MPD2    H5 3843   2.644   2.119  15.990  1.1603  1.2354 -1.2474
  253MPD2    N1 3844   2.688   2.022  15.415  0.9476 -0.4599  0.3413
  253MPD2    H7 3845   2.740   2.069  15.343 -1.3638  0.6158 -0.6216
  254TMC3    C1 3846   2.410   2.060  16.040  0.3110 -0.5219  0.3711
  254TMC3    C2 3847   2.274   2.064  16.035 -0.5708  0.5582  0.5320
  254TMC3    C3 3848   2.209   2.034  16.157 -0.0406 -0.4221 -0.5875
  254TMC3    C4 3849   2.484   2.024  16.150 -0.0836  1.0511  0.6598
  254TMC3    C5 3850   2.409   1.996  16.261 -0.4735 -0.0682  0.8930
  254TMC3    C6 3851   2.278   1.995  16.267  0.1997 -0.1296 -0.4340
  254TMC3     C 3852   2.475   2.029  15.913 -0.0412 -0.2122  0.0175
  254TMC3     O 3853   2.405   1.976  15.824  0.2984  0.5616 -0.5593
  254TMC3     H 3854   2.230   2.080  15.937 -1.3383 -0.4112  0.7123
  254TMC3    H1 3855   2.591   2.009  16.148 -0.0667  0.6811  4.1260
  254TMC3    H2 3856   2.227   1.975  16.361 -1.3539  0.5576 -1.1401
  254TMC3    C7 3857   2.469   2.008  16.393  0.1587 -0.2603  0.6126
  254TMC3    C8 3858   2.076   2.092  16.178 -0.0425  0.1829 -0.6618
  254TMC3    O1 3859   2.416   1.951  16.491 -0.1358  0.6975  0.4053
  254TMC3    O2 3860   2.019   2.049  16.280 -0.2888  0.2729 -0.3871
  255MPD2     C 3861   0.908   0.554  10.164  0.8119 -0.0827  0.1539
  255MPD2    C1 3862   0.840   0.463  10.094 -0.2088  0.3726 -0.5858
  255MPD2    C2 3863   0.901   0.344  10.047 -0.0038  0.2338  0.2676
  255MPD2    C3 3864   1.037   0.329  10.071  0.1869  0.0469  0.1397
  255MPD2    C4 3865   1.110   0.428  10.140 -0.2007 -0.4765  0.2154
  255MPD2    C5 3866   1.042   0.542  10.186  0.5721 -0.1472  0.5522
  255MPD2     H 3867   0.848   0.270   9.988  0.7486  0.2539 -0.4422
  255MPD2    H1 3868   1.218   0.436  10.149 -0.0730 -1.2422 -0.6637
  255MPD2    H2 3869   0.861   0.647  10.192  1.2461  0.3034 -0.4009
  255MPD2    H3 3870   1.104   0.624  10.218  1.2090 -0.5313  0.3005
  255MPD2     N 3871   1.102   0.211  10.046  0.3910 -0.0607  0.8801
  255MPD2    H5 3872   1.045   0.144   9.995  0.4799  1.1116 -0.7764
  255MPD2    N1 3873   0.703   0.500  10.073  0.5289 -0.4405 -0.0566
  255MPD2    H7 3874   0.677   0.594  10.101 -1.0657 -1.4690  1.9919
  256TMC3    C1 3875   0.492   0.479   9.977  0.9502 -0.5520 -0.6755
  256TMC3    C2 3876   0.513   0.578   9.889  0.0580  0.6879 -0.3084
  256TMC3    C3 3877   0.412   0.666   9.865  0.1649 -0.3550 -0.6344
  256TMC3    C4 3878   0.387   0.471  10.059  0.3765  0.2313 -0.2811
  256TMC3    C5 3879   0.291   0.565  10.037  0.5865 -0.3379  0.6212
  256TMC3    C6 3880   0.301   0.661   9.942  0.7207 -0.0031 -0.2223
  256TMC3     C 3881   0.613   0.412  10.018 -0.7559 -0.1596  0.1780
  256TMC3     O 3882   0.620   0.288  10.017  0.5273  0.2603  0.2511
  256TMC3     H 3883   0.616   0.585   9.853  0.1329 -2.9923 -0.8420
  256TMC3    H1 3884   0.389   0.384  10.124 -0.0303  0.9793  0.7236
  256TMC3    H2 3885   0.227   0.736   9.916  2.1398  1.6054  0.3975
  256TMC3    C7 3886   0.156   0.527  10.045 -0.2548  0.8949 -0.7278
  256TMC3    C8 3887   0.433   0.791   9.791  0.3437  0.1695 -0.2998
  256TMC3    O1 3888   0.075   0.588   9.976 -0.0886 -0.0963 -0.3087
  256TMC3    O2 3889   0.371   0.894   9.818  0.5771 -0.0606  0.3881
  257MPD2     C 3890   0.033   2.048  13.056  0.8594 -0.3181  0.1641
  257MPD2    C1 3891   0.002   1.921  13.018  0.4769 -0.2035  0.9831
  257MPD2    C2 3892   0.008   1.822  13.108 -0.4539 -0.1930 -0.4468
  257MPD2    C3 3893   0.050   1.842  13.238 -0.2541  0.1725 -0.0820
  257MPD2    C4 3894   0.081   1.967  13.273  0.3237 -0.3410  0.9027
  257MPD2    C5 3895   0.068   2.070  13.184 -0.3944 -0.5132  0.8034
  257MPD2     H 3896   4.696   1.721  13.084  1.1710 -0.6155 -0.9693
  257MPD2    H1 3897   0.119   1.991  13.372 -1.4568  0.1278  1.4707
  257MPD2    H2 3898   0.030   2.132  12.987 -0.6994 -0.0381  0.5655
  257MPD2    H3 3899   0.102   2.170  13.210  0.1064 -0.5396  0.2599
  257MPD2     N 3900   0.050   1.731  13.320  0.1552 -0.3969 -0.2238
  257MPD2    H5 3901   0.013   1.641  13.288  0.9297 -0.9526  0.4361
  257MPD2    N1 3902   4.703   1.901  12.880  0.4574 -0.4359  0.4874
  257MPD2    H7 3903   0.002   1.985  12.827  0.3258 -1.4280 -1.1295
  258TMC3    C1 3904   0.104   1.587  13.510 -0.3411 -0.2759 -0.1793
  258TMC3    C2 3905   0.131   1.469  13.444 -0.0747  0.1507  0.0941
  258TMC3    C3 3906   0.109   1.355  13.514  0.2127  0.1285  0.4013
  258TMC3    C4 3907   0.083   1.590  13.647  0.2534 -0.1290 -0.2530
  258TMC3    C5 3908   0.083   1.471  13.718  0.9262 -0.0373 -0.0624
  258TMC3    C6 3909   0.106   1.349  13.650 -0.1903 -0.0957 -0.4627
  258TMC3     C 3910   0.108   1.717  13.443  0.9254 -0.8323 -0.7906
  258TMC3     O 3911   0.137   1.808  13.517  0.1034  0.3468  0.7457
  258TMC3     H 3912   0.143   1.468  13.336  0.6002 -1.2954  0.1787
  258TMC3    H1 3913   0.080   1.685  13.698  1.4666 -0.8776  1.2002
  258TMC3    H2 3914   0.103   1.255  13.705  1.7357  0.6632  0.9685
  258TMC3    C7 3915   0.044   1.470  13.859  0.3884  0.1204 -0.9768
  258TMC3    C8 3916   0.085   1.225  13.450  0.1563 -0.1360  0.4068
  258TMC3    O1 3917   4.663   1.521  13.902 -0.0287 -0.4420 -0.1567
  258TMC3    O2 3918   0.102   1.122  13.516 -0.7510 -0.3300  0.1121
  259MPD2     C 3919   4.124   3.356   1.798  0.1621 -0.4569  0.2313
  259MPD2    C1 3920   4.089   3.239   1.734 -0.1960  0.4450  0.0733
  259MPD2    C2 3921   4.123   3.216   1.601  0.0199 -0.2940  0.2669
  259MPD2    C3 3922   4.199   3.314   1.538  0.0579  0.6060 -0.2375
  259MPD2    C4 3923   4.234   3.430   1.601  0.1330 -0.0594 -0.2654
  259MPD2    C5 3924   4.204   3.445   1.734 -0.3648 -0.1596  0.5645
  259MPD2     H 3925   4.085   3.126   1.553 -0.6780  1.8211 -3.0869
  259MPD2    H1 3926   4.293   3.506   1.550 -1.8296  2.5882  1.4306
  259MPD2    H2 3927   4.098   3.376   1.901  0.9642 -0.2918  0.4058
  259MPD2    H3 3928   4.240   3.533   1.786  0.0451 -1.0457  1.7595
  259MPD2     N 3929   4.232   3.288   1.402  0.8835 -0.3372 -0.0705
  259MPD2    H5 3930   4.209   3.200   1.357 -2.0531  0.8165 -0.8220
  259MPD2    N1 3931   4.021   3.150   1.818  0.0581  0.9254 -0.1665
  259MPD2    H7 3932   4.000   3.182   1.912  0.6781  1.7065 -0.3029
  260TMC3    C1 3933   4.321   3.328   1.185  0.0643  0.4108 -0.0888
  260TMC3    C2 3934   4.430   3.375   1.109 -0.0327  0.4606  0.3182
  260TMC3    C3 3935   4.418   3.358   0.975  0.1782  0.1979  1.2789
  260TMC3    C4 3936   4.214   3.271   1.121  0.0520 -0.6314 -0.7619
  260TMC3    C5 3937   4.221   3.256   0.982 -0.5957  0.0648  0.6141
  260TMC3    C6 3938   4.315   3.309   0.904 -0.2456  0.0620  0.3199
  260TMC3     C 3939   4.328   3.361   1.329 -0.1072 -0.5936 -0.2322
  260TMC3     O 3940   4.391   3.463   1.357 -0.5926  0.1867 -0.2284
  260TMC3     H 3941   4.503   3.442   1.154  0.4825  0.0757  0.0532
  260TMC3    H1 3942   4.135   3.224   1.178  0.6682  1.9926  2.2334
  260TMC3    H2 3943   4.306   3.319   0.796 -1.0479 -1.0731  0.2754
  260TMC3    C7 3944   4.089   3.226   0.929  0.5237  0.0669 -0.4905
  260TMC3    C8 3945   4.522   3.413   0.899 -0.5165 -0.1105  0.2356
  260TMC3    O1 3946   3.998   3.208   1.006 -0.0217  0.3408  0.0475
  260TMC3    O2 3947   4.598   3.491   0.951 -0.3055 -0.5257  0.3025
  261MPD2     C 3948   0.510   1.203  12.378  0.2150  1.1597 -0.7231
  261MPD2    C1 3949   0.557   1.311  12.451 -0.2466  0.2821  0.5712
  261MPD2    C2 3950   0.613   1.416  12.384 -0.3126  0.0213 -0.1340
  261MPD2    C3 3951   0.600   1.430  12.247 -0.3865  0.0706  0.0853
  261MPD2    C4 3952   0.549   1.324  12.177  0.0773  0.4216  0.5389
  261MPD2    C5 3953   0.499   1.217  12.241 -0.0743 -0.1231  0.3311
  261MPD2     H 3954   0.657   1.499  12.438 -2.1576  1.8204 -1.4063
  261MPD2    H1 3955   0.548   1.315  12.069  0.4473  0.7302  0.5086
  261MPD2    H2 3956   0.474   1.113  12.426  0.2083  2.0283  0.8856
  261MPD2    H3 3957   0.474   1.136  12.173 -1.6802  0.3312  0.3867
  261MPD2     N 3958   0.658   1.540  12.189 -0.1577 -0.5389  0.3443
  261MPD2    H5 3959   0.681   1.621  12.245  0.5852  0.1656 -0.9739
  261MPD2    N1 3960   0.560   1.316  12.593 -0.5113  0.0887 -0.0361
  261MPD2    H7 3961   0.606   1.395  12.635  0.2002 -1.2501  1.7108
  262TMC3    C1 3962   0.777   1.668  12.031 -0.2832  0.3318  0.1258
  262TMC3    C2 3963   0.727   1.778  12.091  0.3575 -0.3388 -0.2535
  262TMC3    C3 3964   0.797   1.896  12.066  0.4088 -0.1877  0.1795
  262TMC3    C4 3965   0.877   1.671  11.945 -0.6482  0.7618 -0.4682
  262TMC3    C5 3966   0.949   1.781  11.935 -0.5153  0.0145 -0.2595
  262TMC3    C6 3967   0.916   1.897  12.000 -0.1304  0.3077 -0.3465
  262TMC3     C 3968   0.708   1.544  12.062  0.4832 -0.7072 -0.5315
  262TMC3     O 3969   0.715   1.455  11.976 -0.2959  0.1056  0.7849
  262TMC3     H 3970   0.630   1.771  12.140 -0.0793  0.8899 -0.9403
  262TMC3    H1 3971   0.900   1.577  11.897  1.8054  0.4980  1.2747
  262TMC3    H2 3972   0.974   1.989  12.004  2.0129 -1.0841  0.5992
  262TMC3    C7 3973   0.997   1.798  11.798  0.4934  0.1864 -0.3650
  262TMC3    C8 3974   0.725   2.029  12.048  0.4867  0.0963 -0.0042
  262TMC3    O1 3975   0.975   1.696  11.730  0.4724  0.6032  0.0230
  262TMC3    O2 3976   0.777   2.118  11.980  0.0684 -0.5835 -0.2039
  263MPD2     C 3977   1.806   1.460  11.427  0.3737 -0.2354  0.6607
  263MPD2    C1 3978   1.934   1.462  11.380  0.3413  0.4508 -0.2059
  263MPD2    C2 3979   1.954   1.531  11.258 -0.3980 -0.6930 -0.4528
  263MPD2    C3 3980   1.844   1.571  11.183  0.0480  0.7164 -0.2969
  263MPD2    C4 3981   1.715   1.566  11.238  0.2440 -0.3718  0.6043
  263MPD2    C5 3982   1.698   1.506  11.361 -0.7202  0.0438  0.5662
  263MPD2     H 3983   2.049   1.542  11.207  0.9271  0.9460  2.3750
  263MPD2    H1 3984   1.637   1.629  11.196  3.1808  1.5258 -1.9535
  263MPD2    H2 3985   1.783   1.417  11.524 -0.2985  0.7481  0.9337
  263MPD2    H3 3986   1.600   1.510  11.408 -0.7875 -1.2445  0.5416
  263MPD2     N 3987   1.875   1.625  11.057  0.0091  0.2822  0.0622
  263MPD2    H5 3988   1.972   1.637  11.030  0.1770  0.7750  0.8912
  263MPD2    N1 3989   2.032   1.390  11.449 -0.2486  0.0032 -0.0389
  263MPD2    H7 3990   2.000   1.347  11.535 -1.0001 -1.1589 -0.8948
  264TMC3    C1 3991   1.848   1.705  10.838 -0.4756  0.4957  0.4321
  264TMC3    C2 3992   1.779   1.802  10.769 -0.0381 -0.8078 -0.0927
  264TMC3    C3 3993   1.842   1.863  10.663  0.4490  1.0466  0.6560
  264TMC3    C4 3994   1.975   1.670  10.806 -1.3033 -0.7943  0.5436
  264TMC3    C5 3995   2.027   1.732  10.695  0.3627 -0.6273  0.4955
  264TMC3    C6 3996   1.966   1.828  10.619  0.3986  0.4686  0.4636
  264TMC3     C 3997   1.781   1.652  10.960  0.3473  1.1383 -0.3588
  264TMC3     O 3998   1.657   1.657  10.954 -0.0669  0.3020 -0.4342
  264TMC3     H 3999   1.672   1.811  10.787  0.1519  2.4540 -0.5827
  264TMC3    H1 4000   2.025   1.590  10.859 -1.0089 -0.2316  1.1067
  264TMC3    H2 4001   2.009   1.885  10.537  0.8676 -1.0745 -0.3552
  264TMC3    C7 4002   2.157   1.701  10.644  0.2136 -0.4591 -0.8252
  264TMC3    C8 4003   1.786   1.988  10.615  0.2424  0.4433  0.6426
  264TMC3    O1 4004   2.188   1.583  10.636  0.7198 -0.0391  0.3867
  264TMC3    O2 4005   1.781   1.996  10.488  0.6110 -0.3271 -0.0250
  265MPD2     C 4006   3.635   1.637  15.505 -0.2213 -0.2316  0.2000
  265MPD2    C1 4007   3.695   1.756  15.462  0.3949  0.6092 -0.3222
  265MPD2    C2 4008   3.764   1.751  15.340 -0.4034 -0.9261 -1.0643
  265MPD2    C3 4009   3.769   1.632  15.271 -0.4615 -0.1552  0.8223
  265MPD2    C4 4010   3.715   1.515  15.323 -0.6939 -0.6862 -0.0195
  265MPD2    C5 4011   3.651   1.518  15.442  0.0549  0.1309  0.4010
  265MPD2     H 4012   3.812   1.842  15.305 -1.5796  0.2918  0.4654
  265MPD2    H1 4013   3.726   1.415  15.282  2.2608  1.3206 -4.1763
  265MPD2    H2 4014   3.574   1.627  15.595 -0.8969  1.4664 -0.0703
  265MPD2    H3 4015   3.604   1.430  15.484 -1.1712  1.1909  1.2554
  265MPD2     N 4016   3.831   1.617  15.147 -0.9480 -0.0816 -0.6588
  265MPD2    H5 4017   3.821   1.525  15.105  0.0988 -0.1926 -0.6703
  265MPD2    N1 4018   3.688   1.882  15.539  0.1789 -0.0503 -0.2386
  265MPD2    H7 4019   3.728   1.965  15.496 -0.5845  0.9468  1.0096
  266TMC3    C1 4020   3.663   2.047  15.704  0.0315 -0.3690 -0.4077
  266TMC3    C2 4021   3.657   2.069  15.841  0.2619  0.2793  0.7574
  266TMC3    C3 4022   3.683   2.199  15.885  0.7041 -0.5295 -0.6086
  266TMC3    C4 4023   3.660   2.151  15.619 -0.4375 -0.3459  0.0353
  266TMC3    C5 4024   3.673   2.277  15.668  0.0488  0.1277  0.2331
  266TMC3    C6 4025   3.692   2.307  15.802  0.0073  0.6249 -0.2987
  266TMC3     C 4026   3.649   1.904  15.667  0.5238  0.0213 -0.1894
  266TMC3     O 4027   3.610   1.823  15.751 -0.0482  0.2075  0.5742
  266TMC3     H 4028   3.646   1.991  15.915 -2.4410  1.0687  1.1874
  266TMC3    H1 4029   3.651   2.137  15.512  0.3951  2.4933 -0.3990
  266TMC3    H2 4030   3.724   2.404  15.839  0.2329  0.6580 -0.5794
  266TMC3    C7 4031   3.690   2.380  15.575 -0.3871  0.3668  0.0861
  266TMC3    C8 4032   3.706   2.214  16.029  0.1262 -0.0171  0.2195
  266TMC3    O1 4033   3.733   2.351  15.463  0.3204  0.3937  0.0651
  266TMC3    O2 4034   3.709   2.114  16.095 -0.0655  0.3475 -0.1760
  267MPD2     C 4035   1.355   3.586   0.447  0.1337  0.3321 -0.3002
  267MPD2    C1 4036   1.457   3.548   0.361 -0.0725  0.2288  0.0223
  267MPD2    C2 4037   1.413   3.492   0.243 -0.1735 -0.2077  0.5170
  267MPD2    C3 4038   1.279   3.462   0.224 -0.2034 -0.3439  0.5241
  267MPD2    C4 4039   1.188   3.509   0.308 -0.5371 -1.0183 -0.5911
  267MPD2    C5 4040   1.222   3.572   0.426  0.3792 -0.3717  0.4248
  267MPD2     H 4041   1.487   3.457   0.172  1.7110 -0.1073  2.4102
  267MPD2    H1 4042   1.081   3.495   0.296 -0.4852  0.3408 -2.6479
  267MPD2    H2 4043   1.382   3.634   0.540 -3.0971  2.9282 -0.7047
  267MPD2    H3 4044   1.158   3.609   0.505 -1.2312  0.6759 -1.3621
  267MPD2     N 4045   1.226   3.388   0.121 -0.2879  0.0804  0.2626
  267MPD2    H5 4046   1.126   3.376   0.112 -0.4352  0.2639  1.5990
  267MPD2    N1 4047   1.591   3.584   0.401  0.0656 -0.2254 -0.1582
  267MPD2    H7 4048   1.599   3.629   0.491  3.5483 -1.9450  0.3898
  268TMC3    C1 4049   1.822   3.573   0.434  0.3190  0.5954  0.6930
  268TMC3    C2 4050   1.943   3.608   0.378  0.1672  0.0829 -0.6855
  268TMC3    C3 4051   2.048   3.613   0.466 -0.0963  0.1287  0.3119
  268TMC3    C4 4052   1.810   3.533   0.567  0.4832 -0.3050 -0.5221
  268TMC3    C5 4053   1.919   3.526   0.645 -0.0884  0.7926  0.1959
  268TMC3    C6 4054   2.033   3.574   0.598  0.0401 -0.0005  0.0859
  268TMC3     C 4055   1.712   3.569   0.338  0.2464  0.1205 -0.2942
  268TMC3     O 4056   1.725   3.524   0.226 -0.0694 -0.1365  0.0259
  268TMC3     H 4057   1.959   3.626   0.273 -0.3874 -2.7676 -1.2571
  268TMC3    H1 4058   1.716   3.492   0.602  0.9769 -1.4704 -0.5666
  268TMC3    H2 4059   2.115   3.597   0.665  0.3866 -0.9405 -0.0046
  268TMC3    C7 4060   1.910   3.555   0.783  0.1091 -0.5405 -0.7646
  268TMC3    C8 4061   2.160   3.713   0.454 -0.1402 -0.0304  0.8931
  268TMC3    O1 4062   1.929   3.672   0.817  0.5827 -0.4863 -0.0351
  268TMC3    O2 4063   2.174   3.774   0.562 -0.1049  0.0478 -0.1365
  269MPD2     C 4064   1.529   2.130  15.891  0.0197 -0.2869  0.3726
  269MPD2    C1 4065   1.404   2.172  15.934 -0.0117  0.1115  0.8123
  269MPD2    C2 4066   1.369   2.305  15.916 -0.1380  0.2420 -0.4707
  269MPD2    C3 4067   1.462   2.398  15.861 -0.2497  0.4231 -0.1076
  269MPD2    C4 4068   1.589   2.349  15.837  0.6623  0.1492  0.0755
  269MPD2    C5 4069   1.621   2.217  15.844 -0.0936  0.7571  1.1825
  269MPD2     H 4070   1.270   2.343  15.939  0.6278  2.1961 -0.4128
  269MPD2    H1 4071   1.668   2.414  15.801  0.2434  1.2733  1.1880
  269MPD2    H2 4072   1.567   2.029  15.902 -1.4356 -0.6565  2.1144
  269MPD2    H3 4073   1.726   2.192  15.834 -0.5574 -1.0570  0.8328
  269MPD2     N 4074   1.437   2.534  15.854  0.4322  0.6790  0.4050
  269MPD2    H5 4075   1.353   2.567  15.900  0.0911  0.7061 -0.2391
  269MPD2    N1 4076   1.323   2.071  15.995 -0.0345  0.2000  0.3865
  269MPD2    H7 4077   1.352   1.975  15.985  1.3948  0.6460  0.3218
  270TMC3    C1 4078   1.141   1.970  16.101 -0.1048  0.6601  0.6176
  270TMC3    C2 4079   1.008   1.968  16.078  0.2206 -0.9377 -0.5256
  270TMC3    C3 4080   0.947   1.843  16.068  0.2429 -0.1751 -0.1295
  270TMC3    C4 4081   1.217   1.858  16.108  0.0058  0.4415 -0.2888
  270TMC3    C5 4082   1.159   1.741  16.090 -0.2612  0.5226 -0.3439
  270TMC3    C6 4083   1.024   1.729  16.077 -0.0105  0.6993  0.2222
  270TMC3     C 4084   1.204   2.089  16.052 -0.2258 -0.5366  0.2055
  270TMC3     O 4085   1.141   2.190  16.046 -0.1816 -0.1617 -0.4159
  270TMC3     H 4086   0.955   2.057  16.044  0.4565 -1.0251 -1.1315
  270TMC3    H1 4087   1.324   1.864  16.120  0.1892 -0.3614 -1.4923
  270TMC3    H2 4088   0.971   1.634  16.080 -1.4465  1.4532 -1.3926
  270TMC3    C7 4089   1.241   1.622  16.074  0.5450 -0.9511  0.7684
  270TMC3    C8 4090   0.831   1.844  15.983 -0.4861 -0.1728  0.2577
  270TMC3    O1 4091   1.364   1.634  16.069 -0.2048 -0.3146 -0.2650
  270TMC3    O2 4092   0.727   1.900  16.006  0.1792 -0.5555  0.7291
  271MPD2     C 4093   0.455   1.996  14.354 -0.1071  0.1158  0.9336
  271MPD2    C1 4094   0.365   1.984  14.460  0.4141 -0.7324 -0.3361
  271MPD2    C2 4095   0.237   2.025  14.429 -0.5163  0.5991 -0.5574
  271MPD2    C3 4096   0.200   2.089  14.314 -0.5264 -0.4655 -0.1565
  271MPD2    C4 4097   0.289   2.108  14.215 -0.1369  0.1294  0.1007
  271MPD2    C5 4098   0.417   2.051  14.233  0.3251 -0.2115  0.7499
  271MPD2     H 4099   0.159   1.995  14.498 -0.4577 -3.0748 -2.0901
  271MPD2    H1 4100   0.274   2.147  14.115 -2.3230 -1.0351 -0.0279
  271MPD2    H2 4101   0.563   1.987  14.361 -0.1612 -1.7952 -0.9836
  271MPD2    H3 4102   0.490   2.058  14.153 -0.8717 -2.7370 -0.5622
  271MPD2     N 4103   0.067   2.139  14.285  0.1007  0.1094  0.3459
  271MPD2    H5 4104   0.053   2.177  14.192 -1.9449 -1.1348  0.1193
  271MPD2    N1 4105   0.404   1.929  14.583  0.2295  0.0861 -0.0121
  271MPD2    H7 4106   0.343   1.933  14.664  1.7313  0.4568  1.1108
  272TMC3    C1 4107   0.517   1.772  14.724 -0.4176  0.0677 -0.3525
  272TMC3    C2 4108   0.604   1.666  14.708 -0.2767 -0.0727  0.2156
  272TMC3    C3 4109   0.674   1.619  14.820  0.5992  0.0786 -0.5247
  272TMC3    C4 4110   0.489   1.820  14.850 -0.5751  0.3925  0.4496
  272TMC3    C5 4111   0.559   1.765  14.956 -0.2204 -0.6060 -0.8883
  272TMC3    C6 4112   0.653   1.673  14.944 -0.4227 -0.0326  0.2452
  272TMC3     C 4113   0.526   1.862  14.604  0.0122 -0.2145 -0.0309
  272TMC3     O 4114   0.623   1.840  14.530  0.2045  0.3615 -0.4695
  272TMC3     H 4115   0.621   1.617  14.613 -2.1616  3.8453 -2.1584
  272TMC3    H1 4116   0.417   1.900  14.866 -1.2974 -0.4334  1.3307
  272TMC3    H2 4117   0.714   1.657  15.032  2.0610 -0.9942 -1.6356
  272TMC3    C7 4118   0.555   1.828  15.089 -0.4056  0.4126 -0.2588
  272TMC3    C8 4119   0.787   1.540  14.793  0.0075  0.2318 -0.2556
  272TMC3    O1 4120   0.443   1.861  15.131 -0.6126  0.0659 -0.5067
  272TMC3    O2 4121   0.812   1.511  14.678  0.4236  0.4136 -0.4046
  273MPD2     C 4122   1.859   0.291  11.959 -1.2276 -0.2776  0.2090
  273MPD2    C1 4123   1.990   0.268  11.920  0.1497 -0.8124  0.2485
  273MPD2    C2 4124   2.013   0.290  11.782  0.1792  0.0142 -0.1854
  273MPD2    C3 4125   1.917   0.308  11.684 -0.5231  0.0472  0.2350
  273MPD2    C4 4126   1.782   0.318  11.730  0.0993  0.3864 -0.0185
  273MPD2    C5 4127   1.759   0.311  11.867 -0.0034  0.0570  0.0388
  273MPD2     H 4128   2.114   0.317  11.750 -1.0074  2.7800 -1.5810
  273MPD2    H1 4129   1.694   0.317  11.667  0.2394 -2.3010 -0.1716
  273MPD2    H2 4130   1.823   0.299  12.061 -1.6682  0.4940 -0.0034
  273MPD2    H3 4131   1.655   0.308  11.895  0.0567 -1.3783  0.1159
  273MPD2     N 4132   1.944   0.341  11.553  0.0915 -0.7093 -0.4370
  273MPD2    H5 4133   1.858   0.361  11.503 -0.8969 -0.5906  1.3130
  273MPD2    N1 4134   2.086   0.245  12.020 -0.2650 -0.3058 -0.1101
  273MPD2    H7 4135   2.062   0.231  12.118  0.2686  0.2184  0.0944
  274TMC3    C1 4136   2.059   0.395  11.358  0.0418 -0.3846 -0.5702
  274TMC3    C2 4137   1.963   0.329  11.277  0.3450  0.2710 -0.4474
  274TMC3    C3 4138   1.994   0.334  11.143 -0.1598 -0.2241 -0.0278
  274TMC3    C4 4139   2.180   0.441  11.308  0.7294 -0.1265 -1.2457
  274TMC3    C5 4140   2.196   0.438  11.173  0.0015  0.2906 -0.2277
  274TMC3    C6 4141   2.117   0.370  11.084 -0.5570 -0.7011 -0.2344
  274TMC3     C 4142   2.068   0.354  11.496 -1.1550 -0.2972 -0.3693
  274TMC3     O 4143   2.176   0.339  11.544  0.3680  0.4184  0.0340
  274TMC3     H 4144   1.871   0.283  11.312 -0.8436  0.9211 -2.7737
  274TMC3    H1 4145   2.250   0.478  11.383  0.2381  0.8097 -1.2478
  274TMC3    H2 4146   2.126   0.382  10.977 -1.1865 -0.5840 -0.2730
  274TMC3    C7 4147   2.302   0.518  11.114 -0.8367 -0.1212 -0.0294
  274TMC3    C8 4148   1.891   0.268  11.057  0.0906 -0.2369 -0.3658
  274TMC3    O1 4149   2.331   0.487  10.998 -0.4465  0.1848  0.2716
  274TMC3    O2 4150   1.782   0.234  11.104 -0.2313 -0.2541  1.3911
  275MPD2     C 4151   1.979   2.868  14.372  0.2988 -0.2791  0.3050
  275MPD2    C1 4152   1.981   2.837  14.506 -0.1071 -0.4196  0.1427
  275MPD2    C2 4153   1.873   2.771  14.565  0.0358  0.0201  0.6926
  275MPD2    C3 4154   1.771   2.723  14.487 -0.2998  0.1267 -0.1501
  275MPD2    C4 4155   1.783   2.730  14.346  0.6514  0.2370  0.5829
  275MPD2    C5 4156   1.884   2.809  14.296 -0.1692 -0.0559 -0.0350
  275MPD2     H 4157   1.878   2.764  14.673  0.5622 -0.0283  0.6645
  275MPD2    H1 4158   1.709   2.690  14.277  2.8766 -0.6682 -1.3019
  275MPD2    H2 4159   2.056   2.928  14.325  1.0605 -1.2154  0.3642
  275MPD2    H3 4160   1.883   2.828  14.189  0.1044 -3.3580 -0.6108
  275MPD2     N 4161   1.664   2.651  14.542 -0.3485 -0.1654 -0.1693
  275MPD2    H5 4162   1.599   2.617  14.472 -0.4555 -2.3136  1.0006
  275MPD2    N1 4163   2.072   2.890  14.597 -0.2017  0.1215  0.3138
  275MPD2    H7 4164   2.049   2.879  14.696 -1.7387 -1.2296 -0.1843
  276TMC3    C1 4165   2.267   2.977  14.694  0.3798  0.3208  0.3054
  276TMC3    C2 4166   2.198   2.977  14.815 -0.3666  0.0481 -0.0442
  276TMC3    C3 4167   2.271   2.939  14.928  0.1009 -0.3324  0.4786
  276TMC3    C4 4168   2.405   2.959  14.689 -0.2337 -0.5167  0.4527
  276TMC3    C5 4169   2.468   2.925  14.806  0.0704  0.0159 -0.2165
  276TMC3    C6 4170   2.403   2.909  14.922 -0.1400 -0.4583 -0.2583
  276TMC3     C 4171   2.194   2.953  14.570  0.1180 -0.2424  0.4228
  276TMC3     O 4172   2.258   2.952  14.466  0.0046  0.0480 -0.2653
  276TMC3     H 4173   2.092   2.999  14.818 -0.4287 -0.5648  2.1411
  276TMC3    H1 4174   2.456   2.989  14.599 -0.3243 -1.6954  0.0074
  276TMC3    H2 4175   2.459   2.889  15.013  0.2519  0.1653 -0.3626
  276TMC3    C7 4176   2.613   2.934  14.822  0.2185 -0.1910  0.3475
  276TMC3    C8 4177   2.197   2.876  15.042 -0.0130  0.4015  0.1046
  276TMC3    O1 4178   2.662   2.856  14.904  0.9649 -0.3599  0.3426
  276TMC3    O2 4179   2.077   2.902  15.058 -0.0511  0.0812  0.1902
  277MPD2     C 4180   3.792   1.718  13.622  0.1601 -0.9136 -0.1960
  277MPD2    C1 4181   3.654   1.716  13.638 -0.6668 -0.1478  0.0850
  277MPD2    C2 4182   3.602   1.679  13.763  0.0295  1.0306  0.1901
  277MPD2    C3 4183   3.675   1.640  13.868 -1.0635 -0.0896  0.5794
  277MPD2    C4 4184   3.809   1.630  13.847  0.4382  0.3595 -0.0001
  277MPD2    C5 4185   3.867   1.678  13.731  0.8365  0.5634 -0.4812
  277MPD2     H 4186   3.497   1.685  13.785  0.2885  2.9423  0.9252
  277MPD2    H1 4187   3.872   1.576  13.917 -1.7090 -1.3600  0.5987
  277MPD2    H2 4188   3.847   1.747  13.533 -0.7187  1.4264  0.0336
  277MPD2    H3 4189   3.975   1.675  13.720  0.7682 -0.4121 -0.9611
  277MPD2     N 4190   3.606   1.591  13.980 -0.3357 -0.3539 -0.0864
  277MPD2    H5 4191   3.505   1.591  13.968 -0.4575 -0.6407  0.8759
  277MPD2    N1 4192   3.569   1.761  13.536  0.1397  0.0456 -0.5229
  277MPD2    H7 4193   3.615   1.795  13.452  0.3325  1.2933  0.0877
  278TMC3    C1 4194   3.559   1.470  14.164  0.0027  0.5800 -0.0726
  278TMC3    C2 4195   3.596   1.357  14.227 -0.2201  0.6590  0.3703
  278TMC3    C3 4196   3.500   1.275  14.270  0.2439 -0.1335 -0.3561
  278TMC3    C4 4197   3.423   1.503  14.142  0.0393  0.5801 -0.2146
  278TMC3    C5 4198   3.332   1.421  14.201 -0.2202  0.7791 -0.1548
  278TMC3    C6 4199   3.370   1.310  14.266 -0.0853 -0.2019 -0.2310
  278TMC3     C 4200   3.658   1.538  14.095 -0.1325  0.5698 -0.9164
  278TMC3     O 4201   3.773   1.508  14.127  0.6136 -0.1229  0.5713
  278TMC3     H 4202   3.700   1.332  14.244  0.3912  2.2670 -0.9492
  278TMC3    H1 4203   3.391   1.596  14.098 -1.6889 -0.0230 -0.2450
  278TMC3    H2 4204   3.296   1.257  14.325  2.4091 -1.9776  1.2729
  278TMC3    C7 4205   3.218   1.394  14.124  0.0214 -0.8375 -0.5843
  278TMC3    C8 4206   3.540   1.139  14.231  0.2084  0.2629 -0.4435
  278TMC3    O1 4207   3.240   1.290  14.062  0.2792  0.0551 -0.5016
  278TMC3    O2 4208   3.659   1.106  14.243 -0.4529 -1.0209 -0.3451
  279MPD2     C 4209   3.455   1.573   0.371  0.8979  0.1211  0.9078
  279MPD2    C1 4210   3.367   1.683   0.370  0.3165  0.1035 -0.7197
  279MPD2    C2 4211   3.407   1.792   0.293 -0.0953  0.1338 -0.4436
  279MPD2    C3 4212   3.539   1.802   0.236 -0.1243  0.4319 -0.4267
  279MPD2    C4 4213   3.616   1.689   0.235 -0.1599  0.1050  0.5979
  279MPD2    C5 4214   3.575   1.576   0.306 -0.6618 -0.3024  0.1817
  279MPD2     H 4215   3.346   1.882   0.289  0.8870  0.8027 -0.5161
  279MPD2    H1 4216   3.717   1.695   0.197 -0.7880  2.3175 -0.7297
  279MPD2    H2 4217   3.421   1.483   0.421 -0.0333  0.2123  0.4252
  279MPD2    H3 4218   3.648   1.495   0.300 -0.8965 -0.5206  0.3097
  279MPD2     N 4219   3.579   1.928   0.193  0.3832  0.2719  0.0961
  279MPD2    H5 4220   3.649   1.926   0.120 -0.2714 -0.0081 -0.5284
  279MPD2    N1 4221   3.237   1.677   0.432 -0.1821 -0.4838  0.2144
  279MPD2    H7 4222   3.202   1.587   0.463 -0.5307  0.2015  1.7875
  280TMC3    C1 4223   3.019   1.773   0.469 -0.0466  0.0753  0.2409
  280TMC3    C2 4224   2.950   1.663   0.418 -0.1772  0.4808  0.0716
  280TMC3    C3 4225   2.820   1.654   0.428  0.4051  0.0117  0.0605
  280TMC3    C4 4226   2.951   1.882   0.513  0.4997 -0.0106  0.1029
  280TMC3    C5 4227   2.811   1.873   0.524 -0.1321 -0.1808 -0.2175
  280TMC3    C6 4228   2.740   1.761   0.475 -0.0172  0.3274 -0.3797
  280TMC3     C 4229   3.163   1.792   0.455  0.0516  0.5163  0.2682
  280TMC3     O 4230   3.188   1.911   0.438  0.2202 -0.0840 -0.0115
  280TMC3     H 4231   3.004   1.573   0.391 -0.4147  0.3952 -0.1234
  280TMC3    H1 4232   3.000   1.971   0.551  0.7811 -0.7342  1.4332
  280TMC3    H2 4233   2.634   1.747   0.491  0.0671  1.7281  1.3137
  280TMC3    C7 4234   2.743   1.977   0.587  0.0876  0.5222 -0.1464
  280TMC3    C8 4235   2.758   1.520   0.414 -0.5727 -0.0406 -0.3384
  280TMC3    O1 4236   2.810   2.048   0.667  0.0595  0.0138 -0.3257
  280TMC3    O2 4237   2.658   1.497   0.481  0.0664 -0.0583  0.0985
  281TMC3    C1 4238   1.698   2.132  13.218 -0.4252 -1.4697  0.1473
  281TMC3    C2 4239   1.806   2.092  13.143 -0.7037  0.2340  0.2750
  281TMC3    C3 4240   1.816   1.960  13.111  0.6354 -0.0079 -0.2539
  281TMC3    C4 4241   1.604   2.042  13.258  0.5878  0.4431  0.5353
  281TMC3    C5 4242   1.634   1.909  13.234 -0.3439  0.0572 -0.2086
  281TMC3    C6 4243   1.737   1.864  13.160  0.5178 -0.4810 -0.3676
  281TMC3     C 4244   1.659   2.269  13.224 -0.4540 -0.2735 -0.3396
  281TMC3     O 4245   1.561   2.305  13.288 -0.7795  0.0577  0.0479
  281TMC3     H 4246   1.879   2.165  13.110 -0.1774 -1.1958 -1.7389
  281TMC3    H1 4247   1.526   2.079  13.323  0.9374  1.1376  0.5629
  281TMC3    H2 4248   1.768   1.761  13.146  1.9077 -0.2046  0.6838
  281TMC3    C7 4249   1.567   1.806  13.302 -0.6672  0.3399  0.2434
  281TMC3    C8 4250   1.916   1.916  13.018 -0.0261  0.6287  0.2731
  281TMC3    O1 4251   1.548   1.708  13.236  0.1925 -0.0644  0.1312
  281TMC3    O2 4252   1.992   1.831  13.060 -0.5072  0.6035 -0.4513
  282MPD2     C 4253   3.805   3.654  15.149 -0.0192 -0.3548  0.1857
  282MPD2    C1 4254   3.677   3.687  15.173 -0.1586 -0.3872  0.6415
  282MPD2    C2 4255   3.587   3.675  15.065 -0.1219  0.5602  0.4517
  282MPD2    C3 4256   3.625   3.632  14.942  0.4013  0.3382 -0.1302
  282MPD2    C4 4257   3.755   3.621  14.916  0.7037 -0.6244 -0.0049
  282MPD2    C5 4258   3.844   3.631  15.018  0.1462 -0.2697 -0.7784
  282MPD2     H 4259   3.480   3.684  15.080 -0.1820  1.7090 -0.6797
  282MPD2    H1 4260   3.803   3.604  14.820 -1.2962  0.2163 -1.1594
  282MPD2    H2 4261   3.886   3.663  15.220  0.0810 -0.2403  0.0562
  282MPD2    H3 4262   3.952   3.618  15.014  0.0799 -1.1506  0.1841
  282MPD2     N 4263   3.520   3.616  14.848  0.0541 -0.7353 -0.2046
  282MPD2    H5 4264   3.428   3.636  14.886  0.1738 -0.2603 -0.1600
  282MPD2    N1 4265   3.626   3.719  15.298  0.3007 -0.2534 -0.1843
  282MPD2    H7 4266   3.527   3.745  15.299  0.3363 -0.0711 -1.3356
  283TMC3    C1 4267   3.570   3.683  15.522  0.0263 -1.0439  0.1021
  283TMC3    C2 4268   3.501   3.804  15.534  0.5713  0.0902 -0.2372
  283TMC3    C3 4269   3.403   3.820  15.623 -0.1585  0.2927  0.8361
  283TMC3    C4 4270   3.550   3.581  15.608  0.0140  0.0057  0.7466
  283TMC3    C5 4271   3.450   3.602  15.707 -0.2433  0.1912  0.1751
  283TMC3    C6 4272   3.379   3.716  15.712  0.4751 -0.2773 -0.9942
  283TMC3     C 4273   3.677   3.668  15.418  0.5820 -0.7415  0.0362
  283TMC3     O 4274   3.773   3.594  15.426 -0.2011  0.5551  0.0334
  283TMC3     H 4275   3.536   3.884  15.470  0.9211  0.1867  0.0717
  283TMC3    H1 4276   3.598   3.486  15.587 -0.6045  0.1468 -1.3016
  283TMC3    H2 4277   3.295   3.732  15.779 -1.0875 -2.4698 -2.4286
  283TMC3    C7 4278   3.404   3.492  15.793  0.1215 -0.0695  0.3812
  283TMC3    C8 4279   3.383   3.948  15.686 -0.1644  0.2326 -0.6652
  283TMC3    O1 4280   3.350   3.524  15.897 -0.4054  0.1794 -0.9469
  283TMC3    O2 4281   3.321   3.945  15.792  0.4692  0.0522 -0.3408
  284MPD2     C 4282   1.925   2.675  11.782  0.1334  0.8149  0.6017
  284MPD2    C1 4283   2.015   2.702  11.684 -0.0022 -0.0138 -0.0801
  284MPD2    C2 4284   2.135   2.641  11.683 -0.3408 -0.4286  0.1266
  284MPD2    C3 4285   2.176   2.563  11.787 -0.0526 -1.3655  0.7199
  284MPD2    C4 4286   2.091   2.544  11.895  0.0897  0.1505 -0.4152
  284MPD2    C5 4287   1.974   2.603  11.889 -0.3495  0.5925 -0.4439
  284MPD2     H 4288   2.204   2.666  11.603 -1.6922  3.3247  0.1128
  284MPD2    H1 4289   2.110   2.489  11.986 -0.2768 -1.7928 -1.5064
  284MPD2    H2 4290   1.827   2.715  11.802 -0.6350 -0.5315 -0.4465
  284MPD2    H3 4291   1.912   2.602  11.977  1.3535  1.7616  0.7639
  284MPD2     N 4292   2.298   2.495  11.782  0.1901  0.2151  0.6048
  284MPD2    H5 4293   2.352   2.506  11.697  1.2261 -4.4617  0.6712
  284MPD2    N1 4294   1.992   2.788  11.571 -0.2527  0.6996 -0.5562
  284MPD2    H7 4295   2.066   2.777  11.503  1.2757 -0.6524  1.3080
  285TMC3    C1 4296   1.947   2.987  11.482 -0.2454  0.8321  0.4029
  285TMC3    C2 4297   2.034   2.937  11.391 -0.4081 -0.0147  0.0063
  285TMC3    C3 4298   2.171   2.978  11.404 -0.2823 -0.1807  0.2456
  285TMC3    C4 4299   1.981   3.092  11.561 -0.4312  0.2667  0.4242
  285TMC3    C5 4300   2.112   3.137  11.564  0.0663  0.8131 -0.9389
  285TMC3    C6 4301   2.209   3.074  11.492 -0.0223  0.0056  0.0652
  285TMC3     C 4302   1.898   2.886  11.569  0.7136  1.1154  0.4382
  285TMC3     O 4303   1.813   2.921  11.648  0.4210 -0.5484  0.1003
  285TMC3     H 4304   2.019   2.849  11.331 -1.4675  2.2951 -3.1479
  285TMC3    H1 4305   1.905   3.128  11.630  0.4589  1.0987  0.9692
  285TMC3    H2 4306   2.311   3.104  11.514  0.3026 -2.4191  1.8453
  285TMC3    C7 4307   2.147   3.246  11.656 -0.5490 -0.6440  0.3091
  285TMC3    C8 4308   2.266   2.880  11.376  0.7344 -0.1600  0.4778
  285TMC3    O1 4309   2.063   3.336  11.662 -0.3681  0.9347 -0.0389
  285TMC3    O2 4310   2.221   2.764  11.390  0.0594 -0.1548 -0.4171
  286MPD2     C 4311   2.284   1.342   1.960  0.1190 -0.8515  0.2079
  286MPD2    C1 4312   2.205   1.350   1.845  0.0590  1.0461 -0.2118
  286MPD2    C2 4313   2.253   1.287   1.727 -0.0046  0.2985 -0.0692
  286MPD2    C3 4314   2.371   1.212   1.737  0.3008  0.1154  0.7741
  286MPD2    C4 4315   2.437   1.191   1.854  0.6367 -0.5019 -0.3928
  286MPD2    C5 4316   2.392   1.254   1.962  0.4457  0.0777 -0.8280
  286MPD2     H 4317   2.201   1.294   1.632  0.6647  0.1205 -0.4513
  286MPD2    H1 4318   2.515   1.116   1.857  2.1147  0.9998 -0.6243
  286MPD2    H2 4319   2.254   1.392   2.051  1.1593 -2.2070  1.2935
  286MPD2    H3 4320   2.455   1.242   2.050  0.0555 -1.8563 -0.8102
  286MPD2     N 4321   2.420   1.137   1.623  0.0847  0.7520  0.7000
  286MPD2    H5 4322   2.478   1.060   1.657 -1.1046  1.1820  3.7468
  286MPD2    N1 4323   2.086   1.423   1.836  0.1039 -0.5725 -0.2885
  286MPD2    H7 4324   2.040   1.427   1.745  2.3417 -1.4196 -1.4459
  287TMC3    C1 4325   2.484   1.076   1.407 -0.9291 -0.4378 -0.0090
  287TMC3    C2 4326   2.453   1.072   1.281 -0.5785  0.4375 -0.1837
  287TMC3    C3 4327   2.519   0.976   1.201  0.9308 -0.2435  0.2434
  287TMC3    C4 4328   2.597   1.014   1.452 -0.0114  0.5119 -0.4094
  287TMC3    C5 4329   2.666   0.934   1.366  0.4449  0.0908  0.6027
  287TMC3    C6 4330   2.627   0.910   1.241  0.6061 -0.1631  0.2457
  287TMC3     C 4331   2.388   1.148   1.491  0.0960 -0.1696  0.1209
  287TMC3     O 4332   2.293   1.208   1.441 -0.1227 -0.2705 -0.1713
  287TMC3     H 4333   2.365   1.119   1.238 -0.9905  1.4774  1.7834
  287TMC3    H1 4334   2.627   1.019   1.556 -1.4112 -0.4648  0.0478
  287TMC3    H2 4335   2.679   0.838   1.181  1.0510  1.1392 -0.9184
  287TMC3    C7 4336   2.783   0.873   1.409  0.2462 -0.2051 -0.1919
  287TMC3    C8 4337   2.487   0.948   1.068  0.2853  0.2127  0.3449
  287TMC3    O1 4338   2.801   0.879   1.529 -0.1329  0.3331 -0.2340
  287TMC3    O2 4339   2.519   0.836   1.028  0.7760  0.0092  0.2963
  288TMC3    C1 4340   3.332   1.351  14.733  0.1051 -0.6450  0.1614
  288TMC3    C2 4341   3.342   1.275  14.845  0.0767 -0.3136 -0.1496
  288TMC3    C3 4342   3.408   1.333  14.951 -0.5321 -0.2419 -0.0728
  288TMC3    C4 4343   3.371   1.484  14.733 -0.5223 -0.7731  0.1746
  288TMC3    C5 4344   3.423   1.548  14.842 -0.3099  0.0263  0.2365
  288TMC3    C6 4345   3.443   1.469  14.953 -0.3302  0.4065 -0.3541
  288TMC3     C 4346   3.253   1.301  14.618  0.1502  0.8418 -0.0521
  288TMC3     O 4347   3.212   1.389  14.541  0.3001  0.0226  0.2505
  288TMC3     H 4348   3.307   1.173  14.845 -0.2921 -0.1907  3.5378
  288TMC3    H1 4349   3.365   1.543  14.643  1.3306  1.3964  1.4639
  288TMC3    H2 4350   3.492   1.518  15.036 -1.0267  2.1050 -0.9574
  288TMC3    C7 4351   3.488   1.678  14.841 -0.2923  0.2652 -0.0368
  288TMC3    C8 4352   3.442   1.271  15.085 -0.3586  0.5716 -0.2310
  288TMC3    O1 4353   3.495   1.732  14.949  0.3046  0.2735 -0.2541
  288TMC3    O2 4354   3.537   1.309  15.155 -0.2994  0.3997 -0.0102
  289MPD2     C 4355   3.777   0.574  14.259 -0.2371  0.0186 -0.4529
  289MPD2    C1 4356   3.750   0.664  14.359 -1.2997  0.6312  0.9746
  289MPD2    C2 4357   3.648   0.630  14.446  0.5119  0.7697  0.1156
  289MPD2    C3 4358   3.574   0.511  14.434 -0.3681  1.5203  0.6435
  289MPD2    C4 4359   3.605   0.432  14.325 -0.3404 -0.3049 -0.0885
  289MPD2    C5 4360   3.708   0.458  14.247  0.7632  0.1397 -0.2635
  289MPD2     H 4361   3.630   0.697  14.530  1.2788  0.6866  0.3495
  289MPD2    H1 4362   3.544   0.343  14.311 -1.8321  0.6509  0.3482
  289MPD2    H2 4363   3.868   0.588  14.203  2.5813 -0.1745  4.0905
  289MPD2    H3 4364   3.748   0.381  14.181  2.0497 -1.1270  1.9516
  289MPD2     N 4365   3.454   0.488  14.498  0.1915  0.0792 -0.0553
  289MPD2    H5 4366   3.398   0.416  14.454 -1.8963  1.1755  0.8000
  289MPD2    N1 4367   3.825   0.777  14.377  0.6295  0.3823 -0.3204
  289MPD2    H7 4368   3.885   0.804  14.300  0.9767  1.3503  0.2937
  290TMC3    C1 4369   3.252   0.535  14.609 -0.2644  0.4081 -0.7075
  290TMC3    C2 4370   3.178   0.644  14.648  0.0106  0.2613  0.4956
  290TMC3    C3 4371   3.040   0.633  14.625 -0.1688  1.0655  0.6417
  290TMC3    C4 4372   3.200   0.426  14.544 -0.0015 -0.1445 -0.5480
  290TMC3    C5 4373   3.070   0.429  14.507  0.4271  0.2501 -0.7800
  290TMC3    C6 4374   2.990   0.533  14.550  0.3042 -0.3642  0.6884
  290TMC3     C 4375   3.391   0.564  14.590  0.4154  0.0589 -0.3877
  290TMC3     O 4376   3.435   0.660  14.643 -0.0211  0.3452  0.4188
  290TMC3     H 4377   3.226   0.731  14.692  0.1371  0.5518 -0.2127
  290TMC3    H1 4378   3.268   0.343  14.532 -0.2455 -0.4596  0.2846
  290TMC3    H2 4379   2.885   0.536  14.526  0.4910  1.4148  0.1072
  290TMC3    C7 4380   2.992   0.308  14.496 -0.1740  0.1992 -0.2766
  290TMC3    C8 4381   2.964   0.755  14.595  0.3090 -1.0858  0.0428
  290TMC3    O1 4382   2.870   0.317  14.499  0.6051  0.4134 -0.6290
  290TMC3    O2 4383   2.876   0.749  14.511 -0.3489 -0.6753 -0.6781
  291MPD2     C 4384   3.395   0.925   0.896  0.2055 -0.2610 -0.1797
  291MPD2    C1 4385   3.476   0.810   0.890  0.3153 -0.4181 -0.6473
  291MPD2    C2 4386   3.605   0.822   0.851 -0.0212  0.1331  0.7339
  291MPD2    C3 4387   3.660   0.944   0.796 -0.0745  0.2784 -0.1022
  291MPD2    C4 4388   3.574   1.052   0.800  0.2027  0.0907 -0.0068
  291MPD2    C5 4389   3.445   1.043   0.835 -0.0868  0.2998  0.0494
  291MPD2     H 4390   3.658   0.729   0.839  1.3672  0.9922  0.1240
  291MPD2    H1 4391   3.606   1.147   0.758 -0.7533  1.1884  1.7611
  291MPD2    H2 4392   3.305   0.927   0.956 -1.0501  0.7178 -2.0795
  291MPD2    H3 4393   3.380   1.128   0.847 -1.8952 -1.0661 -0.0935
  291MPD2     N 4394   3.787   0.968   0.736 -0.9845  0.3889  0.6124
  291MPD2    H5 4395   3.800   1.069   0.731 -0.5867  0.2860 -0.3366
  291MPD2    N1 4396   3.438   0.682   0.930  0.2153  0.1303  0.7117
  291MPD2    H7 4397   3.512   0.612   0.935  0.2817  0.1884  0.5177
  292TMC3    C1 4398   3.304   0.498   0.954 -0.1590  0.0512  0.3914
  292TMC3    C2 4399   3.377   0.443   1.055 -0.0383 -0.1456 -0.5375
  292TMC3    C3 4400   3.400   0.310   1.065 -0.0661 -0.4981 -0.0313
  292TMC3    C4 4401   3.260   0.414   0.853 -0.0536  0.0684  0.0023
  292TMC3    C5 4402   3.282   0.278   0.865 -0.0465 -0.1552 -0.5243
  292TMC3    C6 4403   3.345   0.226   0.972  0.1698 -0.8755 -0.4236
  292TMC3     C 4404   3.305   0.639   0.933  0.6537  0.0589  0.2068
  292TMC3     O 4405   3.200   0.696   0.902  0.0486  0.3164 -0.1072
  292TMC3     H 4406   3.413   0.510   1.132  2.2792  0.6405 -2.3022
  292TMC3    H1 4407   3.204   0.453   0.769  1.2525  1.2298 -0.3174
  292TMC3    H2 4408   3.364   0.120   0.972 -1.6523 -1.1902 -0.2047
  292TMC3    C7 4409   3.243   0.190   0.764 -0.1046 -0.2352  0.0538
  292TMC3    C8 4410   3.448   0.255   1.190  0.0787 -0.4791 -0.0557
  292TMC3    O1 4411   3.314   0.092   0.754  0.4553 -0.3340 -0.1181
  292TMC3    O2 4412   3.513   0.329   1.258  0.2313  0.9926  0.5257
  293MPD2     C 4413   0.267   1.483  12.572 -0.0354 -0.3217  0.4250
  293MPD2    C1 4414   0.180   1.434  12.659  0.2531  0.2460  0.9145
  293MPD2    C2 4415   0.176   1.500  12.781 -0.0117  0.0051  0.7737
  293MPD2    C3 4416   0.257   1.606  12.813 -0.1433  0.2343  0.1595
  293MPD2    C4 4417   0.341   1.655  12.718  0.0575  0.7671  0.5352
  293MPD2    C5 4418   0.356   1.580  12.599 -0.0635 -0.0961 -0.1585
  293MPD2     H 4419   0.113   1.455  12.857  1.6413 -2.4790  0.6790
  293MPD2    H1 4420   0.403   1.744  12.731 -0.5536  1.1228  0.9882
  293MPD2    H2 4421   0.277   1.441  12.472 -0.9317  0.6121 -0.0605
  293MPD2    H3 4422   0.426   1.617  12.525  0.9590 -0.1007  0.8125
  293MPD2     N 4423   0.260   1.656  12.949 -0.3797 -0.1891  0.1665
  293MPD2    H5 4424   0.216   1.599  13.020  0.9792 -1.4161  0.0186
  293MPD2    N1 4425   0.101   1.328  12.617 -0.2156  1.0697  0.1814
  293MPD2    H7 4426   0.127   1.288  12.527  1.4300  0.4121  0.9556
  294TMC3    C1 4427   4.669   1.143  12.643  0.0509 -0.1639 -0.1210
  294TMC3    C2 4428   4.542   1.110  12.685  0.2158  0.4748  0.6001
  294TMC3    C3 4429   4.498   0.984  12.658  0.6687 -0.4709  0.1614
  294TMC3    C4 4430   0.022   1.062  12.561  0.1495 -0.2938 -0.3300
  294TMC3    C5 4431   4.673   0.956  12.503 -0.1200 -0.2068  0.0266
  294TMC3    C6 4432   4.559   0.906  12.558 -0.5092 -0.3872 -0.3611
  294TMC3     C 4433   0.003   1.268  12.695 -0.2614 -0.0211 -0.2748
  294TMC3     O 4434   4.680   1.309  12.800  0.4157  0.4585  0.1367
  294TMC3     H 4435   4.500   1.165  12.769  2.0372  0.7482  1.3580
  294TMC3    H1 4436   0.124   1.093  12.539  0.6448 -1.5884  0.1631
  294TMC3    H2 4437   4.520   0.811  12.522 -2.0196  0.1699 -0.2262
  294TMC3    C7 4438   0.011   0.878  12.398  0.5429  0.1901  0.4651
  294TMC3    C8 4439   4.381   0.928  12.738  0.4325  0.1954 -0.5859
  294TMC3    O1 4440   4.699   0.761  12.383  0.0358 -0.3645  0.4675
  294TMC3    O2 4441   4.312   1.012  12.796 -0.4770  0.1231 -0.1671
  295MPD2     C 4442   4.716   0.071   0.327 -0.3067  0.6721  0.0076
  295MPD2    C1 4443   0.123   0.053   0.367 -0.4218  0.3619 -0.1234
  295MPD2    C2 4444   0.147   0.017   0.500  0.0805 -0.2349  0.5357
  295MPD2    C3 4445   0.043   0.012   0.595  0.2133 -0.2633  0.2358
  295MPD2    C4 4446   4.636   0.021   0.543 -0.2521 -0.8607 -0.2979
  295MPD2    C5 4447   4.617   0.047   0.413 -0.0456  0.3794 -0.1467
  295MPD2     H 4448   0.251   4.720   0.524  0.3172 -0.0932 -0.3909
  295MPD2    H1 4449   4.554   4.721   0.612 -0.1771  2.6693  0.9078
  295MPD2    H2 4450   4.682   0.088   0.225 -3.0403 -2.2096  0.4423
  295MPD2    H3 4451   4.514   0.061   0.380  0.6335  0.8372 -2.0417
  295MPD2     N 4452   0.062   4.708   0.736  0.6356 -0.4747 -0.2038
  295MPD2    H5 4453   4.704   4.679   0.792 -0.2972  1.4334 -0.5676
  295MPD2    N1 4454   0.229   0.060   0.270  0.0806  0.4952 -0.5826
  295MPD2    H7 4455   0.321   0.028   0.300 -0.3170 -1.1642 -1.1295
  296TMC3    C1 4456   0.186   4.708   0.949  0.4950  0.6018  0.5559
  296TMC3    C2 4457   0.290   0.039   1.018 -0.4191 -0.0269  0.2849
  296TMC3    C3 4458   0.299   0.034   1.151  0.0499  0.0014  0.4797
  296TMC3    C4 4459   0.086   4.647   1.015 -0.2381  0.7204 -0.2111
  296TMC3    C5 4460   0.098   4.633   1.150 -0.7930 -0.3065 -0.2772
  296TMC3    C6 4461   0.204   4.679   1.218  0.2209  0.1485 -0.9524
  296TMC3     C 4462   0.183   0.016   0.801 -0.6611 -0.0365  1.2781
  296TMC3     O 4463   0.290   0.040   0.745 -0.0964  0.5245  0.2751
  296TMC3     H 4464   0.373   0.075   0.959  1.4034  1.3750  3.6641
  296TMC3    H1 4465   0.006   4.603   0.957 -0.5389 -1.3978  1.7851
  296TMC3    H2 4466   0.218   4.674   1.326 -0.3482  2.4700 -0.7727
  296TMC3    C7 4467   4.697   4.604   1.224 -0.1713  0.0918  0.8145
  296TMC3    C8 4468   0.390   0.118   1.227  0.0271  0.0683 -0.1593
  296TMC3    O1 4469   4.592   4.616   1.164 -0.3363 -0.5680 -0.2186
  296TMC3    O2 4470   0.396   0.105   1.351 -0.3599  0.4864 -0.2555
  297MPD2     C 4471   2.812   2.510  16.799  1.1825  0.5130  0.7060
  297MPD2    C1 4472   2.772   2.555  16.676  0.1587  0.7914 -0.2323
  297MPD2    C2 4473   2.860   2.626  16.597  0.1567  0.3219  0.4815
  297MPD2    C3 4474   2.979   2.669  16.646 -0.4770 -0.0494 -0.2579
  297MPD2    C4 4475   3.016   2.626  16.778 -0.6013  0.1076  1.0584
  297MPD2    C5 4476   2.930   2.551  16.848 -0.1240  0.2173 -0.9955
  297MPD2     H 4477   2.822   2.661  16.502 -0.5176  0.9204  0.9619
  297MPD2    H1 4478   3.110   2.665  16.815 -0.6023  0.7172  0.4271
  297MPD2    H2 4479   2.748   2.442  16.853 -2.0394  1.5577 -1.7845
  297MPD2    H3 4480   2.960   2.539  16.952 -1.5187  2.4188 -0.3345
  297MPD2     N 4481   3.064   2.771  16.588  0.0089 -1.0974 -0.3906
  297MPD2    H5 4482   3.135   2.817  16.645 -0.2903 -3.1489  1.6103
  297MPD2    N1 4483   2.654   2.510  16.619  0.3937 -0.4047  0.3462
  297MPD2    H7 4484   2.661   2.527  16.519 -1.8428  0.8313  0.3833
  298TMC3    C1 4485   2.436   2.426  16.594 -0.3434 -0.1026 -0.1118
  298TMC3    C2 4486   2.450   2.416  16.463 -0.3980  0.8279 -0.0504
  298TMC3    C3 4487   2.342   2.410  16.383 -0.3303 -0.1093 -0.3654
  298TMC3    C4 4488   2.312   2.437  16.646 -0.8315 -0.4199  0.3023
  298TMC3    C5 4489   2.201   2.434  16.568  0.0755  0.5321 -0.9131
  298TMC3    C6 4490   2.218   2.436  16.427  0.6674 -0.9571  0.3967
  298TMC3     C 4491   2.540   2.476  16.691  0.4122 -0.0513 -1.2626
  298TMC3     O 4492   2.519   2.468  16.811  0.0362  0.0118 -0.0716
  298TMC3     H 4493   2.546   2.400  16.415 -1.7831 -0.6929 -2.3276
  298TMC3    H1 4494   2.299   2.445  16.754  0.9291  0.8123  0.4254
  298TMC3    H2 4495   2.129   2.423  16.366  0.2910 -1.5165  1.0619
  298TMC3    C7 4496   2.091   2.510  16.626  0.0180 -0.2684  0.8998
  298TMC3    C8 4497   2.372   2.403  16.241  0.6305  0.6272 -0.2409
  298TMC3    O1 4498   2.073   2.493  16.738  0.0185  0.1746  0.0725
  298TMC3    O2 4499   2.480   2.351  16.214 -0.1607  0.2395  0.2503
  299MPD2     C 4500   3.811   1.963  10.686 -0.2324 -0.1345 -0.5789
  299MPD2    C1 4501   3.775   2.018  10.568 -1.0930  0.4301 -0.3270
  299MPD2    C2 4502   3.679   1.958  10.486  0.3086  0.1230  0.3659
  299MPD2    C3 4503   3.626   1.836  10.523 -0.3047  0.3564 -0.9173
  299MPD2    C4 4504   3.663   1.783  10.642 -0.0558  0.1430 -0.9345
  299MPD2    C5 4505   3.752   1.844  10.730 -0.1370  0.4540  0.2527
  299MPD2     H 4506   3.646   2.017  10.401  0.5726  0.6049  0.5934
  299MPD2    H1 4507   3.620   1.690  10.677  2.5503 -1.3497 -1.6919
  299MPD2    H2 4508   3.880   1.999  10.761 -1.3751 -1.6270  1.1792
  299MPD2    H3 4509   3.782   1.794  10.822 -2.1856  1.0427  1.2607
  299MPD2     N 4510   3.526   1.762  10.453  0.0349  0.8182 -0.0710
  299MPD2    H5 4511   3.501   1.678  10.504 -1.7029 -0.8698 -3.7454
  299MPD2    N1 4512   3.823   2.146  10.534 -0.1208  0.6981 -0.5579
  299MPD2    H7 4513   3.887   2.184  10.603  0.5459 -0.8648 -0.3149
  300TMC3    C1 4514   3.344   1.728  10.294  0.1292 -0.6851  0.3963
  300TMC3    C2 4515   3.284   1.806  10.207 -0.4351 -0.0145 -0.7289
  300TMC3    C3 4516   3.167   1.872  10.231 -0.3441 -0.1138  0.6063
  300TMC3    C4 4517   3.277   1.701  10.412 -0.3893  0.1399 -0.2007
  300TMC3    C5 4518   3.155   1.763  10.430 -0.0532 -0.2928  0.0459
  300TMC3    C6 4519   3.093   1.854  10.348 -0.0518  0.0543 -0.1490
  300TMC3     C 4520   3.476   1.799  10.333 -0.1965 -0.1696 -0.2935
  300TMC3     O 4521   3.503   1.898  10.265  0.2360  0.5078 -0.1647
  300TMC3     H 4522   3.327   1.821  10.108  0.9593  0.0856 -0.1069
  300TMC3    H1 4523   3.309   1.619  10.475 -0.1503 -1.2204 -2.0864
  300TMC3    H2 4524   3.002   1.910  10.368 -0.4905  0.0101 -1.9481
  300TMC3    C7 4525   3.086   1.716  10.544 -0.6332 -1.2764 -0.1078
  300TMC3    C8 4526   3.170   2.014  10.207  0.3475  0.0560  0.0690
  300TMC3    O1 4527   3.108   1.603  10.585  0.2061 -0.1733 -0.1584
  300TMC3    O2 4528   3.066   2.076  10.223 -0.3483 -0.1361  0.1056
  301MPD2     C 4529   0.232   2.956   2.227 -0.3124 -0.2159 -0.0613
  301MPD2    C1 4530   0.212   2.947   2.088 -0.7410 -0.3767  0.7793
  301MPD2    C2 4531   0.296   2.887   1.999 -1.0617 -0.0162  0.0550
  301MPD2    C3 4532   0.408   2.827   2.064 -0.1345 -0.1368  0.1346
  301MPD2    C4 4533   0.427   2.827   2.200  0.4527 -0.2200 -0.2185
  301MPD2    C5 4534   0.337   2.894   2.278 -0.5268 -0.3468  0.0847
  301MPD2     H 4535   0.269   2.878   1.894 -0.7418  2.1191 -0.2116
  301MPD2    H1 4536   0.509   2.772   2.246  1.0585  1.1883  0.3626
  301MPD2    H2 4537   0.162   3.009   2.290 -1.1729 -2.5675  0.9564
  301MPD2    H3 4538   0.354   2.900   2.385 -0.0334  0.2814 -0.0292
  301MPD2     N 4539   0.518   2.765   1.993  0.1196  0.0527 -0.7810
  301MPD2    H5 4540   0.598   2.733   2.047  2.8627  2.3786 -3.4845
  301MPD2    N1 4541   0.120   3.027   2.022  0.0172  0.9648  0.0903
  301MPD2    H7 4542   0.128   3.029   1.921  1.2540 -1.1893  0.1355
  302TMC3    C1 4543   0.647   2.697   1.810  0.0301 -0.1466  0.0936
  302TMC3    C2 4544   0.748   2.646   1.892 -0.2546 -0.6587  0.2715
  302TMC3    C3 4545   0.876   2.627   1.834 -0.5964  0.8130  0.6128
  302TMC3    C4 4546   0.673   2.724   1.677 -0.2007  0.4590 -0.4088
  302TMC3    C5 4547   0.801   2.706   1.624 -0.2690 -0.1593  0.2594
  302TMC3    C6 4548   0.900   2.653   1.699 -0.6813 -0.9556  0.5279
  302TMC3     C 4549   0.519   2.750   1.862  0.7537 -0.0694 -0.2372
  302TMC3     O 4550   0.436   2.767   1.779  0.3111 -0.0954 -0.5605
  302TMC3     H 4551   0.722   2.614   1.992  1.4055 -2.6976  0.0544
  302TMC3    H1 4552   0.592   2.760   1.614 -0.6100 -0.4916 -0.4140
  302TMC3    H2 4553   0.999   2.647   1.656 -0.4694  0.9299  0.7335
  302TMC3    C7 4554   0.825   2.703   1.479 -0.6285 -0.1468  0.3663
  302TMC3    C8 4555   0.972   2.537   1.895 -0.2633 -0.1644  0.4797
  302TMC3    O1 4556   0.878   2.602   1.426  0.1881  0.1589 -0.3067
  302TMC3    O2 4557   1.077   2.503   1.844 -0.5025 -0.1879  0.3186
  303MPD2     C 4558   1.142   1.698  10.615 -0.6903  0.2065  0.4288
  303MPD2    C1 4559   1.149   1.562  10.590  0.4518  0.0077 -0.5107
  303MPD2    C2 4560   1.220   1.518  10.479 -1.0997 -0.2410  0.8758
  303MPD2    C3 4561   1.297   1.603  10.408 -0.1790  0.2900 -0.3970
  303MPD2    C4 4562   1.297   1.738  10.436  0.5658 -0.0399  0.0366
  303MPD2    C5 4563   1.207   1.783  10.527  0.1325 -0.4782  0.2874
  303MPD2     H 4564   1.216   1.416  10.443  0.1574 -0.7696  2.2360
  303MPD2    H1 4565   1.371   1.801  10.388  1.9686 -1.5310  0.2393
  303MPD2    H2 4566   1.096   1.741  10.703 -0.2338  0.6838  0.4373
  303MPD2    H3 4567   1.214   1.889  10.546 -0.0254 -0.4828  0.3746
  303MPD2     N 4568   1.386   1.555  10.305  0.0800  0.4213  0.6299
  303MPD2    H5 4569   1.411   1.618  10.229 -0.8660 -1.5937 -1.3457
  303MPD2    N1 4570   1.073   1.471  10.665 -0.7577  0.0514  0.0199
  303MPD2    H7 4571   1.027   1.524  10.739 -2.1280 -1.5423  0.3268
  304TMC3    C1 4572   0.981   1.260  10.737 -0.2842 -0.1793  0.7984
  304TMC3    C2 4573   0.909   1.319  10.837 -0.0743  0.5574 -0.3242
  304TMC3    C3 4574   0.832   1.243  10.921 -0.3437  0.1507 -0.3521
  304TMC3    C4 4575   0.965   1.119  10.714 -0.3630 -0.1801  0.4492
  304TMC3    C5 4576   0.875   1.048  10.795  0.5174  0.0190  0.4871
  304TMC3    C6 4577   0.816   1.106  10.910  0.6442 -0.2337  0.3620
  304TMC3     C 4578   1.071   1.331  10.649 -0.0244 -0.4524 -0.5954
  304TMC3     O 4579   1.138   1.258  10.581 -0.4417  0.4861 -0.1161
  304TMC3     H 4580   0.916   1.425  10.859  0.7788  0.7974 -1.7616
  304TMC3    H1 4581   0.997   1.078  10.619 -1.0024  4.2424 -1.6523
  304TMC3    H2 4582   0.760   1.052  10.985  3.0133 -2.3609  0.5959
  304TMC3    C7 4583   0.833   0.912  10.766 -0.0060  0.2957 -0.7442
  304TMC3    C8 4584   0.789   1.311  11.042 -0.5548  0.0924 -0.2939
  304TMC3    O1 4585   0.746   0.869  10.835  0.2379 -0.1220  0.0722
  304TMC3    O2 4586   0.866   1.381  11.103 -0.7910  0.2958 -0.0300
  305MPD2     C 4587   3.548   3.918  13.818 -0.1440 -0.6198  0.1431
  305MPD2    C1 4588   3.516   3.792  13.864  0.3409 -0.4073  0.1621
  305MPD2    C2 4589   3.505   3.689  13.765 -0.1806 -0.3844 -0.7582
  305MPD2    C3 4590   3.523   3.721  13.630 -0.1316 -0.2811  0.1853
  305MPD2    C4 4591   3.550   3.853  13.587 -0.5023  0.0451  0.2021
  305MPD2    C5 4592   3.566   3.951  13.684 -0.0232  0.3412 -0.4702
  305MPD2     H 4593   3.487   3.587  13.795 -0.3374 -0.1394 -0.0058
  305MPD2    H1 4594   3.564   3.876  13.482  0.3436  0.2719  0.3606
  305MPD2    H2 4595   3.559   3.998  13.890 -1.0616 -0.9652  0.6711
  305MPD2    H3 4596   3.594   4.052  13.656 -1.8305  1.2127  0.8326
  305MPD2     N 4597   3.521   3.627  13.523 -0.4907 -0.3723  0.2018
  305MPD2    H5 4598   3.557   3.663  13.435 -0.8143  1.2611  0.7518
  305MPD2    N1 4599   3.512   3.765  14.006 -0.0953  0.2465  0.1684
  305MPD2    H7 4600   3.517   3.851  14.061 -2.3552 -0.2389  1.1476
  306TMC3    C1 4601   3.566   3.655  14.198  0.6120 -0.0243 -0.0733
  306TMC3    C2 4602   3.674   3.576  14.224 -0.4480 -0.3356  0.0606
  306TMC3    C3 4603   3.734   3.597  14.341  0.2203  0.2529  0.7997
  306TMC3    C4 4604   3.507   3.741  14.288  0.3603 -0.4084 -1.2535
  306TMC3    C5 4605   3.571   3.756  14.411  0.6978  0.8617  0.0769
  306TMC3    C6 4606   3.680   3.679  14.440 -0.2454 -0.6979 -0.3045
  306TMC3     C 4607   3.517   3.644  14.064  0.3227 -1.2209  0.2559
  306TMC3     O 4608   3.520   3.531  14.020  0.4535 -0.5224  0.3571
  306TMC3     H 4609   3.727   3.512  14.154  1.3087 -0.8643  1.8850
  306TMC3    H1 4610   3.416   3.796  14.263 -0.1389 -0.0734  1.3068
  306TMC3    H2 4611   3.732   3.689  14.535 -1.2129  1.7212 -0.0215
  306TMC3    C7 4612   3.502   3.828  14.509  0.3397 -0.0765 -0.6057
  306TMC3    C8 4613   3.860   3.527  14.366 -0.4423 -0.2549 -0.1010
  306TMC3    O1 4614   3.387   3.844  14.479  0.3016 -0.1448 -0.2212
  306TMC3    O2 4615   3.935   3.506  14.271  0.5690 -0.3920 -0.1722
  307MPD2     C 4616   1.835   1.123   0.169  0.1460  0.0224 -0.1091
  307MPD2    C1 4617   1.804   1.259   0.143 -0.7263  0.0465  0.8160
  307MPD2    C2 4618   1.756   1.338   0.247 -0.2467  0.4127 -0.3459
  307MPD2    C3 4619   1.725   1.285   0.373  0.3887  0.2924 -0.0989
  307MPD2    C4 4620   1.754   1.153   0.393 -0.0893 -0.2792  0.6130
  307MPD2    C5 4621   1.801   1.076   0.287 -0.1026  0.1549  0.2657
  307MPD2     H 4622   1.758   1.444   0.223 -1.9297  0.6717  0.6605
  307MPD2    H1 4623   1.725   1.105   0.486  0.4496 -1.0254  0.3961
  307MPD2    H2 4624   1.885   1.058   0.098 -0.3062 -0.1990 -0.2224
  307MPD2    H3 4625   1.812   0.969   0.303 -1.6888 -0.2373 -1.2096
  307MPD2     N 4626   1.678   1.380   0.470 -0.1280 -0.2294  0.9523
  307MPD2    H5 4627   1.650   1.470   0.434 -2.5169 -0.6987  1.6431
  307MPD2    N1 4628   1.827   1.311   0.010  0.0837 -0.5418  0.8581
  307MPD2    H7 4629   1.832   1.412   0.005  0.1182 -0.6561 -1.6423
  308TMC3    C1 4630   1.351   1.529   0.734 -0.6102 -0.2817 -0.5412
  308TMC3    C2 4631   1.395   1.657   0.727 -0.7874  0.1792 -0.6834
  308TMC3    C3 4632   1.523   1.683   0.684 -0.8315 -0.0980  0.1720
  308TMC3    C4 4633   1.432   1.424   0.711  0.4320 -0.1412  0.6126
  308TMC3    C5 4634   1.557   1.450   0.666 -0.6354 -0.1361  0.8569
  308TMC3    C6 4635   1.599   1.579   0.634 -0.0696  0.1240  0.3887
  308TMC3     C 4636   1.210   1.499   0.717 -0.3663 -0.5282  0.2626
  308TMC3     O 4637   1.185   1.382   0.739 -0.1282  0.4226 -0.5875
  308TMC3     H 4638   1.331   1.738   0.760 -0.0534  0.3187  0.3935
  308TMC3    H1 4639   1.397   1.322   0.721  0.7934 -0.0574  2.6726
  308TMC3    H2 4640   1.691   1.596   0.579 -1.2905 -1.3892 -2.1356
  308TMC3    C7 4641   1.630   1.344   0.600  0.0584  0.2160 -0.2031
  308TMC3    C8 4642   1.535   1.804   0.602  0.0779 -0.1278 -0.6864
  308TMC3    O1 4643   1.594   1.235   0.644  0.1805  0.2174  0.7653
  308TMC3    O2 4644   1.566   1.788   0.486  0.8434 -0.7147 -0.1982
  309MPD2     C 4645   0.624   2.060  17.038 -0.0855  0.3439 -0.5038
  309MPD2    C1 4646   0.585   2.186  16.989  0.4500  1.0102 -0.2722
  309MPD2    C2 4647   0.470   2.244  17.046  0.8373  0.3899 -0.6061
  309MPD2    C3 4648   0.394   2.179  17.143 -0.4037  0.5980  0.3936
  309MPD2    C4 4649   0.438   2.058  17.187 -1.0682  0.1811 -0.2552
  309MPD2    C5 4650   0.551   2.001  17.136  0.4286 -0.4996 -0.3671
  309MPD2     H 4651   0.434   2.336  17.001  2.4179  1.6935  0.8184
  309MPD2    H1 4652   0.371   2.007  17.255  0.6495  0.0077  1.2896
  309MPD2    H2 4653   0.715   2.011  17.005  0.3717  0.9757 -0.1842
  309MPD2    H3 4654   0.584   1.905  17.174 -0.1803 -0.5694 -0.0246
  309MPD2     N 4655   0.279   2.244  17.205  0.4503 -0.1049  0.3035
  309MPD2    H5 4656   0.233   2.183  17.272 -1.2351 -0.3508 -1.0865
  309MPD2    N1 4657   0.670   2.248  16.885  0.3727  0.8783  0.6433
  309MPD2    H7 4658   0.760   2.204  16.866  1.1040  3.1762 -1.3769
  310TMC3    C1 4659   0.737   2.416  16.720 -0.4068  0.0467  0.4581
  310TMC3    C2 4660   0.692   2.498  16.621 -0.0873 -0.2486 -0.6596
  310TMC3    C3 4661   0.774   2.499  16.503 -0.4315  0.5251 -0.4485
  310TMC3    C4 4662   0.859   2.359  16.718 -0.3753 -0.2601 -0.2944
  310TMC3    C5 4663   0.942   2.374  16.603 -0.0484 -0.7180 -0.3543
  310TMC3    C6 4664   0.892   2.430  16.491  0.2720 -0.5564  0.0249
  310TMC3     C 4665   0.637   2.367  16.818  0.0057  0.0274  0.1162
  310TMC3     O 4666   0.536   2.427  16.831  0.4865  0.7629  0.0978
  310TMC3     H 4667   0.598   2.554  16.626  0.2051  0.1244  0.5721
  310TMC3    H1 4668   0.905   2.328  16.811  0.6161 -0.7878 -0.9554
  310TMC3    H2 4669   0.929   2.418  16.390 -0.7918 -0.5697 -0.3705
  310TMC3    C7 4670   1.051   2.285  16.590 -0.5043  0.8146 -0.3112
  310TMC3    C8 4671   0.728   2.567  16.394  0.0305  0.2518  0.3134
  310TMC3    O1 4672   1.056   2.178  16.645  0.2224  0.6376  0.3242
  310TMC3    O2 4673   0.609   2.546  16.379  0.1358  0.1935  0.3051
  311MPD2     C 4674   2.718   3.105  12.775  0.5885  0.2696 -0.2877
  311MPD2    C1 4675   2.727   3.238  12.822 -0.3096 -0.0374  0.2395
  311MPD2    C2 4676   2.609   3.297  12.865  0.6896 -0.3412 -0.8321
  311MPD2    C3 4677   2.481   3.241  12.841  0.3268 -0.3627 -0.1236
  311MPD2    C4 4678   2.478   3.117  12.793  0.0483 -0.0028  0.4486
  311MPD2    C5 4679   2.593   3.048  12.763 -0.0683 -0.0651  0.1566
  311MPD2     H 4680   2.613   3.398  12.906 -0.4689 -1.7000  2.6522
  311MPD2    H1 4681   2.382   3.068  12.786  0.5930 -1.0367  0.1535
  311MPD2    H2 4682   2.799   3.043  12.739  0.9475  0.6767 -0.1724
  311MPD2    H3 4683   2.598   2.947  12.723 -1.6527 -0.7826  1.7737
  311MPD2     N 4684   2.360   3.309  12.880  0.2310  0.0625 -0.2505
  311MPD2    H5 4685   2.366   3.370  12.960 -3.0382  0.9231 -0.6318
  311MPD2    N1 4686   2.855   3.313  12.830  0.2244 -0.6204  0.5501
  311MPD2    H7 4687   2.857   3.406  12.869 -4.1757  0.2345 -1.2190
  312TMC3    C1 4688   2.125   3.337  12.866  1.0825  0.4137 -0.3831
  312TMC3    C2 4689   2.009   3.283  12.819 -0.6006 -0.2202 -0.4563
  312TMC3    C3 4690   1.899   3.358  12.816  0.4222 -0.5266  0.8110
  312TMC3    C4 4691   2.136   3.467  12.892  0.0807 -0.4081  0.0869
  312TMC3    C5 4692   2.018   3.538  12.902 -0.2888 -0.0074 -0.1649
  312TMC3    C6 4693   1.899   3.492  12.854  0.8544 -0.2011  0.0138
  312TMC3     C 4694   2.244   3.283  12.813  0.2061 -0.2738  0.1233
  312TMC3     O 4695   2.229   3.209  12.719 -0.8490  0.1901 -0.1606
  312TMC3     H 4696   2.003   3.193  12.759 -0.7024  0.0217 -0.8105
  312TMC3    H1 4697   2.228   3.514  12.923  0.9411 -2.3362  0.4452
  312TMC3    H2 4698   1.810   3.547  12.882  1.0258  0.9949 -1.7856
  312TMC3    C7 4699   2.009   3.643  12.996 -0.7130 -0.4876 -0.1883
  312TMC3    C8 4700   1.789   3.299  12.753 -0.4638 -0.0683  0.2859
  312TMC3    O1 4701   1.922   3.729  12.965 -0.2121 -0.7384  0.2603
  312TMC3    O2 4702   1.768   3.181  12.762  0.2671 -0.1967  0.5102
  313MPD2     C 4703   2.537   2.937  10.405 -0.1393  0.5888 -0.5079
  313MPD2    C1 4704   2.481   2.826  10.466  1.0486 -0.3920  0.2939
  313MPD2    C2 4705   2.489   2.703  10.411 -0.2887  0.4872 -0.5487
  313MPD2    C3 4706   2.543   2.682  10.284  0.0816 -0.2014 -0.0036
  313MPD2    C4 4707   2.576   2.797  10.208 -0.1721 -0.4405 -0.5277
  313MPD2    C5 4708   2.575   2.918  10.271 -0.3986  0.2220  0.4230
  313MPD2     H 4709   2.460   2.623  10.479  0.8807  0.2046 -0.3726
  313MPD2    H1 4710   2.604   2.778  10.105  0.4945 -0.6194 -0.3183
  313MPD2    H2 4711   2.519   3.037  10.441 -1.1493 -0.7387  2.7078
  313MPD2    H3 4712   2.589   3.006  10.209  1.9669 -0.2226  0.3309
  313MPD2     N 4713   2.538   2.549  10.233  0.1451  0.3791  0.8777
  313MPD2    H5 4714   2.490   2.481  10.291 -0.8095  1.5713  1.4779
  313MPD2    N1 4715   2.423   2.827  10.593  0.0258 -0.0461  0.1545
  313MPD2    H7 4716   2.369   2.744  10.615 -1.1517  0.8141  0.5570
  314TMC3    C1 4717   2.319   2.923  10.780  0.5956 -0.3405  0.4420
  314TMC3    C2 4718   2.336   2.999  10.895 -0.7742  0.3092  0.1505
  314TMC3    C3 4719   2.228   3.001  10.976  0.3351 -0.9860 -0.3123
  314TMC3    C4 4720   2.206   2.849  10.755  0.1113 -0.4355  0.0425
  314TMC3    C5 4721   2.098   2.865  10.838 -0.8733 -0.3558  0.8436
  314TMC3    C6 4722   2.116   2.927  10.956 -0.1146  0.1887  0.2203
  314TMC3     C 4723   2.413   2.940  10.670  0.1040 -0.5615 -0.2057
  314TMC3     O 4724   2.469   3.043  10.664 -0.5433 -0.6256  0.3748
  314TMC3     H 4725   2.420   3.065  10.913 -0.3412 -0.3008  0.3491
  314TMC3    H1 4726   2.192   2.782  10.671  1.1512 -1.8864  1.0350
  314TMC3    H2 4727   2.037   2.927  11.030  0.3152  1.5380  0.6774
  314TMC3    C7 4728   1.966   2.859  10.773 -0.2959 -0.0638  0.0890
  314TMC3    C8 4729   2.231   3.107  11.077  0.3621 -0.0206 -0.3925
  314TMC3    O1 4730   1.869   2.852  10.845  0.2204  0.2657 -0.2161
  314TMC3    O2 4731   2.330   3.174  11.094 -0.1905  0.1763  0.4795
  315MPD2     C 4732   1.824   1.833   0.010 -0.2213  0.1260 -0.5752
  315MPD2    C1 4733   1.889   1.845   0.134  0.7494  0.3089 -0.0781
  315MPD2    C2 4734   1.886   1.970   0.188 -0.3214 -0.6093 -0.5401
  315MPD2    C3 4735   1.833   2.084   0.126 -0.3325  0.0863 -0.6401
  315MPD2    C4 4736   1.783   2.074  17.689  0.3560  0.0197  0.0874
  315MPD2    C5 4737   1.773   1.949  17.634  0.1984 -0.0157 -0.1570
  315MPD2     H 4738   1.922   1.986   0.289  1.5344 -0.2794 -1.2455
  315MPD2    H1 4739   1.755   2.162  17.633  2.1807 -0.6824 -1.9213
  315MPD2    H2 4740   1.823   1.740  17.643  0.9093  0.8374 -1.7699
  315MPD2    H3 4741   1.739   1.933  17.532  0.6347  1.3333 -0.5097
  315MPD2     N 4742   1.863   2.200   0.198 -0.1852  0.4167  0.1638
  315MPD2    H5 4743   1.894   2.185   0.293 -1.7562  1.8517  0.9039
  315MPD2    N1 4744   1.968   1.745   0.189  0.3735 -0.1167 -0.5698
  315MPD2    H7 4745   2.032   1.769   0.264 -0.4564 -0.3750  0.2226
  316TMC3    C1 4746   1.898   2.430   0.250  0.2699 -0.0139 -0.0778
  316TMC3    C2 4747   2.020   2.396   0.319 -0.1418 -0.9723  0.3245
  316TMC3    C3 4748   2.093   2.490   0.381  0.3731  0.5516  0.2194
  316TMC3    C4 4749   1.880   2.561   0.199  0.1890 -0.2923  0.4728
  316TMC3    C5 4750   1.971   2.653   0.250 -0.0579 -0.3689 -0.1450
  316TMC3    C6 4751   2.068   2.622   0.340  0.7604  0.7171 -0.3258
  316TMC3     C 4752   1.828   2.329   0.172 -0.2317  0.1771 -0.2575
  316TMC3     O 4753   1.772   2.374   0.073 -0.1037  0.1272  0.1044
  316TMC3     H 4754   2.030   2.292   0.347 -0.4891 -0.6475  1.6259
  316TMC3    H1 4755   1.793   2.590   0.141  1.0012  1.1303 -0.0357
  316TMC3    H2 4756   2.129   2.705   0.373  1.0934  1.1340 -1.9945
  316TMC3    C7 4757   1.968   2.793   0.212  0.3588 -0.6430  0.4897
  316TMC3    C8 4758   2.207   2.458   0.468  0.1815  0.0583  0.3223
  316TMC3    O1 4759   2.020   2.870   0.294  0.2315 -0.5701 -0.3369
  316TMC3    O2 4760   2.238   2.544   0.548 -0.4902 -0.0673 -0.0495
  317MPD2     C 4761   4.291   4.437  12.128 -0.2260 -0.0390 -0.7887
  317MPD2    C1 4762   4.406   4.387  12.168  0.4307  0.4654 -0.0669
  317MPD2    C2 4763   4.415   4.349  12.304 -0.3280 -0.0682  0.7178
  317MPD2    C3 4764   4.310   4.362  12.392  0.0591 -0.8090 -0.2957
  317MPD2    C4 4765   4.183   4.397  12.337 -0.8181 -0.4377  0.1937
  317MPD2    C5 4766   4.178   4.429  12.202 -0.2251  0.1621 -0.6116
  317MPD2     H 4767   4.512   4.312  12.338  0.3969  0.3060 -0.9275
  317MPD2    H1 4768   4.091   4.388  12.394 -1.4986 -0.0762 -0.8402
  317MPD2    H2 4769   4.268   4.446  12.022  2.5909  0.8274 -1.3334
  317MPD2    H3 4770   4.082   4.454  12.159  0.1096 -0.8179 -1.9359
  317MPD2     N 4771   4.340   4.354  12.533 -0.0892 -0.1534  0.2789
  317MPD2    H5 4772   4.437   4.333  12.556 -0.3144  0.0754  1.4398
  317MPD2    N1 4773   4.522   4.393  12.086 -0.1783 -0.7602  0.5482
  317MPD2    H7 4774   4.612   4.381  12.132  1.0056  1.5500 -1.1328
  318TMC3    C1 4775   4.315   4.408  12.763 -0.4799  0.4010 -0.2384
  318TMC3    C2 4776   4.236   4.452  12.858  1.0348 -0.1014  0.5008
  318TMC3    C3 4777   4.286   4.522  12.964  0.2483  0.5075  0.3055
  318TMC3    C4 4778   4.448   4.428  12.770  0.6767 -0.3798  0.2276
  318TMC3    C5 4779   4.504   4.506  12.870 -0.1278 -0.0183  0.3299
  318TMC3    C6 4780   4.421   4.563  12.968  0.1733  0.0004 -0.5284
  318TMC3     C 4781   4.251   4.384  12.634  0.0099  0.4336  0.4107
  318TMC3     O 4782   4.134   4.421  12.626  0.4823  0.4329 -0.2247
  318TMC3     H 4783   4.136   4.411  12.859  0.6588  0.8090 -0.5186
  318TMC3    H1 4784   4.508   4.384  12.691 -0.4857  0.9539 -1.4032
  318TMC3    H2 4785   4.465   4.626  13.044 -0.5252 -0.3087  0.1366
  318TMC3    C7 4786   4.638   4.568  12.842  0.0858 -0.3352 -0.3154
  318TMC3    C8 4787   4.196   4.597  13.046 -0.2557 -0.2947  0.2753
  318TMC3    O1 4788   4.677   4.564  12.726 -0.2569 -0.2289  0.8360
  318TMC3    O2 4789   4.259   4.687  13.099 -0.1239 -0.5643 -0.1052
  319MPD2     C 4790   4.693   2.054  17.079  0.5560 -0.3588  0.1449
  319MPD2    C1 4791   4.623   1.956  17.153 -0.3819 -0.3838 -0.3579
  319MPD2    C2 4792   4.514   1.895  17.093  0.2108 -0.2778 -0.2094
  319MPD2    C3 4793   4.472   1.927  16.970  0.1550  0.5011  0.5907
  319MPD2    C4 4794   4.545   2.023  16.898 -0.4945  0.1018 -0.1754
  319MPD2    C5 4795   4.658   2.085  16.950 -0.4357 -0.1867 -0.3914
  319MPD2     H 4796   4.464   1.809  17.137  0.0229 -0.6658 -1.1726
  319MPD2    H1 4797   4.519   2.054  16.798  2.0124  0.4621 -0.7366
  319MPD2    H2 4798   0.054   2.109  17.121 -0.1121  2.0401 -1.6619
  319MPD2    H3 4799   4.706   2.159  16.887 -2.8207  1.1228 -0.6322
  319MPD2     N 4800   4.372   1.863  16.895 -0.1215  0.5220 -0.2926
  319MPD2    H5 4801   4.360   1.889  16.798  1.3123 -0.5107 -0.7480
  319MPD2    N1 4802   4.656   1.920  17.289 -0.9939  0.2103  0.7872
  319MPD2    H7 4803   4.604   1.845  17.334  1.6707 -1.7010  0.6696
  320TMC3    C1 4804   4.206   1.722  16.830  0.3969  0.2489  0.1471
  320TMC3    C2 4805   4.174   1.809  16.726 -0.3847  0.0906  0.3694
  320TMC3    C3 4806   4.113   1.744  16.618  0.0679  0.1448  0.6778
  320TMC3    C4 4807   4.154   1.593  16.837 -0.2879  0.5921 -0.8453
  320TMC3    C5 4808   4.094   1.539  16.727 -0.0732 -0.2484  0.9104
  320TMC3    C6 4809   4.069   1.609  16.614  0.5917  0.1954 -0.0976
  320TMC3     C 4810   4.292   1.761  16.935 -0.3210 -0.3129  0.3303
  320TMC3     O 4811   4.296   1.691  17.036 -0.3043  0.5285 -0.0644
  320TMC3     H 4812   4.198   1.914  16.725  2.5855 -0.5678  0.7485
  320TMC3    H1 4813   4.151   1.540  16.932  0.6194  0.4267 -0.9070
  320TMC3    H2 4814   4.028   1.573  16.521  1.7496 -0.2522 -0.4405
  320TMC3    C7 4815   4.063   1.398  16.717  0.3049 -0.2912  0.7002
  320TMC3    C8 4816   4.093   1.827  16.503  0.2326  0.0656 -0.5866
  320TMC3    O1 4817   4.022   1.351  16.612  0.3537 -0.0520 -0.2517
  320TMC3    O2 4818   4.060   1.943  16.518  0.0353 -0.8077  0.3408
  321TMC3    C1 4819   0.058   1.933  17.488  1.1380  0.2178 -0.2727
  321TMC3    C2 4820   4.696   1.836  17.534 -0.4486 -0.3365 -0.0673
  321TMC3    C3 4821   4.718   1.790  17.660 -0.0103  0.6864 -0.0606
  321TMC3    C4 4822   0.153   1.997  17.570  0.1603 -0.6163  0.0152
  321TMC3    C5 4823   0.173   1.943   0.005  0.6772 -0.1170 -0.7936
  321TMC3    C6 4824   0.081   1.852   0.058  0.4580  0.0089  0.2953
  321TMC3     C 4825   0.034   1.982  17.356 -0.9183 -0.9966 -0.2189
  321TMC3     O 4826   0.111   2.068  17.321 -0.2113  0.3389 -0.1205
  321TMC3     H 4827   4.638   1.769  17.471 -1.3216 -0.5839  1.0199
  321TMC3    H1 4828   0.201   2.087  17.532 -2.2304  0.5499 -0.2637
  321TMC3    H2 4829   0.105   1.807   0.154  0.7208  0.8538  0.6290
  321TMC3    C7 4830   0.311   1.913   0.047 -0.1806 -0.1223 -0.1457
  321TMC3    C8 4831   0.014   1.650  17.664 -0.1310  0.4557  0.1493
  321TMC3    O1 4832   0.324   1.829   0.135  0.6766  0.1655  0.0045
  321TMC3    O2 4833   0.065   1.607  17.556  1.3186 -0.0468 -0.2467
  322MPD2     C 4834   3.386   2.793  13.424 -0.4090 -0.1501 -0.3779
  322MPD2    C1 4835   3.403   2.771  13.561  0.0508  0.5460 -0.4576
  322MPD2    C2 4836   3.413   2.643  13.612  0.2787 -0.4675 -0.3905
  322MPD2    C3 4837   3.400   2.537  13.527 -0.6264 -0.5999 -0.3543
  322MPD2    C4 4838   3.371   2.555  13.392  0.7458  0.2430 -0.0975
  322MPD2    C5 4839   3.363   2.682  13.344 -0.2473  0.0762 -0.7325
  322MPD2     H 4840   3.431   2.624  13.718 -2.0068 -0.3620  0.0061
  322MPD2    H1 4841   3.354   2.476  13.320 -2.2710  0.8673 -0.0563
  322MPD2    H2 4842   3.383   2.891  13.379 -1.9242  1.4426  3.2205
  322MPD2    H3 4843   3.332   2.694  13.241  0.0585  2.1337 -0.6007
  322MPD2     N 4844   3.410   2.408  13.581 -0.2896  0.0973 -0.2614
  322MPD2    H5 4845   3.410   2.418  13.682  0.1280 -1.6256 -0.0865
  322MPD2    N1 4846   3.409   2.878  13.657 -0.2901  0.1596  0.1798
  322MPD2    H7 4847   3.421   2.851  13.754 -2.0873 -1.2501  0.0010
  323TMC3    C1 4848   3.473   3.093  13.742 -0.7839  0.9765 -0.7385
  323TMC3    C2 4849   3.550   3.199  13.719  0.6534 -0.0928  0.1598
  323TMC3    C3 4850   3.599   3.268  13.823  0.2216 -0.0109 -0.0691
  323TMC3    C4 4851   3.425   3.061  13.873  0.2047 -0.4110  0.9448
  323TMC3    C5 4852   3.468   3.139  13.977 -0.6223  0.1921 -0.6020
  323TMC3    C6 4853   3.561   3.235  13.951 -0.2146  0.1241 -0.0145
  323TMC3     C 4854   3.436   3.012  13.627 -0.6033  0.3736  0.0167
  323TMC3     O 4855   3.457   3.066  13.521  0.0860 -0.3961 -0.6273
  323TMC3     H 4856   3.594   3.230  13.625  1.3847 -0.7296  0.2906
  323TMC3    H1 4857   3.362   2.975  13.891 -2.7321  1.9996  2.1295
  323TMC3    H2 4858   3.617   3.282  14.030 -0.9998  0.3228  0.4209
  323TMC3    C7 4859   3.474   3.079  14.114 -0.4858 -0.2772  0.5571
  323TMC3    C8 4860   3.734   3.328  13.812 -0.1407 -0.4698  0.2920
  323TMC3    O1 4861   3.477   2.956  14.115  0.1359 -0.2365 -1.1270
  323TMC3    O2 4862   3.816   3.263  13.744 -0.0900 -0.9007  0.1309
  324MPD2     C 4863   0.649   4.280  15.194  0.6590 -0.0355 -0.2327
  324MPD2    C1 4864   0.653   4.263  15.058 -0.4470 -0.4826 -0.2833
  324MPD2    C2 4865   0.544   4.218  14.995  0.4464  0.4273 -0.6417
  324MPD2    C3 4866   0.421   4.202  15.064 -0.7723 -0.3470 -0.5226
  324MPD2    C4 4867   0.424   4.224  15.202  1.2338 -0.2998  0.3095
  324MPD2    C5 4868   0.534   4.258  15.267  0.1749 -0.8792 -0.2793
  324MPD2     H 4869   0.552   4.199  14.889 -0.5129 -1.9441 -0.3015
  324MPD2    H1 4870   0.339   4.208  15.268  0.7085  0.9054 -0.0650
  324MPD2    H2 4871   0.733   4.320  15.250 -0.2588  0.7707  0.5741
  324MPD2    H3 4872   0.536   4.271  15.374 -2.5360 -0.2683 -0.3160
  324MPD2     N 4873   0.298   4.179  14.999  0.5054 -0.2018  0.0495
  324MPD2    H5 4874   0.220   4.180  15.064  1.2542  2.1847  0.9465
  324MPD2    N1 4875   0.775   4.277  14.983  0.4821 -0.2034  0.4579
  324MPD2    H7 4876   0.778   4.258  14.883 -0.2381 -0.1560  0.4282
  325TMC3    C1 4877   0.143   4.153  14.820 -0.2861  0.5079 -0.2930
  325TMC3    C2 4878   0.119   4.111  14.691  0.0405 -0.3381  0.3065
  325TMC3    C3 4879   4.708   4.118  14.647  0.3766  0.2262 -0.2654
  325TMC3    C4 4880   0.043   4.207  14.899 -0.5744 -0.8781 -0.0043
  325TMC3    C5 4881   4.643   4.226  14.848  0.4383  0.0973  0.1433
  325TMC3    C6 4882   4.607   4.166  14.730 -0.6728  0.2883 -0.4288
  325TMC3     C 4883   0.284   4.161  14.864 -0.2381  0.0507  0.3980
  325TMC3     O 4884   0.375   4.157  14.778  0.8166 -0.7032  0.4637
  325TMC3     H 4885   0.198   4.065  14.634  0.7387  1.4055 -0.1315
  325TMC3    H1 4886   0.072   4.237  14.998 -0.9942  1.8290 -0.7041
  325TMC3    H2 4887   4.503   4.150  14.705 -0.1489 -0.1296 -2.3131
  325TMC3    C7 4888   4.542   4.294  14.924 -0.2968 -0.9087 -0.1488
  325TMC3    C8 4889   4.684   4.067  14.513 -0.0334  0.1314  1.1077
  325TMC3    O1 4890   4.564   4.305  15.041 -0.0682 -0.3911  0.4126
  325TMC3    O2 4891   0.057   4.008  14.466 -0.2167  0.3325  0.1082
  326MPD2     C 4892   1.490   0.576  11.121 -0.1973 -0.3632 -0.6412
  326MPD2    C1 4893   1.548   0.564  10.999  0.1980 -0.3387  1.2236
  326MPD2    C2 4894   1.679   0.587  10.978 -0.0023  0.2188 -0.5538
  326MPD2    C3 4895   1.761   0.636  11.079 -0.4380  0.3854  0.3806
  326MPD2    C4 4896   1.705   0.657  11.200  0.4500 -0.1297 -0.0899
  326MPD2    C5 4897   1.575   0.625  11.219  0.2189 -0.4674 -0.3304
  326MPD2     H 4898   1.718   0.571  10.879  0.8960  1.6018 -0.4268
  326MPD2    H1 4899   1.761   0.692  11.286 -2.0276  0.4767  1.2758
  326MPD2    H2 4900   1.387   0.553  11.144  0.6078 -2.7739  0.5961
  326MPD2    H3 4901   1.525   0.639  11.314  2.3357  0.1282  0.7009
  326MPD2     N 4902   1.899   0.672  11.055 -0.0816  0.5553 -0.3674
  326MPD2    H5 4903   1.953   0.718  11.127 -1.7602 -0.0035  1.2311
  326MPD2    N1 4904   1.477   0.509  10.887  1.1192  0.1863 -0.0466
  326MPD2    H7 4905   1.523   0.515  10.796  1.5625  0.1589  0.1771
  327TMC3    C1 4906   1.310   0.395  10.771  0.1645 -0.4142  0.0339
  327TMC3    C2 4907   1.338   0.473  10.669 -0.5795 -0.0051 -0.8964
  327TMC3    C3 4908   1.335   0.413  10.546 -0.2014 -0.0856  0.0815
  327TMC3    C4 4909   1.285   0.262  10.758 -0.7760  0.8375 -0.1594
  327TMC3    C5 4910   1.298   0.197  10.633  0.0869  0.0444  0.4863
  327TMC3    C6 4911   1.308   0.281  10.524 -0.5826 -0.0022  0.1940
  327TMC3     C 4912   1.357   0.438  10.897  0.0079 -1.0577  0.3513
  327TMC3     O 4913   1.299   0.400  11.002 -0.5231  0.2998 -0.5424
  327TMC3     H 4914   1.344   0.581  10.674 -1.4293 -0.1321  3.4887
  327TMC3    H1 4915   1.260   0.202  10.845 -0.2404  2.0656  0.8351
  327TMC3    H2 4916   1.304   0.226  10.431 -0.1395  0.7275 -0.2563
  327TMC3    C7 4917   1.408   0.100  10.639 -0.4940  0.9660 -0.3277
  327TMC3    C8 4918   1.391   0.495  10.440 -0.0547 -0.4602  0.6101
  327TMC3    O1 4919   1.427   0.040  10.531 -0.4327  0.6603  0.5604
  327TMC3    O2 4920   1.417   0.610  10.475  0.0401  0.1210  0.0437
  328MPD2     C 4921   4.077   0.650  17.396  0.1994  0.2682 -0.1527
  328MPD2    C1 4922   4.018   0.526  17.377  0.6429  0.7573 -0.2035
  328MPD2    C2 4923   3.930   0.513  17.271  0.2316  0.2804  0.1406
  328MPD2    C3 4924   3.888   0.624  17.198  0.1989 -0.5681  0.2159
  328MPD2    C4 4925   3.936   0.750  17.215  0.0394 -0.1261  0.3730
  328MPD2    C5 4926   4.028   0.756  17.312 -0.1058  0.1269  0.8523
  328MPD2     H 4927   3.880   0.418  17.256 -0.9693  0.9262  0.0040
  328MPD2    H1 4928   3.919   0.827  17.141  0.6238 -2.8007 -2.5329
  328MPD2    H2 4929   4.158   0.678  17.462 -1.7133  2.0712  1.4340
  328MPD2    H3 4930   4.078   0.851  17.327  1.5624 -0.5978 -0.1049
  328MPD2     N 4931   3.791   0.621  17.091 -0.8875  0.2748 -0.1482
  328MPD2    H5 4932   3.750   0.710  17.065  3.4933  2.9001  1.7324
  328MPD2    N1 4933   4.043   0.416  17.462  0.8444 -0.1075  0.1376
  328MPD2    H7 4934   4.105   0.439  17.539 -0.4575 -1.5112  1.6079
  329TMC3    C1 4935   4.019   0.203  17.569 -0.0811 -0.7648  0.4342
  329TMC3    C2 4936   4.092   0.252  17.674 -0.6942 -0.2644  0.1121
  329TMC3    C3 4937   4.162   0.160   0.061 -0.3544  0.3339  0.1050
  329TMC3    C4 4938   4.015   0.067  17.536 -0.3299  0.6369 -0.1249
  329TMC3    C5 4939   4.078   4.707  17.619 -0.4356  0.2878  0.2168
  329TMC3    C6 4940   4.155   0.027   0.035 -0.3036 -1.2097 -0.3575
  329TMC3     C 4941   3.994   0.286  17.448  0.0827 -0.2893 -0.0441
  329TMC3     O 4942   3.930   0.232  17.358 -0.1621  0.2307  0.0490
  329TMC3     H 4943   4.090   0.359   0.001  0.5486 -0.4194  1.2370
  329TMC3    H1 4944   3.955   0.023  17.458 -2.2779  0.1647  1.6271
  329TMC3    H2 4945   4.221   4.686   0.094  0.3617 -0.5460 -0.3836
  329TMC3    C7 4946   4.114   4.569  17.576 -0.1587  0.0159  0.4468
  329TMC3    C8 4947   4.244   0.199   0.168  0.5257  0.2752  0.6661
  329TMC3    O1 4948   4.149   4.487  17.662  0.3880 -1.0711 -0.5742
  329TMC3    O2 4949   4.349   0.141   0.172  0.1912  0.4459 -0.3543
  330TMC3    C1 4950   1.468   4.608   9.455  0.5615  0.4648  0.7952
  330TMC3    C2 4951   1.371   4.532   9.395 -0.4131 -0.0546 -0.4440
  330TMC3    C3 4952   1.388   4.403   9.394  0.0092 -1.4280 -0.1721
  330TMC3    C4 4953   1.572   4.553   9.526  0.2586 -0.2167 -0.6051
  330TMC3    C5 4954   1.587   4.420   9.523  0.3560 -0.1723  0.3085
  330TMC3    C6 4955   1.494   4.343   9.456  0.4984 -0.0685  0.0049
  330TMC3     C 4956   1.437   0.020   9.499 -0.1987 -0.1055  0.7891
  330TMC3     O 4957   1.497   0.065   9.596  0.3072  0.4193 -0.2754
  330TMC3     H 4958   1.272   4.564   9.365 -0.4375 -0.7113 -1.0654
  330TMC3    H1 4959   1.646   4.614   9.576 -1.0023  0.3075  0.6224
  330TMC3    H2 4960   1.502   4.235   9.462 -2.7056 -0.3018  0.3178
  330TMC3    C7 4961   1.661   4.354   9.626  0.7086  0.0522  0.0609
  330TMC3    C8 4962   1.281   4.324   9.329 -0.4487 -0.1620  0.3124
  330TMC3    O1 4963   1.665   4.404   9.737 -0.0792 -0.8792  0.3093
  330TMC3    O2 4964   1.212   4.360   9.231  0.1473  0.1963 -0.7301
  331MPD2     C 4965   4.293   3.138  12.389  0.4502  0.3688 -1.1992
  331MPD2    C1 4966   4.400   3.180  12.307 -0.4246 -0.0042 -0.4088
  331MPD2    C2 4967   4.482   3.084  12.248 -0.3329  0.0285 -0.0970
  331MPD2    C3 4968   4.482   2.953  12.293  0.1363 -0.1662 -0.1440
  331MPD2    C4 4969   4.390   2.921  12.391 -0.2250  0.3233 -0.2107
  331MPD2    C5 4970   4.296   3.008  12.431 -0.3922  0.7058  0.0924
  331MPD2     H 4971   4.563   3.114  12.183  0.9509 -1.2393  0.8923
  331MPD2    H1 4972   4.384   2.824  12.439 -1.3659 -0.3512 -1.6753
  331MPD2    H2 4973   4.219   3.211  12.421 -0.2643 -1.0578  0.3641
  331MPD2    H3 4974   4.221   2.982  12.505 -0.5684  0.0227 -0.3280
  331MPD2     N 4975   4.575   2.856  12.246 -0.2771  0.1584 -0.2243
  331MPD2    H5 4976   4.655   2.898  12.200 -0.3323  1.4539  0.8313
  331MPD2    N1 4977   4.429   3.319  12.303  0.0219 -0.3801  0.2931
  331MPD2    H7 4978   4.365   3.384  12.347 -0.1456 -1.6482  1.8924
  332TMC3    C1 4979   4.720   2.684  12.245  0.1063 -0.9033  0.2813
  332TMC3    C2 4980   0.039   2.715  12.119 -0.1851  0.4835 -0.4799
  332TMC3    C3 4981   0.170   2.692  12.083  0.5842 -0.0137 -0.1325
  332TMC3    C4 4982   0.071   2.617  12.341 -0.2721  0.5467  0.2661
  332TMC3    C5 4983   0.196   2.593  12.301 -0.2355  0.1315  0.5245
  332TMC3    C6 4984   0.251   2.635  12.179  0.0508 -0.2737  0.7591
  332TMC3     C 4985   4.599   2.735  12.297  0.3194 -0.3504 -0.6429
  332TMC3     O 4986   4.541   2.664  12.381 -0.3097  0.7983 -0.4295
  332TMC3     H 4987   4.699   2.754  12.039  0.5450 -0.7461 -1.6609
  332TMC3    H1 4988   0.045   2.605  12.445  0.2764  1.7286  0.5421
  332TMC3    H2 4989   0.358   2.631  12.163  0.1769 -1.8743  2.0351
  332TMC3    C7 4990   0.278   2.559  12.416 -0.0218  0.1462 -0.1438
  332TMC3    C8 4991   0.239   2.798  12.031 -0.3599  0.0001 -0.3682
  332TMC3    O1 4992   0.229   2.538  12.527 -0.4456  0.0907 -0.3144
  332TMC3    O2 4993   0.332   2.845  12.098  0.1231  0.1772 -0.5090
  333MPD2     C 4994   0.533   2.914  11.234  0.1364  0.1287 -0.6276
  333MPD2    C1 4995   0.538   2.811  11.149 -0.1945 -0.3536 -1.0763
  333MPD2    C2 4996   0.447   2.714  11.172  0.2466  1.0341  0.6500
  333MPD2    C3 4997   0.356   2.713  11.276 -0.5522 -0.5839 -0.6450
  333MPD2    C4 4998   0.357   2.816  11.365  0.1739 -0.3430  0.1560
  333MPD2    C5 4999   0.437   2.922  11.333  0.0474  0.4294 -0.4666
  333MPD2     H 5000   0.440   2.625  11.111  1.6391  1.4342 -0.0814
  333MPD2    H1 5001   0.291   2.821  11.451  0.1707 -0.1354  0.1410
  333MPD2    H2 5002   0.611   2.989  11.223 -1.6054  2.5438  3.4211
  333MPD2    H3 5003   0.440   3.007  11.399 -0.5732  0.5130 -0.5500
  333MPD2     N 5004   0.283   2.593  11.306 -0.2005  0.3464 -0.0510
  333MPD2    H5 5005   0.304   2.507  11.258 -1.0918  0.2522 -0.2617
  333MPD2    N1 5006   0.631   2.817  11.039 -0.7324 -0.2479 -0.9151
  333MPD2    H7 5007   0.687   2.902  11.033 -0.6800 -0.1635  0.7520
  334TMC3    C1 5008   0.751   2.754  10.852  0.4741  0.8542 -0.1569
  334TMC3    C2 5009   0.878   2.706  10.847 -0.2570  0.1914  0.1984
  334TMC3    C3 5010   0.953   2.760  10.748  0.2258  0.0370 -0.4147
  334TMC3    C4 5011   0.716   2.869  10.792  0.9661  0.4310 -0.0177
  334TMC3    C5 5012   0.800   2.919  10.699  0.2034  0.6755 -0.3724
  334TMC3    C6 5013   0.920   2.867  10.673  0.7868 -0.2505 -0.0220
  334TMC3     C 5014   0.667   2.710  10.962  0.2095  0.5467 -0.3400
  334TMC3     O 5015   0.646   2.589  10.979  0.1692 -0.2079 -0.2394
  334TMC3     H 5016   0.898   2.610  10.893  0.5084 -0.0435 -0.6282
  334TMC3    H1 5017   0.627   2.924  10.820  1.1677  1.0379 -0.5933
  334TMC3    H2 5018   0.975   2.901  10.586 -1.2029 -1.3633 -1.7175
  334TMC3    C7 5019   0.803   3.066  10.681  0.3548 -0.0792  0.5929
  334TMC3    C8 5020   1.097   2.760  10.761 -0.6427 -0.2208 -0.3934
  334TMC3    O1 5021   0.912   3.117  10.672 -0.1414  0.8149 -0.2329
  334TMC3    O2 5022   1.153   2.658  10.800  0.2205  0.8460  0.2486
  335TMC3    C1 5023   0.149   0.517   0.149 -0.0885  0.4842  0.4493
  335TMC3    C2 5024   0.026   0.462   0.120 -0.5002 -0.4165 -0.1720
  335TMC3    C3 5025   4.680   0.500   0.011 -0.4676  0.2984 -0.5839
  335TMC3    C4 5026   0.201   0.614   0.069  0.6948  0.2254  0.2221
  335TMC3    C5 5027   0.129   0.649  17.650  0.9071  0.1232  0.2009
  335TMC3    C6 5028   0.004   0.594  17.615  0.5402 -0.1330  0.0905
  335TMC3     C 5029   0.217   0.463   0.259  0.1502  0.2230  0.1943
  335TMC3     O 5030   0.156   0.416   0.354  0.2773 -0.7121  0.1232
  335TMC3     H 5031   4.704   0.389   0.187 -2.1016 -0.0771 -0.8455
  335TMC3    H1 5032   0.301   0.654   0.077  1.4702 -2.2201  2.7533
  335TMC3    H2 5033   4.684   0.611  17.517  3.6428  1.4837 -0.9374
  335TMC3    C7 5034   0.208   0.681  17.529 -0.4470 -0.0219 -0.0769
  335TMC3    C8 5035   4.576   0.419  17.650 -0.4002  0.7389 -0.1809
  335TMC3    O1 5036   0.186   0.613  17.429  0.1824 -0.0523  0.1281
  335TMC3    O2 5037   4.488   0.477  17.591  0.1685 -0.3324  0.1354
  336MPD2     C 5038   4.463   3.014  16.402  0.2728  0.8908 -0.6735
  336MPD2    C1 5039   4.515   2.963  16.285  0.0697 -0.6245 -0.0377
  336MPD2    C2 5040   4.514   2.829  16.269 -0.3314 -1.1219 -0.2533
  336MPD2    C3 5041   4.485   2.743  16.376  0.0904  0.5430  0.3146
  336MPD2    C4 5042   4.455   2.797  16.500 -0.1848  0.0587  0.0235
  336MPD2    C5 5043   4.444   2.934  16.510  0.0246 -0.3119 -0.3085
  336MPD2     H 5044   4.549   2.789  16.174 -1.9298 -2.1132 -0.4160
  336MPD2    H1 5045   4.430   2.739  16.588 -0.0129 -3.2370 -2.0989
  336MPD2    H2 5046   4.442   3.119  16.417 -0.1236  0.4637  1.7258
  336MPD2    H3 5047   4.411   2.984  16.601  1.3738  0.7515 -0.4194
  336MPD2     N 5048   4.491   2.598  16.371 -0.5132 -0.3407 -0.1644
  336MPD2    H5 5049   4.494   2.546  16.458 -0.4067 -1.1400 -0.6488
  336MPD2    N1 5050   4.544   3.053  16.179 -0.2313 -0.1795 -0.0312
  336MPD2    H7 5051   4.563   3.013  16.088  0.9004 -2.0925  1.0644
  337TMC3    C1 5052   4.569   3.244  16.055 -0.1763  0.5934  1.2266
  337TMC3    C2 5053   4.466   3.203  15.977  0.1135  0.0017 -0.5475
  337TMC3    C3 5054   4.450   3.271  15.866  0.1108 -0.5772 -0.1759
  337TMC3    C4 5055   4.656   3.343  16.028  0.5015  0.2439 -0.1409
  337TMC3    C5 5056   4.634   3.410  15.910 -0.2600 -0.3222 -0.2332
  337TMC3    C6 5057   4.534   3.370  15.826 -0.4837  0.1320  0.7712
  337TMC3     C 5058   4.574   3.184  16.187 -0.0402 -0.2938  0.0604
  337TMC3     O 5059   4.603   3.256  16.283  0.0279 -0.5068  0.5553
  337TMC3     H 5060   4.391   3.130  16.005  2.1352 -1.6622  0.5551
  337TMC3    H1 5061   0.011   3.377  16.097 -0.0480  1.1020  0.0590
  337TMC3    H2 5062   4.500   3.432  15.744  0.0224 -0.5935  0.0183
  337TMC3    C7 5063   4.693   3.540  15.894  0.0674 -0.4321 -0.1820
  337TMC3    C8 5064   4.311   3.293  15.836  0.6503  0.4688  0.4093
  337TMC3    O1 5065   4.666   3.595  15.787  0.1808 -0.4965  0.0910
  337TMC3    O2 5066   4.237   3.301  15.935 -0.3800  0.6373 -0.0140
  338MPD2     C 5067   0.382   2.335   1.041  0.7475 -0.3006 -0.2336
  338MPD2    C1 5068   0.328   2.349   0.912 -0.8517  0.0238 -0.0810
  338MPD2    C2 5069   0.194   2.373   0.901 -0.5669 -0.1886  0.7675
  338MPD2    C3 5070   0.103   2.377   1.009  0.2617 -0.7167  0.0870
  338MPD2    C4 5071   0.161   2.366   1.133 -0.0039  0.2103  0.1086
  338MPD2    C5 5072   0.295   2.358   1.153  0.1980 -0.3241 -0.2303
  338MPD2     H 5073   0.146   2.367   0.804 -1.1563  1.2131  0.9823
  338MPD2    H1 5074   0.103   2.384   1.223  2.0951 -0.2030  1.5478
  338MPD2    H2 5075   0.485   2.305   1.059  1.2380  1.9044  0.6807
  338MPD2    H3 5076   0.340   2.362   1.251  0.1853  0.4376 -0.2587
  338MPD2     N 5077   4.690   2.381   0.977 -0.6100 -0.1535 -0.3092
  338MPD2    H5 5078   4.671   2.379   0.877 -0.2241 -0.4890 -0.3759
  338MPD2    N1 5079   0.401   2.329   0.788 -0.2488 -0.1010 -0.1852
  338MPD2    H7 5080   0.346   2.319   0.703  1.0199  2.1107 -1.2622
  339TMC3    C1 5081   4.466   2.356   0.982  0.6489  0.3917  0.0218
  339TMC3    C2 5082   4.407   2.236   0.994  0.4361 -0.4988 -0.1073
  339TMC3    C3 5083   4.363   2.177   0.881  0.1164  0.0648  0.3654
  339TMC3    C4 5084   4.466   2.422   0.867  0.0168  0.5103  0.2081
  339TMC3    C5 5085   4.422   2.359   0.749 -0.9292 -0.1225  0.4212
  339TMC3    C6 5086   4.375   2.233   0.756 -0.3228 -0.1135  0.1973
  339TMC3     C 5087   4.586   2.371   1.063  0.9633 -0.1994 -0.3318
  339TMC3     O 5088   4.594   2.334   1.182  0.4993 -0.1770 -0.0714
  339TMC3     H 5089   4.431   2.183   1.086 -2.2540 -0.3229  0.7105
  339TMC3    H1 5090   4.504   2.523   0.860  0.8400  0.1297 -0.7776
  339TMC3    H2 5091   4.347   2.173   0.671 -0.7101  0.8257 -0.3461
  339TMC3    C7 5092   4.486   2.409   0.624  0.6577  0.3961  0.5507
  339TMC3    C8 5093   4.395   2.035   0.888  0.8847 -0.1363 -0.3255
  339TMC3    O1 5094   4.570   2.500   0.624  0.2013 -0.1164  0.2260
  339TMC3    O2 5095   4.447   1.987   0.786  0.3666 -0.4854 -0.3085
  340MPD2     C 5096   4.577   0.112  10.053 -0.2785 -0.1963 -0.5535
  340MPD2    C1 5097   4.596   0.211   9.960  0.3476 -0.1360  0.2841
  340MPD2    C2 5098   4.696   0.310   9.980  0.0826  0.1160 -0.1296
  340MPD2    C3 5099   0.040   0.314  10.098  0.2628 -0.2818  0.1561
  340MPD2    C4 5100   0.032   0.212  10.186  0.3647 -0.4365 -0.9337
  340MPD2    C5 5101   4.667   0.108  10.163  0.4560 -0.1833 -0.0044
  340MPD2     H 5102   0.001   0.387   9.908 -0.3151  1.2914  0.9913
  340MPD2    H1 5103   0.080   0.218  10.283  1.5244 -0.0181 -1.5450
  340MPD2    H2 5104   4.510   0.028  10.037 -0.4414  0.0461 -1.1536
  340MPD2    H3 5105   4.660   0.037  10.244  1.6566  0.5049  0.7033
  340MPD2     N 5106   0.137   0.416  10.123  0.1944 -0.4567 -0.5894
  340MPD2    H5 5107   0.204   0.399  10.198  0.6092  0.5252 -0.7386
  340MPD2    N1 5108   4.537   0.202   9.835  0.1381  0.5080  0.1748
  340MPD2    H7 5109   4.475   0.122   9.828 -0.2707  0.9669 -1.6041
  341TMC3    C1 5110   4.456   0.264   9.613 -0.1649  0.0023  0.1187
  341TMC3    C2 5111   4.472   0.139   9.566 -0.1217 -0.9926 -0.2170
  341TMC3    C3 5112   4.466   0.115   9.431 -0.1200  0.4732  0.0545
  341TMC3    C4 5113   4.441   0.372   9.525 -0.4591  0.2683 -0.1279
  341TMC3    C5 5114   4.452   0.346   9.392 -1.0242  0.2580 -0.0468
  341TMC3    C6 5115   4.463   0.215   9.348  0.0443 -0.6172 -0.1145
  341TMC3     C 5116   4.541   0.288   9.725 -1.1098 -0.5680 -0.0576
  341TMC3     O 5117   4.609   0.383   9.715  0.1952  0.0055  0.2260
  341TMC3     H 5118   4.483   0.062   9.642  0.1329 -1.3463 -0.6087
  341TMC3    H1 5119   4.438   0.475   9.559 -1.2560  0.5526 -1.0366
  341TMC3    H2 5120   4.452   0.198   9.241 -1.7158  0.6355 -0.1345
  341TMC3    C7 5121   4.568   0.413   9.334  0.2342 -0.4553 -0.7674
  341TMC3    C8 5122   4.488   4.704   9.381  0.6602 -0.2157  0.2564
  341TMC3    O1 5123   4.629   0.358   9.244 -0.2083  0.3127  0.1067
  341TMC3    O2 5124   4.554   4.693   9.275 -0.2231  0.4630  0.0960
  342MPD2     C 5125   2.677   3.631   0.215  0.0587  0.1435  0.4052
  342MPD2    C1 5126   2.790   3.644   0.137  0.4020  0.5102 -0.2060
  342MPD2    C2 5127   2.872   3.759   0.157  0.3106 -0.8776  0.2135
  342MPD2    C3 5128   2.835   3.861   0.247  0.2414  0.3605  0.0108
  342MPD2    C4 5129   2.720   3.843   0.316 -0.2512 -0.1801  0.3926
  342MPD2    C5 5130   2.645   3.734   0.305 -0.1015  0.2522 -0.1031
  342MPD2     H 5131   2.957   3.774   0.091  0.4418  0.1632  0.6265
  342MPD2    H1 5132   2.686   3.925   0.378 -0.6463  0.9155 -1.2555
  342MPD2    H2 5133   2.601   3.555   0.225 -0.6453  0.8240  0.2792
  342MPD2    H3 5134   2.558   3.730   0.369 -1.4810 -0.2017 -1.9990
  342MPD2     N 5135   2.921   3.970   0.272  0.0419  0.0220 -0.5814
  342MPD2    H5 5136   2.895   4.039   0.342  0.2939 -0.0934 -0.3753
  342MPD2    N1 5137   2.830   3.557   0.027 -0.1345 -0.1649  0.6433
  342MPD2    H7 5138   2.902   3.586  17.651  1.1689 -0.2446  2.0356
  343TMC3    C1 5139   2.830   3.361  17.597 -0.9837 -0.8811  0.1165
  343TMC3    C2 5140   2.949   3.398  17.540 -0.1426 -0.3255  0.3116
  343TMC3    C3 5141   2.986   3.343  17.420  0.9256  0.2419 -0.5527
  343TMC3    C4 5142   2.744   3.273  17.541 -0.2046 -0.3639  0.0618
  343TMC3    C5 5143   2.776   3.234  17.414  0.3942 -0.1398  0.6967
  343TMC3    C6 5144   2.894   3.268  17.350  0.1879  0.0673  0.0963
  343TMC3     C 5145   2.775   3.435   0.014 -0.7072  0.0197  0.1236
  343TMC3     O 5146   2.669   3.389   0.061  0.1349  0.3565 -0.4677
  343TMC3     H 5147   3.023   3.442  17.607  0.2931 -1.3214  0.4813
  343TMC3    H1 5148   2.657   3.235  17.592 -0.8291 -1.1439 -1.6054
  343TMC3    H2 5149   2.927   3.224  17.256  0.0892 -0.6420  0.3922
  343TMC3    C7 5150   2.707   3.124  17.363 -0.6559  0.6323  0.2653
  343TMC3    C8 5151   3.128   3.331  17.394 -0.3608  0.3634  0.7065
  343TMC3    O1 5152   2.644   3.056  17.446 -0.5497 -0.1782  0.6505
  343TMC3    O2 5153   3.201   3.409  17.457  0.1123  0.4693 -0.4094
  344MPD2     C 5154   3.533   2.904  10.237 -0.0795 -0.9530  0.3836
  344MPD2    C1 5155   3.668   2.892  10.228  0.0226  0.0117  0.3791
  344MPD2    C2 5156   3.734   3.007  10.185 -0.1316  0.1248  0.6307
  344MPD2    C3 5157   3.656   3.119  10.159  0.0393  0.0798 -0.0062
  344MPD2    C4 5158   3.518   3.114  10.155  0.1986  0.7631  0.5172
  344MPD2    C5 5159   3.457   3.007  10.194  0.3503 -0.4087 -0.2764
  344MPD2     H 5160   3.842   3.007  10.182 -0.2372 -1.7185 -2.6760
  344MPD2    H1 5161   3.450   3.194  10.131  0.6706  0.6929 -1.0256
  344MPD2    H2 5162   3.472   2.822  10.273 -0.7905  0.0236  1.4330
  344MPD2    H3 5163   3.349   3.003  10.202  0.3779 -1.2273 -0.3542
  344MPD2     N 5164   3.706   3.249  10.132 -0.1063  0.3023 -0.4547
  344MPD2    H5 5165   3.638   3.324  10.128  1.0491  1.3415 -0.4739
  344MPD2    N1 5166   3.742   2.779  10.264 -0.3007  0.4874  0.4231
  344MPD2    H7 5167   3.841   2.788  10.284 -0.2207  0.4984  0.0278
  345TMC3    C1 5168   3.855   3.417  10.085  0.5243  0.2794  0.3413
  345TMC3    C2 5169   3.969   3.474  10.144  0.0436  0.2366 -0.1746
  345TMC3    C3 5170   3.968   3.609  10.163 -0.3811 -0.0209 -0.1809
  345TMC3    C4 5171   3.750   3.491  10.044  0.2503  0.0409  0.6094
  345TMC3    C5 5172   3.754   3.623  10.072  0.0089  0.0735  0.1800
  345TMC3    C6 5173   3.860   3.681  10.140 -0.1884 -0.1439 -0.2347
  345TMC3     C 5174   3.837   3.278  10.112 -0.5354  0.0052 -0.0096
  345TMC3     O 5175   3.930   3.202  10.139 -0.5072 -0.5286 -0.2632
  345TMC3     H 5176   4.056   3.412  10.162 -2.0618 -2.4228  0.9231
  345TMC3    H1 5177   3.670   3.446   9.987  1.0869 -0.4866 -0.1398
  345TMC3    H2 5178   3.865   3.784  10.174 -0.3228 -0.0192 -0.5933
  345TMC3    C7 5179   3.676   3.721   9.996 -0.1575 -0.2955 -0.5212
  345TMC3    C8 5180   4.086   3.698  10.162 -0.3176  0.6066 -0.3497
  345TMC3    O1 5181   3.725   3.834  10.002 -0.3847  0.2171 -0.1254
  345TMC3    O2 5182   4.081   3.799  10.231  0.0633 -0.4959 -0.0182
  346MPD2     C 5183   3.679   4.390  13.811  0.0153  0.3974 -0.2358
  346MPD2    C1 5184   3.810   4.407  13.846  0.3398  1.2186  0.0001
  346MPD2    C2 5185   3.850   4.447  13.973 -0.0876 -0.6121 -0.6627
  346MPD2    C3 5186   3.752   4.486  14.069  0.3028  0.0740  0.7254
  346MPD2    C4 5187   3.625   4.465  14.032  0.0865  0.0612  0.0061
  346MPD2    C5 5188   3.584   4.439  13.896  0.8418  0.8039  0.1377
  346MPD2     H 5189   3.956   4.459  13.991 -0.7794  1.7373  1.7228
  346MPD2    H1 5190   3.539   4.489  14.094  0.9861 -0.2599  1.3631
  346MPD2    H2 5191   3.650   4.362  13.710 -0.8738 -1.8823  0.6432
  346MPD2    H3 5192   3.478   4.429  13.878  0.8020 -1.1798  1.5421
  346MPD2     N 5193   3.789   4.543  14.191 -0.0970  0.5896 -0.1633
  346MPD2    H5 5194   3.888   4.538  14.208 -0.1662  1.4493  0.4887
  346MPD2    N1 5195   3.913   4.391  13.750 -0.6065  0.3615  0.5235
  346MPD2    H7 5196   4.011   4.397  13.774 -0.2821  2.1774 -1.2624
  347TMC3    C1 5197   3.745   4.639  14.402 -0.4198  0.6046 -0.7561
  347TMC3    C2 5198   3.859   4.577  14.455 -0.4692 -0.3945 -0.2696
  347TMC3    C3 5199   3.897   4.614  14.574 -0.2678  0.5301  0.9267
  347TMC3    C4 5200   3.660   4.715  14.475  0.4583  0.0900 -0.7649
  347TMC3    C5 5201   3.691   0.002  14.611  0.1822  0.3405 -0.3618
  347TMC3    C6 5202   3.809   4.676  14.658  0.8902  0.0376  0.3470
  347TMC3     C 5203   3.694   4.601  14.274  0.1995 -0.3277 -0.2352
  347TMC3     O 5204   3.588   4.653  14.242 -0.3147 -0.2037 -0.4125
  347TMC3     H 5205   3.925   4.517  14.392  0.9060  0.1648  0.6360
  347TMC3    H1 5206   3.576   0.048  14.435 -0.3609  0.0743  0.9049
  347TMC3    H2 5207   3.828   4.677  14.765  0.9429  3.4683  0.3133
  347TMC3    C7 5208   3.610   0.085  14.697 -0.1046 -0.7489  0.3999
  347TMC3    C8 5209   4.018   4.554  14.631  0.7170  0.0665  0.3683
  347TMC3    O1 5210   3.664   0.159  14.778  0.2753 -0.1256  0.0371
  347TMC3    O2 5211   4.082   4.472  14.566  0.7978 -0.2748 -0.3116
  348MPD2     C 5212   2.528   4.073  12.620 -0.3777 -0.0440 -0.0928
  348MPD2    C1 5213   2.630   4.097  12.531 -0.3094  0.0834 -0.2021
  348MPD2    C2 5214   2.609   4.184  12.425 -0.2068  0.1709  0.2959
  348MPD2    C3 5215   2.482   4.241  12.408 -0.5394  0.1732  0.3253
  348MPD2    C4 5216   2.391   4.231  12.504 -0.0782 -0.0843  0.5697
  348MPD2    C5 5217   2.410   4.144  12.603 -0.1600  0.4431 -0.3392
  348MPD2     H 5218   2.691   4.203  12.356 -0.3159 -0.6475 -0.0609
  348MPD2    H1 5219   2.295   4.282  12.500 -0.7007 -1.2440  0.7355
  348MPD2    H2 5220   2.557   4.032  12.716 -0.1086 -0.6877 -0.4492
  348MPD2    H3 5221   2.339   4.144  12.686  0.5660 -1.1062  0.2814
  348MPD2     N 5222   2.465   4.323  12.291 -0.4239 -0.5883 -0.3934
  348MPD2    H5 5223   2.548   4.342  12.235  0.2408  0.6506  1.0133
  348MPD2    N1 5224   2.748   4.031  12.529 -0.2997 -0.2002 -0.3101
  348MPD2    H7 5225   2.820   4.056  12.462 -0.2385 -0.7725 -0.4601
  349TMC3    C1 5226   2.927   3.893  12.590  0.1235 -0.1696  0.2060
  349TMC3    C2 5227   2.923   3.755  12.590  0.3115 -0.7719  0.0821
  349TMC3    C3 5228   2.972   3.684  12.484 -1.0957  0.6572 -0.7148
  349TMC3    C4 5229   2.987   3.965  12.487 -0.3958 -0.4192  0.5133
  349TMC3    C5 5230   3.025   3.891  12.378  0.4901  0.1648  0.0932
  349TMC3    C6 5231   3.026   3.758  12.381 -0.1582 -0.1862 -0.7958
  349TMC3     C 5232   2.798   3.945  12.623  0.1770 -0.7779 -0.2281
  349TMC3     O 5233   2.754   3.922  12.735  0.1422  0.1904  0.1533
  349TMC3     H 5234   2.895   3.698  12.678 -1.0167 -1.0415 -0.5183
  349TMC3    H1 5235   2.981   4.073  12.492  1.1029 -0.3278  0.1579
  349TMC3    H2 5236   3.069   3.712  12.292  2.9155 -0.9325  1.0643
  349TMC3    C7 5237   2.995   3.946  12.244 -0.0389  0.4742 -0.1207
  349TMC3    C8 5238   2.964   3.536  12.473 -0.2545  0.0328 -0.2892
  349TMC3    O1 5239   2.938   3.866  12.171  0.3291  0.2917  0.6216
  349TMC3    O2 5240   2.894   3.479  12.554  0.0523  0.2760 -0.1602
  350MPD2     C 5241   1.962   1.770   9.893 -0.3183 -0.2580 -0.1758
  350MPD2    C1 5242   2.059   1.706   9.971  0.1687 -0.1960 -1.0832
  350MPD2    C2 5243   2.171   1.783  10.006 -0.0523 -0.9853 -0.5378
  350MPD2    C3 5244   2.176   1.917   9.979  0.0694 -0.2275  0.8559
  350MPD2    C4 5245   2.075   1.974   9.907  0.1160 -0.8959  0.9778
  350MPD2    C5 5246   1.961   1.903   9.863  0.4342  0.6471  0.0789
  350MPD2     H 5247   2.254   1.734  10.055  0.2463 -0.2036 -0.2580
  350MPD2    H1 5248   2.074   2.080   9.881 -0.1104 -1.0178  0.4940
  350MPD2    H2 5249   1.892   1.703   9.846 -1.3970 -0.2654  1.4372
  350MPD2    H3 5250   1.878   1.934   9.800  0.6665 -1.1120 -1.1014
  350MPD2     N 5251   2.288   1.988  10.029 -0.4174  0.5345  0.0519
  350MPD2    H5 5252   2.356   1.933  10.079 -0.2593 -1.0512 -1.8793
  350MPD2    N1 5253   2.034   1.572  10.014 -0.2461 -0.1940  0.1675
  350MPD2    H7 5254   2.114   1.521  10.050  1.2607  0.3641 -2.3521
  351TMC3    C1 5255   1.922   1.361  10.038 -1.0220 -0.3296  0.4254
  351TMC3    C2 5256   2.034   1.307   9.994 -0.6957  0.1597 -0.3866
  351TMC3    C3 5257   2.035   1.180   9.944 -0.2425 -0.0421 -0.0240
  351TMC3    C4 5258   1.804   1.294  10.034 -0.2040 -0.1505  1.0203
  351TMC3    C5 5259   1.805   1.167   9.989  0.2497  0.1571 -0.2215
  351TMC3    C6 5260   1.924   1.103   9.964  0.0387 -0.7805 -0.2083
  351TMC3     C 5261   1.905   1.504  10.022  0.0291 -0.6213 -0.5492
  351TMC3     O 5262   1.797   1.554  10.014 -0.3351 -0.0699 -0.0046
  351TMC3     H 5263   2.133   1.350  10.003 -0.3384 -1.2810  2.3863
  351TMC3    H1 5264   1.707   1.329  10.066  0.5370  1.4050  1.5723
  351TMC3    H2 5265   1.924   0.996   9.949  0.9407 -0.6800 -0.9343
  351TMC3    C7 5266   1.683   1.089  10.011  0.0424 -0.1269  0.0731
  351TMC3    C8 5267   2.157   1.110   9.930  0.4916 -0.1803 -0.2170
  351TMC3    O1 5268   1.619   1.105  10.111  0.5573  0.1007 -0.1409
  351TMC3    O2 5269   2.154   0.985   9.944  1.1269 -0.4080  1.1275
  352MPD2     C 5270   0.207   3.923   1.750 -0.3163  0.5658 -0.4348
  352MPD2    C1 5271   0.074   3.905   1.722  0.3757  0.4570  0.4852
  352MPD2    C2 5272   0.002   3.807   1.792  0.3759  0.0537 -0.3576
  352MPD2    C3 5273   0.067   3.719   1.884 -0.0563 -0.5332  0.1510
  352MPD2    C4 5274   0.198   3.754   1.918 -0.5545  0.5989  1.0032
  352MPD2    C5 5275   0.260   3.856   1.857  0.1821  0.1477  0.1206
  352MPD2     H 5276   4.620   3.790   1.765  0.7729 -1.0326 -1.2256
  352MPD2    H1 5277   0.258   3.695   1.986 -0.8070  0.3352  0.9913
  352MPD2    H2 5278   0.270   3.996   1.700 -1.4822  2.6934  1.1851
  352MPD2    H3 5279   0.357   3.886   1.894 -0.1315  0.0739  1.0103
  352MPD2     N 5280   0.013   3.594   1.925  0.5642  0.2464  0.3854
  352MPD2    H5 5281   0.068   3.523   1.972  4.0353  2.0880 -0.8485
  352MPD2    N1 5282   0.014   3.981   1.617 -0.6401 -0.0863 -1.1624
  352MPD2    H7 5283   0.080   4.035   1.563 -2.4036  1.2331 -1.9959
  353TMC3    C1 5284   4.601   3.395   1.899  0.3698 -0.0554 -0.2884
  353TMC3    C2 5285   4.675   3.330   1.997 -0.4220  0.1753 -0.1846
  353TMC3    C3 5286   4.682   3.192   1.983 -0.0539 -0.4481 -0.3084
  353TMC3    C4 5287   4.541   3.332   1.794  0.3072 -0.2350  0.8315
  353TMC3    C5 5288   4.561   3.198   1.780 -0.6317  0.3411  0.2678
  353TMC3    C6 5289   4.633   3.126   1.870  0.6311  0.3842 -0.2164
  353TMC3     C 5290   4.606   3.542   1.888 -0.4445  0.0333  0.2598
  353TMC3     O 5291   4.509   3.609   1.848 -0.4620 -0.3448 -0.3286
  353TMC3     H 5292   0.002   3.380   2.081  0.5936 -0.4887 -0.3760
  353TMC3    H1 5293   4.485   3.391   1.722 -0.9086 -0.6831  1.4093
  353TMC3    H2 5294   4.626   3.019   1.882  3.2814  0.4495  1.9373
  353TMC3    C7 5295   4.525   3.130   1.657 -0.7289 -0.1963 -0.3717
  353TMC3    C8 5296   0.032   3.119   2.081  0.3298  0.9996  0.0018
  353TMC3    O1 5297   4.473   3.022   1.658  0.0496  0.0466  0.0115
  353TMC3    O2 5298   0.020   3.161   2.198 -0.2714 -0.1585 -0.2938
  354TMC3    C1 5299   1.602   0.831  13.380 -0.4520  0.6342 -0.2317
  354TMC3    C2 5300   1.648   0.959  13.365  0.0923 -0.6705 -1.0578
  354TMC3    C3 5301   1.627   1.013  13.242 -0.0326  0.1154 -0.2054
  354TMC3    C4 5302   1.529   0.759  13.285  0.3986 -0.1494  0.5930
  354TMC3    C5 5303   1.520   0.818  13.161 -1.0816  0.2429  0.7329
  354TMC3    C6 5304   1.562   0.944  13.142  0.5013 -0.8101 -0.1397
  354TMC3     C 5305   1.616   0.758  13.505 -0.5251 -0.0234  0.1431
  354TMC3     O 5306   1.533   0.672  13.523  0.4865 -0.1434 -0.4227
  354TMC3     H 5307   1.698   1.012  13.445 -2.3304 -0.9284  0.6284
  354TMC3    H1 5308   1.511   0.653  13.293  0.8310 -0.3224 -0.6544
  354TMC3    H2 5309   1.551   0.991  13.045  0.8695  0.2471  0.3220
  354TMC3    C7 5310   1.515   0.733  13.044 -0.0199 -0.0616 -0.2629
  354TMC3    C8 5311   1.724   1.098  13.184 -0.2459  0.3530  0.0310
  354TMC3    O1 5312   1.464   0.620  13.054 -0.0846 -0.2217  0.2120
  354TMC3    O2 5313   1.779   1.061  13.081 -0.7251  0.6739 -0.8165
  355MPD2     C 5314   2.444   1.511  11.960  0.0553 -0.2655 -1.0958
  355MPD2    C1 5315   2.491   1.478  11.835  0.3383  0.0300 -0.4849
  355MPD2    C2 5316   2.585   1.380  11.834 -0.5740 -0.1748 -0.1111
  355MPD2    C3 5317   2.630   1.316  11.942  0.0657 -0.4683 -0.9845
  355MPD2    C4 5318   2.586   1.347  12.064 -0.0239 -0.2480 -0.1163
  355MPD2    C5 5319   2.489   1.443  12.073  0.5713  0.7897 -0.0027
  355MPD2     H 5320   2.624   1.355  11.735  0.8882  1.3823  0.0700
  355MPD2    H1 5321   2.621   1.301  12.155  1.1623  0.7134 -0.0806
  355MPD2    H2 5322   2.365   1.583  11.977 -0.4761 -1.0478 -0.2419
  355MPD2    H3 5323   2.451   1.466  12.172 -0.7865 -0.6628 -0.1793
  355MPD2     N 5324   2.744   1.226  11.934 -0.0407 -0.4523  0.4104
  355MPD2    H5 5325   2.797   1.213  12.020  0.3482 -0.5041  0.1637
  355MPD2    N1 5326   2.457   1.549  11.720 -0.7325  0.1152 -0.2434
  355MPD2    H7 5327   2.380   1.616  11.727 -1.0558 -0.0237 -2.6601
  356TMC3    C1 5328   2.933   1.136  11.833  0.2148  0.1398  0.2652
  356TMC3    C2 5329   2.979   1.064  11.723  0.0289  0.4897 -0.1919
  356TMC3    C3 5330   3.106   1.091  11.676  0.6951  0.2704  0.5267
  356TMC3    C4 5331   3.011   1.244  11.883  0.6789  0.3875  0.4287
  356TMC3    C5 5332   3.138   1.256  11.839 -0.1540 -0.4131  0.5494
  356TMC3    C6 5333   3.190   1.175  11.742  0.2504 -0.0470  0.2269
  356TMC3     C 5334   2.793   1.176  11.810 -0.1860  0.0671  1.0857
  356TMC3     O 5335   2.740   1.151  11.705  0.0246 -0.2586  0.4150
  356TMC3     H 5336   2.917   0.991  11.672  0.4119  0.1176 -0.1272
  356TMC3    H1 5337   2.969   1.317  11.951  0.0275 -1.0612  1.5778
  356TMC3    H2 5338   3.290   1.183  11.702 -0.2796 -0.1799 -1.1340
  356TMC3    C7 5339   3.179   1.391  11.811  0.3372  0.7922  0.2196
  356TMC3    C8 5340   3.103   1.109  11.530  0.1746  0.0557  0.2923
  356TMC3    O1 5341   3.226   1.400  11.700 -0.1146 -0.1393 -0.1406
  356TMC3    O2 5342   3.054   1.019  11.464 -0.4588 -0.6729  0.1193
  357MPD2     C 5343   1.968   1.542   0.701  0.0653 -0.3488  0.5228
  357MPD2    C1 5344   1.927   1.460   0.806 -0.1685 -0.7264  0.6549
  357MPD2    C2 5345   1.836   1.510   0.898 -0.6189  0.4351  0.5056
  357MPD2    C3 5346   1.808   1.641   0.895  0.0388 -0.2182  1.1953
  357MPD2    C4 5347   1.843   1.727   0.790  0.4780  0.0556 -1.0182
  357MPD2    C5 5348   1.924   1.677   0.692 -0.2832  0.1119 -0.0335
  357MPD2     H 5349   1.789   1.459   0.981 -0.2533 -0.5590  0.1004
  357MPD2    H1 5350   1.814   1.830   0.769  0.5693  0.1049 -0.9025
  357MPD2    H2 5351   2.032   1.506   0.621 -0.6826 -0.2894 -0.1058
  357MPD2    H3 5352   1.950   1.747   0.613 -3.1882 -1.9760 -2.8147
  357MPD2     N 5353   1.727   1.688   0.998  0.7821 -0.2625 -0.0688
  357MPD2    H5 5354   1.694   1.613   1.058  1.9260 -0.7541 -0.0528
  357MPD2    N1 5355   1.977   1.329   0.810  0.4081 -0.3780  0.1886
  357MPD2    H7 5356   2.029   1.299   0.729 -3.2689 -4.3318 -0.6668
  358TMC3    C1 5357   2.013   1.113   0.887  0.1844  1.0450  0.5229
  358TMC3    C2 5358   2.012   1.073   0.757  0.5082 -0.2518  0.2776
  358TMC3    C3 5359   2.020   0.934   0.735  0.4796 -0.4821  0.3854
  358TMC3    C4 5360   2.024   1.032   0.994 -0.0306 -0.8037  0.3581
  358TMC3    C5 5361   2.071   0.902   0.962 -0.3749  0.4219 -0.1458
  358TMC3    C6 5362   2.053   0.848   0.837 -0.2541  0.0685 -0.1111
  358TMC3     C 5363   1.963   1.245   0.915  0.1416  0.2393 -0.1400
  358TMC3     O 5364   1.911   1.266   1.027  0.1214 -0.2289  0.2457
  358TMC3     H 5365   1.972   1.135   0.678 -1.9192 -1.8687  0.2481
  358TMC3    H1 5366   2.036   1.079   1.091 -0.6291  2.6285 -1.2316
  358TMC3    H2 5367   2.082   0.746   0.813  1.0507 -0.0103  1.8010
  358TMC3    C7 5368   2.137   0.815   1.062 -0.2332 -1.1110 -0.0005
  358TMC3    C8 5369   1.996   0.891   0.600  0.7775 -0.4029  0.2975
  358TMC3    O1 5370   2.158   0.702   1.025 -0.1940 -0.3058  0.1536
  358TMC3    O2 5371   2.006   0.977   0.514 -0.0855  0.3591  0.5026
  359MPD2     C 5372   2.132   0.250  12.691  0.5735  0.4082  0.0185
  359MPD2    C1 5373   2.099   0.151  12.602  0.5809  0.3420  0.1873
  359MPD2    C2 5374   1.980   0.079  12.615 -0.4587 -0.1292  0.6366
  359MPD2    C3 5375   1.895   0.101  12.723  0.6267 -0.7634 -0.1092
  359MPD2    C4 5376   1.934   0.200  12.812  0.0817  0.2528 -1.1530
  359MPD2    C5 5377   2.048   0.269  12.795  0.0661  0.3012 -0.4544
  359MPD2     H 5378   1.944   0.008  12.541  2.5578 -0.3584 -0.6040
  359MPD2    H1 5379   1.882   0.212  12.906  2.3912 -0.9269  0.2730
  359MPD2    H2 5380   2.216   0.317  12.681  0.4656  0.7041  1.1068
  359MPD2    H3 5381   2.068   0.349  12.865 -0.2226  0.5147 -0.6184
  359MPD2     N 5382   1.776   0.035  12.746  0.3908  0.3544 -0.3149
  359MPD2    H5 5383   1.741   0.041  12.841  1.2644  0.5999 -0.0002
  359MPD2    N1 5384   2.183   0.114  12.492 -0.6958  0.1327  0.1672
  359MPD2    H7 5385   2.156   0.032  12.438 -0.6404  0.8821 -0.9885
  360TMC3    C1 5386   2.352   0.137  12.334  0.4260 -0.0377  0.6769
  360TMC3    C2 5387   2.478   0.186  12.310 -0.3025 -0.3914 -0.4406
  360TMC3    C3 5388   2.509   0.246  12.191  0.4672  0.1618  0.2727
  360TMC3    C4 5389   2.265   0.140  12.229  0.3794 -0.4962  0.1895
  360TMC3    C5 5390   2.305   0.210  12.116 -0.3266  0.0627 -0.1599
  360TMC3    C6 5391   2.426   0.264  12.089  0.7420 -0.3201 -0.2008
  360TMC3     C 5392   2.295   0.181  12.457 -0.4169 -0.6771  0.0411
  360TMC3     O 5393   2.353   0.279  12.509 -0.2850 -0.3604  0.4445
  360TMC3     H 5394   2.547   0.196  12.394 -2.2076 -0.9250  1.1880
  360TMC3    H1 5395   2.165   0.099  12.238  0.5326 -1.0112 -0.4902
  360TMC3    H2 5396   2.457   0.311  11.997 -0.1637  2.4062  0.8963
  360TMC3    C7 5397   2.215   0.214  11.994 -0.1967  0.5596 -0.1001
  360TMC3    C8 5398   2.633   0.321  12.172  0.5694 -1.3328 -0.1071
  360TMC3    O1 5399   2.270   0.191  11.887 -1.0696 -0.0883  0.3482
  360TMC3    O2 5400   2.631   0.407  12.085 -0.7659  0.3392  0.2418
  361MPD2     C 5401   3.982   4.093  16.910  0.1453 -0.2038  0.5042
  361MPD2    C1 5402   3.921   4.037  17.021 -0.0735  0.1571  0.0393
  361MPD2    C2 5403   3.984   3.928  17.081  0.6086  0.3968 -0.2978
  361MPD2    C3 5404   4.105   3.883  17.039 -0.1445  0.1539 -0.4106
  361MPD2    C4 5405   4.162   3.935  16.926  0.1791 -0.2536 -0.1047
  361MPD2    C5 5406   4.096   4.040  16.859 -0.6696 -0.3238  0.2016
  361MPD2     H 5407   3.938   3.872  17.161  0.0854  1.8167  0.4075
  361MPD2    H1 5408   4.252   3.890  16.886  1.5644  2.1550  0.2693
  361MPD2    H2 5409   3.927   4.166  16.851  1.3775  0.3342  0.0349
  361MPD2    H3 5410   4.132   4.079  16.764 -0.1073 -1.7004 -0.1545
  361MPD2     N 5411   4.173   3.775  17.101  0.2887  0.4147  0.0863
  361MPD2    H5 5412   4.259   3.745  17.057  0.4355 -0.6504  1.1070
  361MPD2    N1 5413   3.790   4.089  17.056 -0.6710  0.3766 -0.0666
  361MPD2    H7 5414   3.743   4.158  16.997 -0.0049  2.1980  1.5382
  362TMC3    C1 5415   3.578   4.059  17.154  0.4248 -0.5047 -0.1912
  362TMC3    C2 5416   3.508   4.062  17.266 -0.2762  0.2736  0.5694
  362TMC3    C3 5417   3.379   4.102  17.252 -0.5392 -0.0073 -0.1091
  362TMC3    C4 5418   3.529   4.082  17.027 -0.3905 -0.2988 -0.4861
  362TMC3    C5 5419   3.391   4.105  17.021 -0.7977  0.1433  0.1073
  362TMC3    C6 5420   3.319   4.134  17.134  0.1719  0.3197  0.3669
  362TMC3     C 5421   3.718   4.043  17.164  0.0115 -0.6396 -0.6951
  362TMC3     O 5422   3.751   3.968  17.255 -0.1929  0.3538  0.1875
  362TMC3     H 5423   3.552   4.031  17.361 -1.7041  0.1267  1.1816
  362TMC3    H1 5424   3.585   4.069  16.935  1.0232  1.4984  0.1174
  362TMC3    H2 5425   3.214   4.158  17.140 -0.2653 -1.9519  1.9631
  362TMC3    C7 5426   3.327   4.113  16.894  0.2291 -0.0389 -0.8560
  362TMC3    C8 5427   3.285   4.045  17.343 -0.6451 -0.0025 -0.5990
  362TMC3    O1 5428   3.214   4.155  16.880  0.4489  0.0831  0.0838
  362TMC3    O2 5429   3.295   3.928  17.377  0.1504  0.5323 -0.4238
  363TMC3    C1 5430   2.672   1.894   9.823 -0.1268  0.7618  0.0747
  363TMC3    C2 5431   2.627   1.785   9.902 -0.5724  0.1523 -0.1561
  363TMC3    C3 5432   2.722   1.709   9.962 -0.8245 -0.3634 -0.1948
  363TMC3    C4 5433   2.806   1.922   9.812  0.6868  0.6717 -0.0649
  363TMC3    C5 5434   2.895   1.844   9.880 -0.1581  0.4312  0.1195
  363TMC3    C6 5435   2.854   1.735   9.951 -0.0734  0.2749 -0.6110
  363TMC3     C 5436   2.575   1.944   9.721 -0.1582 -0.0310  0.1446
  363TMC3     O 5437   2.465   1.882   9.714 -0.5342  0.6757  0.3725
  363TMC3     H 5438   2.523   1.753   9.899 -0.3118 -0.8589  1.6314
  363TMC3    H1 5439   2.835   1.986   9.729  1.1836  2.5947  1.6063
  363TMC3    H2 5440   2.918   1.686  10.023 -1.1390  0.4524  0.4535
  363TMC3    C7 5441   3.035   1.877   9.893  0.3489  1.0558  0.6402
  363TMC3    C8 5442   2.676   1.579  10.016  0.1043 -0.0709 -0.4909
  363TMC3    O1 5443   3.111   1.784   9.906 -0.2600 -0.9205 -0.6119
  363TMC3    O2 5444   2.564   1.567  10.065 -0.2166 -0.5404 -0.4136
  364MPD2     C 5445   1.724   0.521  10.049  0.2819 -0.4110 -0.6405
  364MPD2    C1 5446   1.692   0.607  10.151 -0.4570 -0.9401 -0.9211
  364MPD2    C2 5447   1.587   0.589  10.240  0.2484  0.7505 -0.0149
  364MPD2    C3 5448   1.512   0.472  10.219 -0.2728  0.0960  0.2132
  364MPD2    C4 5449   1.541   0.388  10.111 -0.1003  0.3995 -0.4522
  364MPD2    C5 5450   1.640   0.415  10.023 -0.1964 -0.1756  0.0829
  364MPD2     H 5451   1.570   0.654  10.325  0.3635  0.4880  0.2090
  364MPD2    H1 5452   1.483   0.300  10.088 -1.3748  1.8325 -2.7138
  364MPD2    H2 5453   1.800   0.545   9.976  2.9201  1.5583  2.7768
  364MPD2    H3 5454   1.650   0.349   9.938 -0.2362 -0.0203 -0.0423
  364MPD2     N 5455   1.415   0.425  10.323  0.5289  0.6391 -0.2256
  364MPD2    H5 5456   1.372   0.334  10.313  0.7257  0.3806  1.2874
  364MPD2    N1 5457   1.779   0.724  10.160  0.6111 -0.6030  0.6711
  364MPD2    H7 5458   1.852   0.733  10.090  0.2080 -0.3340  0.2899
  365TMC3    C1 5459   1.891   0.911  10.259 -0.0303 -0.6946  0.0978
  365TMC3    C2 5460   2.012   0.855  10.244 -0.2116 -0.6928 -0.3216
  365TMC3    C3 5461   2.114   0.939  10.280  0.4190 -0.4930  0.3666
  365TMC3    C4 5462   1.867   1.035  10.318  0.0099  0.2466 -0.2478
  365TMC3    C5 5463   1.980   1.112  10.345 -0.3734  0.0343  1.0014
  365TMC3    C6 5464   2.102   1.063  10.325 -0.3481  0.0924 -0.2716
  365TMC3     C 5465   1.780   0.814  10.263  0.3042  0.4685 -0.4808
  365TMC3     O 5466   1.707   0.822  10.359  0.2831 -0.2973 -0.0467
  365TMC3     H 5467   2.034   0.765  10.187  1.2317 -1.0813  0.8531
  365TMC3    H1 5468   1.765   1.065  10.337  0.1475  0.4930  0.1185
  365TMC3    H2 5469   2.187   1.121  10.359  0.9879 -1.7379 -0.4710
  365TMC3    C7 5470   1.962   1.247  10.373 -0.3269  0.4640  0.6215
  365TMC3    C8 5471   2.253   0.891  10.279 -0.3614 -0.6046  0.7243
  365TMC3    O1 5472   2.047   1.326  10.336  0.1272 -0.2245 -0.5385
  365TMC3    O2 5473   2.335   0.984  10.286 -0.1598 -0.4961 -0.1419
  366MPD2     C 5474   3.996   1.891  15.733 -0.2649  0.1020  0.2972
  366MPD2    C1 5475   4.035   1.908  15.599 -0.1985 -0.6040  0.2703
  366MPD2    C2 5476   4.058   1.800  15.520 -0.1273  0.2653 -0.1821
  366MPD2    C3 5477   4.053   1.669  15.573 -0.4110  0.5911 -0.0560
  366MPD2    C4 5478   4.040   1.653  15.709  0.3772 -0.6090 -0.2287
  366MPD2    C5 5479   4.007   1.763  15.780 -0.2193 -0.1581 -0.5063
  366MPD2     H 5480   4.078   1.809  15.413 -4.0593 -0.7803 -0.9993
  366MPD2    H1 5481   4.056   1.557  15.756 -3.1525 -0.3073  1.5341
  366MPD2    H2 5482   3.984   1.972  15.804  0.8262 -0.4055  1.0696
  366MPD2    H3 5483   3.993   1.747  15.886 -1.7363  0.9694 -0.5461
  366MPD2     N 5484   4.077   1.557  15.496 -0.3543  0.4042 -0.1037
  366MPD2    H5 5485   4.037   1.472  15.535 -2.8391  1.2354 -0.8605
  366MPD2    N1 5486   4.054   2.042  15.559 -0.2146  0.5140 -0.4970
  366MPD2    H7 5487   4.049   2.112  15.632  2.9153 -0.1210  0.3092
  367TMC3    C1 5488   4.085   2.225  15.426 -0.1660 -0.4724 -0.5822
  367TMC3    C2 5489   4.100   2.289  15.546  0.5432  0.0452  0.1970
  367TMC3    C3 5490   4.088   2.429  15.533 -0.3712  0.8727  0.2962
  367TMC3    C4 5491   4.068   2.283  15.306 -0.3462 -0.0496 -0.2403
  367TMC3    C5 5492   4.057   2.417  15.302 -1.0714 -0.4147  0.1846
  367TMC3    C6 5493   4.063   2.491  15.416 -0.4642 -0.2708 -0.4501
  367TMC3     C 5494   4.088   2.082  15.434 -0.2569 -0.3024 -0.0180
  367TMC3     O 5495   4.121   2.023  15.335 -0.0176 -0.1080  0.1166
  367TMC3     H 5496   4.129   2.252  15.644 -0.5795  1.2977  1.0048
  367TMC3    H1 5497   4.047   2.222  15.219  0.6902  0.1121 -0.6057
  367TMC3    H2 5498   4.072   2.597  15.400  0.0210 -0.1434  0.6837
  367TMC3    C7 5499   4.035   2.494  15.185 -0.6900 -0.3241 -0.2065
  367TMC3    C8 5500   4.154   2.495  15.637 -0.1513  0.0444  0.2949
  367TMC3    O1 5501   3.929   2.553  15.174  0.0423  0.1388 -0.6031
  367TMC3    O2 5502   4.217   2.429  15.719 -0.1189  0.3875  0.4336
  368MPD2     C 5503   1.029   3.815  13.615 -0.1875  0.2920  0.5081
  368MPD2    C1 5504   1.071   3.866  13.490 -0.8232 -0.4066 -0.0934
  368MPD2    C2 5505   1.206   3.878  13.466  0.1482  0.4340 -0.2529
  368MPD2    C3 5506   1.296   3.850  13.564  0.1676 -0.3376  0.7132
  368MPD2    C4 5507   1.255   3.810  13.692 -0.1941 -0.4575 -0.1413
  368MPD2    C5 5508   1.126   3.789  13.714  0.8160  0.1144  0.9963
  368MPD2     H 5509   1.244   3.899  13.367  0.3618 -0.3406 -0.3407
  368MPD2    H1 5510   1.323   3.787  13.772  0.4113  4.0066  0.6207
  368MPD2    H2 5511   0.926   3.797  13.642  0.6769 -4.2357  0.7033
  368MPD2    H3 5512   1.098   3.752  13.812  2.0170  0.5989  1.5187
  368MPD2     N 5513   1.434   3.852  13.557 -0.2236  0.0091  0.1305
  368MPD2    H5 5514   1.489   3.821  13.636  1.4119  1.3847 -0.4626
  368MPD2    N1 5515   0.974   3.896  13.391  0.7943  0.2780 -0.2463
  368MPD2    H7 5516   0.877   3.890  13.421  0.6623  0.2025 -0.6822
  369TMC3    C1 5517   0.879   3.958  13.186 -0.4749 -0.4827 -0.1054
  369TMC3    C2 5518   0.891   4.006  13.062 -0.6925  0.8672  0.7962
  369TMC3    C3 5519   0.779   4.018  12.979 -0.6119  0.0391 -0.7306
  369TMC3    C4 5520   0.752   3.934  13.235 -0.2828  0.2159  1.0665
  369TMC3    C5 5521   0.639   3.957  13.159 -0.2199 -0.0329 -0.4858
  369TMC3    C6 5522   0.655   3.989  13.026 -0.5534 -0.0559  0.0201
  369TMC3     C 5523   0.998   3.946  13.271 -0.0205  0.3071  0.5019
  369TMC3     O 5524   1.104   3.973  13.214  0.3977 -0.3800  0.2425
  369TMC3     H 5525   0.990   4.027  13.024 -1.9886 -0.1120 -3.0853
  369TMC3    H1 5526   0.733   3.895  13.334 -0.1777  0.8445  1.3405
  369TMC3    H2 5527   0.566   4.007  12.966 -1.5205 -1.3636  1.0785
  369TMC3    C7 5528   0.509   3.900  13.207  0.1760  1.0112  0.5323
  369TMC3    C8 5529   0.779   4.085  12.849 -0.0297 -0.6325 -0.5596
  369TMC3    O1 5530   0.517   3.826  13.305 -0.0339 -0.0747  0.2861
  369TMC3    O2 5531   0.670   4.092  12.790  0.4042  0.3793 -0.0142
  370TMC3    C1 5532   0.145   4.651  16.574 -0.8399  0.3621  0.3052
  370TMC3    C2 5533   0.155   4.577  16.690 -0.8557  0.5905  0.8047
  370TMC3    C3 5534   0.225   4.461  16.696  0.2699  0.3663 -0.3113
  370TMC3    C4 5535   0.202   4.607  16.454  0.2206 -0.2376  0.2081
  370TMC3    C5 5536   0.268   4.491  16.465 -0.2960 -0.2302 -0.1418
  370TMC3    C6 5537   0.289   4.422  16.588  0.6798 -0.2190  0.3256
  370TMC3     C 5538   0.090   0.060  16.584  0.3487  0.5193 -0.0616
  370TMC3     O 5539   0.041   0.086  16.693 -0.3185  0.5733  0.7135
  370TMC3     H 5540   0.102   4.603  16.781 -0.6822 -1.5667  1.5147
  370TMC3    H1 5541   0.176   4.651  16.358 -0.8577 -0.3470  0.4489
  370TMC3    H2 5542   0.330   4.322  16.583 -0.8561 -0.7894 -1.1392
  370TMC3    C7 5543   0.279   4.408  16.341  0.4073  0.0146 -0.5242
  370TMC3    C8 5544   0.224   4.381  16.816  0.0637 -0.7768 -0.1519
  370TMC3    O1 5545   0.216   4.428  16.241 -0.4456 -0.1043  0.2213
  370TMC3    O2 5546   0.229   4.264  16.796  0.2793  0.1253 -0.0154
  371TMC3    C1 5547   1.458   2.762  15.787  1.1030 -0.0208  0.0376
  371TMC3    C2 5548   1.424   2.803  15.911  0.2285  0.3669 -0.3454
  371TMC3    C3 5549   1.386   2.934  15.925  0.4691  0.1064 -0.4007
  371TMC3    C4 5550   1.473   2.847  15.681 -0.2457 -0.4638 -0.4903
  371TMC3    C5 5551   1.425   2.971  15.695 -0.1262  0.3425 -0.3894
  371TMC3    C6 5552   1.387   3.021  15.816  0.0059 -0.0907 -0.4123
  371TMC3     C 5553   1.506   2.621  15.775 -0.2233 -0.1031 -0.7141
  371TMC3     O 5554   1.599   2.602  15.699 -0.7876  0.1450 -0.0188
  371TMC3     H 5555   1.408   2.734  15.993  1.1686  0.4533 -0.0832
  371TMC3    H1 5556   1.516   2.808  15.590  0.4188 -0.1501 -0.3122
  371TMC3    H2 5557   1.360   3.125  15.831 -1.2622 -0.8010  2.2695
  371TMC3    C7 5558   1.436   3.069  15.580  0.1709  1.6789  0.0674
  371TMC3    C8 5559   1.411   2.988  16.060  0.6735 -0.6056  0.3975
  371TMC3    O1 5560   1.434   3.190  15.588  0.4783 -0.0319 -0.2969
  371TMC3    O2 5561   1.458   2.917  16.143 -0.3736 -0.0944 -0.0014
  372MPD2     C 5562   0.753   4.132  13.606  0.1656  0.2702  0.2207
  372MPD2    C1 5563   0.825   4.098  13.717  0.3605 -0.0643  0.0435
  372MPD2    C2 5564   0.786   3.992  13.793 -0.0651 -0.6828 -0.0126
  372MPD2    C3 5565   0.687   3.905  13.761 -0.1614 -0.0642  0.1123
  372MPD2    C4 5566   0.621   3.939  13.642  0.6455 -0.1803  0.2848
  372MPD2    C5 5567   0.651   4.050  13.567  0.3677 -1.3074 -0.2458
  372MPD2     H 5568   0.844   3.974  13.883 -0.7654  0.9860  0.7650
  372MPD2    H1 5569   0.540   3.880  13.599  1.7765 -2.5604  1.4866
  372MPD2    H2 5570   0.790   4.213  13.544 -0.6219  1.0846  0.8267
  372MPD2    H3 5571   0.590   4.081  13.483 -0.3401 -0.1629  0.6842
  372MPD2     N 5572   0.655   3.794  13.845  0.4218  0.0686 -0.0089
  372MPD2    H5 5573   0.709   3.784  13.930 -2.6175 -0.8031  1.8448
  372MPD2    N1 5574   0.945   4.158  13.751  0.0839  0.2309 -0.4215
  372MPD2    H7 5575   0.998   4.127  13.832 -0.9310 -1.4938 -0.4033
  373TMC3    C1 5576   0.596   3.579  13.907  0.5114  0.3275 -0.2043
  373TMC3    C2 5577   0.605   3.610  14.038 -0.5876  0.2138  0.3151
  373TMC3    C3 5578   0.690   3.542  14.121  0.0792  0.3801 -0.3017
  373TMC3    C4 5579   0.671   3.472  13.862 -0.5183  0.3147  0.2914
  373TMC3    C5 5580   0.753   3.400  13.943  0.1776  0.1540  0.4084
  373TMC3    C6 5581   0.776   3.442  14.075 -0.5236  0.1367  0.4919
  373TMC3     C 5582   0.582   3.686  13.807  0.5664 -0.1130 -0.3389
  373TMC3     O 5583   0.531   3.660  13.698  0.2732 -0.2994  0.8331
  373TMC3     H 5584   0.559   3.704  14.068  1.3336  0.3648  2.7578
  373TMC3    H1 5585   0.673   3.450  13.756  3.6084  0.5827  0.2952
  373TMC3    H2 5586   0.856   3.402  14.137 -0.5088  0.4684  0.6895
  373TMC3    C7 5587   0.832   3.300  13.887 -0.2401 -0.3623  0.3867
  373TMC3    C8 5588   0.723   3.608  14.242 -0.4373  0.8723  0.0392
  373TMC3    O1 5589   0.802   3.249  13.780  0.3398  0.7585  0.3143
  373TMC3    O2 5590   0.836   3.593  14.291  0.6905  0.0373  0.4085
  374TMC3    C1 5591   1.493   3.724  10.310  0.1137 -0.1897 -0.0097
  374TMC3    C2 5592   1.537   3.850  10.322 -0.0422 -0.0698 -0.1408
  374TMC3    C3 5593   1.454   3.958  10.295 -0.0036 -0.1280 -0.1668
  374TMC3    C4 5594   1.362   3.688  10.272 -0.7294  0.1697 -0.6109
  374TMC3    C5 5595   1.285   3.801  10.238  0.4835  0.3298  0.2960
  374TMC3    C6 5596   1.324   3.931  10.248 -0.1983  0.5850 -0.4897
  374TMC3     C 5597   1.578   3.620  10.366 -0.3763  0.3532 -0.2018
  374TMC3     O 5598   1.699   3.647  10.359  0.0629  0.0130  0.1810
  374TMC3     H 5599   1.643   3.863  10.343  0.4205 -2.0906 -1.2422
  374TMC3    H1 5600   1.328   3.588  10.247  0.7347 -0.5354  0.2327
  374TMC3    H2 5601   1.260   4.011  10.213 -1.2532  0.4854  1.1952
  374TMC3    C7 5602   1.138   3.781  10.230 -0.5486  0.3388  0.1631
  374TMC3    C8 5603   1.487   4.092  10.330  0.3839 -0.3101  0.2712
  374TMC3    O1 5604   1.064   3.876  10.222  0.4383 -0.3577  0.2825
  374TMC3    O2 5605   1.415   4.180  10.289  0.1602  0.1424 -0.2763
  375MPD2     C 5606   0.737   0.235  16.526  0.5101 -0.0208  0.0837
  375MPD2    C1 5607   0.832   0.249  16.630  0.3310  0.2990 -0.2465
  375MPD2    C2 5608   0.965   0.218  16.605  0.0675 -0.2312 -0.1857
  375MPD2    C3 5609   1.010   0.180  16.477 -0.8472  0.4390  0.0424
  375MPD2    C4 5610   0.914   0.185  16.369 -0.2136  0.2477  0.1104
  375MPD2    C5 5611   0.781   0.210  16.399  0.7446 -0.1232  0.3005
  375MPD2     H 5612   1.038   0.235  16.683  0.0826 -0.1248 -0.2225
  375MPD2    H1 5613   0.953   0.164  16.271  0.4236  2.5170 -0.1246
  375MPD2    H2 5614   0.630   0.236  16.543  0.6079 -0.8360  0.7402
  375MPD2    H3 5615   0.710   0.193  16.319  1.0741  0.3512 -0.0954
  375MPD2     N 5616   1.140   0.124  16.452  0.1441  0.4163 -1.4572
  375MPD2    H5 5617   1.178   0.117  16.359  2.9236  0.7244 -0.3410
  375MPD2    N1 5618   0.792   0.293  16.756 -0.3811 -0.0439  0.2280
  375MPD2    H7 5619   0.859   0.304  16.831  0.2199 -2.8802  0.1028
  376TMC3    C1 5620   1.348   0.014  16.496 -0.0614  0.1042  0.7431
  376TMC3    C2 5621   1.433   4.681  16.586 -0.7694  0.4188  0.3125
  376TMC3    C3 5622   1.539   4.612  16.544 -0.6379  0.2283 -0.2380
  376TMC3    C4 5623   1.363   4.713  16.367 -0.2403  0.4857 -0.2500
  376TMC3    C5 5624   1.466   4.638  16.320 -0.1518 -0.4666 -1.0783
  376TMC3    C6 5625   1.562   4.598  16.408 -0.4631  0.6544 -1.2172
  376TMC3     C 5626   1.220   0.070  16.547 -0.2621  0.4774 -0.4467
  376TMC3     O 5627   1.211   0.084  16.670 -0.1900 -0.4729 -0.5505
  376TMC3     H 5628   1.417   4.687  16.693 -1.6377  0.6524  0.1641
  376TMC3    H1 5629   1.282   0.015  16.300  0.0614 -0.0610 -0.8065
  376TMC3    H2 5630   1.653   4.551  16.372 -0.1182  1.1355 -0.9908
  376TMC3    C7 5631   1.504   4.669  16.180  0.1686 -0.4874  0.2480
  376TMC3    C8 5632   1.648   4.568  16.635 -0.1615 -0.6853  0.8086
  376TMC3    O1 5633   1.454   0.045  16.126 -0.0072 -0.6109  0.8384
  376TMC3    O2 5634   1.608   4.508  16.733 -0.8050 -0.1674  0.2154
  377MPD2     C 5635   4.207   4.111  11.954 -0.6216 -0.5163  0.1808
  377MPD2    C1 5636   4.305   4.073  12.049 -0.1504  0.2935  0.1700
  377MPD2    C2 5637   4.255   4.044  12.178  0.2950  0.3655 -0.1356
  377MPD2    C3 5638   4.122   4.060  12.219  0.1589 -0.8089 -0.7470
  377MPD2    C4 5639   4.038   4.114  12.125 -0.4600  0.4428 -0.6505
  377MPD2    C5 5640   4.078   4.132  11.999  0.5991  0.5491 -0.1279
  377MPD2     H 5641   4.328   4.004  12.246  1.0341  1.3083 -0.3609
  377MPD2    H1 5642   3.934   4.136  12.148 -1.0337 -0.4524 -2.3700
  377MPD2    H2 5643   4.213   4.136  11.848  0.6173  1.9311  0.8362
  377MPD2    H3 5644   4.009   4.173  11.926  0.3901 -0.6825 -0.6093
  377MPD2     N 5645   4.082   4.054  12.354  0.2410 -0.5829 -0.4289
  377MPD2    H5 5646   3.988   4.085  12.376  0.2452 -0.3270 -0.7720
  377MPD2    N1 5647   4.440   4.066  12.005  0.3248 -0.4547 -0.2113
  377MPD2    H7 5648   4.462   4.097  11.911 -1.6864 -0.2956 -0.6295
  378TMC3    C1 5649   0.068   3.972  11.832  0.4825 -0.1391  0.0013
  378TMC3    C2 5650   4.668   4.012  11.886 -0.4395 -0.0274  0.7515
  378TMC3    C3 5651   4.672   4.035  12.019  0.4736 -0.4083  0.2839
  378TMC3    C4 5652   0.182   3.961  11.903  0.4639  0.7339 -0.1800
  378TMC3    C5 5653   0.176   3.980  12.042 -0.0059 -0.0430  0.2457
  378TMC3    C6 5654   0.058   4.015  12.104 -0.7711  0.3979  0.2376
  378TMC3     C 5655   0.084   3.982  11.684 -0.2957 -0.3086 -0.0132
  378TMC3     O 5656   4.712   3.943  11.614  0.2906  0.0965 -0.0438
  378TMC3     H 5657   4.578   3.998  11.828  0.5876 -0.2901 -0.8053
  378TMC3    H1 5658   0.273   3.933  11.852  0.4573  0.0754  0.1600
  378TMC3    H2 5659   0.048   4.013  12.212  2.4814  0.4516  0.5257
  378TMC3    C7 5660   0.301   3.966  12.120 -0.8140  0.0839 -0.1379
  378TMC3    C8 5661   4.546   4.042  12.086  0.4600 -0.4933 -0.3081
  378TMC3    O1 5662   0.307   4.014  12.229 -0.1438  0.3216 -0.4706
  378TMC3    O2 5663   4.544   4.043  12.207  0.1957 -0.0505 -0.2277
  379MPD2     C 5664   0.725   2.830  15.957 -0.5145  0.0067 -0.2776
  379MPD2    C1 5665   0.620   2.764  16.015 -0.5843  0.4673  0.3172
  379MPD2    C2 5666   0.641   2.707  16.144  0.3489 -0.0154 -0.5504
  379MPD2    C3 5667   0.775   2.711  16.201  0.5286 -0.5934  0.0224
  379MPD2    C4 5668   0.879   2.775  16.137  0.2032 -0.4066 -0.0680
  379MPD2    C5 5669   0.846   2.834  16.018 -0.0677  0.9236 -0.2897
  379MPD2     H 5670   0.555   2.674  16.202  1.0275 -0.0434  0.4353
  379MPD2    H1 5671   0.978   2.787  16.179 -0.2706  0.3059  0.8560
  379MPD2    H2 5672   0.708   2.875  15.860  0.9193 -1.3475 -1.1519
  379MPD2    H3 5673   0.926   2.891  15.972  0.8240 -0.3574 -0.3343
  379MPD2     N 5674   0.815   2.631  16.311  0.2822 -0.2637  0.0849
  379MPD2    H5 5675   0.914   2.629  16.332  0.3261  2.5682  0.1578
  379MPD2    N1 5676   0.496   2.778  15.954  0.2486  0.9890  0.4034
  379MPD2    H7 5677   0.497   2.824  15.863 -2.5413  3.6928  1.7446
  380TMC3    C1 5678   0.269   2.768  15.917  0.3528 -0.0073 -0.1960
  380TMC3    C2 5679   0.297   2.737  15.788  0.0044  0.0996  0.3879
  380TMC3    C3 5680   0.196   2.712  15.701 -0.3968  0.1390 -0.2729
  380TMC3    C4 5681   0.141   2.786  15.960  0.0985  0.4179  0.1105
  380TMC3    C5 5682   0.040   2.754  15.872  0.0917 -0.3969  0.6431
  380TMC3    C6 5683   0.067   2.731  15.744  0.4227  0.2714 -0.6370
  380TMC3     C 5684   0.380   2.733  16.006 -0.1727 -0.4633 -0.1999
  380TMC3     O 5685   0.342   2.675  16.105 -0.1870  0.4023 -0.2044
  380TMC3     H 5686   0.396   2.706  15.755 -0.0634  2.2526 -1.9034
  380TMC3    H1 5687   0.121   2.791  16.066 -0.0551 -0.2999  0.1205
  380TMC3    H2 5688   4.713   2.715  15.668 -1.1006  0.6565  0.8092
  380TMC3    C7 5689   4.631   2.818  15.891 -0.5149 -0.1158 -0.1574
  380TMC3    C8 5690   0.221   2.667  15.565  0.2724 -0.3635 -0.0637
  380TMC3    O1 5691   4.631   2.928  15.948 -0.4621  0.2788  0.4135
  380TMC3    O2 5692   0.329   2.696  15.513 -0.3510 -0.1578  0.0161
  381TMC3    C1 5693   0.366   3.758  16.550 -0.0594  0.2282  0.5491
  381TMC3    C2 5694   0.425   3.880  16.557 -0.2521  0.0155  0.4890
  381TMC3    C3 5695   0.394   3.958  16.668 -0.3237 -0.6227 -0.4131
  381TMC3    C4 5696   0.284   3.703  16.655 -0.1677 -0.4536 -0.3555
  381TMC3    C5 5697   0.267   3.780  16.768  0.5041  0.3087  0.0856
  381TMC3    C6 5698   0.309   3.911  16.772 -0.3044 -0.2808 -0.2603
  381TMC3     C 5699   0.393   3.673  16.435 -0.1751  0.2927  0.0153
  381TMC3     O 5700   0.462   3.719  16.344 -0.1976 -0.4661  0.0577
  381TMC3     H 5701   0.499   3.913  16.485  0.5423 -1.1555  0.7611
  381TMC3    H1 5702   0.248   3.601  16.653 -0.3746 -0.3994  0.6111
  381TMC3    H2 5703   0.285   3.984  16.849 -2.0599 -0.9486 -0.1786
  381TMC3    C7 5704   0.208   3.719  16.879 -0.6648 -0.8389 -0.4854
  381TMC3    C8 5705   0.467   4.078  16.685 -0.8483  0.2032 -0.1994
  381TMC3    O1 5706   0.199   3.596  16.881  0.1390 -0.1398  0.0690
  381TMC3    O2 5707   0.542   4.108  16.594 -1.0977  0.2122 -1.0233
  382MPD2     C 5708   3.962   1.630  17.166  0.2707 -0.3652 -0.5266
  382MPD2    C1 5709   4.030   1.624  17.291 -1.1226  0.5488  0.0055
  382MPD2    C2 5710   4.026   1.503  17.356 -0.4323  0.1124 -0.2783
  382MPD2    C3 5711   3.966   1.381  17.306 -0.0166  0.2338 -0.0898
  382MPD2    C4 5712   3.903   1.396  17.186  0.0403  0.1582  0.4626
  382MPD2    C5 5713   3.897   1.516  17.119 -0.5188  0.2053 -0.0388
  382MPD2     H 5714   4.063   1.497  17.457  1.3970  2.5608 -0.7674
  382MPD2    H1 5715   3.842   1.316  17.145  0.1198  2.0602 -3.4125
  382MPD2    H2 5716   3.964   1.721  17.108  0.5724  0.5416  0.9268
  382MPD2    H3 5717   3.846   1.525  17.024 -0.0283 -0.5579 -0.3779
  382MPD2     N 5718   3.956   1.254  17.374 -0.4137  0.4089  0.2104
  382MPD2    H5 5719   3.909   1.180  17.322  2.6458 -1.0486 -0.4784
  382MPD2    N1 5720   4.092   1.738  17.344 -0.1035 -0.2091  0.1073
  382MPD2    H7 5721   4.141   1.726  17.432  0.3341 -0.5357 -0.1783
  383TMC3    C1 5722   4.012   1.087  17.528 -0.4937  0.9481 -0.0718
  383TMC3    C2 5723   3.901   1.017  17.496  0.5084 -0.6347  0.0317
  383TMC3    C3 5724   3.875   0.902  17.564 -0.2849  0.4199 -0.0516
  383TMC3    C4 5725   4.095   1.046  17.624 -0.4373 -0.1684  0.2035
  383TMC3    C5 5726   4.077   0.921  17.679  0.3229 -0.5352 -1.1745
  383TMC3    C6 5727   3.971   0.846  17.653  0.4141  0.5763 -1.0487
  383TMC3     C 5728   4.036   1.219  17.476 -0.4115  0.0760  0.3497
  383TMC3     O 5729   4.119   1.283  17.538 -0.5913  0.0507 -0.3494
  383TMC3     H 5730   3.823   1.065  17.436  0.3893  0.4774  1.0836
  383TMC3    H1 5731   4.174   1.112  17.660  0.7093 -1.8092  0.6714
  383TMC3    H2 5732   3.974   0.741  17.677  1.5866  0.8180 -0.1624
  383TMC3    C7 5733   4.197   0.852   0.030 -0.0377 -0.0762  0.0173
  383TMC3    C8 5734   3.761   0.824  17.514 -0.4917  0.3249 -0.8973
  383TMC3    O1 5735   4.192   0.757   0.108  0.1594 -0.0594 -0.9643
  383TMC3    O2 5736   3.690   0.888  17.436  0.3420 -0.3788  0.3295
  384MPD2     C 5737   1.334   2.120  12.527 -0.3366  0.2348 -0.0184
  384MPD2    C1 5738   1.329   1.986  12.487  0.0009 -0.1699  0.9977
  384MPD2    C2 5739   1.411   1.956  12.373  0.1832  1.1580 -0.0505
  384MPD2    C3 5740   1.468   2.052  12.298  0.6381 -0.2271 -0.3105
  384MPD2    C4 5741   1.466   2.184  12.336 -0.5245 -0.0545  0.2939
  384MPD2    C5 5742   1.400   2.214  12.451 -0.2925  0.1793 -0.6716
  384MPD2     H 5743   1.425   1.854  12.339  0.0985  0.9006  0.6754
  384MPD2    H1 5744   1.520   2.257  12.275  0.2776  0.5945  1.7919
  384MPD2    H2 5745   1.279   2.158  12.613 -1.4559 -1.5266  0.0293
  384MPD2    H3 5746   1.389   2.315  12.487  0.2221 -0.1490  0.3855
  384MPD2     N 5747   1.524   2.009  12.182 -0.0870  0.1238  0.0664
  384MPD2    H5 5748   1.503   1.911  12.163 -0.1146 -0.0732  1.1150
  384MPD2    N1 5749   1.249   1.887  12.549  0.3767  0.7450  0.1513
  384MPD2    H7 5750   1.255   1.800  12.498  0.3575  0.5194  0.5361
  385TMC3    C1 5751   1.656   1.980  11.989  0.2828 -0.0539  0.0902
  385TMC3    C2 5752   1.629   2.037  11.870  0.1393 -0.0905 -0.1347
  385TMC3    C3 5753   1.536   1.984  11.783  0.3080 -0.3658  0.1446
  385TMC3    C4 5754   1.615   1.846  12.000 -0.0791  0.4863  0.1442
  385TMC3    C5 5755   1.528   1.794  11.910 -0.2409  0.5368 -0.2810
  385TMC3    C6 5756   1.492   1.857  11.795  0.0736  0.0354  0.6901
  385TMC3     C 5757   1.613   2.071  12.095  0.3365 -0.3843 -0.2915
  385TMC3     O 5758   1.653   2.183  12.093 -0.4213  0.8722 -0.9757
  385TMC3     H 5759   1.664   2.138  11.854 -1.4522  0.6554  1.0886
  385TMC3    H1 5760   1.658   1.789  12.081 -0.8951  0.7419  0.7527
  385TMC3    H2 5761   1.412   1.808  11.741 -1.0594  2.4736  0.1397
  385TMC3    C7 5762   1.428   1.724  11.980 -0.0274  0.4135 -0.0340
  385TMC3    C8 5763   1.569   2.028  11.647 -0.2434 -0.1991  0.5187
  385TMC3    O1 5764   1.423   1.760  12.096 -0.2193 -0.1667 -0.0524
  385TMC3    O2 5765   1.648   2.120  11.638 -0.0150 -0.1151 -0.3090
  386TMC3    C1 5766   1.628   3.964  11.719 -0.1916 -0.3197 -0.0155
  386TMC3    C2 5767   1.654   3.914  11.592 -0.4920  0.2753 -0.6392
  386TMC3    C3 5768   1.591   3.973  11.490 -0.5339  0.2836  0.5324
  386TMC3    C4 5769   1.540   4.072  11.736  0.4197  0.4980  0.2925
  386TMC3    C5 5770   1.470   4.121  11.625  0.6792  0.4436  0.0936
  386TMC3    C6 5771   1.502   4.073  11.504  0.4255 -0.3020 -0.0195
  386TMC3     C 5772   1.709   3.934  11.833  0.0904  0.1975 -0.1120
  386TMC3     O 5773   1.704   4.021  11.917  0.5682 -0.2420  0.2480
  386TMC3     H 5774   1.728   3.837  11.573 -2.1400 -0.9149 -2.2271
  386TMC3    H1 5775   1.502   4.108  11.831  0.5214  0.3223  0.4002
  386TMC3    H2 5776   1.458   4.109  11.411  2.5287 -2.1104 -1.7296
  386TMC3    C7 5777   1.338   4.183  11.646  1.0118 -0.2523 -0.3025
  386TMC3    C8 5778   1.577   3.904  11.362  0.6043 -0.0281  0.0374
  386TMC3    O1 5779   1.318   4.234  11.757  0.1756  0.0078 -0.7950
  386TMC3    O2 5780   1.555   3.966  11.255  0.0137  0.2960  1.0373
  387MPD2     C 5781   3.261   0.427   9.515 -0.0193 -0.6125 -0.2726
  387MPD2    C1 5782   3.396   0.393   9.525 -0.2248 -0.4775 -0.6677
  387MPD2    C2 5783   3.425   0.274   9.596  0.1098  0.2970  0.3111
  387MPD2    C3 5784   3.326   0.196   9.660  0.1526  0.1184 -0.7374
  387MPD2    C4 5785   3.193   0.227   9.634  0.4274 -0.3617  0.0961
  387MPD2    C5 5786   3.164   0.345   9.568 -0.4431 -0.0871 -0.1306
  387MPD2     H 5787   3.527   0.237   9.607  0.2493  0.9094  1.0881
  387MPD2    H1 5788   3.118   0.152   9.656  0.7766 -0.4618  0.9718
  387MPD2    H2 5789   3.231   0.517   9.463  0.8745 -0.0894  0.1181
  387MPD2    H3 5790   3.061   0.364   9.538 -0.8586 -2.9347 -0.4576
  387MPD2     N 5791   3.361   0.073   9.725  0.5867  0.6091  0.2144
  387MPD2    H5 5792   3.461   0.059   9.738  0.5553  0.7683  0.6277
  387MPD2    N1 5793   3.504   0.463   9.460  0.1383 -0.1003  0.1363
  387MPD2    H7 5794   3.590   0.409   9.453 -1.4862 -2.6669  0.0974
  388TMC3    C1 5795   3.591   0.574   9.278 -0.2731 -1.1590 -0.2090
  388TMC3    C2 5796   3.646   0.697   9.254 -0.2030 -0.1131  0.0211
  388TMC3    C3 5797   3.748   0.700   9.158  0.0937  0.7179 -0.2324
  388TMC3    C4 5798   3.646   0.458   9.244 -0.4835  0.7515  0.4802
  388TMC3    C5 5799   3.749   0.466   9.153  0.0235 -0.0116 -0.1225
  388TMC3    C6 5800   3.802   0.581   9.104 -0.1263  0.4812 -0.2129
  388TMC3     C 5801   3.492   0.578   9.388 -0.4854  0.0736  0.4658
  388TMC3     O 5802   3.405   0.661   9.405 -0.7908  0.4945 -0.6998
  388TMC3     H 5803   3.595   0.784   9.294  1.2206  1.2804 -1.1474
  388TMC3    H1 5804   3.589   0.368   9.265  0.9796 -0.7763 -2.0596
  388TMC3    H2 5805   3.882   0.572   9.032 -1.5206  2.2267 -1.9533
  388TMC3    C7 5806   3.797   0.335   9.109 -0.0904  0.4889  0.2612
  388TMC3    C8 5807   3.831   0.824   9.158  0.6440 -0.0195 -0.2540
  388TMC3    O1 5808   3.820   0.320   8.990  0.0859 -0.0877  1.0132
  388TMC3    O2 5809   3.807   0.911   9.246 -0.2687  0.4765 -0.8566
  389MPD2     C 5810   2.835   2.831  10.679  0.0809 -1.1515  0.0196
  389MPD2    C1 5811   2.887   2.744  10.591  0.1546 -0.3775  0.6582
  389MPD2    C2 5812   2.950   2.631  10.641 -0.9169 -0.0111 -0.4286
  389MPD2    C3 5813   2.980   2.622  10.773  0.0766 -0.2331  0.4418
  389MPD2    C4 5814   2.951   2.723  10.857 -0.3526 -0.2572 -0.3194
  389MPD2    C5 5815   2.860   2.819  10.811  0.8260  0.4879 -0.4509
  389MPD2     H 5816   2.981   2.557  10.568  1.8173 -0.6122  1.3220
  389MPD2    H1 5817   2.997   2.721  10.955 -1.9056 -0.9665  0.4017
  389MPD2    H2 5818   2.771   2.913  10.649  0.9187 -0.6700 -0.4785
  389MPD2    H3 5819   2.837   2.909  10.866  1.0570  1.1785 -1.5016
  389MPD2     N 5820   3.065   2.517  10.820  0.5334 -0.1894  0.0552
  389MPD2    H5 5821   3.102   2.515  10.914 -1.8827  0.7252  1.0122
  389MPD2    N1 5822   2.874   2.773  10.451 -0.2707  0.1604 -0.1342
  389MPD2    H7 5823   2.860   2.870  10.423 -1.0341  0.0175 -0.2444
  390TMC3    C1 5824   3.152   2.319  10.840 -0.4766  0.0089 -0.2709
  390TMC3    C2 5825   3.075   2.213  10.891 -0.3711  0.0621 -1.0475
  390TMC3    C3 5826   3.095   2.164  11.021 -0.4288  0.0159 -0.9845
  390TMC3    C4 5827   3.243   2.380  10.920 -0.4581  0.2322 -0.2940
  390TMC3    C5 5828   3.238   2.345  11.052 -0.7911  0.2458  0.6650
  390TMC3    C6 5829   3.171   2.239  11.107  0.1129 -1.1647 -0.2870
  390TMC3     C 5830   3.086   2.401  10.747  0.7260  0.5577  0.3004
  390TMC3     O 5831   3.025   2.354  10.655 -0.0814  0.1326 -0.0855
  390TMC3     H 5832   2.997   2.169  10.831  0.4249  0.4685 -2.3780
  390TMC3    H1 5833   3.293   2.470  10.887  1.8092 -1.4273 -1.3720
  390TMC3    H2 5834   3.182   2.212  11.212  1.1538 -1.2611 -0.4242
  390TMC3    C7 5835   3.206   2.467  11.128  0.2547  0.0967 -0.5647
  390TMC3    C8 5836   2.974   2.109  11.088 -0.1136 -0.2979 -0.0510
  390TMC3    O1 5837   3.174   2.567  11.063 -0.1492 -0.0036 -0.5923
  390TMC3    O2 5838   2.969   1.991  11.115  0.3162 -0.2946  0.0425
  391MPD2     C 5839   1.823   4.462  11.787 -0.6764  0.8669 -0.3086
  391MPD2    C1 5840   1.957   4.448  11.749  0.4056  0.3502  0.0973
  391MPD2    C2 5841   1.982   4.402  11.623  0.2679  0.1574  0.5004
  391MPD2    C3 5842   1.884   4.363  11.536 -0.4521  0.2516  0.1904
  391MPD2    C4 5843   1.754   4.359  11.583 -0.1597 -0.4375  0.1594
  391MPD2    C5 5844   1.723   4.415  11.706  0.4386 -0.0179 -0.2180
  391MPD2     H 5845   2.084   4.379  11.594  0.4319 -1.0760  2.0598
  391MPD2    H1 5846   1.675   4.311  11.526  0.1810  1.2128 -1.7154
  391MPD2    H2 5847   1.801   4.488  11.890  0.7312 -0.8750  0.4259
  391MPD2    H3 5848   1.618   4.423  11.733  0.6750  2.3801 -0.0297
  391MPD2     N 5849   1.923   4.296  11.417  0.2364 -0.3292  0.3493
  391MPD2    H5 5850   2.021   4.273  11.421  0.2311 -0.3457  0.3859
  391MPD2    N1 5851   2.050   4.488  11.849 -0.0820 -0.3476  0.0533
  391MPD2    H7 5852   2.029   4.528  11.940  0.4524 -1.5471  0.6981
  392TMC3    C1 5853   1.939   4.219  11.198 -0.1698  1.0763  0.4102
  392TMC3    C2 5854   1.875   4.137  11.107 -0.3431  0.0608 -0.0230
  392TMC3    C3 5855   1.930   4.136  10.981  0.0731 -0.7219  0.1260
  392TMC3    C4 5856   2.051   4.293  11.176 -0.3522  0.1294  0.2918
  392TMC3    C5 5857   2.110   4.273  11.053 -0.7648 -0.8543  0.9403
  392TMC3    C6 5858   2.052   4.194  10.958  0.5894 -0.0471 -0.3181
  392TMC3     C 5859   1.850   4.265  11.310  1.0539 -0.1255  0.2286
  392TMC3     O 5860   1.730   4.261  11.297 -0.2219 -0.1021  0.3644
  392TMC3     H 5861   1.774   4.103  11.126 -0.3545  0.9551  1.5346
  392TMC3    H1 5862   2.096   4.363  11.245  0.2897  0.9700 -0.9802
  392TMC3    H2 5863   2.097   4.171  10.861 -0.7895  1.3877 -1.2911
  392TMC3    C7 5864   2.236   4.341  11.018  0.2531  0.2959  0.1995
  392TMC3    C8 5865   1.841   4.120  10.866  0.2617 -0.1780 -0.5379
  392TMC3    O1 5866   2.303   4.390  11.108 -0.1226 -0.6001  0.4342
  392TMC3    O2 5867   1.760   4.026  10.878  0.1864 -0.1207 -0.1353
  393TMC3    C1 5868   1.723   2.510  10.831  0.6154 -0.2854 -0.1149
  393TMC3    C2 5869   1.682   2.559  10.949  0.2291 -0.8321  0.1411
  393TMC3    C3 5870   1.768   2.581  11.052  0.9280  0.6564  0.1863
  393TMC3    C4 5871   1.858   2.490  10.819  0.1108 -0.3279 -0.1580
  393TMC3    C5 5872   1.948   2.536  10.912 -1.3839 -0.5084 -0.3939
  393TMC3    C6 5873   1.904   2.577  11.035  0.0260  0.1606 -0.1701
  393TMC3     C 5874   1.617   2.491  10.731 -0.1047  0.3205 -0.5649
  393TMC3     O 5875   1.498   2.486  10.765 -0.1461  0.1729 -0.4462
  393TMC3     H 5876   1.575   2.572  10.964  0.5854  1.2023  0.9438
  393TMC3    H1 5877   1.894   2.472  10.719  2.4148 -1.2980  0.8490
  393TMC3    H2 5878   1.966   2.607  11.119  0.1417  0.4099 -0.3461
  393TMC3    C7 5879   2.092   2.531  10.905 -0.4598  0.3536 -0.3650
  393TMC3    C8 5880   1.730   2.682  11.146  0.5149  0.1273 -0.3829
  393TMC3    O1 5881   2.149   2.588  10.995 -0.1604 -0.0671  0.9085
  393TMC3    O2 5882   1.811   2.764  11.186  0.6634  0.3015  0.1765
  394TMC3    C1 5883   2.921   2.754  10.218  0.8911 -0.1204  0.0733
  394TMC3    C2 5884   2.973   2.670  10.129  0.4537 -1.0654  0.2774
  394TMC3    C3 5885   3.058   2.718  10.033  0.8000  0.1349  0.6514
  394TMC3    C4 5886   2.951   2.885  10.222  0.2696  1.2445 -0.1437
  394TMC3    C5 5887   3.029   2.937  10.126 -0.3949 -0.3027 -0.4098
  394TMC3    C6 5888   3.084   2.855  10.036 -0.1968  0.2214 -0.1479
  394TMC3     C 5889   2.900   2.686  10.348  0.3055  0.8600 -0.9510
  394TMC3     O 5890   2.918   2.563  10.355 -0.1048 -0.1599 -0.2575
  394TMC3     H 5891   2.930   2.570  10.127 -0.9263 -0.4147 -2.0177
  394TMC3    H1 5892   2.914   2.949  10.301 -1.0768  1.1147 -0.6681
  394TMC3    H2 5893   3.146   2.900   9.959 -0.2178  2.1102  0.9356
  394TMC3    C7 5894   3.078   3.071  10.137  0.3278  0.4820  0.4984
  394TMC3    C8 5895   3.181   2.636  10.028 -0.3863  0.2818  0.2068
  394TMC3    O1 5896   3.094   3.136  10.031 -0.6433 -0.4233  0.2568
  394TMC3    O2 5897   3.282   2.694   9.992 -0.2937 -0.3103  0.3540
  395TMC3    C1 5898   1.886   0.285  14.706  0.3587  1.0382 -0.4341
  395TMC3    C2 5899   1.841   0.160  14.736 -0.4528  0.0311  0.0802
  395TMC3    C3 5900   1.875   0.113  14.859 -0.1177  0.2347 -0.1607
  395TMC3    C4 5901   1.948   0.372  14.791 -0.4729 -0.1876  0.0487
  395TMC3    C5 5902   1.975   0.323  14.910 -0.4417 -0.6547 -0.2551
  395TMC3    C6 5903   1.935   0.200  14.949  0.4299  0.3846  0.5163
  395TMC3     C 5904   1.901   0.317  14.561  1.0108  0.8013  0.2849
  395TMC3     O 5905   1.840   0.420  14.536 -0.0275 -0.3431  0.0673
  395TMC3     H 5906   1.802   0.093  14.660 -2.6537 -0.2837  1.4701
  395TMC3    H1 5907   1.996   0.461  14.752  0.1160 -0.2912  0.5377
  395TMC3    H2 5908   1.960   0.171  15.051  0.2204  2.4668  1.1699
  395TMC3    C7 5909   2.099   0.379  14.973 -0.0967  0.5558  0.3287
  395TMC3    C8 5910   1.873   4.695  14.893 -0.1556 -0.1364 -0.2967
  395TMC3    O1 5911   2.190   0.301  14.993 -0.0669 -0.0182 -0.4138
  395TMC3    O2 5912   1.880   4.677  15.014  0.5450  0.1682  0.3844
  396MPD2     C 5913   2.631   1.188  17.557  0.3027  0.9479  0.0770
  396MPD2    C1 5914   2.638   1.177  17.414  0.4354 -0.0804 -0.0254
  396MPD2    C2 5915   2.675   1.298  17.351 -0.3169  0.2393  0.0142
  396MPD2    C3 5916   2.693   1.420  17.416  0.6812  0.0107  0.4783
  396MPD2    C4 5917   2.684   1.422  17.548  0.4566  0.6525 -0.5091
  396MPD2    C5 5918   2.644   1.310  17.621 -0.3606 -0.0264  0.5407
  396MPD2     H 5919   2.681   1.300  17.243 -2.2490 -0.7187 -0.1108
  396MPD2    H1 5920   2.698   1.514  17.604 -0.8607  1.4116 -1.4442
  396MPD2    H2 5921   2.597   1.106  17.618  1.3067 -0.1804 -0.8763
  396MPD2    H3 5922   2.628   1.308   0.039 -0.5762 -0.1572  0.5058
  396MPD2     N 5923   2.733   1.539  17.348 -0.9606  0.5918 -0.1318
  396MPD2    H5 5924   2.760   1.622  17.398  4.3105 -1.2068  0.0248
  396MPD2    N1 5925   2.598   1.058  17.349 -0.2240  0.5924  0.6145
  396MPD2    H7 5926   2.544   0.989  17.400 -0.2546 -2.9779 -4.2404
  397TMC3    C1 5927   2.595   0.892  17.180 -0.8748  0.2689 -0.3683
  397TMC3    C2 5928   2.613   0.887  17.050 -0.7030  0.5331  0.4124
  397TMC3    C3 5929   2.507   0.858  16.966 -0.5202 -0.6043  0.4418
  397TMC3    C4 5930   2.476   0.846  17.240  0.4705  0.2907  0.1490
  397TMC3    C5 5931   2.384   0.790  17.152 -0.2735  0.2422  0.1023
  397TMC3    C6 5932   2.397   0.797  17.016 -0.2732 -0.1837 -0.8076
  397TMC3     C 5933   2.634   1.024  17.221  0.3850  0.9359  0.4180
  397TMC3     O 5934   2.687   1.097  17.136  0.1184 -0.9579  0.1969
  397TMC3     H 5935   2.703   0.922  17.000 -1.1715 -0.0899 -0.8718
  397TMC3    H1 5936   2.474   0.845  17.349  1.6271  1.6117  0.1841
  397TMC3    H2 5937   2.313   0.774  16.952 -0.4324 -0.2691 -0.5680
  397TMC3    C7 5938   2.276   0.711  17.202  0.4391 -0.4240  0.2422
  397TMC3    C8 5939   2.481   0.936  16.849 -0.3064  0.6501  0.1235
  397TMC3    O1 5940   2.200   0.661  17.121 -0.8200  0.4166  0.0106
  397TMC3    O2 5941   2.392   0.904  16.773 -0.0780 -0.3628  0.2990
  398MPD2     C 5942   0.668   1.958   0.235 -0.8416  0.3554 -0.6178
  398MPD2    C1 5943   0.788   1.920   0.281 -1.0852  0.1395  0.2302
  398MPD2    C2 5944   0.900   2.008   0.266  0.3520 -0.0036 -0.2741
  398MPD2    C3 5945   0.890   2.138   0.201 -0.0507 -0.1420 -0.3013
  398MPD2    C4 5946   0.770   2.169   0.142 -0.0112  0.0437  0.4477
  398MPD2    C5 5947   0.667   2.078   0.160 -0.0382  0.1991  0.1240
  398MPD2     H 5948   0.997   1.984   0.308  0.6139  1.3168 -0.1257
  398MPD2    H1 5949   0.749   2.254   0.078 -1.1987  0.0133  0.8015
  398MPD2    H2 5950   0.578   1.897   0.236 -0.7247  0.2032  0.3914
  398MPD2    H3 5951   0.575   2.105   0.111 -0.7872  0.5675  1.7591
  398MPD2     N 5952   1.004   2.213   0.174  0.1457  0.1838  0.2919
  398MPD2    H5 5953   1.086   2.190   0.229  0.9019  1.0635 -0.4839
  398MPD2    N1 5954   0.807   1.789   0.331  0.0893 -0.1641 -0.3940
  398MPD2    H7 5955   0.899   1.766   0.368 -1.4633 -3.0861  1.6344
  399TMC3    C1 5956   0.781   1.557   0.351 -0.8110  0.0040 -0.0472
  399TMC3    C2 5957   0.907   1.530   0.304 -0.5608  0.2950 -0.2826
  399TMC3    C3 5958   0.955   1.400   0.302 -0.0673 -0.2705  0.9256
  399TMC3    C4 5959   0.693   1.452   0.378 -0.1749  0.0547  0.8235
  399TMC3    C5 5960   0.749   1.327   0.391 -0.1388 -1.0396 -0.3329
  399TMC3    C6 5961   0.879   1.299   0.349 -0.3368  0.1964  0.3433
  399TMC3     C 5962   0.721   1.682   0.318  0.1745  0.4399  0.2270
  399TMC3     O 5963   0.604   1.683   0.285 -0.4937 -0.2110 -0.2043
  399TMC3     H 5964   0.964   1.609   0.257 -1.7902  0.8044 -0.9366
  399TMC3    H1 5965   0.591   1.474   0.406 -1.0564 -1.5698 -1.2063
  399TMC3    H2 5966   0.913   1.196   0.356 -0.6102 -0.0538 -2.0611
  399TMC3    C7 5967   0.677   1.216   0.443  0.2003 -0.5597 -0.3909
  399TMC3    C8 5968   1.089   1.366   0.261 -0.0666 -0.1205  0.5575
  399TMC3    O1 5969   0.739   1.113   0.478 -0.1801  0.0860  0.0580
  399TMC3    O2 5970   1.117   1.246   0.251  0.9982 -0.7205  0.1321
  400TMC3    C1 5971   3.627   0.532  16.941 -0.6618 -0.1328 -0.3287
  400TMC3    C2 5972   3.557   0.424  16.896  0.2237  0.4339  0.5875
  400TMC3    C3 5973   3.431   0.451  16.841  0.8441 -0.3597  0.0135
  400TMC3    C4 5974   3.584   0.665  16.921 -0.2693 -0.2285  0.2866
  400TMC3    C5 5975   3.453   0.679  16.871  0.3171  0.0358  0.0195
  400TMC3    C6 5976   3.378   0.573  16.830  0.0151  0.5888 -0.4092
  400TMC3     C 5977   3.739   0.507  17.031  0.0445  0.7135  0.0791
  400TMC3     O 5978   3.762   0.387  17.054  0.5462  0.5244 -0.3426
  400TMC3     H 5979   3.593   0.322  16.899  0.2348  0.3939 -0.6365
  400TMC3    H1 5980   3.643   0.754  16.940 -0.1209 -0.6603  1.8512
  400TMC3    H2 5981   3.281   0.597  16.788 -0.2067  0.7816  0.2158
  400TMC3    C7 5982   3.399   0.809  16.863  0.3590  0.3203 -0.8660
  400TMC3    C8 5983   3.360   0.343  16.778 -0.0188 -0.1760  0.0974
  400TMC3    O1 5984   3.313   0.828  16.779 -0.4515 -0.2805  0.0242
  400TMC3    O2 5985   3.421   0.267  16.706 -0.3636  0.3115 -0.0494
  401MPD2     C 5986   2.443   4.217   1.320  0.2061 -0.1740  0.4956
  401MPD2    C1 5987   2.529   4.109   1.364 -0.0545 -0.1153  0.1817
  401MPD2    C2 5988   2.495   3.977   1.338  0.2005  0.9255  0.1701
  401MPD2    C3 5989   2.370   3.945   1.291 -0.2140 -0.2691 -0.1188
  401MPD2    C4 5990   2.282   4.049   1.254 -0.2405  0.0599  0.3263
  401MPD2    C5 5991   2.321   4.186   1.261  0.2016 -0.0919 -0.4833
  401MPD2     H 5992   2.555   3.892   1.367 -2.5346 -0.8771  0.5627
  401MPD2    H1 5993   2.178   4.027   1.232  0.1189  0.9949 -2.3056
  401MPD2    H2 5994   2.473   4.320   1.338 -0.8738  0.2092  0.1670
  401MPD2    H3 5995   2.251   4.265   1.234  1.1773  0.4025 -1.5842
  401MPD2     N 5996   2.342   3.808   1.269 -0.1607 -0.2975  0.6555
  401MPD2    H5 5997   2.413   3.741   1.299  0.2079 -0.3742 -0.4082
  401MPD2    N1 5998   2.659   4.133   1.412  0.0552 -0.0855 -0.0628
  401MPD2    H7 5999   2.702   4.045   1.440 -0.0988  0.3443  1.5113
  402TMC3    C1 6000   2.241   3.622   1.194  0.3423  0.5952 -0.3345
  402TMC3    C2 6001   2.230   3.564   1.316  0.5810 -0.0815  0.4827
  402TMC3    C3 6002   2.204   3.433   1.323 -0.0181  1.3364  0.5290
  402TMC3    C4 6003   2.192   3.556   1.084  0.2872 -0.2253 -0.6223
  402TMC3    C5 6004   2.149   3.428   1.090 -0.7810  0.3204 -0.4061
  402TMC3    C6 6005   2.154   3.365   1.211  0.0666  0.2568 -0.2098
  402TMC3     C 6006   2.252   3.760   1.176 -0.1235  0.1796  0.0978
  402TMC3     O 6007   2.190   3.816   1.088  0.3972 -0.3981 -0.1890
  402TMC3     H 6008   2.270   3.611   1.406  1.4263  0.3814 -0.1395
  402TMC3    H1 6009   2.182   3.609   0.990  0.9629 -1.0232 -1.1381
  402TMC3    H2 6010   2.128   3.260   1.223  2.7602 -0.2912  0.8953
  402TMC3    C7 6011   2.185   3.340   0.982 -0.1443 -0.0475  0.5299
  402TMC3    C8 6012   2.253   3.366   1.435 -0.3514  0.1057  0.1260
  402TMC3    O1 6013   2.138   3.228   0.981  0.7905  0.1819  0.4591
  402TMC3    O2 6014   2.285   3.248   1.426  0.0421  0.0215 -0.0560
  403MPD2     C 6015   0.516   2.313  13.471 -0.1907  0.6031  0.4701
  403MPD2    C1 6016   0.582   2.201  13.506 -0.5357 -0.2043 -0.3430
  403MPD2    C2 6017   0.665   2.194  13.623  0.0350  0.6178  0.6557
  403MPD2    C3 6018   0.691   2.313  13.690 -0.0205 -0.4772  0.2059
  403MPD2    C4 6019   0.637   2.430  13.637 -0.5104  0.1504 -0.0685
  403MPD2    C5 6020   0.555   2.425  13.531 -0.1723 -0.1005  0.1548
  403MPD2     H 6021   0.717   2.106  13.661 -1.2486  0.7117  2.6148
  403MPD2    H1 6022   0.651   2.529  13.677  1.3248  0.1314 -0.6467
  403MPD2    H2 6023   0.437   2.316  13.397  0.9914 -0.2399 -0.8120
  403MPD2    H3 6024   0.514   2.520  13.497 -0.2036 -0.2971 -0.3543
  403MPD2     N 6025   0.763   2.307  13.810  0.0645  0.3986  0.2413
  403MPD2    H5 6026   0.783   2.212  13.841  1.7570  0.3322 -1.0581
  403MPD2    N1 6027   0.556   2.080  13.435 -0.1255 -0.3169 -0.1609
  403MPD2    H7 6028   0.588   1.994  13.478 -0.8997 -1.8407 -2.6250
  404TMC3    C1 6029   0.436   1.931  13.286  0.9045  0.2300 -0.0670
  404TMC3    C2 6030   0.455   1.831  13.378 -0.7099  0.7531  0.0080
  404TMC3    C3 6031   0.414   1.710  13.338 -0.5149 -0.1761 -0.7496
  404TMC3    C4 6032   0.365   1.924  13.168 -0.3201 -0.0380 -0.2077
  404TMC3    C5 6033   0.341   1.792  13.129 -0.4565 -0.6582  0.2200
  404TMC3    C6 6034   0.362   1.689  13.215 -0.0669 -0.1511 -0.4087
  404TMC3     C 6035   0.477   2.065  13.320  0.1057 -0.3428 -0.4452
  404TMC3     O 6036   0.434   2.152  13.240  0.0105 -0.2098  1.0862
  404TMC3     H 6037   0.523   1.845  13.461  2.0936 -0.3444 -2.0641
  404TMC3    H1 6038   0.372   2.008  13.099 -0.0420 -1.6457 -2.1286
  404TMC3    H2 6039   0.337   1.589  13.182 -0.6192 -0.6055  1.4079
  404TMC3    C7 6040   0.334   1.769  12.985 -1.4088 -0.1198 -0.7157
  404TMC3    C8 6041   0.432   1.592  13.428  0.6123  0.6320 -0.0396
  404TMC3    O1 6042   0.366   1.863  12.916 -0.2747  0.9674  1.3255
  404TMC3    O2 6043   0.444   1.487  13.371 -0.4699  0.1919  0.0799
  405MPD2     C 6044   0.950   2.770  15.051  0.1923  0.8006  0.2742
  405MPD2    C1 6045   0.918   2.658  14.975  0.5211 -0.0317  0.9671
  405MPD2    C2 6046   0.938   2.681  14.832 -0.3269 -0.3276 -0.5762
  405MPD2    C3 6047   0.989   2.799  14.772 -0.4902 -0.3258  0.5995
  405MPD2    C4 6048   1.022   2.903  14.860  0.4226  0.1123  0.2122
  405MPD2    C5 6049   0.997   2.886  14.995 -0.0547  0.3416  0.2446
  405MPD2     H 6050   0.910   2.609  14.756  1.6926  0.6313 -2.2180
  405MPD2    H1 6051   1.049   3.004  14.831  0.2006  0.1791  0.2358
  405MPD2    H2 6052   0.948   2.775  15.159  3.4265 -0.7424  0.4141
  405MPD2    H3 6053   1.009   2.968  15.064 -0.0646  1.8356 -1.5481
  405MPD2     N 6054   1.000   2.808  14.632  0.3222 -0.1183  0.0949
  405MPD2    H5 6055   0.954   2.731  14.585  0.7724  0.5447 -1.4104
  405MPD2    N1 6056   0.862   2.547  15.030  0.3339  0.0315  0.0800
  405MPD2    H7 6057   0.848   2.543  15.131 -1.2577 -0.6141 -0.1543
  406TMC3    C1 6058   0.800   3.040  14.323 -0.0672 -0.0686  0.1692
  406TMC3    C2 6059   0.745   2.926  14.273 -0.8345  0.2679  0.3323
  406TMC3    C3 6060   0.805   2.813  14.313  0.7881  0.2108 -0.3001
  406TMC3    C4 6061   0.911   3.042  14.399 -0.3514 -1.0090  0.1769
  406TMC3    C5 6062   0.968   2.925  14.436  0.4459  0.7306  0.4547
  406TMC3    C6 6063   0.903   2.811  14.401  0.1448  0.1133 -0.1037
  406TMC3     C 6064   0.717   3.149  14.344  0.1367  0.0941 -0.1301
  406TMC3     O 6065   0.759   3.258  14.378  0.2531 -0.1897  0.4974
  406TMC3     H 6066   0.675   2.922  14.190 -0.9084 -0.7442  0.4429
  406TMC3    H1 6067   0.958   3.135  14.427 -2.0403  0.0557 -0.5147
  406TMC3    H2 6068   0.942   2.713  14.425  1.0649  0.4018 -0.4106
  406TMC3    C7 6069   1.043   2.920  14.562 -0.7566 -0.3443 -1.0813
  406TMC3    C8 6070   0.728   2.695  14.290  0.1034 -0.3473 -0.1547
  406TMC3    O1 6071   1.099   3.023  14.589 -0.0075 -0.3129 -0.3831
  406TMC3    O2 6072   0.646   2.690  14.193  0.7182 -0.4099  0.4281
  407MPD2     C 6073   2.798   4.477   9.637 -0.5402 -0.5542 -0.3190
  407MPD2    C1 6074   2.896   4.392   9.687 -0.9148  0.5822  0.5635
  407MPD2    C2 6075   2.951   4.404   9.811 -0.1351  0.4275  0.5620
  407MPD2    C3 6076   2.905   4.516   9.883 -0.1970  0.1870 -0.3416
  407MPD2    C4 6077   2.811   4.608   9.833  0.0554 -0.3272  0.1690
  407MPD2    C5 6078   2.759   4.587   9.707 -1.2095  0.6040  0.4586
  407MPD2     H 6079   3.016   4.330   9.856 -0.6652  0.0698  0.7507
  407MPD2    H1 6080   2.782   4.697   9.888 -2.0500 -0.6550 -0.4094
  407MPD2    H2 6081   2.756   4.466   9.537 -2.1721 -1.3190  0.4473
  407MPD2    H3 6082   2.685   4.652   9.661 -0.8369  0.7373  0.0460
  407MPD2     N 6083   2.937   4.552  10.015 -0.5749 -0.5206  0.3665
  407MPD2    H5 6084   2.902   4.643  10.042  1.8179  0.7460 -0.7518
  407MPD2    N1 6085   2.937   4.274   9.620 -0.4394 -0.3724 -0.0642
  407MPD2    H7 6086   3.017   4.220   9.652 -0.7555 -1.5632 -1.2930
  408TMC3    C1 6087   2.910   4.073   9.502 -0.0745 -0.1075 -0.0233
  408TMC3    C2 6088   3.048   4.039   9.497  0.2389  0.5639 -0.3673
  408TMC3    C3 6089   3.075   3.906   9.472 -0.6051 -0.3454 -0.0964
  408TMC3    C4 6090   2.808   3.981   9.488  0.3108  0.6248 -0.3131
  408TMC3    C5 6091   2.844   3.853   9.460  0.1408 -0.5993  0.4197
  408TMC3    C6 6092   2.975   3.812   9.444 -0.0954 -0.4531 -0.0244
  408TMC3     C 6093   2.859   4.209   9.525 -0.0308  0.4345  0.1079
  408TMC3     O 6094   2.755   4.243   9.463 -0.1446 -0.2382 -0.4534
  408TMC3     H 6095   3.133   4.106   9.505  0.8880 -0.5839  2.0987
  408TMC3    H1 6096   2.709   4.005   9.524  0.4282  1.9046 -0.8460
  408TMC3    H2 6097   2.990   3.706   9.426 -0.9479 -0.0159 -3.4161
  408TMC3    C7 6098   2.749   3.742   9.457 -0.4954  0.0278  0.4110
  408TMC3    C8 6099   3.216   3.855   9.457 -0.4764 -0.1540  0.0962
  408TMC3    O1 6100   2.784   3.632   9.493 -0.1655 -0.4355  0.2613
  408TMC3    O2 6101   3.218   3.735   9.421  0.2340 -0.0482  0.2051
  409MPD2     C 6102   2.496   0.254  17.486  0.0240 -0.1992 -0.3642
  409MPD2    C1 6103   2.629   0.263  17.512 -0.3881  0.0823  0.6726
  409MPD2    C2 6104   2.698   0.365  17.446  0.5550  0.4081 -0.3747
  409MPD2    C3 6105   2.648   0.439  17.342  0.1970 -0.2316  0.3352
  409MPD2    C4 6106   2.524   0.409  17.303  0.1961  0.4396 -0.0386
  409MPD2    C5 6107   2.445   0.324  17.383  0.9518 -0.1903 -0.6812
  409MPD2     H 6108   2.801   0.374  17.477  0.3435 -1.8096  0.9879
  409MPD2    H1 6109   2.479   0.478  17.233 -1.4271  1.9923  2.4974
  409MPD2    H2 6110   2.435   0.184  17.542 -0.0178 -0.2972 -0.5326
  409MPD2    H3 6111   2.343   0.296  17.358  0.0323  0.1751  2.6394
  409MPD2     N 6112   2.732   0.531  17.271  0.1579  0.3616 -0.4062
  409MPD2    H5 6113   2.721   0.531  17.170  1.2242  1.1332 -0.5187
  409MPD2    N1 6114   2.697   0.182  17.604 -0.2899  0.0130  0.3545
  409MPD2    H7 6115   2.795   0.206  17.618 -0.5340  0.7865  0.7516
  410TMC3    C1 6116   2.942   0.648  17.237  0.2821  0.0274 -0.2896
  410TMC3    C2 6117   3.068   0.647  17.290  0.2541  0.3207  1.0253
  410TMC3    C3 6118   3.164   0.715  17.218 -0.5034  0.6675 -0.0676
  410TMC3    C4 6119   2.899   0.722  17.128  0.3154 -0.5756 -0.2653
  410TMC3    C5 6120   2.999   0.796  17.064 -0.1891 -0.0623 -0.4621
  410TMC3    C6 6121   3.135   0.788  17.110  0.0385 -0.0914  0.2142
  410TMC3     C 6122   2.843   0.594  17.328  0.3755  0.2547  0.6825
  410TMC3     O 6123   2.871   0.603  17.450  0.2965 -0.7943 -0.0730
  410TMC3     H 6124   3.094   0.581  17.372 -1.1850 -0.4022  0.8981
  410TMC3    H1 6125   2.800   0.720  17.083  0.1374 -0.0319  0.0997
  410TMC3    H2 6126   3.214   0.835  17.052  1.9376 -1.7516  1.4783
  410TMC3    C7 6127   2.971   0.848  16.930  0.5684  0.1454  0.9029
  410TMC3    C8 6128   3.304   0.694  17.256 -0.4077  0.7244  0.0300
  410TMC3    O1 6129   2.891   0.777  16.868 -0.1262  0.3457  0.4687
  410TMC3    O2 6130   3.381   0.784  17.221  0.0661  0.2433  0.0915
  411MPD2     C 6131   2.745   0.575  14.837  0.4493  0.1935  0.3109
  411MPD2    C1 6132   2.650   0.655  14.783  0.3536  0.6465  1.0730
  411MPD2    C2 6133   2.560   0.594  14.702 -0.6626 -0.2498 -0.7407
  411MPD2    C3 6134   2.574   0.467  14.652 -0.9658 -0.0200 -0.0740
  411MPD2    C4 6135   2.687   0.397  14.682 -0.6316 -0.1099 -0.1684
  411MPD2    C5 6136   2.767   0.448  14.788  0.1467 -0.6332 -0.2609
  411MPD2     H 6137   2.467   0.641  14.675 -0.5789  0.0065 -0.5765
  411MPD2    H1 6138   2.711   0.295  14.655  1.9025  0.7341 -1.1805
  411MPD2    H2 6139   2.816   0.606  14.912  0.4336  0.6555  0.1321
  411MPD2    H3 6140   2.849   0.386  14.822 -2.0852 -0.2011  5.8960
  411MPD2     N 6141   2.493   0.404  14.552 -0.6779 -0.6436  0.5133
  411MPD2    H5 6142   2.536   0.326  14.503  2.9610  0.5317  1.8028
  411MPD2    N1 6143   2.650   0.798  14.811 -0.1918  0.1971  0.2431
  411MPD2    H7 6144   2.723   0.835  14.871  0.2458 -0.1206 -0.0935
  412TMC3    C1 6145   2.309   0.361  14.414 -0.2919 -1.3432 -0.1460
  412TMC3    C2 6146   2.209   0.428  14.346 -0.9003 -0.9739  0.0787
  412TMC3    C3 6147   2.173   0.376  14.225 -0.0419 -0.1328  0.3564
  412TMC3    C4 6148   2.369   0.248  14.360 -0.8219  0.0568  0.6190
  412TMC3    C5 6149   2.316   0.194  14.246  0.1088 -0.1485 -0.0083
  412TMC3    C6 6150   2.213   0.255  14.179 -0.4365 -0.1513 -0.4616
  412TMC3     C 6151   2.367   0.441  14.524 -0.1710 -0.7985  0.1164
  412TMC3     O 6152   2.293   0.513  14.591  0.2656  0.2919  0.2005
  412TMC3     H 6153   2.162   0.521  14.375  1.1295  0.1375 -0.1876
  412TMC3    H1 6154   2.449   0.203  14.416  0.1916 -0.8725 -1.5908
  412TMC3    H2 6155   2.168   0.233  14.083 -0.5535 -0.8273 -0.2515
  412TMC3    C7 6156   2.408   0.142  14.152  0.9312 -0.5565 -0.0590
  412TMC3    C8 6157   2.175   0.485  14.117 -0.2107  0.1652  0.1436
  412TMC3    O1 6158   2.374   0.167  14.034  0.1030  0.0893 -0.5879
  412TMC3    O2 6159   2.134   0.600  14.143  0.0306 -0.0698  0.2453
  413MPD2     C 6160   4.331   3.588  15.446  0.4180 -0.0761  0.2837
  413MPD2    C1 6161   4.358   3.692  15.366  0.4539  0.3862 -0.8358
  413MPD2    C2 6162   4.480   3.696  15.298  0.3092 -0.0188 -0.1298
  413MPD2    C3 6163   4.569   3.589  15.307  0.3881  0.4594  0.3072
  413MPD2    C4 6164   4.547   3.493  15.397  0.2035  0.7914 -0.0746
  413MPD2    C5 6165   4.432   3.497  15.465  0.4238  0.8169 -0.1539
  413MPD2     H 6166   4.508   3.773  15.227 -0.4478  0.0767 -0.3298
  413MPD2    H1 6167   4.630   3.428  15.422 -0.4493 -0.8116 -2.0453
  413MPD2    H2 6168   4.238   3.590  15.502  0.5113 -2.3884  0.5270
  413MPD2    H3 6169   4.414   3.422  15.542  0.3475  1.8574  0.8329
  413MPD2     N 6170   4.697   3.598  15.240 -0.2789  0.1958  0.5393
  413MPD2    H5 6171   0.004   3.681  15.190 -1.4475 -0.1050 -0.6424
  413MPD2    N1 6172   4.251   3.779  15.352 -0.6685 -0.4687 -0.4413
  413MPD2    H7 6173   4.171   3.754  15.410 -1.4418  1.9222 -0.4551
  414TMC3    C1 6174   0.185   3.511  15.188 -0.7446  0.0371 -0.1639
  414TMC3    C2 6175   0.229   3.404  15.121 -0.9967 -0.8002 -0.5147
  414TMC3    C3 6176   0.355   3.373  15.141 -0.0812  0.1782  0.1829
  414TMC3    C4 6177   0.259   3.586  15.278  0.1070  0.2930  0.3957
  414TMC3    C5 6178   0.384   3.547  15.295 -0.1954 -0.0560  0.8195
  414TMC3    C6 6179   0.435   3.447  15.217  0.1260 -0.3843 -0.2446
  414TMC3     C 6180   0.047   3.483  15.227 -0.2349  0.1804 -0.1572
  414TMC3     O 6181   0.011   3.367  15.216  0.0368 -0.0102  0.0509
  414TMC3     H 6182   0.171   3.346  15.050 -0.0535 -0.4697 -1.5574
  414TMC3    H1 6183   0.205   3.644  15.352 -1.5785  0.8540 -1.2726
  414TMC3    H2 6184   0.536   3.408  15.228  0.7223  1.4894  0.9470
  414TMC3    C7 6185   0.474   3.599  15.399  0.2598 -0.7066  0.8005
  414TMC3    C8 6186   0.411   3.254  15.078 -0.0082  0.3087 -0.6732
  414TMC3    O1 6187   0.596   3.574  15.406 -0.5538  0.0369 -0.5050
  414TMC3    O2 6188   0.334   3.154  15.067  0.9232 -0.4886  0.8478
  415TMC3    C1 6189   1.415   1.388  10.137 -0.4198  0.4642  0.2369
  415TMC3    C2 6190   1.461   1.474  10.043  0.0116  0.3412  0.0585
  415TMC3    C3 6191   1.440   1.440   9.915  0.3257 -0.2087 -0.4111
  415TMC3    C4 6192   1.333   1.279  10.103 -0.2428 -0.2060 -0.0572
  415TMC3    C5 6193   1.305   1.253   9.971  0.1704 -0.0642 -0.1242
  415TMC3    C6 6194   1.367   1.328   9.874 -0.1012 -0.1129 -0.4976
  415TMC3     C 6195   1.417   1.421  10.281 -0.1847 -0.6576 -0.9740
  415TMC3     O 6196   1.396   1.324  10.360 -0.5690 -0.3894 -0.2824
  415TMC3     H 6197   1.527   1.552  10.078  0.6451 -0.9703  1.8196
  415TMC3    H1 6198   1.296   1.213  10.180 -0.8602 -0.6300 -0.7187
  415TMC3    H2 6199   1.360   1.305   9.768 -1.8974  0.8885 -0.6112
  415TMC3    C7 6200   1.203   1.156   9.931 -0.1456  0.0950 -0.3845
  415TMC3    C8 6201   1.494   1.512   9.810 -0.0806 -0.5476  0.1475
  415TMC3    O1 6202   1.204   1.131   9.811 -0.0993  0.1078  0.1190
  415TMC3    O2 6203   1.519   1.451   9.707 -0.4087  0.0461  0.4311
  416MPD2     C 6204   2.567   0.952  11.125  0.3031 -0.2463 -0.3409
  416MPD2    C1 6205   2.496   0.936  11.238 -0.3502  0.3487  0.1799
  416MPD2    C2 6206   2.420   0.816  11.263  0.0644  0.1124 -0.2707
  416MPD2    C3 6207   2.423   0.724  11.169  0.0745 -0.5460  0.0758
  416MPD2    C4 6208   2.506   0.728  11.061  0.2558 -0.2582  0.3859
  416MPD2    C5 6209   2.568   0.849  11.034 -0.3934  0.3516  0.5682
  416MPD2     H 6210   2.355   0.800  11.348  1.0322 -0.4685  0.3573
  416MPD2    H1 6211   2.511   0.646  10.989 -1.8588  0.4569 -0.5674
  416MPD2    H2 6212   2.621   1.045  11.111  0.1665 -0.0552  0.4191
  416MPD2    H3 6213   2.621   0.863  10.940 -2.3311  1.4717 -0.3555
  416MPD2     N 6214   2.328   0.623  11.193  0.2936  0.0225  0.3005
  416MPD2    H5 6215   2.286   0.634  11.285  0.7037 -0.5849  0.5593
  416MPD2    N1 6216   2.488   1.037  11.332 -0.2296  0.0444 -0.3875
  416MPD2    H7 6217   2.526   1.128  11.308  1.2730  0.0062  1.7918
  417TMC3    C1 6218   2.416   1.146  11.528  0.4264  0.2417 -0.2681
  417TMC3    C2 6219   2.383   1.136  11.660  0.0268  0.6512 -0.7143
  417TMC3    C3 6220   2.284   1.211  11.713 -0.1653 -0.1339 -0.1163
  417TMC3    C4 6221   2.351   1.237  11.451 -0.3745  0.5321 -0.4022
  417TMC3    C5 6222   2.236   1.290  11.498 -0.1515 -0.4072  0.1774
  417TMC3    C6 6223   2.207   1.293  11.631 -0.3149 -0.0180  0.5182
  417TMC3     C 6224   2.442   1.019  11.463 -0.0342 -0.0751  0.7498
  417TMC3     O 6225   2.449   0.915  11.532 -0.4488  0.9038  0.1114
  417TMC3     H 6226   2.458   1.090  11.724  2.6633  1.0354 -3.5095
  417TMC3    H1 6227   2.365   1.240  11.343 -0.5836 -0.6308 -0.4557
  417TMC3    H2 6228   2.121   1.352  11.660  1.2879  0.3714  4.5526
  417TMC3    C7 6229   2.160   1.369  11.406  0.1383  1.2247  0.3910
  417TMC3    C8 6230   2.260   1.215  11.857  0.3033 -0.3128  0.6963
  417TMC3    O1 6231   2.211   1.396  11.298  0.1564 -0.2189 -0.4873
  417TMC3    O2 6232   2.174   1.290  11.898 -0.4139 -0.5001  0.9800
  418TMC3    C1 6233   1.300   2.194  17.591  0.7059  0.3270 -0.2816
  418TMC3    C2 6234   1.200   2.280  17.607  0.3077 -0.8054 -0.5664
  418TMC3    C3 6235   1.170   2.324   0.042 -0.1518  0.1829 -0.3434
  418TMC3    C4 6236   1.394   2.170  17.689 -1.2584  0.1535 -0.1191
  418TMC3    C5 6237   1.380   2.241   0.116 -0.7188  0.5929 -0.3082
  418TMC3    C6 6238   1.258   2.300   0.147  0.1681  0.3624  0.1384
  418TMC3     C 6239   1.333   2.152  17.457 -0.1264  0.5803  0.1379
  418TMC3     O 6240   1.330   2.240  17.373  0.6710 -0.2263 -0.1804
  418TMC3     H 6241   1.123   2.280  17.530 -0.8958  2.9071  0.6578
  418TMC3    H1 6242   1.496   2.138  17.669 -0.6974  1.5610  0.5335
  418TMC3    H2 6243   1.243   2.327   0.251 -0.3398  0.0450  0.1525
  418TMC3    C7 6244   1.449   2.181   0.222  0.6760 -0.0368 -0.3311
  418TMC3    C8 6245   1.035   2.296   0.067 -0.1406 -0.2402  0.4140
  418TMC3    O1 6246   1.502   2.073   0.196  0.1260  0.4285 -0.4178
  418TMC3    O2 6247   0.960   2.322  17.662  0.3572  0.2546  0.5621
  419MPD2     C 6248   3.360   0.323  12.472 -0.2728  1.0389 -0.3649
  419MPD2    C1 6249   3.467   0.405  12.479 -0.1998 -0.4580 -0.1091
  419MPD2    C2 6250   3.455   0.525  12.541  0.1934  0.2770  0.0980
  419MPD2    C3 6251   3.333   0.562  12.594 -0.1359 -0.2740  0.6608
  419MPD2    C4 6252   3.219   0.490  12.570  0.0227 -0.4200  0.5522
  419MPD2    C5 6253   3.233   0.367  12.508 -0.3406 -0.0960 -0.4302
  419MPD2     H 6254   3.547   0.582  12.551  0.3864 -0.2364  1.2168
  419MPD2    H1 6255   3.122   0.526  12.603  0.1798  0.7590 -0.2970
  419MPD2    H2 6256   3.356   0.225  12.426  1.2354 -1.0618  3.9603
  419MPD2    H3 6257   3.153   0.297  12.487 -1.2983  0.4619  1.3247
  419MPD2     N 6258   3.329   0.691  12.647 -0.6859 -0.2447  0.3304
  419MPD2    H5 6259   3.421   0.731  12.658 -0.8150 -0.0380  0.6403
  419MPD2    N1 6260   3.597   0.372  12.435  0.6090  0.0339 -0.5020
  419MPD2    H7 6261   3.669   0.441  12.452 -0.1608  0.7726 -0.2105
  420TMC3    C1 6262   3.265   0.900  12.728 -0.4015 -0.3740 -0.7484
  420TMC3    C2 6263   3.366   0.953  12.650  0.1945 -0.2285 -0.2669
  420TMC3    C3 6264   3.459   1.043  12.694 -0.4385 -0.1548  0.1248
  420TMC3    C4 6265   3.259   0.937  12.858 -0.1633  0.0413 -0.5074
  420TMC3    C5 6266   3.364   1.014  12.907 -0.7506 -0.0187 -0.3930
  420TMC3    C6 6267   3.459   1.076  12.826 -1.0564 -0.6637  0.3087
  420TMC3     C 6268   3.218   0.765  12.688 -0.0201  0.2567  0.4468
  420TMC3     O 6269   3.107   0.728  12.729  0.3717  0.1807  0.2560
  420TMC3     H 6270   3.359   0.940  12.542  0.6262  0.8566 -0.4287
  420TMC3    H1 6271   3.203   0.889  12.938 -0.6365  1.3135 -0.0739
  420TMC3    H2 6272   3.522   1.147  12.879  1.2359 -1.2713 -1.6089
  420TMC3    C7 6273   3.404   0.982  13.044  0.5622  0.4317  0.6362
  420TMC3    C8 6274   3.565   1.083  12.615  0.3480 -0.4376  0.3988
  420TMC3    O1 6275   3.526   0.970  13.063  0.3257 -0.4878  0.2832
  420TMC3    O2 6276   3.633   1.181  12.651  0.9486  0.4145  0.2170
  421TMC3    C1 6277   0.862   2.365  14.014  0.3051  0.6045  0.2288
  421TMC3    C2 6278   0.925   2.457  14.094  0.4106 -0.0719  0.3246
  421TMC3    C3 6279   0.961   2.420  14.218 -0.1701  0.2861 -0.0863
  421TMC3    C4 6280   0.838   2.233  14.045 -0.3412  0.3997  0.0651
  421TMC3    C5 6281   0.880   2.198  14.167 -0.3604 -0.1948 -0.0161
  421TMC3    C6 6282   0.933   2.292  14.254 -0.2213 -0.1806  0.5918
  421TMC3     C 6283   0.804   2.404  13.888 -0.3090  0.1298  0.0597
  421TMC3     O 6284   0.802   2.525  13.861  0.2240 -0.3579 -0.4928
  421TMC3     H 6285   0.942   2.555  14.051 -0.7017 -0.2618 -0.5582
  421TMC3    H1 6286   0.806   2.152  13.981  1.5069 -1.0080  0.9191
  421TMC3    H2 6287   0.956   2.253  14.352 -0.7710 -1.2916  0.2765
  421TMC3    C7 6288   0.907   2.054  14.187  0.3343 -0.3807  0.4003
  421TMC3    C8 6289   1.043   2.494  14.304 -0.1917  0.5358 -0.2163
  421TMC3    O1 6290   0.827   1.969  14.159  0.4296  0.0629 -0.0556
  421TMC3    O2 6291   1.027   2.487  14.424  0.2304  0.1671 -0.2652
  422TMC3    C1 6292   3.271   3.428  12.665  0.7255  0.2817 -0.3078
  422TMC3    C2 6293   3.276   3.542  12.737  0.2020  0.2829  0.4458
  422TMC3    C3 6294   3.179   3.565  12.834  0.3492 -0.6948 -0.7189
  422TMC3    C4 6295   3.177   3.339  12.693 -0.4262  0.5226 -0.8389
  422TMC3    C5 6296   3.081   3.365  12.787  0.3041 -0.9838  0.0408
  422TMC3    C6 6297   3.081   3.473  12.865 -0.3863 -0.1292 -0.8429
  422TMC3     C 6298   3.356   3.409  12.547 -0.5062 -0.2682  0.0261
  422TMC3     O 6299   3.414   3.506  12.508 -0.5486  0.3242  0.2579
  422TMC3     H 6300   3.351   3.613  12.703  1.4072 -2.1401 -2.0025
  422TMC3    H1 6301   3.170   3.249  12.633 -3.1463  0.9613 -1.1974
  422TMC3    H2 6302   3.011   3.486  12.946  0.7220 -1.5378  0.3280
  422TMC3    C7 6303   2.975   3.267  12.793  0.2848  0.3439  0.1566
  422TMC3    C8 6304   3.168   3.705  12.876  0.2013  0.3873  0.5938
  422TMC3    O1 6305   3.001   3.160  12.741 -0.1555 -0.3198 -0.7190
  422TMC3    O2 6306   3.252   3.787  12.840  0.0129  0.5510 -1.0195
  423MPD2     C 6307   0.238   4.314   0.979  0.3419  0.6564 -0.8582
  423MPD2    C1 6308   0.105   4.289   0.963 -0.6760  0.2594 -0.7549
  423MPD2    C2 6309   0.045   4.308   0.837  0.1638 -0.0548  0.3004
  423MPD2    C3 6310   0.123   4.334   0.725 -0.2511 -0.3945 -0.4598
  423MPD2    C4 6311   0.258   4.349   0.742 -0.3399 -0.6925 -1.3006
  423MPD2    C5 6312   0.318   4.338   0.866  0.0615  0.6751  0.8653
  423MPD2     H 6313   4.659   4.303   0.824  0.1726 -0.1852  0.2800
  423MPD2    H1 6314   0.317   4.363   0.652 -0.0617  0.5009 -0.9334
  423MPD2    H2 6315   0.284   4.310   1.077  0.5824  1.3888 -0.9419
  423MPD2    H3 6316   0.423   4.357   0.883  0.6926 -3.0383  1.1695
  423MPD2     N 6317   0.073   4.343   0.593  0.7814 -0.8342  0.2017
  423MPD2    H5 6318   0.135   4.382   0.524 -1.2080 -0.8027 -1.5743
  423MPD2    N1 6319   0.019   4.269   1.070  0.2832  0.7210 -0.5683
  423MPD2    H7 6320   4.641   4.274   1.059  0.3879  1.4131 -1.1797
  424TMC3    C1 6321   4.663   4.196   1.292 -0.2882  0.5085  0.3562
  424TMC3    C2 6322   4.690   4.105   1.393  0.5256 -0.1552  0.3459
  424TMC3    C3 6323   4.583   4.067   1.468  0.6048 -0.3165  0.3116
  424TMC3    C4 6324   4.536   4.244   1.270  0.5154 -0.0608  0.0058
  424TMC3    C5 6325   4.434   4.189   1.340  0.0649 -0.0571  0.0518
  424TMC3    C6 6326   4.454   4.098   1.439  0.0716  0.5863  0.0808
  424TMC3     C 6327   0.052   4.226   1.197  0.3490  0.4199  0.2203
  424TMC3     O 6328   0.169   4.205   1.241 -0.4199 -0.2574  0.0244
  424TMC3     H 6329   0.064   4.054   1.389  0.5772  0.0101 -0.7514
  424TMC3    H1 6330   4.521   4.316   1.190  0.0609  0.3529  0.4601
  424TMC3    H2 6331   4.377   4.048   1.496  1.2267 -1.0828  0.1825
  424TMC3    C7 6332   4.302   4.244   1.319 -0.6388  0.1734  0.1055
  424TMC3    C8 6333   4.607   3.993   1.584  0.3125  0.3965  0.8521
  424TMC3    O1 6334   4.281   4.321   1.225  0.1851 -0.5198 -0.2575
  424TMC3    O2 6335   4.513   3.953   1.651 -0.1293 -0.3766 -0.3425
  425MPD2     C 6336   3.879   4.157   0.029 -0.1343 -0.2453  0.1991
  425MPD2    C1 6337   3.784   4.070  17.678 -0.1150 -0.2996  0.1009
  425MPD2    C2 6338   3.654   4.092   0.014  0.1513 -0.5266 -0.4014
  425MPD2    C3 6339   3.615   4.202   0.092 -0.0845 -0.3158 -0.7194
  425MPD2    C4 6340   3.709   4.295   0.122  0.3797 -0.1534  0.6589
  425MPD2    C5 6341   3.834   4.272   0.085  0.7975 -0.7593 -0.5538
  425MPD2     H 6342   3.575   4.023  17.675 -0.0863 -0.2445 -0.4291
  425MPD2    H1 6343   3.682   4.394   0.156  1.2878  0.5367 -0.6475
  425MPD2    H2 6344   3.984   4.154   0.006  0.0457  1.2040  0.8316
  425MPD2    H3 6345   3.901   4.352   0.115 -3.3270  2.6229 -0.3846
  425MPD2     N 6346   3.478   4.207   0.132  0.0516  0.2759 -0.6321
  425MPD2    H5 6347   3.420   4.126   0.117  0.7033 -0.1050 -1.0951
  425MPD2    N1 6348   3.819   3.962  17.594 -0.0787 -0.0877 -0.0629
  425MPD2    H7 6349   3.919   3.951  17.577 -0.3653 -3.6370  0.5713
  426TMC3    C1 6350   3.818   3.752  17.488  0.2740 -0.5736  0.1190
  426TMC3    C2 6351   3.780   3.692  17.367  0.4934 -0.2212 -0.4930
  426TMC3    C3 6352   3.844   3.570  17.346 -0.7683 -0.6228 -0.8784
  426TMC3    C4 6353   3.892   3.688  17.584  1.1554 -0.2393 -0.7303
  426TMC3    C5 6354   3.950   3.565  17.552  0.0667  0.0042 -0.3746
  426TMC3    C6 6355   3.929   3.505  17.429  0.2251 -0.2453  0.3597
  426TMC3     C 6356   3.736   3.863  17.531  0.3565 -0.4279 -0.2495
  426TMC3     O 6357   3.615   3.844  17.514 -0.7390 -0.2697 -0.4531
  426TMC3     H 6358   3.713   3.745  17.301 -1.1630 -1.7048  0.0039
  426TMC3    H1 6359   3.934   3.748  17.664 -3.1796  0.9877  0.6031
  426TMC3    H2 6360   3.972   3.412  17.396  1.0767  0.5067 -0.6595
  426TMC3    C7 6361   4.011   3.479  17.649  0.3006  0.5378  1.0420
  426TMC3    C8 6362   3.802   3.503  17.230 -1.2193 -0.0090 -1.0918
  426TMC3    O1 6363   4.075   3.385  17.609  0.5431  0.4632 -0.1428
  426TMC3    O2 6364   3.877   3.418  17.177  0.2023 -0.2509 -0.0036
  427MPD2     C 6365   2.043   1.159  15.070  0.0964  0.0914  0.8355
  427MPD2    C1 6366   2.036   1.146  15.204 -0.3497 -0.2402  0.1345
  427MPD2    C2 6367   1.919   1.183  15.267 -0.7101 -0.3792  0.1867
  427MPD2    C3 6368   1.804   1.226  15.207  0.0466 -0.4746  0.3012
  427MPD2    C4 6369   1.810   1.238  15.072 -0.1657 -0.0711 -0.0767
  427MPD2    C5 6370   1.932   1.211  15.005 -0.9027  0.2698  0.4606
  427MPD2     H 6371   1.926   1.164  15.374 -5.9094  0.4502  0.6549
  427MPD2    H1 6372   1.724   1.271  15.015  1.0972 -0.2939 -2.1592
  427MPD2    H2 6373   2.134   1.119  15.026 -0.2219 -1.4140  1.5285
  427MPD2    H3 6374   1.938   1.219  14.897 -1.3277  0.1639  0.4280
  427MPD2     N 6375   1.671   1.236  15.273 -0.1876 -0.2405 -0.0474
  427MPD2    H5 6376   1.588   1.216  15.217 -0.0208  2.1912 -1.1526
  427MPD2    N1 6377   2.141   1.095  15.286  0.2990 -0.2553 -0.4621
  427MPD2    H7 6378   2.113   1.057  15.376  1.4500  0.5826  0.2541
  428TMC3    C1 6379   2.341   0.972  15.311 -0.0412  0.5645 -0.1100
  428TMC3    C2 6380   2.278   0.875  15.372 -0.1390 -0.5087  0.5086
  428TMC3    C3 6381   2.345   0.792  15.456 -0.5868  0.5313  0.3803
  428TMC3    C4 6382   2.475   0.994  15.324  0.0382  0.4292 -0.1297
  428TMC3    C5 6383   2.537   0.911  15.415  0.3477  0.2511  0.0847
  428TMC3    C6 6384   2.473   0.816  15.483  0.3182 -0.4993 -0.2873
  428TMC3     C 6385   2.268   1.070  15.237 -0.2158  0.5729  0.3052
  428TMC3     O 6386   2.315   1.113  15.133  1.0470  0.7436  0.5023
  428TMC3     H 6387   2.174   0.856  15.347 -0.3414 -0.6390  1.4531
  428TMC3    H1 6388   2.515   1.073  15.261  1.5375 -0.7023 -0.5945
  428TMC3    H2 6389   2.526   0.754  15.554 -2.3104 -1.9696  0.4044
  428TMC3    C7 6390   2.672   0.940  15.461 -0.3761  0.2769 -0.5212
  428TMC3    C8 6391   2.313   0.651  15.435 -0.2092 -0.7908 -1.2596
  428TMC3    O1 6392   2.712   0.884  15.564  0.1775  0.3923 -0.6147
  428TMC3    O2 6393   2.409   0.574  15.434 -0.0808  0.5696 -0.1080
  429MPD2     C 6394   3.985   1.046   0.299 -0.3879 -0.7565 -0.3386
  429MPD2    C1 6395   3.854   1.017   0.281  1.0512 -0.2918 -0.2219
  429MPD2    C2 6396   3.775   1.101   0.206 -0.3435  0.4164  0.4958
  429MPD2    C3 6397   3.830   1.224   0.156  0.3378  0.4462  0.7462
  429MPD2    C4 6398   3.960   1.248   0.172 -0.6455  0.5663  0.1831
  429MPD2    C5 6399   4.036   1.166   0.243  0.0823  0.3239  0.0260
  429MPD2     H 6400   3.669   1.085   0.186 -0.1980  2.8486 -2.1213
  429MPD2    H1 6401   4.003   1.339   0.134  1.2888 -0.9904 -1.3017
  429MPD2    H2 6402   4.064   0.992   0.350  1.2382  1.5881 -0.3833
  429MPD2    H3 6403   4.138   1.200   0.259 -0.0517  0.3420  0.8074
  429MPD2     N 6404   3.751   1.305   0.064 -0.2091 -0.2166 -0.2830
  429MPD2    H5 6405   3.670   1.250   0.036 -1.4059  0.5671  1.5833
  429MPD2    N1 6406   3.793   0.912   0.349 -0.0664 -0.7749 -0.3214
  429MPD2    H7 6407   3.691   0.906   0.348  0.0171 -2.1310 -1.1023
  430TMC3    C1 6408   3.696   1.462  17.593  0.2234  0.1238  0.5967
  430TMC3    C2 6409   3.689   1.592  17.549 -0.0682 -0.2950 -0.6004
  430TMC3    C3 6410   3.654   1.603  17.420 -0.0147  0.5180 -0.4550
  430TMC3    C4 6411   3.648   1.360  17.519 -0.2298  0.0635  0.4701
  430TMC3    C5 6412   3.620   1.377  17.393  0.0921 -0.0175 -0.6516
  430TMC3    C6 6413   3.618   1.498  17.336 -0.1546 -0.0972 -0.1695
  430TMC3     C 6414   3.776   1.429   0.019 -0.2349 -0.2766  0.1607
  430TMC3     O 6415   3.860   1.506   0.057  0.2268  0.1312 -0.0292
  430TMC3     H 6416   3.724   1.675  17.608 -0.4828 -0.3362 -0.2902
  430TMC3    H1 6417   3.642   1.258  17.557  1.1791  1.0734  3.3385
  430TMC3    H2 6418   3.620   1.510  17.229 -0.4155 -2.5586 -0.4596
  430TMC3    C7 6419   3.581   1.267  17.301  0.0445 -0.3155  0.9660
  430TMC3    C8 6420   3.622   1.738  17.367 -0.3827  0.5164  0.0951
  430TMC3    O1 6421   3.624   1.153  17.324  0.3708 -0.1393 -0.2928
  430TMC3    O2 6422   3.642   1.831  17.444  0.2978 -1.2824  0.0832
  431MPD2     C 6423   4.173   0.768  12.859 -0.2043  0.2134 -0.0711
  431MPD2    C1 6424   4.235   0.726  12.745  0.2052 -0.1654 -0.1561
  431MPD2    C2 6425   4.203   0.596  12.691  0.5264  0.1693 -0.1031
  431MPD2    C3 6426   4.098   0.523  12.744  0.0375  0.2195  0.1660
  431MPD2    C4 6427   4.029   0.573  12.846  0.1212  0.3497 -0.2990
  431MPD2    C5 6428   4.078   0.687  12.908 -0.1747 -1.0202  0.6192
  431MPD2     H 6429   4.267   0.561  12.610  0.3842  1.4789 -0.7877
  431MPD2    H1 6430   3.950   0.511  12.888  1.1412 -0.7952 -0.0559
  431MPD2    H2 6431   4.187   0.858  12.918 -1.9931 -0.1134  0.8500
  431MPD2    H3 6432   4.025   0.718  12.997  1.0630 -2.2273  1.7811
  431MPD2     N 6433   4.031   0.419  12.679  0.0404  0.0423  0.1603
  431MPD2    H5 6434   3.941   0.401  12.721  0.8979 -0.2016  1.9099
  431MPD2    N1 6435   4.344   0.801  12.697  0.1545  0.4861  0.3462
  431MPD2    H7 6436   4.412   0.750  12.642 -1.2618 -2.5234  1.3883
  432TMC3    C1 6437   3.987   0.249  12.507 -0.1257 -0.0397  0.0082
  432TMC3    C2 6438   4.041   0.167  12.409  0.0166  0.7731 -0.3042
  432TMC3    C3 6439   3.962   0.116  12.306  0.0575  0.4201 -0.3072
  432TMC3    C4 6440   3.856   0.286  12.491 -0.2477 -0.3764 -0.4973
  432TMC3    C5 6441   3.777   0.234  12.389 -0.0326 -0.1269  0.5076
  432TMC3    C6 6442   3.821   0.135  12.300 -0.7682 -0.7315 -0.4553
  432TMC3     C 6443   4.075   0.345  12.569 -0.4019 -0.4617 -0.2991
  432TMC3     O 6444   4.184   0.352  12.511  0.0636 -0.2217 -0.4929
  432TMC3     H 6445   4.140   0.128  12.429 -0.8428 -0.1376  2.2214
  432TMC3    H1 6446   3.801   0.360  12.548 -1.5786 -2.1460  0.4723
  432TMC3    H2 6447   3.757   0.106  12.217 -0.5005  1.1686 -1.3326
  432TMC3    C7 6448   3.638   0.247  12.383  0.4065  0.5746 -0.0516
  432TMC3    C8 6449   4.032   0.098  12.181 -0.2411  0.1562 -0.2332
  432TMC3    O1 6450   3.571   0.151  12.347 -0.7871 -0.2390 -0.5787
  432TMC3    O2 6451   3.969   0.031  12.105  0.1919  0.2981  0.7337
  433MPD2     C 6452   3.315   4.615  11.206 -0.6075  0.0578 -0.3666
  433MPD2    C1 6453   3.201   4.554  11.243  0.1485  0.1072  0.0068
  433MPD2    C2 6454   3.162   4.559  11.373 -0.0499  0.2370  0.0798
  433MPD2    C3 6455   3.249   4.601  11.470  0.0259 -0.4906 -1.1104
  433MPD2    C4 6456   3.372   4.652  11.429 -0.2469 -0.5961  0.0354
  433MPD2    C5 6457   3.401   4.671  11.298 -0.3779 -0.4546 -0.3271
  433MPD2     H 6458   3.071   4.513  11.409 -0.4475  1.2464  0.3554
  433MPD2    H1 6459   3.441   4.692  11.502  0.0206 -0.8521 -0.0769
  433MPD2    H2 6460   3.333   4.610  11.099 -1.4347 -0.6555 -0.4743
  433MPD2    H3 6461   3.487   0.004  11.260 -1.5316  0.1130 -2.0778
  433MPD2     N 6462   3.213   4.581  11.602  0.3948 -0.3104  0.3723
  433MPD2    H5 6463   3.121   4.542  11.619  0.4561 -0.3238  0.6747
  433MPD2    N1 6464   3.120   4.494  11.146 -0.0646  0.7987  0.4867
  433MPD2    H7 6465   3.157   4.496  11.051  1.6338 -2.3847  1.0772
  434TMC3    C1 6466   2.969   4.322  11.072 -0.5468  0.0328  0.2908
  434TMC3    C2 6467   2.975   4.199  11.128 -0.7615 -0.3429  0.4100
  434TMC3    C3 6468   3.002   4.088  11.054  0.7851 -0.7911 -0.5129
  434TMC3    C4 6469   2.985   4.344  10.936  0.3502 -0.4152  0.2155
  434TMC3    C5 6470   3.006   4.231  10.859 -0.3271  0.2162  0.3715
  434TMC3    C6 6471   3.008   4.104  10.916  1.1195  0.0602  0.7239
  434TMC3     C 6472   3.002   4.430  11.166  0.0049  0.8245  0.1903
  434TMC3     O 6473   2.940   4.421  11.272 -0.2451  0.1714 -0.0067
  434TMC3     H 6474   2.970   4.179  11.234  0.4135 -0.9020  0.3648
  434TMC3    H1 6475   2.964   4.438  10.886 -0.5759 -0.3548  0.7215
  434TMC3    H2 6476   3.047   4.021  10.857  1.0988  0.9138 -0.4886
  434TMC3    C7 6477   2.967   4.220  10.716  0.2417  0.1437 -0.3916
  434TMC3    C8 6478   3.042   3.966  11.120 -0.0180  0.1320 -0.0693
  434TMC3    O1 6479   3.006   4.311  10.643 -0.3040 -0.2678  0.0275
  434TMC3    O2 6480   3.115   3.978  11.218 -0.1288 -0.1767  0.5309
  435MPD2     C 6481   0.356   4.460  15.722 -0.2584  0.8488 -0.2973
  435MPD2    C1 6482   0.312   4.535  15.830  0.7770 -0.0621  0.0948
  435MPD2    C2 6483   0.388   4.556  15.946 -0.1870  0.6019 -0.0095
  435MPD2    C3 6484   0.514   4.501  15.956  0.0626  0.0088  0.6862
  435MPD2    C4 6485   0.552   4.420  15.849 -0.3274 -0.5187 -0.7947
  435MPD2    C5 6486   0.479   4.399  15.736 -0.2412 -0.5651 -0.0694
  435MPD2     H 6487   0.353   4.628  16.019  0.1148  2.3835 -1.6197
  435MPD2    H1 6488   0.652   4.378  15.850  0.4428  1.3469  0.6663
  435MPD2    H2 6489   0.307   4.461  15.626 -1.5356 -0.6420  0.3174
  435MPD2    H3 6490   0.525   4.334  15.663  0.8332 -1.2828  1.2216
  435MPD2     N 6491   0.598   4.525  16.067  0.1910  0.3802  0.3879
  435MPD2    H5 6492   0.559   4.588  16.135  0.3051  0.7796  0.0837
  435MPD2    N1 6493   0.193   4.618  15.816 -0.3756  0.0470 -0.4739
  435MPD2    H7 6494   0.154   4.664  15.897  0.9599 -1.2898  0.9426
  436TMC3    C1 6495   4.517   0.045  15.837  0.4268  0.1668  0.5076
  436TMC3    C2 6496   4.635   4.693  15.833  0.6316 -0.3705 -0.3093
  436TMC3    C3 6497   4.722   4.720  15.725  0.7375  0.2895  0.2138
  436TMC3    C4 6498   4.476   0.143  15.748 -0.0426  0.1587  0.2804
  436TMC3    C5 6499   4.563   0.162  15.641 -0.5683 -0.0485  0.2433
  436TMC3    C6 6500   4.684   0.089  15.628  0.0836 -0.1347  0.2723
  436TMC3     C 6501   4.424   0.010  15.942 -0.1543 -0.6286  0.0140
  436TMC3     O 6502   4.432   4.620  15.986  0.2595  0.4606  0.2501
  436TMC3     H 6503   4.658   4.609  15.898  0.9250  1.3733  1.8544
  436TMC3    H1 6504   4.380   0.191  15.764  0.7724  1.9278 -0.1154
  436TMC3    H2 6505   0.044   0.115  15.561 -1.6460 -0.1457 -1.8220
  436TMC3    C7 6506   4.531   0.268  15.552  0.3130  0.1723  0.3393
  436TMC3    C8 6507   0.127   4.643  15.696  0.5715 -0.2210 -0.3308
  436TMC3    O1 6508   4.435   0.333  15.590 -0.3659  0.2201  0.6838
  436TMC3    O2 6509   0.175   4.652  15.582  0.3970 -0.0924 -0.5166
  437TMC3    C1 6510   4.001   0.705  12.419  0.1781 -0.2966  0.1240
  437TMC3    C2 6511   3.935   0.769  12.520  0.3017  0.2017  0.2917
  437TMC3    C3 6512   3.991   0.883  12.570  0.2772 -0.8492  0.1897
  437TMC3    C4 6513   4.106   0.763  12.356 -0.0755 -0.4700  0.4825
  437TMC3    C5 6514   4.147   0.889  12.406 -0.2013  0.2727  0.4231
  437TMC3    C6 6515   4.096   0.948  12.508  0.3861 -0.1489 -0.3847
  437TMC3     C 6516   3.909   0.608  12.360  0.3689 -0.2533 -0.5658
  437TMC3     O 6517   3.799   0.581  12.407 -0.1950  0.1786 -0.3253
  437TMC3     H 6518   3.843   0.731  12.564  1.5042 -1.7290  1.1145
  437TMC3    H1 6519   4.148   0.714  12.268 -0.9487  0.8508 -0.6723
  437TMC3    H2 6520   4.123   1.049  12.539  1.0746 -0.1314 -1.0675
  437TMC3    C7 6521   4.273   0.931  12.347  0.2666 -0.1786 -0.4461
  437TMC3    C8 6522   3.933   0.940  12.692 -0.7262  0.4298  0.5809
  437TMC3    O1 6523   4.332   0.840  12.285  0.0375  0.1226  0.0356
  437TMC3    O2 6524   3.841   0.885  12.748  0.0291 -0.2031  0.2585
  438MPD2     C 6525   1.086   2.667  16.729 -0.2231  0.2623 -0.3109
  438MPD2    C1 6526   1.156   2.590  16.820  0.2233  0.3102 -1.1645
  438MPD2    C2 6527   1.100   2.567  16.945 -0.0026  0.9183  0.6760
  438MPD2    C3 6528   0.970   2.608  16.969 -0.0195  0.1040 -0.2836
  438MPD2    C4 6529   0.901   2.686  16.874 -0.0910 -0.0305 -0.4082
  438MPD2    C5 6530   0.966   2.727  16.758 -0.6533 -0.1966  0.4932
  438MPD2     H 6531   1.150   2.501  17.015 -0.3776  1.3191  1.3204
  438MPD2    H1 6532   0.798   2.708  16.900  1.0634  2.2397  2.2352
  438MPD2    H2 6533   1.129   2.703  16.636 -1.0130  0.2671 -0.6764
  438MPD2    H3 6534   0.915   2.791  16.686 -0.7057 -0.8485 -0.0473
  438MPD2     N 6535   0.917   2.554  17.088  0.0616 -0.2256 -0.5602
  438MPD2    H5 6536   0.982   2.496  17.141 -1.6730 -2.3653 -0.7650
  438MPD2    N1 6537   1.285   2.536  16.798  0.0003 -0.0547  0.0800
  438MPD2    H7 6538   1.319   2.475  16.871 -2.6361 -2.0123 -0.3001
  439TMC3    C1 6539   1.488   2.506  16.710  0.1275  0.1779 -0.5414
  439TMC3    C2 6540   1.548   2.469  16.592  0.2393  0.0783 -0.3245
  439TMC3    C3 6541   1.679   2.427  16.603 -0.3619  0.8975 -0.4081
  439TMC3    C4 6542   1.547   2.487  16.833 -0.0425 -0.1049 -0.2830
  439TMC3    C5 6543   1.674   2.433  16.836 -0.8347 -0.2263 -0.2454
  439TMC3    C6 6544   1.740   2.402  16.720  0.4024  0.6031  0.3754
  439TMC3     C 6545   1.355   2.558  16.683  0.1720 -0.2866  0.2040
  439TMC3     O 6546   1.319   2.596  16.574  0.3106 -0.0459  0.4474
  439TMC3     H 6547   1.490   2.464  16.500  0.0504  2.2127 -0.3175
  439TMC3    H1 6548   1.500   2.536  16.918  1.2191 -1.1098  0.9906
  439TMC3    H2 6549   1.835   2.351  16.725  1.6320  2.8576  0.3613
  439TMC3    C7 6550   1.752   2.415  16.952 -0.1359  0.1056  0.0797
  439TMC3    C8 6551   1.750   2.380  16.491  0.0676  0.1421  0.0551
  439TMC3    O1 6552   1.873   2.415  16.937  0.1290  0.2751 -0.4009
  439TMC3    O2 6553   1.851   2.317  16.510  0.2742 -0.1075 -0.4602
  440MPD2     C 6554   0.207   3.300  14.764 -0.3307 -0.0316 -0.3578
  440MPD2    C1 6555   0.107   3.211  14.783  0.2531  0.4255 -0.8957
  440MPD2    C2 6556   0.128   3.078  14.755 -0.4176 -0.1570  0.1514
  440MPD2    C3 6557   0.257   3.039  14.721 -0.6370  0.3486 -0.0148
  440MPD2    C4 6558   0.361   3.134  14.702 -0.1432 -0.0648 -0.6257
  440MPD2    C5 6559   0.333   3.261  14.733  0.0024 -0.4132 -0.0123
  440MPD2     H 6560   0.051   3.002  14.764 -1.2612  0.6669 -0.1684
  440MPD2    H1 6561   0.463   3.101  14.689  0.5067  0.9962  1.7453
  440MPD2    H2 6562   0.191   3.406  14.776  1.4504  0.1390  0.5311
  440MPD2    H3 6563   0.411   3.337  14.734 -1.5644  1.1878  0.3474
  440MPD2     N 6564   0.293   2.905  14.690 -0.2122 -0.1188  0.6661
  440MPD2    H5 6565   0.392   2.888  14.675 -0.3590 -0.7898  0.4282
  440MPD2    N1 6566   4.705   3.253  14.838  0.7117 -0.1013 -0.5870
  440MPD2    H7 6567   4.629   3.188  14.854 -2.6618  3.3031 -2.9013
  441TMC3    C1 6568   0.282   2.669  14.716 -0.3787  0.2971 -0.3517
  441TMC3    C2 6569   0.411   2.681  14.670  0.1042 -0.0786 -0.0523
  441TMC3    C3 6570   0.522   2.650  14.751  0.0059  0.5004 -0.6925
  441TMC3    C4 6571   0.268   2.616  14.843  0.2612  0.2434  0.0807
  441TMC3    C5 6572   0.378   2.581  14.917 -0.1748  0.0245  0.6239
  441TMC3    C6 6573   0.508   2.615  14.881  0.2669 -0.0878  0.1054
  441TMC3     C 6574   0.206   2.790  14.699  0.0854  0.2751  0.2256
  441TMC3     O 6575   0.084   2.782  14.717  0.5727 -0.3695  0.0769
  441TMC3     H 6576   0.429   2.710  14.567  2.7565 -0.1738  0.4024
  441TMC3    H1 6577   0.169   2.601  14.884  0.6996  0.1635  1.1087
  441TMC3    H2 6578   0.593   2.592  14.944 -0.0229  2.3974  1.4149
  441TMC3    C7 6579   0.360   2.529  15.048  1.0440 -1.3211 -0.5104
  441TMC3    C8 6580   0.616   2.760  14.741  0.3316  0.4760  0.1098
  441TMC3    O1 6581   0.448   2.561  15.124  0.6034 -0.0193 -1.0787
  441TMC3    O2 6582   0.674   2.783  14.636  0.1744 -0.1433 -0.2466
  442MPD2     C 6583   3.538   3.626  16.691  0.9174 -0.5111  0.0013
  442MPD2    C1 6584   3.424   3.560  16.723  0.0011 -0.3474 -0.4579
  442MPD2    C2 6585   3.392   3.450  16.656  0.5440  0.1691  0.2404
  442MPD2    C3 6586   3.464   3.397  16.552  0.2267 -0.8148 -0.0515
  442MPD2    C4 6587   3.582   3.460  16.521 -0.2249 -0.2805  0.1865
  442MPD2    C5 6588   3.617   3.571  16.594  0.6342 -0.2190  0.7757
  442MPD2     H 6589   3.295   3.415  16.692  0.8483 -1.2426 -0.2931
  442MPD2    H1 6590   3.637   3.419  16.437 -0.3389  1.3577 -0.7037
  442MPD2    H2 6591   3.583   3.711  16.740 -0.0192  2.1681 -3.7862
  442MPD2    H3 6592   3.718   3.609  16.590  0.5342 -0.0547 -0.1760
  442MPD2     N 6593   3.414   3.289  16.477  0.4477 -0.4787 -0.3142
  442MPD2    H5 6594   3.482   3.266  16.406  1.6433 -2.1116  1.3842
  442MPD2    N1 6595   3.332   3.609  16.825 -0.4821 -0.2088  0.5302
  442MPD2    H7 6596   3.240   3.567  16.823 -0.8255  0.5535  0.3832
  443TMC3    C1 6597   3.226   3.766  16.951  0.1225 -0.0764 -0.0698
  443TMC3    C2 6598   3.144   3.792  16.848 -0.1500  0.5509 -0.3749
  443TMC3    C3 6599   3.007   3.785  16.872 -0.4432  0.0211 -0.0185
  443TMC3    C4 6600   3.174   3.719  17.064  1.0539 -0.0014  0.0164
  443TMC3    C5 6601   3.037   3.706  17.081 -0.1339  0.0613 -0.8158
  443TMC3    C6 6602   2.951   3.737  16.983  0.1126 -0.1251  0.5126
  443TMC3     C 6603   3.352   3.713  16.907  0.8146  0.2716  0.0814
  443TMC3     O 6604   3.458   3.777  16.929 -0.1426 -0.0274 -0.1801
  443TMC3     H 6605   3.189   3.828  16.756 -0.1624  1.9583  0.1608
  443TMC3    H1 6606   3.247   3.691  17.139  1.0257  2.3968  0.9213
  443TMC3    H2 6607   2.844   3.723  16.988  0.3383 -2.1334 -0.2204
  443TMC3    C7 6608   2.988   3.651  17.206 -0.0539  0.8956 -0.7127
  443TMC3    C8 6609   2.931   3.748  16.757 -0.0123 -0.4793  0.7382
  443TMC3    O1 6610   3.054   3.671  17.310  0.0098 -0.0766 -0.0569
  443TMC3    O2 6611   2.841   3.663  16.762 -0.3857  0.6594  0.0188
  444MPD2     C 6612   3.403   3.218  17.368 -0.4503 -0.4152 -0.3684
  444MPD2    C1 6613   3.293   3.157  17.311 -0.4877 -0.4716  0.7198
  444MPD2    C2 6614   3.315   3.052  17.220 -0.2038  1.0111 -0.5272
  444MPD2    C3 6615   3.448   3.013  17.184  0.8976  0.0765  0.4686
  444MPD2    C4 6616   3.558   3.077  17.240 -0.0437 -0.0662  0.7842
  444MPD2    C5 6617   3.533   3.179  17.329 -0.3655 -0.8058  0.9020
  444MPD2     H 6618   3.235   3.022  17.153 -0.7474  0.5540  0.3289
  444MPD2    H1 6619   3.663   3.049  17.238  0.1546  0.6222  1.6505
  444MPD2    H2 6620   3.399   3.301  17.437 -0.5026 -3.0475  2.7839
  444MPD2    H3 6621   3.613   3.207  17.396 -1.3454  0.5319  1.5220
  444MPD2     N 6622   3.469   2.892  17.114  0.5574 -0.1355 -0.2814
  444MPD2    H5 6623   3.388   2.836  17.092  0.2678 -0.1961  0.9620
  444MPD2    N1 6624   3.162   3.208  17.331 -0.4662 -0.1081 -0.6859
  444MPD2    H7 6625   3.083   3.160  17.289 -0.7269  0.8602 -1.2843
  445TMC3    C1 6626   3.575   2.715  17.008  0.4283 -0.3491 -0.3198
  445TMC3    C2 6627   3.483   2.680  16.911 -0.6134  0.0402  0.1412
  445TMC3    C3 6628   3.508   2.573  16.831 -0.0236  0.3687  0.2208
  445TMC3    C4 6629   3.698   2.646  17.017 -0.2283 -0.6847 -0.0803
  445TMC3    C5 6630   3.717   2.541  16.936  0.3111  0.1247 -0.1136
  445TMC3    C6 6631   3.630   2.507  16.840  0.1692  0.6461  0.5319
  445TMC3     C 6632   3.592   2.845  17.073 -1.0104 -0.2414 -0.0807
  445TMC3     O 6633   3.710   2.888  17.069 -0.1636  0.4499 -0.6412
  445TMC3     H 6634   3.390   2.735  16.905 -0.6710  0.1577  2.3126
  445TMC3    H1 6635   3.778   2.675  17.085  1.3922 -1.5163 -1.6234
  445TMC3    H2 6636   3.645   2.417  16.781  2.2168  0.0035  2.0163
  445TMC3    C7 6637   3.843   2.469  16.952  0.2429 -0.3050  0.1072
  445TMC3    C8 6638   3.423   2.557  16.710 -0.6865  0.6394  1.1876
  445TMC3    O1 6639   3.888   2.464  17.065  0.0050 -0.0582  0.1809
  445TMC3    O2 6640   3.344   2.652  16.697  0.2020 -0.2263  0.0673
  446MPD2     C 6641   2.792   4.090  11.667  0.2991  0.1738  0.1988
  446MPD2    C1 6642   2.809   4.031  11.545 -0.2896 -0.2729  0.7051
  446MPD2    C2 6643   2.926   4.051  11.475 -0.7411  0.2066 -0.4910
  446MPD2    C3 6644   3.021   4.137  11.520  0.2536  0.4729 -0.9097
  446MPD2    C4 6645   3.000   4.203  11.637 -0.5901 -0.2095  0.6665
  446MPD2    C5 6646   2.890   4.174  11.715 -0.0706  0.3311 -0.0901
  446MPD2     H 6647   2.943   4.012  11.376  0.4736 -0.0382 -0.1841
  446MPD2    H1 6648   3.073   4.276  11.670 -1.4189  1.3932 -1.0704
  446MPD2    H2 6649   2.709   4.071  11.734 -0.4275  1.5937 -0.3042
  446MPD2    H3 6650   2.881   4.208  11.818 -6.0029  0.1766 -0.5795
  446MPD2     N 6651   3.140   4.149  11.436  0.0926  0.4647 -0.2287
  446MPD2    H5 6652   3.124   4.098  11.349  1.3436  2.1694 -1.4644
  446MPD2    N1 6653   2.715   3.948  11.485 -0.5856 -0.0273  0.3324
  446MPD2    H7 6654   2.713   3.946  11.383  1.0787  1.0637  0.2744
  447TMC3    C1 6655   3.364   4.183  11.369 -0.0527  0.3109  0.2236
  447TMC3    C2 6656   3.329   4.181  11.237 -0.7740 -0.2834 -0.9346
  447TMC3    C3 6657   3.385   4.093  11.156 -0.0308  0.0517 -0.5075
  447TMC3    C4 6658   3.461   4.103  11.414 -0.5188  0.2544  0.0038
  447TMC3    C5 6659   3.516   4.014  11.330  0.2617 -0.0682  0.1846
  447TMC3    C6 6660   3.475   4.004  11.202 -0.2832 -0.4013  0.2047
  447TMC3     C 6661   3.260   4.210  11.464 -0.6590 -0.1362  0.9644
  447TMC3     O 6662   3.297   4.239  11.579 -0.3736  0.4270  0.2253
  447TMC3     H 6663   3.253   4.249  11.200 -0.2965  0.5361 -0.3821
  447TMC3    H1 6664   3.456   4.084  11.521  0.7355 -0.9308 -0.1487
  447TMC3    H2 6665   3.548   3.964  11.133 -1.1547 -1.6904  0.0367
  447TMC3    C7 6666   3.612   3.913  11.387 -0.4541  0.2611  0.8628
  447TMC3    C8 6667   3.373   4.127  11.015 -0.1414  0.6486  0.2289
  447TMC3    O1 6668   3.635   3.807  11.330  0.9103 -0.4742 -0.3330
  447TMC3    O2 6669   3.325   4.236  11.001  0.0664 -0.6502  0.4093
  448TMC3    C1 6670   2.488   4.183  17.256 -0.4023  0.1692 -0.9481
  448TMC3    C2 6671   2.413   4.100  17.185  0.1026  0.5345 -0.1681
  448TMC3    C3 6672   2.385   3.974  17.243 -0.0450 -0.2334  0.3417
  448TMC3    C4 6673   2.539   4.152  17.380  0.8334 -1.0282  0.0881
  448TMC3    C5 6674   2.488   4.037  17.439 -0.3687 -0.1827  0.0989
  448TMC3    C6 6675   2.415   3.949  17.374 -0.0494 -0.9045 -0.6145
  448TMC3     C 6676   2.527   4.312  17.200 -0.4135 -0.0271  0.4362
  448TMC3     O 6677   2.541   4.390  17.291 -0.0053 -0.0966  0.7835
  448TMC3     H 6678   2.380   4.134  17.088 -1.2213  0.8203  0.3758
  448TMC3    H1 6679   2.596   4.219  17.442 -2.8011  0.9461  1.2824
  448TMC3    H2 6680   2.376   3.858  17.418  1.5061 -1.6356 -0.7766
  448TMC3    C7 6681   2.504   4.037  17.581 -0.0406 -0.0013  0.0991
  448TMC3    C8 6682   2.301   3.879  17.176 -0.1976 -0.1594 -0.2085
  448TMC3    O1 6683   2.580   4.122  17.626  0.0348 -0.2034  0.4716
  448TMC3    O2 6684   2.302   3.766  17.223 -0.5104  0.1810  0.3225
  449MPD2     C 6685   3.073   2.615  14.339 -0.4388 -0.7151  0.0626
  449MPD2    C1 6686   2.952   2.595  14.272  0.1812  0.2233 -0.1835
  449MPD2    C2 6687   2.870   2.496  14.322  0.9464 -0.2957  0.3967
  449MPD2    C3 6688   2.905   2.429  14.443  0.2357 -0.6494 -0.0220
  449MPD2    C4 6689   3.024   2.459  14.511  0.0157 -0.2157  0.0333
  449MPD2    C5 6690   3.106   2.557  14.461  0.6188  0.0609 -0.1976
  449MPD2     H 6691   2.776   2.467  14.277  1.5893 -0.6589 -0.7161
  449MPD2    H1 6692   3.071   2.399  14.589 -1.6069 -1.1303  0.3097
  449MPD2    H2 6693   3.146   2.680  14.294 -0.1571 -1.5028 -0.6142
  449MPD2    H3 6694   3.199   2.575  14.514  0.6252 -1.3144  0.2403
  449MPD2     N 6695   2.817   2.326  14.481  0.1902 -0.4942  0.3516
  449MPD2    H5 6696   2.745   2.293  14.417  0.3064  2.6243 -1.3683
  449MPD2    N1 6697   2.903   2.659  14.154  0.0405  0.2875 -0.2667
  449MPD2    H7 6698   2.807   2.638  14.128  0.0389 -0.6205  0.4804
  450TMC3    C1 6699   2.908   2.783  13.966 -0.3254  0.0263 -0.0548
  450TMC3    C2 6700   2.961   2.737  13.853 -0.4565  0.4705 -0.0224
  450TMC3    C3 6701   2.859   2.699  13.769  0.5931 -0.4865 -0.0895
  450TMC3    C4 6702   2.773   2.796  13.994  0.3475  0.1449 -1.0504
  450TMC3    C5 6703   2.681   2.747  13.909 -0.2524  0.3884 -0.3286
  450TMC3    C6 6704   2.727   2.699  13.792  0.6460 -0.8102  0.3286
  450TMC3     C 6705   2.977   2.741  14.080  0.0506 -0.1446  1.0509
  450TMC3     O 6706   3.087   2.789  14.104 -0.2155 -0.0598  0.1716
  450TMC3     H 6707   3.067   2.726  13.834 -0.2045  0.1077  1.6066
  450TMC3    H1 6708   2.729   2.836  14.084  1.0354 -0.9338 -0.2351
  450TMC3    H2 6709   2.654   2.655  13.726  2.0316 -0.1732 -1.6029
  450TMC3    C7 6710   2.603   2.647  13.979 -0.4981  0.0743 -0.6274
  450TMC3    C8 6711   2.891   2.684  13.634  0.2809 -0.3398  0.8432
  450TMC3    O1 6712   2.654   2.612  14.082 -0.4005  0.4078 -0.2661
  450TMC3    O2 6713   2.856   2.776  13.558  0.1173  1.0822  0.0799
  451MPD2     C 6714   3.743   0.331   1.594 -0.5790 -0.2454  0.7307
  451MPD2    C1 6715   3.820   0.423   1.523 -0.0202 -0.5277 -0.2079
  451MPD2    C2 6716   3.956   0.402   1.512  0.2382 -0.2116 -0.0604
  451MPD2    C3 6717   4.024   0.294   1.565  0.5818 -0.7657 -0.0348
  451MPD2    C4 6718   3.945   0.210   1.647 -0.4830  0.5630 -0.5750
  451MPD2    C5 6719   3.808   0.225   1.656  0.6699  0.0465 -0.1811
  451MPD2     H 6720   4.009   0.462   1.439  3.1309 -1.9598  0.6000
  451MPD2    H1 6721   3.988   0.126   1.700 -0.2866 -1.2168 -3.5882
  451MPD2    H2 6722   3.638   0.342   1.617 -0.9073 -0.0095 -0.8348
  451MPD2    H3 6723   3.755   0.152   1.716 -0.8765 -0.0880 -1.7203
  451MPD2     N 6724   4.157   0.261   1.538 -0.2598  0.3835  0.2761
  451MPD2    H5 6725   4.199   0.190   1.597 -1.2056 -2.7810 -2.8921
  451MPD2    N1 6726   3.745   0.527   1.464  0.1080 -0.4816  0.0357
  451MPD2    H7 6727   3.646   0.526   1.487  0.1989 -2.4396  0.2882
  452TMC3    C1 6728   4.365   0.254   1.419  0.8736 -0.1301  0.6476
  452TMC3    C2 6729   4.431   0.190   1.517  0.6323  0.2965 -0.2551
  452TMC3    C3 6730   4.563   0.150   1.501  0.2666 -0.1572 -0.1799
  452TMC3    C4 6731   4.428   0.272   1.296 -0.2194 -0.1974 -0.3561
  452TMC3    C5 6732   4.555   0.231   1.287 -0.4397  0.0423 -0.1731
  452TMC3    C6 6733   4.628   0.180   1.389  0.9055 -0.1844  0.3261
  452TMC3     C 6734   4.236   0.326   1.443 -0.1556 -0.6270 -0.0190
  452TMC3     O 6735   4.208   0.410   1.356  0.0049  0.4939  0.2077
  452TMC3     H 6736   4.386   0.170   1.614 -0.7726  0.3811 -0.8819
  452TMC3    H1 6737   4.376   0.328   1.219 -2.9210 -0.5818  1.1806
  452TMC3    H2 6738   0.013   0.169   1.379  1.0736  1.8481 -0.0668
  452TMC3    C7 6739   4.633   0.266   1.167 -0.3399 -0.7576 -0.0650
  452TMC3    C8 6740   4.634   0.092   1.615  0.1170  0.2322  0.2405
  452TMC3    O1 6741   0.035   0.251   1.176 -0.5682  0.5877  0.3898
  452TMC3    O2 6742   4.567   0.081   1.717  0.0508  0.2886 -0.3445
  453TMC3    C1 6743   0.616   2.796  11.775 -0.9739  0.3824 -0.1293
  453TMC3    C2 6744   0.515   2.719  11.830 -0.1234 -0.3789  0.3974
  453TMC3    C3 6745   0.440   2.633  11.753 -0.0953 -0.4200 -1.1143
  453TMC3    C4 6746   0.646   2.774  11.641 -0.9279 -0.1264 -0.3339
  453TMC3    C5 6747   0.576   2.678  11.569 -0.1053 -0.6616 -0.1833
  453TMC3    C6 6748   0.483   2.598  11.630  0.1656 -0.4776  0.5878
  453TMC3     C 6749   0.706   2.868  11.863 -0.6772 -0.5041  0.3170
  453TMC3     O 6750   0.823   2.865  11.834  0.4712 -0.1124 -0.3571
  453TMC3     H 6751   0.502   2.731  11.937  1.1710 -1.4990  0.6907
  453TMC3    H1 6752   0.739   2.817  11.605 -1.4798  1.1365 -0.2705
  453TMC3    H2 6753   0.448   2.505  11.585 -0.3363  0.0171 -0.0373
  453TMC3    C7 6754   0.644   2.619  11.454 -0.4699 -0.1795 -1.0819
  453TMC3    C8 6755   0.371   2.534  11.829 -0.0680  0.0121 -0.8983
  453TMC3    O1 6756   0.609   2.504  11.418  0.7512  0.5047 -0.3198
  453TMC3    O2 6757   0.248   2.548  11.831 -0.3100 -0.3083 -0.1803
  454MPD2     C 6758   4.146   2.660  16.571 -0.5899 -0.0661  0.2586
  454MPD2    C1 6759   4.131   2.732  16.453 -0.0375  0.5256  0.4514
  454MPD2    C2 6760   4.070   2.855  16.458  0.1331 -0.3276 -0.0588
  454MPD2    C3 6761   4.016   2.902  16.581 -0.2137  0.1688  0.4040
  454MPD2    C4 6762   4.032   2.832  16.704  0.2902  0.0573  0.2943
  454MPD2    C5 6763   4.093   2.707  16.691  0.2940  0.1318  0.7516
  454MPD2     H 6764   4.059   2.912  16.366 -1.3498 -0.7517 -0.1442
  454MPD2    H1 6765   3.991   2.863  16.800  0.2861 -0.2932  0.4061
  454MPD2    H2 6766   4.199   2.566  16.558  0.3221  0.5083 -0.1766
  454MPD2    H3 6767   4.114   2.642  16.775 -2.1489 -2.7102 -0.7980
  454MPD2     N 6768   3.938   3.017  16.590 -0.1090 -0.1479  0.1258
  454MPD2    H5 6769   3.887   3.022  16.677  0.8950  2.7466  0.5340
  454MPD2    N1 6770   4.155   2.684  16.322  0.4932  0.5402  0.3852
  454MPD2    H7 6771   4.154   2.750  16.244 -1.0062 -1.1874 -1.0319
  455TMC3    C1 6772   3.737   3.086  16.491  0.5290 -0.0728 -0.8344
  455TMC3    C2 6773   3.699   3.127  16.615 -0.4744 -0.2031  0.6390
  455TMC3    C3 6774   3.613   3.046  16.680 -0.9050 -0.1038  0.6043
  455TMC3    C4 6775   3.694   2.970  16.434  0.4263  0.2298 -0.3870
  455TMC3    C5 6776   3.615   2.883  16.513 -0.0349  0.2238 -0.0281
  455TMC3    C6 6777   3.565   2.928  16.632  0.0179  0.0781 -0.2687
  455TMC3     C 6778   3.881   3.088  16.479 -0.6285 -0.4252  0.7682
  455TMC3     O 6779   3.927   3.109  16.364 -0.2554  0.4160 -0.2457
  455TMC3     H 6780   3.731   3.223  16.654  1.5665 -0.3035 -0.7760
  455TMC3    H1 6781   3.763   2.929  16.361  0.0761  0.7700 -1.0224
  455TMC3    H2 6782   3.497   2.868  16.691  0.9490 -1.1341 -0.4185
  455TMC3    C7 6783   3.667   2.751  16.523  0.1144 -0.6230  0.2114
  455TMC3    C8 6784   3.530   3.106  16.780  0.0847 -0.3762 -0.4833
  455TMC3    O1 6785   3.694   2.702  16.631  0.3727 -0.2722  0.2002
  455TMC3    O2 6786   3.420   3.052  16.796  0.0381  0.6465  0.1828
  456MPD2     C 6787   1.837   2.708  16.467  0.2078 -0.4166  0.4893
  456MPD2    C1 6788   1.928   2.684  16.562 -0.3023 -0.3321 -0.3498
  456MPD2    C2 6789   1.934   2.754  16.674  0.1419 -0.4495 -0.1478
  456MPD2    C3 6790   1.839   2.860  16.684  0.0964 -0.6276 -0.4969
  456MPD2    C4 6791   1.747   2.894  16.585  0.3519  0.1347  0.1814
  456MPD2    C5 6792   1.749   2.812  16.480  0.6160 -0.6468 -0.2835
  456MPD2     H 6793   2.005   2.750  16.756  0.5521  0.1201 -0.4735
  456MPD2    H1 6794   1.671   2.971  16.598 -0.7920 -1.2801  1.8852
  456MPD2    H2 6795   1.842   2.659  16.371 -0.6597  0.6607 -0.0925
  456MPD2    H3 6796   1.681   2.837  16.399 -1.9046 -1.5578  1.5578
  456MPD2     N 6797   1.857   2.934  16.803 -0.3701 -0.2656  0.2833
  456MPD2    H5 6798   1.925   2.895  16.867  2.7536  2.9191 -1.1018
  456MPD2    N1 6799   2.023   2.591  16.535 -0.0940 -0.1901 -0.3449
  456MPD2    H7 6800   2.035   2.573  16.436  0.3018 -1.1013 -0.1284
  457TMC3    C1 6801   1.872   3.123  16.948 -0.1640  0.1888 -0.3588
  457TMC3    C2 6802   1.912   3.251  16.933 -0.3345 -0.5517  0.6054
  457TMC3    C3 6803   1.998   3.298  17.035 -0.0333  0.3962  0.0628
  457TMC3    C4 6804   1.893   3.050  17.054  0.5304 -0.1798  0.1064
  457TMC3    C5 6805   1.969   3.104  17.154 -0.3725 -0.2200 -0.1682
  457TMC3    C6 6806   2.027   3.226  17.147  0.4072 -0.2957 -0.5945
  457TMC3     C 6807   1.811   3.061  16.830 -0.1226 -0.9202  0.0116
  457TMC3     O 6808   1.756   3.132  16.746  0.6706 -0.6193  0.1062
  457TMC3     H 6809   1.890   3.307  16.843 -0.1883 -0.6580  0.5039
  457TMC3    H1 6810   1.861   2.947  17.042  0.1912  0.0230 -0.7660
  457TMC3    H2 6811   2.089   3.271  17.224  0.4731  2.7375 -2.4277
  457TMC3    C7 6812   1.948   3.044  17.285  0.2313  0.7573 -0.4149
  457TMC3    C8 6813   2.053   3.433  17.029 -0.0086  0.0588 -0.5038
  457TMC3    O1 6814   1.926   2.923  17.285 -0.0261 -0.2667  0.8816
  457TMC3    O2 6815   2.125   3.452  17.123  0.0461 -0.5365 -0.2343
  458MPD2     C 6816   4.613   1.268  12.189  0.2524 -0.3758 -0.6095
  458MPD2    C1 6817   4.554   1.315  12.304  0.4500  0.3775 -0.3682
  458MPD2    C2 6818   4.447   1.249  12.355  0.2573 -0.1260 -0.0387
  458MPD2    C3 6819   4.411   1.124  12.301 -0.1366  0.5976 -0.9269
  458MPD2    C4 6820   4.479   1.069  12.192 -0.5588  0.1178 -0.0947
  458MPD2    C5 6821   4.572   1.155  12.132  0.9658 -0.5240 -0.0454
  458MPD2     H 6822   4.412   1.277  12.453 -0.3426 -0.4810 -0.1537
  458MPD2    H1 6823   4.459   0.971  12.150 -0.0150  0.0500 -0.1890
  458MPD2    H2 6824   4.681   1.328  12.129 -0.6433  0.3416 -0.9140
  458MPD2    H3 6825   4.621   1.128  12.039  0.1198  0.7395 -0.8520
  458MPD2     N 6826   4.295   1.066  12.353 -0.0929  0.1081  0.7025
  458MPD2    H5 6827   4.247   1.121  12.423  1.9631  0.7879  1.6000
  458MPD2    N1 6828   4.606   1.435  12.354 -0.3674 -0.0087  0.4433
  458MPD2    H7 6829   4.672   1.488  12.298  1.6910  0.4895  3.3603
  459TMC3    C1 6830   4.628   1.622  12.508  0.7580  0.2367 -0.0807
  459TMC3    C2 6831   0.005   1.682  12.437 -0.1224 -0.9779  0.0650
  459TMC3    C3 6832   0.069   1.788  12.492 -0.8249  0.2676  0.6799
  459TMC3    C4 6833   4.592   1.667  12.634  0.2769 -0.4227  0.7253
  459TMC3    C5 6834   4.663   1.766  12.690  0.3480  0.5740  0.1398
  459TMC3    C6 6835   0.042   1.832  12.618 -0.1539  0.4384  0.1289
  459TMC3     C 6836   4.560   1.502  12.463 -0.8809  0.4410  0.1148
  459TMC3     O 6837   4.474   1.464  12.539 -0.2402  1.0059  0.1471
  459TMC3     H 6838   0.040   1.642  12.342 -0.3172 -2.1468  0.4871
  459TMC3    H1 6839   4.510   1.616  12.685 -1.1302  0.8102 -0.3113
  459TMC3    H2 6840   0.110   1.897  12.671  0.9708 -0.4343 -0.2452
  459TMC3    C7 6841   4.652   1.781  12.832 -0.6344 -0.1368  0.0520
  459TMC3    C8 6842   0.182   1.849  12.422  0.4560 -0.2187  0.5246
  459TMC3    O1 6843   4.603   1.688  12.894  0.6707  0.2040 -0.2098
  459TMC3    O2 6844   0.227   1.788  12.323 -0.1248 -0.0100 -0.0635
  460MPD2     C 6845   3.484   3.974  10.699 -0.1473 -0.2287  0.5436
  460MPD2    C1 6846   3.426   4.069  10.778 -0.1098 -0.0773 -0.0843
  460MPD2    C2 6847   3.381   4.186  10.721 -0.0424  0.4300 -0.1142
  460MPD2    C3 6848   3.372   4.202  10.586  0.0738  0.5492  0.2606
  460MPD2    C4 6849   3.418   4.099  10.507  0.0273  0.1160 -0.0493
  460MPD2    C5 6850   3.476   3.988  10.559 -0.4135 -0.6151 -0.2299
  460MPD2     H 6851   3.329   4.257  10.783  0.4384 -0.3341  1.1774
  460MPD2    H1 6852   3.397   4.088  10.401 -0.1328 -1.0282  0.1049
  460MPD2    H2 6853   3.524   3.882  10.737  2.1709  1.5539  2.3710
  460MPD2    H3 6854   3.503   3.906  10.493  1.8123  1.1136 -1.4973
  460MPD2     N 6855   3.303   4.319  10.548 -0.1547  0.4385 -0.4261
  460MPD2    H5 6856   3.260   4.378  10.618  2.4459 -0.3594  1.8851
  460MPD2    N1 6857   3.424   4.045  10.919 -0.0996  0.1098  0.5445
  460MPD2    H7 6858   3.451   3.952  10.947 -2.9655 -1.5729 -2.3545
  461TMC3    C1 6859   3.161   4.440  10.406  0.1174 -0.3313  0.0372
  461TMC3    C2 6860   3.063   4.417  10.320 -0.2370 -0.0446  0.0693
  461TMC3    C3 6861   3.028   4.511  10.229  0.5693  0.0498  0.5715
  461TMC3    C4 6862   3.222   4.562  10.425  0.6024 -0.5514  0.2487
  461TMC3    C5 6863   3.179   4.661  10.337  0.0290  0.5975  0.4606
  461TMC3    C6 6864   3.083   4.636  10.236 -0.1395  0.6823  0.3443
  461TMC3     C 6865   3.236   4.317  10.430 -0.2962 -0.2837 -0.4169
  461TMC3     O 6866   3.217   4.224  10.355 -0.0452  0.2133  0.4143
  461TMC3     H 6867   3.012   4.321  10.311 -1.1782  0.1168  3.8867
  461TMC3    H1 6868   3.303   4.582  10.494 -1.3356 -0.5603  2.5274
  461TMC3    H2 6869   3.055   4.715  10.166 -2.6828 -0.4720  0.0607
  461TMC3    C7 6870   3.228   0.076  10.350 -0.0722  0.4986  0.0254
  461TMC3    C8 6871   2.983   4.460  10.104  0.3253 -0.2676 -0.1712
  461TMC3    O1 6872   3.151   0.165  10.310 -0.4333  0.0860 -0.0132
  461TMC3    O2 6873   2.996   4.342  10.086  0.0605 -0.4135  0.2683
  462TMC3    C1 6874   4.147   1.123   0.603 -0.1349  0.1379  0.1375
  462TMC3    C2 6875   4.259   1.041   0.591  0.8259 -0.1790  0.8750
  462TMC3    C3 6876   4.238   0.909   0.617 -0.9775  0.1911  0.1871
  462TMC3    C4 6877   4.033   1.076   0.648 -0.6506 -0.4126  0.1349
  462TMC3    C5 6878   4.020   0.943   0.683  0.2987 -0.8202  0.4994
  462TMC3    C6 6879   4.126   0.858   0.673  0.6092 -0.4178  0.4759
  462TMC3     C 6880   4.151   1.267   0.581  0.5127 -0.7397  0.3711
  462TMC3     O 6881   4.043   1.325   0.568  0.1898  0.4612 -0.4178
  462TMC3     H 6882   4.348   1.079   0.543 -0.8425  2.9604  0.2768
  462TMC3    H1 6883   3.956   1.152   0.661  0.7160  1.2091 -1.3225
  462TMC3    H2 6884   4.110   0.751   0.684  1.7902 -0.7122 -0.6352
  462TMC3    C7 6885   3.896   0.878   0.726  0.1439 -0.7930 -0.0166
  462TMC3    C8 6886   4.331   0.823   0.549 -0.6111 -0.5720  0.2615
  462TMC3    O1 6887   3.899   0.763   0.767 -0.2902 -0.2890  0.1493
  462TMC3    O2 6888   4.449   0.849   0.555  0.1783 -0.6004 -0.1966
  463MPD2     C 6889   4.711   3.817   2.737 -0.9748 -0.0666  0.1995
  463MPD2    C1 6890   4.604   3.845   2.657  0.2883 -0.2326 -0.7163
  463MPD2    C2 6891   4.629   3.910   2.537  0.0177 -0.3256  0.0858
  463MPD2    C3 6892   0.030   3.968   2.497  0.1278  0.3389  0.1776
  463MPD2    C4 6893   0.135   3.948   2.585 -0.2272  0.0802 -0.3800
  463MPD2    C5 6894   0.111   3.865   2.693 -0.3041  0.3148 -0.2035
  463MPD2     H 6895   4.541   3.938   2.480  1.4028  1.8798 -0.9851
  463MPD2    H1 6896   0.233   3.972   2.547 -0.2296 -0.8241 -0.9716
  463MPD2    H2 6897   4.701   3.762   2.829 -3.6821  1.1044  0.6113
  463MPD2    H3 6898   0.195   3.842   2.758 -1.2919 -0.2739  0.8534
  463MPD2     N 6899   0.054   4.035   2.375 -0.6233  0.0254 -0.1314
  463MPD2    H5 6900   0.147   4.072   2.359 -1.3919  2.2246  0.5334
  463MPD2    N1 6901   4.477   3.802   2.681 -0.2066 -0.6925  0.3195
  463MPD2    H7 6902   4.407   3.828   2.612 -1.5772  1.8060  2.6551
  464TMC3    C1 6903   4.304   3.673   2.768  0.2396  0.7829 -0.9607
  464TMC3    C2 6904   4.216   3.751   2.697 -0.8140 -0.2665  0.2087
  464TMC3    C3 6905   4.095   3.687   2.670  0.9639  0.2022  0.7100
  464TMC3    C4 6906   4.269   3.544   2.803  0.8668 -0.5234 -0.5906
  464TMC3    C5 6907   4.151   3.490   2.769 -0.5046  0.0770  0.3173
  464TMC3    C6 6908   4.059   3.560   2.704  0.4611  0.5727 -0.0737
  464TMC3     C 6909   4.443   3.712   2.777 -0.3856  0.3367  0.1059
  464TMC3     O 6910   4.503   3.657   2.868  0.2373 -0.1207 -0.4347
  464TMC3     H 6911   4.231   3.851   2.659 -0.3345 -0.2397  0.4762
  464TMC3    H1 6912   4.350   3.480   2.835  0.0667 -0.5035  1.4858
  464TMC3    H2 6913   3.960   3.519   2.693  0.5887 -0.2819  1.9623
  464TMC3    C7 6914   4.121   3.354   2.801  0.5963 -0.0413 -0.0537
  464TMC3    C8 6915   3.999   3.753   2.580  0.5067  0.1570  0.1445
  464TMC3    O1 6916   4.143   3.300   2.913 -0.3584 -0.5463 -0.0267
  464TMC3    O2 6917   3.922   3.678   2.519 -0.2063 -0.4352 -0.0701
  465MPD2     C 6918   1.473   2.907  16.792  0.2265  0.0305 -0.1819
  465MPD2    C1 6919   1.394   3.002  16.846  0.6306 -0.3422  0.1021
  465MPD2    C2 6920   1.285   3.055  16.778 -0.2162  1.2025  0.2458
  465MPD2    C3 6921   1.243   3.010  16.655 -0.4888 -0.3911 -0.0853
  465MPD2    C4 6922   1.325   2.916  16.599 -0.4884  0.0831 -0.2487
  465MPD2    C5 6923   1.436   2.867  16.668  0.5404 -0.2825  0.5700
  465MPD2     H 6924   1.218   3.132  16.815 -1.2847  1.2187 -1.7203
  465MPD2    H1 6925   1.307   2.866  16.504 -2.0144  0.5312 -0.1980
  465MPD2    H2 6926   1.562   2.862  16.835 -0.0370 -0.4153 -0.1018
  465MPD2    H3 6927   1.490   2.791  16.613  1.3134  0.2855  0.5352
  465MPD2     N 6928   1.125   3.057  16.582  0.2995 -0.3919  0.6771
  465MPD2    H5 6929   1.075   3.139  16.617 -2.1256 -1.7057  0.2930
  465MPD2    N1 6930   1.411   3.048  16.980  0.1994  0.3257 -0.3287
  465MPD2    H7 6931   1.345   3.120  17.010  0.9346  0.8174  0.0975
  466TMC3    C1 6932   0.727   3.047  16.427  0.4113  0.4361  0.1487
  466TMC3    C2 6933   0.712   3.175  16.466  0.6162  0.5467  0.4088
  466TMC3    C3 6934   0.829   3.248  16.478  0.3929  0.3475  0.4752
  466TMC3    C4 6935   0.850   2.987  16.419  0.2009  0.0267  0.5982
  466TMC3    C5 6936   0.962   3.064  16.430  0.3407 -0.8084 -0.0190
  466TMC3    C6 6937   0.954   3.197  16.456  0.0340  0.2710  0.8415
  466TMC3     C 6938   0.631   2.956  16.474 -0.1983  0.7370 -0.3356
  466TMC3     O 6939   0.660   2.880  16.564  0.1039  0.5397  0.7284
  466TMC3     H 6940   0.614   3.222  16.474  0.1693 -0.3623  0.2037
  466TMC3    H1 6941   0.849   2.880  16.402  0.9540  0.1390 -0.1494
  466TMC3    H2 6942   1.041   3.257  16.477  1.1461 -1.6315  1.6912
  466TMC3    C7 6943   1.082   2.993  16.465 -0.5021 -0.1182  0.1732
  466TMC3    C8 6944   0.814   3.390  16.497 -0.3685 -0.3879  0.4349
  466TMC3    O1 6945   1.109   2.887  16.413  1.2395  0.0464 -0.5417
  466TMC3    O2 6946   0.905   3.456  16.451 -0.5997 -0.3189 -0.3595
  467TMC3    C1 6947   1.460   1.882  14.226  0.4592 -0.5981  0.6368
  467TMC3    C2 6948   1.386   1.931  14.127 -0.8550  0.1414 -0.4918
  467TMC3    C3 6949   1.316   1.849  14.050 -0.0909  0.4032 -0.6142
  467TMC3    C4 6950   1.432   1.762  14.278 -0.1827 -0.5396  0.3751
  467TMC3    C5 6951   1.339   1.681  14.209 -0.6337 -0.5003 -0.3966
  467TMC3    C6 6952   1.275   1.725  14.092  0.4525 -0.3335 -0.2271
  467TMC3     C 6953   1.597   1.929  14.224  0.1093 -0.4101  0.6193
  467TMC3     O 6954   1.654   1.960  14.326 -0.6299  0.6214  0.4030
  467TMC3     H 6955   1.397   2.035  14.100  0.1139  0.0406 -0.4688
  467TMC3    H1 6956   1.495   1.722  14.357 -1.3303 -2.3664  0.3588
  467TMC3    H2 6957   1.223   1.652  14.030  2.4076 -0.2251 -1.9864
  467TMC3    C7 6958   1.350   1.537  14.233 -0.1304  0.1809  0.0995
  467TMC3    C8 6959   1.319   1.871  13.907 -0.9964  0.9133  0.1777
  467TMC3    O1 6960   1.460   1.485  14.223  0.5860 -0.0331 -0.1806
  467TMC3    O2 6961   1.386   1.969  13.873  0.0523 -0.0004 -0.0290
  468MPD2     C 6962   0.617   3.501  10.542  0.5964 -0.1662  0.6915
  468MPD2    C1 6963   0.737   3.470  10.606 -0.5586 -0.6341 -0.0620
  468MPD2    C2 6964   0.752   3.344  10.651 -0.7323  0.3813  0.7929
  468MPD2    C3 6965   0.658   3.245  10.634  0.3685 -0.1063  0.6788
  468MPD2    C4 6966   0.538   3.278  10.577  0.2217 -0.2925  0.7261
  468MPD2    C5 6967   0.515   3.407  10.539  0.1726  0.0063  0.2296
  468MPD2     H 6968   0.837   3.328  10.717 -0.1437  1.1733  0.2282
  468MPD2    H1 6969   0.463   3.201  10.568  1.1293 -1.0281 -0.5284
  468MPD2    H2 6970   0.597   3.600  10.503  0.3020 -0.2507  0.6297
  468MPD2    H3 6971   0.426   3.429  10.480 -0.5133 -0.8118  0.9569
  468MPD2     N 6972   0.681   3.117  10.668 -0.0941  0.1647 -0.2851
  468MPD2    H5 6973   0.601   3.055  10.675 -1.4935  1.7353 -1.9530
  468MPD2    N1 6974   0.842   3.558  10.630  0.0300 -0.2840 -0.1909
  468MPD2    H7 6975   0.920   3.514  10.678  0.0583  0.3349  0.3295
  469TMC3    C1 6976   0.968   3.756  10.657  0.2180 -0.1723 -0.7539
  469TMC3    C2 6977   1.047   3.682  10.738 -0.4392  0.7045 -0.0097
  469TMC3    C3 6978   1.112   3.744  10.842  0.0316  0.0592 -0.2586
  469TMC3    C4 6979   0.953   3.893  10.682 -1.1805 -0.6825  0.0868
  469TMC3    C5 6980   1.003   3.951  10.798  0.3195  0.4295 -0.2198
  469TMC3    C6 6981   1.097   3.874  10.868  0.8222  0.0195 -0.6578
  469TMC3     C 6982   0.851   3.689  10.605  0.5662  0.0669  0.3372
  469TMC3     O 6983   0.771   3.767  10.548 -0.9771  0.4176 -0.3979
  469TMC3     H 6984   1.083   3.584  10.709 -0.2844  0.8359 -0.2713
  469TMC3    H1 6985   0.893   3.955  10.617  1.2820  0.4706 -1.0654
  469TMC3    H2 6986   1.121   3.905  10.969 -1.6100 -0.7426  0.1762
  469TMC3    C7 6987   0.945   4.071  10.849 -0.1862 -0.3099 -0.6338
  469TMC3    C8 6988   1.166   3.650  10.940  0.3334 -0.1094  0.4620
  469TMC3    O1 6989   0.874   4.123  10.772  0.2630 -0.2076  0.0984
  469TMC3    O2 6990   1.136   3.533  10.924  0.1202  0.0602  0.0162
  470TMC3    C1 6991   2.710   0.573   0.697  0.4061  0.4391  0.0972
  470TMC3    C2 6992   2.749   0.704   0.716 -0.7091  0.0978 -0.0324
  470TMC3    C3 6993   2.816   0.727   0.832 -0.5865  1.0162  0.4392
  470TMC3    C4 6994   2.753   0.473   0.782 -0.0048  0.7855 -0.4483
  470TMC3    C5 6995   2.834   0.501   0.889  0.6992 -0.1803  0.3757
  470TMC3    C6 6996   2.866   0.629   0.909 -0.3952 -0.7792 -0.1224
  470TMC3     C 6997   2.640   0.551   0.574  0.3409  0.0845  0.1653
  470TMC3     O 6998   2.630   0.643   0.488  0.4838 -0.8351 -0.3330
  470TMC3     H 6999   2.697   0.784   0.665  1.3483  3.3320  2.9260
  470TMC3    H1 7000   2.730   0.368   0.770 -1.2932  0.9573  0.5950
  470TMC3    H2 7001   2.910   0.657   1.005  0.6536  0.0743 -0.8465
  470TMC3    C7 7002   2.878   0.403   0.981  0.2317 -0.0894 -0.3600
  470TMC3    C8 7003   2.828   0.860   0.883  0.5888  0.0985  0.5600
  470TMC3    O1 7004   2.929   0.308   0.931 -0.0003 -0.2243 -0.1040
  470TMC3    O2 7005   2.869   0.873   0.999  0.1899 -0.0590 -0.1470
  471MPD2     C 7006   3.276   2.013  17.110 -0.0619  0.0405  0.2497
  471MPD2    C1 7007   3.290   1.887  17.051  0.3467 -0.3733  0.3227
  471MPD2    C2 7008   3.387   1.802  17.101  0.3266  0.1879 -0.5370
  471MPD2    C3 7009   3.460   1.837  17.203 -0.0589  0.6118 -0.2553
  471MPD2    C4 7010   3.458   1.959  17.257  0.5660 -0.0560  0.6019
  471MPD2    C5 7011   3.365   2.049  17.210  0.9167 -0.3564 -0.4817
  471MPD2     H 7012   3.405   1.703  17.060 -0.3237 -0.7977  1.5478
  471MPD2    H1 7013   3.512   1.993  17.345  0.2120 -1.4150  1.3408
  471MPD2    H2 7014   3.208   2.093  17.084 -1.1434 -1.0489 -0.2965
  471MPD2    H3 7015   3.366   2.143  17.263  0.0206 -0.8969  0.4772
  471MPD2     N 7016   3.533   1.734  17.263  0.4297 -0.4621  0.2035
  471MPD2    H5 7017   3.522   1.640  17.226 -0.2437  0.5806 -2.2638
  471MPD2    N1 7018   3.220   1.843  16.938 -0.1029  0.0424  0.6967
  471MPD2    H7 7019   3.232   1.745  16.916 -1.0153 -0.3027  1.7515
  472TMC3    C1 7020   3.075   1.830  16.760  0.6266 -0.1227 -1.0950
  472TMC3    C2 7021   3.026   1.887  16.647  0.3759 -0.7171 -0.0845
  472TMC3    C3 7022   2.956   1.804  16.565 -0.3090  0.1415 -0.0704
  472TMC3    C4 7023   3.039   1.709  16.809  0.4180 -0.5298  0.8194
  472TMC3    C5 7024   2.963   1.629  16.724 -0.0069  0.0469  0.0287
  472TMC3    C6 7025   2.930   1.672  16.596 -0.0462  0.2421 -0.4776
  472TMC3     C 7026   3.136   1.914  16.858  0.3363  0.4977  1.2202
  472TMC3     O 7027   3.103   2.032  16.855  0.3219  0.1920  0.0874
  472TMC3     H 7028   3.068   1.982  16.618 -1.0184  0.6992  2.4749
  472TMC3    H1 7029   3.052   1.684  16.914  2.3148 -1.0884  0.4564
  472TMC3    H2 7030   2.886   1.597  16.530 -1.7483  2.3395 -1.7463
  472TMC3    C7 7031   2.981   1.486  16.759 -0.4559  0.9041  0.0528
  472TMC3    C8 7032   2.916   1.853  16.435 -0.0408 -0.2660 -0.6991
  472TMC3    O1 7033   3.018   1.460  16.875  0.1562  0.3146 -0.7432
  472TMC3    O2 7034   2.993   1.935  16.385  0.3743 -0.3283  0.1726
  473MPD2     C 7035   2.985   3.879  14.008 -0.4352 -0.0350  0.9189
  473MPD2    C1 7036   3.111   3.897  13.959  0.6487 -0.2885  0.4684
  473MPD2    C2 7037   3.213   3.941  14.045  0.1895 -0.5556  0.2860
  473MPD2    C3 7038   3.185   3.969  14.176  0.0143  0.3029  0.5867
  473MPD2    C4 7039   3.066   3.948  14.222 -0.0580  0.0878 -0.1897
  473MPD2    C5 7040   2.966   3.904  14.140  0.0414  0.5713 -0.4166
  473MPD2     H 7041   3.315   3.936  14.009  0.3280  0.7740  0.4944
  473MPD2    H1 7042   3.050   3.973  14.326  2.3110  0.6601  0.0563
  473MPD2    H2 7043   2.905   3.851  13.940  0.7677 -0.5046 -0.2969
  473MPD2    H3 7044   2.865   3.900  14.180  0.2255  1.1945  0.1092
  473MPD2     N 7045   3.270   4.037  14.268  0.5305 -0.1796 -0.9163
  473MPD2    H5 7046   3.230   4.083  14.349 -1.2633 -0.3579 -1.7068
  473MPD2    N1 7047   3.147   3.863  13.830 -0.3979  0.3120 -0.2156
  473MPD2    H7 7048   3.236   3.896  13.796 -0.1575 -1.8876 -1.6838
  474TMC3    C1 7049   3.447   4.160  14.339 -0.5419 -0.4827 -0.5594
  474TMC3    C2 7050   3.356   4.259  14.365 -0.7638  0.1096  0.8257
  474TMC3    C3 7051   3.401   4.342  14.464 -0.2919 -0.5516  0.1513
  474TMC3    C4 7052   3.576   4.147  14.396 -0.1713 -0.1631  0.2461
  474TMC3    C5 7053   3.610   4.235  14.495  0.2087  0.3692  0.0861
  474TMC3    C6 7054   3.517   4.333  14.537  0.0812  0.5981  0.3159
  474TMC3     C 7055   3.403   4.054  14.245 -0.4063  0.1093 -0.1954
  474TMC3     O 7056   3.483   4.014  14.158 -0.0034  0.3059  0.1386
  474TMC3     H 7057   3.276   4.286  14.298 -0.2893 -0.3553  0.0773
  474TMC3    H1 7058   3.646   4.071  14.365 -0.4172  0.0268 -0.7736
  474TMC3    H2 7059   3.543   4.413  14.605  1.8431  0.8681 -0.6854
  474TMC3    C7 7060   3.735   4.216  14.570 -0.0252 -0.1810 -0.4877
  474TMC3    C8 7061   3.322   4.460  14.492  0.2704  0.4298  0.8202
  474TMC3    O1 7062   3.800   4.126  14.518  0.0817 -0.1515  0.0629
  474TMC3    O2 7063   3.382   4.564  14.507  0.7704  0.0090 -0.2963
  475MPD2     C 7064   2.538   2.469  10.671 -0.1252  0.7431 -0.6163
  475MPD2    C1 7065   2.451   2.388  10.599  0.2311 -0.0984  0.2511
  475MPD2    C2 7066   2.317   2.400  10.634 -0.2588  0.1770  0.1816
  475MPD2    C3 7067   2.273   2.472  10.744  0.3938  0.3744 -0.4432
  475MPD2    C4 7068   2.367   2.553  10.807 -0.2802 -0.2327  0.3259
  475MPD2    C5 7069   2.494   2.557  10.770  0.5021  0.4833  0.8010
  475MPD2     H 7070   2.250   2.336  10.578 -0.2412 -0.1258  0.5085
  475MPD2    H1 7071   2.341   2.617  10.890  0.6376 -2.3102  2.2109
  475MPD2    H2 7072   2.641   2.465  10.638 -0.0773 -2.6582 -0.0689
  475MPD2    H3 7073   2.566   2.619  10.822  2.0627  0.3410 -1.1729
  475MPD2     N 7074   2.140   2.467  10.789  0.1764 -0.2619 -0.0229
  475MPD2    H5 7075   2.075   2.422  10.725  0.8461 -0.9397 -0.2246
  475MPD2    N1 7076   2.510   2.313  10.497 -0.1092  0.3454  1.4237
  475MPD2    H7 7077   2.609   2.334  10.488 -0.0891 -1.2861 -2.0146
  476TMC3    C1 7078   2.514   2.202  10.293  0.6814  0.1355  0.3244
  476TMC3    C2 7079   2.428   2.146  10.207  0.2118  0.1698 -0.1975
  476TMC3    C3 7080   2.424   2.182  10.077 -0.2240  0.4986 -0.1640
  476TMC3    C4 7081   2.581   2.313  10.248  0.6603 -0.1703 -0.6557
  476TMC3    C5 7082   2.566   2.363  10.118 -0.7246 -0.1433  0.5332
  476TMC3    C6 7083   2.479   2.301  10.032  0.1134 -0.4698 -0.9248
  476TMC3     C 7084   2.437   2.236  10.410 -0.0761  0.2094 -0.3126
  476TMC3     O 7085   2.316   2.238  10.379  0.1418  0.6666  0.0736
  476TMC3     H 7086   2.384   2.053  10.241 -1.3487  1.5534  1.5778
  476TMC3    H1 7087   2.674   2.336  10.300  0.5163 -0.5906 -0.2194
  476TMC3    H2 7088   2.451   2.336   9.934  0.6405 -1.5966 -1.4762
  476TMC3    C7 7089   2.582   2.504  10.112 -0.8896  0.5458  0.4138
  476TMC3    C8 7090   2.316   2.120   9.997 -0.0652  0.4777  0.0768
  476TMC3    O1 7091   2.645   2.552  10.018 -0.2358 -0.0998 -0.1505
  476TMC3    O2 7092   2.268   2.190   9.909 -0.0074 -0.3378  0.0410
  477MPD2     C 7093   3.614   3.157  11.570 -0.0907  0.2066  0.0283
  477MPD2    C1 7094   3.545   3.118  11.684 -0.5536 -0.1558 -0.4049
  477MPD2    C2 7095   3.604   3.047  11.785 -0.1941 -0.3355 -0.1099
  477MPD2    C3 7096   3.736   2.997  11.773 -0.6839  0.1478 -0.4146
  477MPD2    C4 7097   3.799   3.029  11.652  0.2941 -0.3199  0.0594
  477MPD2    C5 7098   3.736   3.105  11.549 -0.1067  0.5299  0.2723
  477MPD2     H 7099   3.546   3.027  11.874  3.1921  2.0839  2.6387
  477MPD2    H1 7100   3.896   2.985  11.630  1.6135  1.6730  1.9156
  477MPD2    H2 7101   3.572   3.219  11.491 -0.5054 -0.0969  0.0086
  477MPD2    H3 7102   3.781   3.139  11.456 -1.6261 -0.2588 -0.7591
  477MPD2     N 7103   3.793   2.921  11.874  0.1646  0.2389 -0.0995
  477MPD2    H5 7104   3.739   2.902  11.958  1.1845 -0.6013  0.3644
  477MPD2    N1 7105   3.417   3.178  11.696  0.1778 -0.0809 -0.0044
  477MPD2    H7 7106   3.387   3.241  11.623  2.4417  1.7373  0.6524
  478TMC3    C1 7107   3.240   3.282  11.802  0.2458 -0.5882  0.1799
  478TMC3    C2 7108   3.282   3.373  11.885 -0.1930 -0.4026  0.1509
  478TMC3    C3 7109   3.239   3.505  11.870  0.2462 -0.6157  0.0852
  478TMC3    C4 7110   3.169   3.313  11.688  0.2506  0.8897  0.2694
  478TMC3    C5 7111   3.128   3.443  11.674 -0.1345 -0.0296  0.3606
  478TMC3    C6 7112   3.157   3.539  11.765 -0.5928  0.3803 -0.1866
  478TMC3     C 7113   3.324   3.170  11.798 -0.5672 -0.1911 -1.0414
  478TMC3     O 7114   3.345   3.122  11.909 -0.1771 -0.0655 -0.2010
  478TMC3     H 7115   3.334   3.337  11.973  1.9416 -0.4844 -1.1529
  478TMC3    H1 7116   3.128   3.226  11.637  2.5674 -0.0576  0.0496
  478TMC3    H2 7117   3.124   3.639  11.740 -1.6940 -0.1542 -0.8739
  478TMC3    C7 7118   3.028   3.457  11.566  0.2139  0.1990 -0.2535
  478TMC3    C8 7119   3.289   3.596  11.976 -0.3364  0.6465 -0.4918
  478TMC3    O1 7120   2.958   3.359  11.553  0.0444  0.5781 -0.6403
  478TMC3    O2 7121   3.373   3.547  12.050  0.6965  0.5429 -0.0661
  479MPD2     C 7122   2.902   1.227  15.385 -0.1050  0.1285 -0.7790
  479MPD2    C1 7123   2.839   1.121  15.453 -0.2232 -0.2159 -0.8778
  479MPD2    C2 7124   2.889   1.104  15.583  0.7538 -0.1211  0.2634
  479MPD2    C3 7125   2.964   1.205  15.655 -0.2409 -0.1262 -0.5486
  479MPD2    C4 7126   3.007   1.311  15.590 -0.0902  0.5975 -0.2099
  479MPD2    C5 7127   2.985   1.316  15.450 -0.1173 -0.2379 -0.6995
  479MPD2     H 7128   2.866   1.019  15.646  1.3734 -1.5447 -1.4397
  479MPD2    H1 7129   3.051   1.400  15.633 -0.6332  0.1625  1.2416
  479MPD2    H2 7130   2.874   1.249  15.282 -1.7690  0.5657 -0.2293
  479MPD2    H3 7131   3.028   1.399  15.396  1.7558 -0.5668  0.2838
  479MPD2     N 7132   2.993   1.189  15.786  0.0494  0.3513  0.1346
  479MPD2    H5 7133   3.085   1.230  15.798  0.4268 -1.1164  2.4323
  479MPD2    N1 7134   2.735   1.039  15.393  0.7854  0.4704 -0.2721
  479MPD2    H7 7135   2.695   1.064  15.303  1.5210 -0.9471 -0.9953
  480TMC3    C1 7136   2.597   0.958  15.937  0.3840  0.0613 -0.4287
  480TMC3    C2 7137   2.505   1.037  15.868 -0.3321 -0.3426  0.7106
  480TMC3    C3 7138   2.553   1.144  15.802  0.7512 -0.3457 -0.0203
  480TMC3    C4 7139   2.724   0.991  15.940  0.1274 -0.4900  0.4421
  480TMC3    C5 7140   2.772   1.089  15.859  0.0589 -0.2243  0.1456
  480TMC3    C6 7141   2.683   1.172  15.790 -0.4940  0.2911 -0.2900
  480TMC3     C 7142   2.544   0.850  16.020  0.2688  0.6981 -0.2454
  480TMC3     O 7143   2.436   0.790  15.999  0.6474  0.3345  0.4687
  480TMC3     H 7144   2.400   1.013  15.880 -1.3025  2.5045 -1.9101
  480TMC3    H1 7145   2.796   0.918  15.976  0.7513 -0.2950 -0.4097
  480TMC3    H2 7146   2.721   1.268  15.758 -1.1752 -0.0557 -2.1416
  480TMC3    C7 7147   2.913   1.126  15.886  0.2864  0.0115  0.2883
  480TMC3    C8 7148   2.472   1.188  15.691  0.0059 -0.5707 -0.4862
  480TMC3    O1 7149   2.942   1.113  16.002 -0.1514  0.0960 -0.1746
  480TMC3    O2 7150   2.352   1.176  15.715 -0.5014 -0.3952 -0.1074
  481MPD2     C 7151   4.223   1.006  13.918  0.3415  0.5285 -0.0036
  481MPD2    C1 7152   4.141   0.915  13.977 -0.0652  0.3185  0.1747
  481MPD2    C2 7153   4.159   0.864  14.107  0.2093 -0.1114  0.0320
  481MPD2    C3 7154   4.252   0.922  14.193 -0.0918  0.3201 -0.6239
  481MPD2    C4 7155   4.326   1.021  14.140 -0.1658  0.0803 -0.0235
  481MPD2    C5 7156   4.312   1.054  14.007 -0.1094 -0.1841 -0.1365
  481MPD2     H 7157   4.093   0.788  14.148 -0.1992  0.0890 -0.2565
  481MPD2    H1 7158   4.412   1.062  14.191  0.6579  0.3143 -1.5921
  481MPD2    H2 7159   4.206   1.044  13.818  1.4874 -0.4023 -0.5391
  481MPD2    H3 7160   4.383   1.122  13.960 -1.6784  0.4131 -1.6472
  481MPD2     N 7161   4.280   0.878  14.327 -0.0024 -0.4161  0.2898
  481MPD2    H5 7162   4.354   0.930  14.372 -1.8852  2.6431 -0.1445
  481MPD2    N1 7163   4.033   0.863  13.905 -0.2823  0.4250 -0.0080
  481MPD2    H7 7164   4.033   0.877  13.804  1.1261 -1.6677 -0.3082
  482TMC3    C1 7165   3.842   0.744  13.845  0.3250  0.3882 -0.8462
  482TMC3    C2 7166   3.911   0.651  13.768  0.5430  0.1737 -0.5884
  482TMC3    C3 7167   3.840   0.594  13.664  1.1436 -0.4091 -0.2636
  482TMC3    C4 7168   3.717   0.788  13.816  0.1520  0.0448  0.3578
  482TMC3    C5 7169   3.660   0.730  13.708  0.0980 -0.1935  0.7572
  482TMC3    C6 7170   3.713   0.625  13.637  0.4889 -0.5113 -0.5118
  482TMC3     C 7171   3.918   0.806  13.953 -0.1564 -0.4172 -0.7733
  482TMC3     O 7172   3.861   0.816  14.062 -0.4828 -0.2767 -0.1793
  482TMC3     H 7173   4.009   0.619  13.801  0.4184  0.1282 -0.2610
  482TMC3    H1 7174   3.664   0.857  13.881  2.5608  0.1388  2.2230
  482TMC3    H2 7175   3.660   0.580  13.554 -2.2962  0.5680  0.6858
  482TMC3    C7 7176   3.546   0.808  13.656  0.3742 -0.1185  0.1277
  482TMC3    C8 7177   3.895   0.475  13.608  0.3340  0.2589  0.0868
  482TMC3    O1 7178   3.499   0.884  13.738  0.0919 -0.3888 -0.0233
  482TMC3    O2 7179   3.819   0.387  13.564 -0.2649 -0.7994  0.0416
  483TMC3    C1 7180   2.855   4.250   1.484  0.5072  0.3995  0.4532
  483TMC3    C2 7181   2.924   4.357   1.451 -0.0719 -0.3802 -0.2761
  483TMC3    C3 7182   3.053   4.364   1.490 -0.1403 -0.1548 -0.0225
  483TMC3    C4 7183   2.892   4.163   1.577 -0.3711  0.0576  0.2395
  483TMC3    C5 7184   3.025   4.163   1.609 -0.0933 -0.2222  0.9670
  483TMC3    C6 7185   3.113   4.262   1.572  1.0062  0.2381 -0.0090
  483TMC3     C 7186   2.719   4.254   1.426 -0.6486 -0.5738  0.9254
  483TMC3     O 7187   2.676   4.365   1.388 -0.1177 -0.4153 -0.0174
  483TMC3     H 7188   2.884   4.438   1.391  2.4120  0.3206 -0.9826
  483TMC3    H1 7189   2.827   4.084   1.614  1.3496 -1.7847 -0.6674
  483TMC3    H2 7190   3.218   4.255   1.597  0.2977  0.7309  3.1001
  483TMC3    C7 7191   3.079   4.044   1.684 -0.7173 -0.1223 -0.1906
  483TMC3    C8 7192   3.126   4.473   1.428  0.3155  0.6199  0.3168
  483TMC3    O1 7193   3.201   4.024   1.681 -0.5907  0.5115  0.1080
  483TMC3    O2 7194   3.083   4.537   1.337 -0.0406  0.1650 -0.2361
  484MPD2     C 7195   0.336   2.171  12.465 -0.5437  0.1520  0.5251
  484MPD2    C1 7196   0.321   2.034  12.448 -0.0307  0.6192  1.1657
  484MPD2    C2 7197   0.438   1.961  12.443  0.2266 -0.3797 -0.0907
  484MPD2    C3 7198   0.566   2.020  12.440 -0.2240  0.5660  0.2172
  484MPD2    C4 7199   0.571   2.157  12.443  0.3760  0.3968 -0.1429
  484MPD2    C5 7200   0.457   2.231  12.459 -0.6980  0.3413 -0.1322
  484MPD2     H 7201   0.437   1.853  12.444 -1.1070 -0.3715  0.4124
  484MPD2    H1 7202   0.670   2.200  12.455  0.1509  1.0559 -0.6895
  484MPD2    H2 7203   0.249   2.234  12.479  0.1287  1.1747  0.0710
  484MPD2    H3 7204   0.461   2.338  12.476  1.1178  0.3224 -0.5035
  484MPD2     N 7205   0.693   1.955  12.463  0.1650 -0.3427  0.1736
  484MPD2    H5 7206   0.769   2.017  12.488 -0.4189  0.6055 -0.4034
  484MPD2    N1 7207   0.198   1.976  12.462 -0.7810  0.0375 -0.4621
  484MPD2    H7 7208   0.121   2.033  12.495 -0.5718  0.3051 -0.4341
  485TMC3    C1 7209   0.839   1.769  12.512 -0.3052  0.0430  0.3017
  485TMC3    C2 7210   0.885   1.660  12.446  0.2147  0.2155  0.2111
  485TMC3    C3 7211   1.013   1.622  12.483 -0.1626  0.4115 -0.4134
  485TMC3    C4 7212   0.916   1.850  12.592 -0.1503 -0.0897 -0.1241
  485TMC3    C5 7213   1.041   1.806  12.628 -0.1317 -0.1042 -0.2058
  485TMC3    C6 7214   1.083   1.684  12.580  0.5392 -0.0598  0.2408
  485TMC3     C 7215   0.714   1.817  12.458 -0.1537 -0.0531  0.3065
  485TMC3     O 7216   0.645   1.739  12.391  0.6503  0.2485 -0.1365
  485TMC3     H 7217   0.835   1.619  12.359  0.7340 -0.8957  0.4432
  485TMC3    H1 7218   0.874   1.943  12.626 -0.7365 -0.0875 -0.8613
  485TMC3    H2 7219   1.181   1.646  12.605 -0.2227 -2.6249 -0.7010
  485TMC3    C7 7220   1.147   1.903  12.635 -0.6306  0.2626  0.3039
  485TMC3    C8 7221   1.096   1.602  12.369 -0.4876  1.0668  0.2148
  485TMC3    O1 7222   1.105   2.012  12.669  0.5233 -0.7439 -0.0522
  485TMC3    O2 7223   1.201   1.663  12.379  0.0380  0.0996 -0.5852
  486MPD2     C 7224   2.350   1.132  13.083 -0.5100 -0.1605 -0.1094
  486MPD2    C1 7225   2.360   1.127  12.935 -0.2077  0.7500  0.0890
  486MPD2    C2 7226   2.387   1.246  12.870  0.3906 -0.3742 -0.4727
  486MPD2    C3 7227   2.389   1.361  12.943 -0.2543 -0.5524  0.3497
  486MPD2    C4 7228   2.374   1.369  13.081 -0.0467 -0.6975 -0.4326
  486MPD2    C5 7229   2.359   1.255  13.145  0.0036  0.3267 -0.4085
  486MPD2     H 7230   2.383   1.249  12.762 -1.1196  0.8362 -0.3787
  486MPD2    H1 7231   2.374   1.462  13.136 -0.8628 -0.2107 -1.2517
  486MPD2    H2 7232   2.334   1.042  13.141 -1.0963 -1.0838 -1.7060
  486MPD2    H3 7233   2.356   1.257  13.254 -3.3720 -3.0994 -0.4551
  486MPD2     N 7234   2.407   1.482  12.877  0.1585 -0.4487  0.0997
  486MPD2    H5 7235   2.448   1.476  12.784  2.2220  1.4596  0.8860
  486MPD2    N1 7236   2.347   1.003  12.873 -0.0205 -0.7647 -0.2155
  486MPD2    H7 7237   2.342   0.926  12.939 -2.0149 -2.1729 -2.0187
  487TMC3    C1 7238   2.328   0.848  12.699 -0.1636 -0.1614  0.6322
  487TMC3    C2 7239   2.224   0.818  12.626  0.1627  0.3253 -0.5014
  487TMC3    C3 7240   2.211   0.682  12.596 -0.0283  0.2275 -0.1426
  487TMC3    C4 7241   2.423   0.759  12.748  0.1418 -0.2257  0.4298
  487TMC3    C5 7242   2.414   0.622  12.714  0.8729  0.0775  0.0388
  487TMC3    C6 7243   2.306   0.589  12.634  0.5767  0.1787 -0.4594
  487TMC3     C 7244   2.342   0.986  12.733  1.1196  0.2441 -0.3485
  487TMC3     O 7245   2.321   1.061  12.637  0.0665  0.8035  0.2645
  487TMC3     H 7246   2.140   0.885  12.611  1.8173  2.4383 -0.3550
  487TMC3    H1 7247   2.505   0.794  12.810  1.0952 -1.0406 -0.3502
  487TMC3    H2 7248   2.279   0.485  12.621  1.3384 -0.0582 -0.1823
  487TMC3    C7 7249   2.468   0.523  12.807  0.2570 -0.2374 -0.3960
  487TMC3    C8 7250   2.083   0.625  12.597 -0.2647 -0.3030  0.0521
  487TMC3    O1 7251   2.543   0.566  12.896 -0.5231  0.1940 -0.4003
  487TMC3    O2 7252   2.074   0.516  12.548 -0.4250 -0.0478  0.2703
  488MPD2     C 7253   2.463   2.798  16.545  0.3113  0.6580  0.1333
  488MPD2    C1 7254   2.554   2.877  16.603 -0.3590  0.4890 -0.3125
  488MPD2    C2 7255   2.522   2.938  16.721  0.9105 -0.1265 -0.2845
  488MPD2    C3 7256   2.413   2.902  16.798 -0.1220 -0.2197  0.7194
  488MPD2    C4 7257   2.328   2.804  16.741  0.0570 -0.4500 -0.7848
  488MPD2    C5 7258   2.351   2.755  16.611  0.2275  0.5756  0.2165
  488MPD2     H 7259   2.595   3.008  16.760  1.3125  0.0801 -1.4004
  488MPD2    H1 7260   2.243   2.763  16.796  1.1908 -1.3915  0.2807
  488MPD2    H2 7261   2.468   2.767  16.441 -0.0917  2.8950 -0.5633
  488MPD2    H3 7262   2.276   2.697  16.558  0.0781  0.3214  0.7089
  488MPD2     N 7263   2.392   2.969  16.922 -1.2473 -0.0782 -0.6314
  488MPD2    H5 7264   2.443   3.053  16.944  0.2400 -0.4934 -2.5104
  488MPD2    N1 7265   2.666   2.929  16.529  0.7252 -0.1433 -0.6070
  488MPD2    H7 7266   2.732   2.981  16.586  0.6892 -1.4859  0.6787
  489TMC3    C1 7267   2.312   3.014  17.138 -0.2226 -0.7372 -1.3757
  489TMC3    C2 7268   2.326   3.149  17.128  0.1413  0.0656  0.3018
  489TMC3    C3 7269   2.353   3.213  17.247 -0.7959  0.3336 -0.6516
  489TMC3    C4 7270   2.305   2.947  17.262  0.3644  0.1812 -0.4685
  489TMC3    C5 7271   2.318   3.022  17.376 -0.1727  0.4959 -0.8255
  489TMC3    C6 7272   2.342   3.156  17.368 -0.5824 -1.0488 -0.1837
  489TMC3     C 7273   2.301   2.929  17.017  0.5773 -0.1251  0.0957
  489TMC3     O 7274   2.249   2.816  17.024 -0.1999  0.2871  0.5011
  489TMC3     H 7275   2.314   3.205  17.036  1.2195  1.5701  1.0866
  489TMC3    H1 7276   2.286   2.840  17.256 -0.6311  0.2477  1.5091
  489TMC3    H2 7277   2.349   3.213  17.460 -0.2268 -0.2983 -0.6662
  489TMC3    C7 7278   2.335   2.958  17.509  0.0784 -0.2523 -0.5595
  489TMC3    C8 7279   2.420   3.343  17.238 -0.5854  0.1267  0.2256
  489TMC3    O1 7280   2.361   3.029  17.602  0.1458 -0.3690  0.8177
  489TMC3    O2 7281   2.453   3.367  17.123  0.4992  0.1829 -0.6070
  490MPD2     C 7282   3.475   2.776   0.314  0.0862  0.1068  0.0921
  490MPD2    C1 7283   3.542   2.744   0.196 -0.4225  0.4091 -0.1770
  490MPD2    C2 7284   3.599   2.841   0.118  0.3370 -0.6404 -0.4617
  490MPD2    C3 7285   3.599   2.974   0.165 -0.1878 -0.2088  0.0251
  490MPD2    C4 7286   3.543   3.005   0.285 -0.7602 -0.0187  0.4836
  490MPD2    C5 7287   3.474   2.904   0.348 -0.3725 -0.0065  0.1066
  490MPD2     H 7288   3.650   2.819   0.025 -1.4994 -0.5951 -1.4760
  490MPD2    H1 7289   3.545   3.106   0.323  0.6526  0.3045 -0.4269
  490MPD2    H2 7290   3.434   2.703   0.382  0.8440 -1.1535 -0.8049
  490MPD2    H3 7291   3.433   2.940   0.442 -1.1258  0.0451 -0.2348
  490MPD2     N 7292   3.663   3.082   0.091 -0.3662  0.0512 -1.1202
  490MPD2    H5 7293   3.674   3.172   0.137  1.7860 -0.7159 -0.1258
  490MPD2    N1 7294   3.559   2.610   0.145  0.9558 -0.6233  0.1435
  490MPD2    H7 7295   3.612   2.593   0.061  2.5339 -0.5154  1.1249
  491TMC3    C1 7296   3.556   2.375   0.143 -0.5095 -0.1331 -0.4522
  491TMC3    C2 7297   3.574   2.267   0.221 -0.3219  0.2302  0.1266
  491TMC3    C3 7298   3.572   2.155   0.159 -0.3025  0.5592  0.6031
  491TMC3    C4 7299   3.519   2.370   0.010  0.5795  0.0158 -0.2378
  491TMC3    C5 7300   3.504   2.249  17.643 -0.6227  0.4934  0.1109
  491TMC3    C6 7301   3.546   2.141   0.024 -0.0633  0.5511  0.3926
  491TMC3     C 7302   3.517   2.496   0.213 -0.1913 -0.4662 -1.0088
  491TMC3     O 7303   3.473   2.479   0.325 -0.1493  0.9777  0.1967
  491TMC3     H 7304   3.603   2.285   0.323  0.4452  1.8679 -0.3835
  491TMC3    H1 7305   3.487   2.459  17.647  1.1156  2.7688  4.0130
  491TMC3    H2 7306   3.555   2.042  17.671  1.7733  1.7108 -1.8679
  491TMC3    C7 7307   3.389   2.214  17.558  0.5518 -0.0683 -0.0255
  491TMC3    C8 7308   3.544   2.042   0.246  0.5289  0.4698 -0.9307
  491TMC3    O1 7309   3.373   2.096  17.538  0.0672 -0.4976  0.4868
  491TMC3    O2 7310   3.472   2.061   0.344  0.2716 -0.5274  0.0816
  492MPD2     C 7311   4.191   2.556  10.898 -0.5663 -0.2708  0.3301
  492MPD2    C1 7312   4.089   2.468  10.872  0.1123  0.8819  0.0674
  492MPD2    C2 7313   4.085   2.353  10.944 -0.7575 -0.3080  0.3860
  492MPD2    C3 7314   4.193   2.313  11.019 -0.2855  0.3286 -0.2249
  492MPD2    C4 7315   4.298   2.402  11.047 -0.8743  0.2968 -0.4655
  492MPD2    C5 7316   4.291   2.528  10.991  0.4228  0.0804 -0.6036
  492MPD2     H 7317   4.002   2.284  10.929 -1.0843 -0.2980  2.1399
  492MPD2    H1 7318   4.384   2.375  11.106 -0.0236  0.1182 -1.7909
  492MPD2    H2 7319   4.203   2.643  10.834  0.3801 -1.5592 -1.2345
  492MPD2    H3 7320   4.371   2.601  10.999 -1.4797  2.0545  0.8029
  492MPD2     N 7321   4.201   2.186  11.076 -0.4099 -0.1917 -0.3482
  492MPD2    H5 7322   4.274   2.168  11.144 -0.0378  1.4708 -0.3063
  492MPD2    N1 7323   3.993   2.484  10.774  0.0414  0.8545 -0.0292
  492MPD2    H7 7324   3.926   2.410  10.762 -0.1039  0.6447  2.1032
  493TMC3    C1 7325   3.929   2.536  10.546 -0.2672 -0.0650 -0.1799
  493TMC3    C2 7326   3.865   2.627  10.469  0.6049 -0.1131  0.9367
  493TMC3    C3 7327   3.786   2.581  10.369 -0.3390  0.0344  0.1665
  493TMC3    C4 7328   3.931   2.397  10.519  0.2788 -0.3765  0.2462
  493TMC3    C5 7329   3.847   2.356  10.425  0.3259  0.0008 -0.2809
  493TMC3    C6 7330   3.774   2.446  10.356  0.0659  0.9103  0.0960
  493TMC3     C 7331   3.989   2.577  10.672 -0.4602  0.5775 -0.1300
  493TMC3     O 7332   4.034   2.690  10.679  0.0890  0.1462 -0.0911
  493TMC3     H 7333   3.863   2.728  10.508 -2.7741  0.3372 -0.3716
  493TMC3    H1 7334   3.999   2.333  10.574 -0.2533  0.0654  1.4297
  493TMC3    H2 7335   3.710   2.398  10.282  0.2524 -1.2567  1.3310
  493TMC3    C7 7336   3.808   2.215  10.417  0.4152  0.6895 -0.3373
  493TMC3    C8 7337   3.686   2.663  10.308 -0.0672  0.3734  0.2522
  493TMC3    O1 7338   3.753   2.181  10.312  0.1443 -0.3831 -0.7805
  493TMC3    O2 7339   3.581   2.618  10.279  0.0861  0.1864  0.0265
  494TMC3    C1 7340   4.239   4.031   1.000  0.2104 -0.4773 -0.3215
  494TMC3    C2 7341   4.368   3.997   1.030 -0.4113  0.0510  1.1373
  494TMC3    C3 7342   4.463   3.991   0.928 -0.1355  0.4527  0.9094
  494TMC3    C4 7343   4.193   4.064   0.876 -0.0294 -0.0345  0.2044
  494TMC3    C5 7344   4.293   4.066   0.780  0.0336 -0.3479 -0.0228
  494TMC3    C6 7345   4.419   4.019   0.801 -1.2820 -0.1592 -0.0557
  494TMC3     C 7346   4.135   4.001   1.098  0.5980 -0.0953 -0.6370
  494TMC3     O 7347   4.162   3.980   1.215  0.6120 -0.2378  0.0119
  494TMC3     H 7348   4.393   3.960   1.129  0.5963 -0.5026  0.6685
  494TMC3    H1 7349   4.094   4.093   0.843  0.5752  1.2576 -0.4204
  494TMC3    H2 7350   4.479   4.014   0.710 -0.4885 -2.0829  0.5765
  494TMC3    C7 7351   4.260   4.105   0.645 -0.9936 -0.4161  0.6471
  494TMC3    C8 7352   4.596   3.944   0.946  0.0961  0.0683 -0.1088
  494TMC3    O1 7353   4.299   4.031   0.557  0.5767  0.1852 -0.4744
  494TMC3    O2 7354   4.627   3.881   1.045 -0.5006 -0.2477  0.0303
  495TMC3    C1 7355   2.588   1.026  14.792 -0.2692  0.4096  0.2144
  495TMC3    C2 7356   2.542   1.109  14.692  0.2187  0.5064 -0.3662
  495TMC3    C3 7357   2.533   1.244  14.713  0.2356  0.0714  0.9004
  495TMC3    C4 7358   2.624   1.068  14.921  0.1991 -0.3108 -1.0306
  495TMC3    C5 7359   2.616   1.200  14.939  0.3401 -0.1842 -1.0127
  495TMC3    C6 7360   2.575   1.286  14.836  0.3471  0.0022 -0.3406
  495TMC3     C 7361   2.560   0.889  14.759 -0.1465  0.1578 -0.1831
  495TMC3     O 7362   2.466   0.872  14.684  0.0711 -0.0172  0.2631
  495TMC3     H 7363   2.541   1.081  14.587  1.1967 -1.5161  0.1665
  495TMC3    H1 7364   2.656   0.997  14.996  0.6617 -0.6632 -1.5612
  495TMC3    H2 7365   2.563   1.392  14.854  1.7483  0.4727 -2.0814
  495TMC3    C7 7366   2.628   1.251  15.074  0.6838 -0.3958 -0.2638
  495TMC3    C8 7367   2.474   1.339  14.618 -0.0076 -0.1031  0.1700
  495TMC3    O1 7368   2.690   1.177  15.148  0.3080  0.4769 -0.2999
  495TMC3    O2 7369   2.407   1.433  14.660  0.8226 -0.4508  0.1398
  496MPD2     C 7370   4.432   1.138  15.421  0.2962  0.7794 -0.3387
  496MPD2    C1 7371   4.518   1.095  15.523  0.1107 -0.9596 -0.4713
  496MPD2    C2 7372   4.485   1.135  15.657  0.2462  0.3402  0.1919
  496MPD2    C3 7373   4.375   1.217  15.679  0.4839 -0.2506  0.1264
  496MPD2    C4 7374   4.295   1.253  15.574 -0.7551 -0.0905  0.4935
  496MPD2    C5 7375   4.319   1.210  15.448 -0.0229 -0.0273 -0.2378
  496MPD2     H 7376   4.530   1.088  15.744  1.5658 -0.2576 -0.8024
  496MPD2    H1 7377   4.203   1.310  15.577  0.0628  1.4064 -2.0715
  496MPD2    H2 7378   4.447   1.099  15.321  1.5275 -3.5884  1.5447
  496MPD2    H3 7379   4.262   1.249  15.364 -0.3461  1.9534  0.8858
  496MPD2     N 7380   4.326   1.241  15.807 -0.3519  0.1786 -0.4559
  496MPD2    H5 7381   4.229   1.268  15.821 -0.1615  0.9927 -0.7096
  496MPD2    N1 7382   4.623   1.005  15.486  0.5691 -0.5021  0.0910
  496MPD2    H7 7383   4.630   0.972  15.390  1.0455 -0.8591  0.2501
  497TMC3    C1 7384   4.332   1.256  16.045 -0.0651 -0.4985  0.1021
  497TMC3    C2 7385   4.215   1.186  16.071 -0.3400  0.1264 -0.1450
  497TMC3    C3 7386   4.147   1.198  16.193 -0.2210  0.3915  0.0037
  497TMC3    C4 7387   4.388   1.329  16.145  0.4661  0.4594  0.7197
  497TMC3    C5 7388   4.320   1.338  16.265  0.0056  1.1698 -0.4057
  497TMC3    C6 7389   4.197   1.284  16.285 -0.1728 -0.1320 -0.0016
  497TMC3     C 7390   4.406   1.245  15.918 -0.9351  0.5184  0.6414
  497TMC3     O 7391   4.526   1.237  15.924  0.2168  0.5636  0.4321
  497TMC3     H 7392   4.179   1.129  15.986 -0.9483  0.2119  0.0587
  497TMC3    H1 7393   4.465   1.402  16.122  1.4230 -0.4163  1.1883
  497TMC3    H2 7394   4.153   1.303  16.382 -0.8502  0.6975 -0.4640
  497TMC3    C7 7395   4.343   1.451  16.342 -0.5318  0.4400  0.0109
  497TMC3    C8 7396   4.013   1.134  16.205 -0.3602  0.0035  0.0360
  497TMC3    O1 7397   4.250   1.520  16.390 -0.3803 -0.5361 -0.1839
  497TMC3    O2 7398   3.961   1.083  16.107 -0.6528 -0.1770  0.0984
  498MPD2     C 7399   1.654   1.951   9.572 -0.2776 -0.4255  0.6224
  498MPD2    C1 7400   1.624   1.979   9.699  0.7988  0.1032 -0.2031
  498MPD2    C2 7401   1.579   1.879   9.790 -0.9160 -0.3017 -0.2691
  498MPD2    C3 7402   1.572   1.746   9.749  0.0287  0.6301 -0.3166
  498MPD2    C4 7403   1.595   1.714   9.619 -0.2888  0.2075  0.0983
  498MPD2    C5 7404   1.653   1.818   9.543 -0.1125  0.4510  0.3485
  498MPD2     H 7405   1.548   1.911   9.889 -0.0630  0.7952 -0.3585
  498MPD2    H1 7406   1.600   1.614   9.577  2.0794  1.2390 -2.0832
  498MPD2    H2 7407   1.694   2.023   9.502  0.1058 -1.8185 -0.6128
  498MPD2    H3 7408   1.671   1.805   9.437  0.8835 -0.5846  0.6362
  498MPD2     N 7409   1.528   1.643   9.840  0.4700 -0.3905  0.5935
  498MPD2    H5 7410   1.504   1.674   9.933 -4.3729  2.6880 -1.6855
  498MPD2    N1 7411   1.636   2.109   9.747  0.0488 -0.1064  0.2398
  498MPD2    H7 7412   1.593   2.129   9.837  0.1728  1.0137  0.0540
  499TMC3    C1 7413   1.702   2.325   9.764 -0.2672  0.5635  0.3756
  499TMC3    C2 7414   1.817   2.394   9.784  0.1612  0.3016  0.0322
  499TMC3    C3 7415   1.801   2.522   9.838  0.2301 -0.5442 -0.1328
  499TMC3    C4 7416   1.574   2.366   9.790 -0.1902  0.0768 -0.3201
  499TMC3    C5 7417   1.571   2.498   9.846 -0.2993  0.1587 -0.3780
  499TMC3    C6 7418   1.679   2.578   9.855 -0.0987  0.4978 -0.7230
  499TMC3     C 7419   1.714   2.207   9.688 -0.0573 -0.0971 -0.9853
  499TMC3     O 7420   1.810   2.195   9.615 -0.7619  0.1898  0.2660
  499TMC3     H 7421   1.914   2.353   9.758  0.2978  0.1420  0.8054
  499TMC3    H1 7422   1.484   2.310   9.768  0.5710 -1.5942  0.7946
  499TMC3    H2 7423   1.669   2.683   9.880 -1.4567  0.0799  0.4471
  499TMC3    C7 7424   1.437   2.552   9.833  0.3346 -0.2112 -0.1190
  499TMC3    C8 7425   1.916   2.605   9.873 -0.4612 -0.0770  0.7830
  499TMC3    O1 7426   1.417   2.667   9.797 -0.1493  0.4447  0.3258
  499TMC3    O2 7427   1.899   2.698   9.946 -0.1749 -0.2378  0.1862
  500MPD2     C 7428   2.444   3.564   9.903 -0.3487  0.6105 -0.4436
  500MPD2    C1 7429   2.439   3.462   9.991  0.2516  0.6026  0.6908
  500MPD2    C2 7430   2.323   3.387   9.995  0.5192  0.0482  0.2593
  500MPD2    C3 7431   2.218   3.420   9.912  0.2172 -0.4753  0.2251
  500MPD2    C4 7432   2.230   3.524   9.821  0.2882 -0.6454  1.0847
  500MPD2    C5 7433   2.341   3.600   9.818 -0.3548  0.3231 -0.5029
  500MPD2     H 7434   2.319   3.301  10.061  1.3678 -0.2574 -0.0924
  500MPD2    H1 7435   2.140   3.547   9.765  1.8799  0.7225 -0.9222
  500MPD2    H2 7436   2.526   3.635   9.909  0.4156 -0.1955 -1.2222
  500MPD2    H3 7437   2.347   3.679   9.744 -1.7499  0.9707  0.0732
  500MPD2     N 7438   2.102   3.341   9.892  0.2563 -0.5685 -0.2142
  500MPD2    H5 7439   2.036   3.380   9.826 -0.0433  0.2824  0.5828
  500MPD2    N1 7440   2.552   3.437  10.076 -0.5684 -0.2576 -0.3997
  500MPD2    H7 7441   2.625   3.507  10.070 -1.6536  1.0904  2.2099
  501TMC3    C1 7442   2.679   3.364  10.268 -0.2274 -0.8330 -0.0348
  501TMC3    C2 7443   2.700   3.491  10.311 -0.0116 -0.4232  0.3084
  501TMC3    C3 7444   2.752   3.513  10.438  0.2062 -0.6217 -0.3025
  501TMC3    C4 7445   2.720   3.253  10.347  0.7946  0.3857 -0.6225
  501TMC3    C5 7446   2.777   3.286  10.469 -0.0679 -0.0433 -0.9572
  501TMC3    C6 7447   2.788   3.413  10.514 -0.3247  0.1947  0.1714
  501TMC3     C 7448   2.564   3.343  10.181 -0.0203  0.0513  0.2699
  501TMC3     O 7449   2.488   3.245  10.205  0.0144  0.0220  0.2108
  501TMC3     H 7450   2.632   3.567  10.272 -0.8613  0.3124  3.2031
  501TMC3    H1 7451   2.684   3.154  10.322  1.0917 -0.1775  1.2283
  501TMC3    H2 7452   2.838   3.444  10.605 -1.2623  1.0350  0.3999
  501TMC3    C7 7453   2.851   3.181  10.523  0.4843  0.0120  0.4624
  501TMC3    C8 7454   2.772   3.650  10.485 -0.0436  0.9788 -0.0450
  501TMC3    O1 7455   2.825   3.073  10.481  0.2027  0.0633 -0.4235
  501TMC3    O2 7456   2.819   3.664  10.599 -0.0398 -0.1013  0.3040
  502TMC3    C1 7457   2.518   1.934  15.269  0.0501  0.3568  0.9401
  502TMC3    C2 7458   2.492   2.066  15.234 -0.2669  0.2765  0.3223
  502TMC3    C3 7459   2.365   2.116  15.220 -0.3640  0.4627 -0.5351
  502TMC3    C4 7460   2.410   1.851  15.281 -0.3613 -0.0719 -0.7873
  502TMC3    C5 7461   2.287   1.902  15.274 -0.0503 -0.2452  0.1624
  502TMC3    C6 7462   2.257   2.029  15.238  0.4844  0.1442  0.1707
  502TMC3     C 7463   2.592   1.927  15.395  0.1987  0.0210 -0.2547
  502TMC3     O 7464   2.555   1.839  15.469 -0.4896 -0.0036 -0.0311
  502TMC3     H 7465   2.575   2.135  15.218 -0.1372  0.7088  2.8348
  502TMC3    H1 7466   2.428   1.747  15.307  3.9917  1.1050  0.9740
  502TMC3    H2 7467   2.157   2.066  15.218  0.3127 -1.5308 -2.1224
  502TMC3    C7 7468   2.174   1.805  15.285 -0.4464  0.5370  0.2487
  502TMC3    C8 7469   2.353   2.248  15.164 -0.6344  0.4839 -0.3059
  502TMC3    O1 7470   2.202   1.691  15.259  0.0271 -0.1649 -0.5768
  502TMC3    O2 7471   2.452   2.295  15.114 -0.2124 -0.0428  0.2258
  503MPD2     C 7472   4.284   3.027  16.984  0.5295  0.0568  0.5993
  503MPD2    C1 7473   4.337   3.053  17.108  0.0434  0.1692 -0.0964
  503MPD2    C2 7474   4.400   2.955  17.176 -0.4188  0.1924  1.1399
  503MPD2    C3 7475   4.411   2.832  17.127 -0.6170  0.1948  0.5478
  503MPD2    C4 7476   4.353   2.799  17.004 -0.1513  0.0428 -0.2359
  503MPD2    C5 7477   4.289   2.900  16.933  0.6005  0.3553  0.1041
  503MPD2     H 7478   4.432   2.970  17.279  0.9092  2.1741  0.4346
  503MPD2    H1 7479   4.361   2.699  16.964 -1.4001 -0.2462  0.2564
  503MPD2    H2 7480   4.240   3.105  16.922 -1.0236 -0.4314  1.0784
  503MPD2    H3 7481   4.239   2.879  16.839  0.5534 -0.3446  0.2885
  503MPD2     N 7482   4.489   2.733  17.206  0.1980 -0.2802 -0.1874
  503MPD2    H5 7483   4.515   2.769  17.298  0.2485 -0.9623  0.0671
  503MPD2    N1 7484   4.328   3.181  17.165  0.4649  0.3953 -0.3752
  503MPD2    H7 7485   4.367   3.182  17.259  1.7385 -1.2549 -0.8838
  504TMC3    C1 7486   4.649   2.562  17.245  0.3929  0.4880  0.0933
  504TMC3    C2 7487   4.620   2.521  17.370 -0.0651  0.2145 -0.2931
  504TMC3    C3 7488   4.708   2.441  17.437  0.5130 -0.3118  0.4427
  504TMC3    C4 7489   0.022   2.500  17.177 -0.3632  0.1476  0.4113
  504TMC3    C5 7490   0.102   2.406  17.236 -0.4448 -0.1848  0.3641
  504TMC3    C6 7491   0.087   2.376  17.371  0.3647  0.0543 -0.6271
  504TMC3     C 7492   4.546   2.618  17.159 -0.8343  0.2588 -0.0086
  504TMC3     O 7493   4.540   2.567  17.045 -0.1364  0.3536 -0.0103
  504TMC3     H 7494   4.534   2.560  17.424  0.8626  1.3327  0.3728
  504TMC3    H1 7495   0.036   2.502  17.069  2.4357 -0.7689  0.7684
  504TMC3    H2 7496   0.145   2.299  17.420  1.0932  1.1330  0.2121
  504TMC3    C7 7497   0.223   2.367  17.164 -0.5029  0.7283  0.2586
  504TMC3    C8 7498   4.655   2.356  17.543 -0.3549 -0.1647  0.5026
  504TMC3    O1 7499   0.265   2.450  17.081 -0.6570  0.0541 -0.3840
  504TMC3    O2 7500   4.538   2.332  17.542 -0.5257 -0.1091  0.4138
  505MPD2     C 7501   0.307   1.085  10.948  0.3932  0.4854 -0.2315
  505MPD2    C1 7502   0.408   1.105  10.852  0.5055 -0.1550 -0.2547
  505MPD2    C2 7503   0.524   1.180  10.889  0.5796 -0.5375 -0.4383
  505MPD2    C3 7504   0.546   1.220  11.022 -0.3894 -0.5598  0.1062
  505MPD2    C4 7505   0.442   1.211  11.109  0.3151 -0.5186 -0.3486
  505MPD2    C5 7506   0.324   1.138  11.067 -0.0746  0.2795 -0.3639
  505MPD2     H 7507   0.595   1.209  10.813 -0.8658  1.4652 -1.0107
  505MPD2    H1 7508   0.467   1.235  11.211  0.7743 -2.6703  0.0597
  505MPD2    H2 7509   0.220   1.024  10.925  1.0970 -0.4277 -0.5188
  505MPD2    H3 7510   0.248   1.121  11.142 -0.4548  0.0316 -0.8120
  505MPD2     N 7511   0.659   1.289  11.080 -0.6615 -0.2143 -0.4354
  505MPD2    H5 7512   0.635   1.321  11.174  1.5934  2.7969 -0.8983
  505MPD2    N1 7513   0.389   1.043  10.727 -0.2971 -0.1927 -0.0297
  505MPD2    H7 7514   0.309   0.984  10.707 -0.2900 -0.4666  0.7497
  506TMC3    C1 7515   0.449   0.945  10.528  0.5192  0.0759  0.2119
  506TMC3    C2 7516   0.511   0.957  10.405  0.4438 -0.2936 -0.5699
  506TMC3    C3 7517   0.521   0.844  10.328 -0.6430 -0.5642  0.7862
  506TMC3    C4 7518   0.408   0.825  10.585  0.2193 -0.3709 -0.3555
  506TMC3    C5 7519   0.432   0.718  10.507 -0.2821 -0.3507 -0.3336
  506TMC3    C6 7520   0.474   0.721  10.377 -0.8197  0.3231 -0.8565
  506TMC3     C 7521   0.468   1.052  10.622 -0.1670 -0.3761  0.2368
  506TMC3     O 7522   0.563   1.126  10.594  0.1667 -0.4325  0.0092
  506TMC3     H 7523   0.542   1.055  10.374  0.5395 -0.0318  0.3581
  506TMC3    H1 7524   0.389   0.806  10.690  0.9397  2.3570  0.2935
  506TMC3    H2 7525   0.483   0.633  10.316  0.2513  0.7008 -1.2537
  506TMC3    C7 7526   0.443   0.586  10.570  0.1568 -0.5104 -0.8758
  506TMC3    C8 7527   0.583   0.848  10.198 -0.9442  0.0526 -0.8552
  506TMC3    O1 7528   0.337   0.537  10.603  0.2270  0.1759 -0.4368
  506TMC3    O2 7529   0.546   0.753  10.127 -0.1900 -0.3706  0.0529
  507TMC3    C1 7530   0.562   2.284  15.134 -0.0349 -0.3178  0.0677
  507TMC3    C2 7531   0.517   2.203  15.027  0.5037 -0.9743 -0.0485
  507TMC3    C3 7532   0.603   2.185  14.919 -0.5312 -0.6114  0.3729
  507TMC3    C4 7533   0.683   2.351  15.126  0.4583 -0.1910 -0.3290
  507TMC3    C5 7534   0.770   2.320  15.027 -0.0533 -0.0556 -0.2096
  507TMC3    C6 7535   0.731   2.237  14.926 -0.4882 -0.4087 -0.5807
  507TMC3     C 7536   0.488   2.287  15.264 -0.6221  0.9395  0.3908
  507TMC3     O 7537   0.537   2.348  15.356  0.2929 -0.2584 -0.3997
  507TMC3     H 7538   0.415   2.169  15.016 -0.3116  0.5751  2.4709
  507TMC3    H1 7539   0.716   2.413  15.209 -1.0879 -0.0097  0.1491
  507TMC3    H2 7540   0.800   2.189  14.857  1.3301  0.3069  0.7395
  507TMC3    C7 7541   0.826   2.437  14.957  0.2170  0.6327 -0.1780
  507TMC3    C8 7542   0.542   2.204  14.792  0.3224 -1.1094  0.0206
  507TMC3    O1 7543   0.845   2.407  14.838  0.1085  0.4257  0.7009
  507TMC3    O2 7544   0.427   2.168  14.779  0.6119 -0.1871 -0.0312
  508MPD2     C 7545   1.745   4.498  15.977  0.0450 -0.0183 -0.2060
  508MPD2    C1 7546   1.642   4.577  15.998  0.0035  1.0354 -0.2219
  508MPD2    C2 7547   1.570   4.640  15.895 -0.2810  0.3239 -0.3586
  508MPD2    C3 7548   1.613   4.623  15.767  0.4501 -0.0320  0.2653
  508MPD2    C4 7549   1.724   4.542  15.749  0.5515  0.2595  0.7935
  508MPD2    C5 7550   1.791   4.483  15.849  0.3319 -0.4817 -0.2488
  508MPD2     H 7551   1.481   4.698  15.917 -0.0121 -0.2333  2.2521
  508MPD2    H1 7552   1.775   4.527  15.654 -1.2372  0.8140 -0.2426
  508MPD2    H2 7553   1.792   4.449  16.061  2.4094 -2.3859 -2.8873
  508MPD2    H3 7554   1.879   4.423  15.831  0.7547  0.0441  0.0594
  508MPD2     N 7555   1.549   4.694  15.661 -0.1855 -0.2438 -0.4473
  508MPD2    H5 7556   1.459   0.014  15.684  0.9294  1.7708  0.2038
  508MPD2    N1 7557   1.598   4.580  16.133  0.1896 -0.5424 -0.3805
  508MPD2    H7 7558   1.646   4.518  16.196  1.7897  0.4367 -0.6347
  509TMC3    C1 7559   1.362   0.236  15.461 -0.3148  0.2551  0.3002
  509TMC3    C2 7560   1.442   0.316  15.383  0.3783  0.6175  0.7148
  509TMC3    C3 7561   1.557   0.266  15.338  0.2524  0.0946 -0.0740
  509TMC3    C4 7562   1.399   0.108  15.498 -0.5709  0.0276  0.8492
  509TMC3    C5 7563   1.515   0.057  15.446  0.1363 -0.1687 -0.3649
  509TMC3    C6 7564   1.590   0.134  15.357 -0.2265  0.0829  0.1291
  509TMC3     C 7565   1.249   0.294  15.527  0.2663  0.4475  0.4472
  509TMC3     O 7566   1.144   0.234  15.536 -0.1539  0.5760 -0.6848
  509TMC3     H 7567   1.423   0.420  15.357  0.2663  0.1596 -1.0542
  509TMC3    H1 7568   1.336   0.050  15.565  0.5507 -0.6293  1.3446
  509TMC3    H2 7569   1.690   0.105  15.326 -0.1560  2.0895 -1.4953
  509TMC3    C7 7570   1.594   4.686  15.529 -0.7372  0.8531  0.1484
  509TMC3    C8 7571   1.657   0.361  15.280  0.4103 -0.3580  0.1300
  509TMC3    O1 7572   1.688   4.629  15.475  0.3175  0.1081 -0.9298
  509TMC3    O2 7573   1.732   0.323  15.195 -0.0298 -0.1830 -0.2691
  510MPD2     C 7574   4.222   1.821  14.337  0.1527 -0.1731  0.2855
  510MPD2    C1 7575   4.265   1.789  14.461 -0.4911 -0.1819 -1.0097
  510MPD2    C2 7576   4.400   1.760  14.480  0.4755 -0.7443  0.4325
  510MPD2    C3 7577   4.487   1.773  14.375  0.6166 -0.2440  0.1453
  510MPD2    C4 7578   4.447   1.820  14.254  0.3658 -0.1853  0.2602
  510MPD2    C5 7579   4.314   1.853  14.241 -0.0746 -0.2561 -0.6270
  510MPD2     H 7580   4.430   1.725  14.578  3.0761  1.2447  0.3518
  510MPD2    H1 7581   4.504   1.830  14.162  0.4391 -1.5699  0.1578
  510MPD2    H2 7582   4.120   1.857  14.329 -0.1005 -0.8794  0.3611
  510MPD2    H3 7583   4.275   1.903  14.153 -0.9139  0.0329 -0.0878
  510MPD2     N 7584   4.623   1.727  14.401  0.2722 -0.0127  0.1161
  510MPD2    H5 7585   4.640   1.673  14.485  0.2965 -0.2776 -0.0573
  510MPD2    N1 7586   4.175   1.784  14.563 -0.0717 -0.1623  0.8656
  510MPD2    H7 7587   4.080   1.814  14.545  0.8560 -0.2578 -4.1827
  511TMC3    C1 7588   4.076   1.707  14.753 -0.7142  0.2043 -0.0044
  511TMC3    C2 7589   4.053   1.724  14.886 -0.3353  0.0347  0.5136
  511TMC3    C3 7590   3.950   1.658  14.949 -0.0150 -0.1905 -0.3341
  511TMC3    C4 7591   3.992   1.631  14.682 -0.7197 -0.3979  0.1633
  511TMC3    C5 7592   3.890   1.562  14.742 -0.2567  0.0662  0.9198
  511TMC3    C6 7593   3.864   1.581  14.880  0.0579  0.3857  0.2390
  511TMC3     C 7594   4.198   1.746  14.691  0.0171 -0.5229  0.2866
  511TMC3     O 7595   4.304   1.737  14.752  0.5531 -0.3955 -0.1823
  511TMC3     H 7596   4.124   1.776  14.950 -1.4114  3.1540 -0.8440
  511TMC3    H1 7597   4.013   1.602  14.580 -1.3397  1.0436 -0.3685
  511TMC3    H2 7598   3.775   1.540  14.927 -1.3059  2.7461 -0.2780
  511TMC3    C7 7599   3.832   1.446  14.673 -0.6767 -0.8890 -0.3093
  511TMC3    C8 7600   3.919   1.704  15.079  0.4825 -0.2410 -0.7837
  511TMC3    O1 7601   3.833   1.445  14.549 -0.3235 -0.0601 -0.7069
  511TMC3    O2 7602   3.972   1.807  15.116 -0.3823 -0.2975 -0.2923
  512TMC3    C1 7603   2.791   0.730  13.830  0.5168 -0.2030  0.0810
  512TMC3    C2 7604   2.919   0.725  13.877  0.0678  0.1192 -0.3726
  512TMC3    C3 7605   3.022   0.690  13.788 -0.0580 -0.5719 -0.0118
  512TMC3    C4 7606   2.761   0.710  13.699 -0.2072  0.4871  0.5195
  512TMC3    C5 7607   2.867   0.674  13.615 -0.0180  0.4192 -0.1897
  512TMC3    C6 7608   2.996   0.664  13.659  0.1424 -0.5249  0.4527
  512TMC3     C 7609   2.683   0.778  13.917 -0.2703 -0.6791  0.3945
  512TMC3     O 7610   2.709   0.785  14.037  0.0041 -0.0408  0.1338
  512TMC3     H 7611   2.932   0.746  13.983 -0.3492 -1.9235  0.1007
  512TMC3    H1 7612   2.662   0.705  13.653 -0.4984 -0.3777  1.2410
  512TMC3    H2 7613   3.075   0.638  13.589 -2.3076 -0.2359 -2.4043
  512TMC3    C7 7614   2.837   0.627  13.481 -0.6180  0.0306 -0.3973
  512TMC3    C8 7615   3.149   0.670  13.840 -0.0897  0.1895  0.2012
  512TMC3    O1 7616   2.734   0.667  13.434 -0.0303  0.7884  0.7121
  512TMC3    O2 7617   3.222   0.576  13.800  0.7071 -0.2274 -0.5779
  513MPD2     C 7618   4.621   0.287  13.886  0.3413 -0.2444  0.4674
  513MPD2    C1 7619   4.683   0.340  13.772  0.3128  0.6233 -0.1306
  513MPD2    C2 7620   0.006   0.469  13.781  0.3785  0.4911  0.2869
  513MPD2    C3 7621   0.007   0.542  13.895 -0.4476  0.9086  0.4229
  513MPD2    C4 7622   4.677   0.485  14.006  0.5903  0.3581 -0.3325
  513MPD2    C5 7623   4.626   0.363  13.998 -0.3927 -0.1043 -0.2284
  513MPD2     H 7624   0.039   0.522  13.692  2.1626  0.4497  0.9088
  513MPD2    H1 7625   4.655   0.545  14.094 -0.0792  0.8963 -0.8723
  513MPD2    H2 7626   4.587   0.184  13.885  0.2062 -0.1962 -0.3400
  513MPD2    H3 7627   4.571   0.325  14.083  1.9518  1.8717  2.1657
  513MPD2     N 7628   0.068   0.673  13.891  0.3800  0.5644  0.8158
  513MPD2    H5 7629   0.101   0.714  13.805  0.8642 -1.3849  0.0599
  513MPD2    N1 7630   4.687   0.254  13.658  0.5599 -0.0707 -0.0297
  513MPD2    H7 7631   4.639   0.165  13.667  0.1954  0.0195 -1.0253
  514TMC3    C1 7632   0.047   0.185  13.436 -0.4630 -0.0924 -0.0029
  514TMC3    C2 7633   4.680   0.197  13.334  0.6949  0.3431 -0.0424
  514TMC3    C3 7634   0.004   0.204  13.201 -0.1065  0.1132 -0.3144
  514TMC3    C4 7635   0.176   0.208  13.397 -1.0491 -0.0471  0.1271
  514TMC3    C5 7636   0.222   0.209  13.271  0.2209  0.1259  1.0051
  514TMC3    C6 7637   0.133   0.204  13.161 -0.0523  0.2456 -0.2128
  514TMC3     C 7638   0.028   0.287  13.542  0.2512  0.4610 -0.1273
  514TMC3     O 7639   0.069   0.396  13.504  0.4975  0.4586 -0.1215
  514TMC3     H 7640   4.578   0.205  13.368  0.8769  0.1917  0.5521
  514TMC3    H1 7641   0.254   0.213  13.473 -1.2148  1.8693  0.1556
  514TMC3    H2 7642   0.167   0.216  13.059  2.0302 -0.4454  0.3974
  514TMC3    C7 7643   0.321   0.316  13.241 -0.2972 -0.2604 -0.1157
  514TMC3    C8 7644   4.619   0.185  13.101 -1.3536  0.4626  0.3566
  514TMC3    O1 7645   0.427   0.284  13.190  0.0559  0.4308  0.0250
  514TMC3    O2 7646   4.505   0.173  13.145 -0.0723  0.0065  0.4410
  515MPD2     C 7647   3.201   2.874  15.330 -0.0450 -0.1092 -0.0171
  515MPD2    C1 7648   3.200   2.878  15.195 -0.0877 -0.6873  0.4029
  515MPD2    C2 7649   3.302   2.954  15.133  0.0143 -0.8166  0.4838
  515MPD2    C3 7650   3.402   3.014  15.207 -0.2822 -0.2571 -0.3230
  515MPD2    C4 7651   3.399   3.004  15.344 -0.1153  0.4163  0.7699
  515MPD2    C5 7652   3.300   2.930  15.403 -0.4202 -0.6709  0.3781
  515MPD2     H 7653   3.305   2.961  15.025  0.2379  1.5019  0.6280
  515MPD2    H1 7654   3.474   3.048  15.409  1.8561 -1.8392  0.0572
  515MPD2    H2 7655   3.125   2.827  15.391 -3.6479  1.0102 -3.6383
  515MPD2    H3 7656   3.301   2.920  15.511 -2.3369 -0.3761  0.4239
  515MPD2     N 7657   3.512   3.092  15.154 -0.4860  0.1081 -0.1147
  515MPD2    H5 7658   3.570   3.140  15.221 -1.1710  0.4239  0.2482
  515MPD2    N1 7659   3.097   2.817  15.121 -0.0302  0.2760 -0.5925
  515MPD2    H7 7660   3.102   2.820  15.019  0.1481  0.2392 -0.5832
  516TMC3    C1 7661   2.941   2.645  15.079  0.8340 -0.3305 -0.2188
  516TMC3    C2 7662   2.905   2.675  14.955  0.3649 -0.1114  0.3314
  516TMC3    C3 7663   2.843   2.579  14.879 -0.5371 -0.2220  0.0758
  516TMC3    C4 7664   2.908   2.522  15.128  0.2056  0.3093 -1.1309
  516TMC3    C5 7665   2.836   2.428  15.056  0.1639 -0.1483 -0.1947
  516TMC3    C6 7666   2.808   2.455  14.928 -0.7339  0.0060  0.1248
  516TMC3     C 7667   3.001   2.735  15.174  0.4656 -0.7726  0.1592
  516TMC3     O 7668   2.966   2.731  15.289  0.2384  0.2297  0.3138
  516TMC3     H 7669   2.913   2.774  14.914 -0.7622  0.4498  1.4598
  516TMC3    H1 7670   2.923   2.509  15.235  1.8341  2.7639 -1.0706
  516TMC3    H2 7671   2.739   2.399  14.865 -0.7008  1.2913 -1.0566
  516TMC3    C7 7672   2.842   2.290  15.106 -0.9498  0.2734 -0.9221
  516TMC3    C8 7673   2.779   2.615  14.751  0.6945 -0.6593 -0.1261
  516TMC3    O1 7674   2.861   2.277  15.227 -0.0681  0.2796  0.0516
  516TMC3    O2 7675   2.665   2.570  14.732  0.3186  0.2771  0.3638
  517MPD2     C 7676   2.885   4.694   0.463 -0.1084 -0.3955 -0.3181
  517MPD2    C1 7677   3.012   4.651   0.492 -0.0398  0.1049  0.0761
  517MPD2    C2 7678   3.090   0.010   0.573  0.0718 -0.3786 -0.2063
  517MPD2    C3 7679   3.043   0.125   0.633  0.7825 -0.3048  0.5481
  517MPD2    C4 7680   2.908   0.157   0.605  0.6409 -0.6261 -0.6358
  517MPD2    C5 7681   2.836   0.079   0.523 -0.1361  0.7096 -0.1265
  517MPD2     H 7682   3.186   4.693   0.604  0.2902 -0.8664 -1.5312
  517MPD2    H1 7683   2.865   0.240   0.661 -1.1106 -0.0014 -2.9235
  517MPD2    H2 7684   2.823   4.635   0.396 -0.2321 -1.4631  0.7463
  517MPD2    H3 7685   2.735   0.107   0.493 -0.5931  0.2940  1.0341
  517MPD2     N 7686   3.115   0.216   0.720 -0.0674 -0.3195 -0.0712
  517MPD2    H5 7687   3.064   0.296   0.757  1.6869  0.9827 -0.4560
  517MPD2    N1 7688   3.064   4.529   0.445 -0.2897  0.3853 -0.0752
  517MPD2    H7 7689   3.157   4.495   0.468  0.0140  0.2809 -1.4685
  518TMC3    C1 7690   3.086   4.339   0.312  0.7945 -0.2876  0.3589
  518TMC3    C2 7691   3.030   4.222   0.271  0.3736  0.6366  0.8588
  518TMC3    C3 7692   3.105   4.122   0.229  0.0828 -0.3694  0.7685
  518TMC3    C4 7693   3.214   4.369   0.298 -0.4253 -0.0203 -0.2487
  518TMC3    C5 7694   3.299   4.269   0.247 -0.0481  0.2360 -0.8543
  518TMC3    C6 7695   3.242   4.145   0.217  0.1099 -0.6358 -0.4272
  518TMC3     C 7696   2.996   4.441   0.363 -0.4127  0.1450  0.4374
  518TMC3     O 7697   2.878   4.422   0.336 -0.9326  0.0047  0.0376
  518TMC3     H 7698   2.924   4.209   0.288  0.2130  1.7778  0.7086
  518TMC3    H1 7699   3.252   4.470   0.312 -0.6379  0.1773 -1.1495
  518TMC3    H2 7700   3.306   4.058   0.201  0.5489 -0.3581 -0.1670
  518TMC3    C7 7701   3.429   4.307   0.210 -0.2827 -0.0685 -0.1250
  518TMC3    C8 7702   3.053   3.985   0.222  0.0866 -0.8544  0.1034
  518TMC3    O1 7703   3.471   4.420   0.239  0.4825  0.5888  0.2292
  518TMC3    O2 7704   3.122   3.909   0.153 -0.4729 -0.0121  0.2091
  519MPD2     C 7705   4.050   2.840  14.425 -0.3954  0.6203 -0.3092
  519MPD2    C1 7706   4.071   2.820  14.285  1.0659 -0.3101  0.1454
  519MPD2    C2 7707   4.145   2.707  14.252 -0.3114 -0.3388  0.3837
  519MPD2    C3 7708   4.187   2.619  14.350  0.4529  0.1875 -0.0372
  519MPD2    C4 7709   4.158   2.641  14.482  0.3228 -0.1120 -0.2235
  519MPD2    C5 7710   4.090   2.750  14.519 -0.3855  0.4754 -0.0459
  519MPD2     H 7711   4.167   2.681  14.149  1.9297 -3.4848  1.6658
  519MPD2    H1 7712   4.180   2.572  14.562  0.1059 -0.5130 -0.5108
  519MPD2    H2 7713   3.988   2.916  14.470 -0.2167  0.8099 -0.3817
  519MPD2    H3 7714   4.075   2.762  14.626  1.4540  2.1780  0.0081
  519MPD2     N 7715   4.260   2.508  14.304  0.5149  0.6357  0.4320
  519MPD2    H5 7716   4.281   2.491  14.206  0.0243 -0.7161  0.5547
  519MPD2    N1 7717   4.021   2.911  14.189  0.2089  0.3225 -0.4851
  519MPD2    H7 7718   3.975   2.995  14.221 -1.4761 -1.0583  0.7429
  520TMC3    C1 7719   4.378   2.306  14.313  0.3712  0.1692  0.2788
  520TMC3    C2 7720   4.343   2.278  14.184  0.0015  0.5415 -0.3597
  520TMC3    C3 7721   4.438   2.210  14.113  0.9265 -0.3639 -0.2362
  520TMC3    C4 7722   4.484   2.241  14.376 -0.7684 -1.4136 -0.4734
  520TMC3    C5 7723   4.554   2.151  14.301 -0.4691 -0.3541  0.4130
  520TMC3    C6 7724   4.543   2.145  14.165 -0.4055 -0.3382  0.2396
  520TMC3     C 7725   4.314   2.415  14.386 -0.1032 -0.0826  0.6593
  520TMC3     O 7726   4.334   2.416  14.504  0.2692 -0.0626 -0.1509
  520TMC3     H 7727   4.266   2.334  14.132  0.2448  0.4396 -0.8332
  520TMC3    H1 7728   4.508   2.251  14.481  0.0237 -0.8079 -0.7092
  520TMC3    H2 7729   4.616   2.088  14.109 -1.1945 -0.4696 -0.6394
  520TMC3    C7 7730   4.675   2.104  14.358  1.1822 -0.2487  0.5474
  520TMC3    C8 7731   4.409   2.145  13.988 -0.3167  0.0880  0.4181
  520TMC3    O1 7732   4.667   2.070  14.477 -0.6675  0.1147 -0.1608
  520TMC3    O2 7733   4.497   2.094  13.917  0.2576  0.8709  0.6481
  521MPD2     C 7734   0.456   0.938  17.488 -0.6006 -0.3602  0.3251
  521MPD2    C1 7735   0.401   0.817  17.472 -0.4556  0.0392  0.7601
  521MPD2    C2 7736   0.463   0.722  17.399  0.3247  0.1358 -0.7762
  521MPD2    C3 7737   0.567   0.760  17.320 -0.6076  0.0048  0.3007
  521MPD2    C4 7738   0.626   0.886  17.324 -0.0589  0.2931 -0.0636
  521MPD2    C5 7739   0.570   0.972  17.420 -0.3352  0.3468 -0.1418
  521MPD2     H 7740   0.426   0.620  17.402  2.6280 -0.6137  2.2114
  521MPD2    H1 7741   0.709   0.922  17.265  1.8907 -0.6983  2.0384
  521MPD2    H2 7742   0.402   1.012  17.547 -0.2615 -0.1035  0.3097
  521MPD2    H3 7743   0.618   1.067  17.438  0.5314  0.0511 -0.8611
  521MPD2     N 7744   0.611   0.656  17.237  0.0214 -0.4997  0.5379
  521MPD2    H5 7745   0.563   0.567  17.248 -0.2258 -0.2744  1.3018
  521MPD2    N1 7746   0.286   0.794  17.548 -0.6735 -0.1806  0.0651
  521MPD2    H7 7747   0.261   0.859  17.621 -2.9294 -3.7591  2.4772
  522TMC3    C1 7748   0.744   0.505  17.120 -0.0537 -0.5366  0.4398
  522TMC3    C2 7749   0.740   0.469  16.988  0.3238  0.1278  0.2785
  522TMC3    C3 7750   0.667   0.357  16.945  0.2742 -0.1550 -0.1980
  522TMC3    C4 7751   0.692   0.415  17.211 -0.3435  0.1642 -0.3723
  522TMC3    C5 7752   0.613   0.310  17.168  0.6945  0.3810 -0.8095
  522TMC3    C6 7753   0.596   0.284  17.033  0.1864  0.1254  0.0099
  522TMC3     C 7754   0.718   0.644  17.151 -0.3959 -0.1282  0.2606
  522TMC3     O 7755   0.775   0.727  17.086  0.2440  0.7835  0.0191
  522TMC3     H 7756   0.771   0.548  16.922  1.0632  1.2692  1.9847
  522TMC3    H1 7757   0.689   0.451  17.313  1.2861  1.5118 -0.7892
  522TMC3    H2 7758   0.535   0.200  17.003  0.0666  0.3516 -0.3723
  522TMC3    C7 7759   0.499   0.291  17.257 -0.1868  0.3016  0.2712
  522TMC3    C8 7760   0.667   0.309  16.806  0.3131 -0.0663 -0.0215
  522TMC3    O1 7761   0.497   0.380  17.337 -0.1753  0.1181 -0.3031
  522TMC3    O2 7762   0.560   0.265  16.763 -0.0238 -0.3224  0.3752
  523MPD2     C 7763   3.571   0.196  10.399  0.1259 -0.0486  0.3131
  523MPD2    C1 7764   3.436   0.210  10.393 -0.6337 -0.4065 -0.2650
  523MPD2    C2 7765   3.376   0.331  10.359  0.3834  0.5553  0.1767
  523MPD2    C3 7766   3.463   0.440  10.346 -0.7642 -0.3264 -0.2728
  523MPD2    C4 7767   3.597   0.420  10.354 -0.5722 -0.2493  0.0929
  523MPD2    C5 7768   3.650   0.298  10.379 -0.2404 -0.2415  0.1376
  523MPD2     H 7769   3.270   0.353  10.349  0.5349  0.9127 -0.6546
  523MPD2    H1 7770   3.668   0.503  10.356 -0.1398 -0.6447  1.2332
  523MPD2    H2 7771   3.620   0.102  10.422  0.0295 -0.4557 -1.1544
  523MPD2    H3 7772   3.754   0.289  10.411 -0.0947  1.1582  0.0890
  523MPD2     N 7773   3.422   0.571  10.309  0.0265 -0.7426  0.2687
  523MPD2    H5 7774   3.494   0.639  10.285  1.0822 -2.3085 -0.9716
  523MPD2    N1 7775   3.358   0.089  10.392 -0.1618 -0.4762 -0.2788
  523MPD2    H7 7776   3.400   4.720  10.407 -0.1984 -0.2101  1.5107
  524TMC3    C1 7777   3.278   0.736  10.217  0.4996 -0.0745 -0.4623
  524TMC3    C2 7778   3.383   0.786  10.141  0.1930 -0.6124 -0.3243
  524TMC3    C3 7779   3.357   0.891  10.055 -0.5860  1.0349 -0.2032
  524TMC3    C4 7780   3.151   0.788  10.207  0.0819 -0.0440 -0.4311
  524TMC3    C5 7781   3.130   0.891  10.118  0.5134  0.3175  0.5689
  524TMC3    C6 7782   3.231   0.946  10.044 -0.2539  0.4395  0.0832
  524TMC3     C 7783   3.294   0.622  10.304 -0.1330  0.0790  0.4580
  524TMC3     O 7784   3.195   0.562  10.340  0.0185  0.7400  0.0817
  524TMC3     H 7785   3.484   0.751  10.155  0.4615 -0.4358 -1.8233
  524TMC3    H1 7786   3.075   0.752  10.275 -0.3399 -1.2618 -1.5401
  524TMC3    H2 7787   3.220   1.018   9.963  1.2175  1.1203  0.4891
  524TMC3    C7 7788   2.989   0.920  10.090 -0.4167  0.5746  0.3648
  524TMC3    C8 7789   3.473   0.958   9.996  0.0404  0.1499 -0.2551
  524TMC3    O1 7790   2.918   0.832  10.133 -0.0924 -0.2640 -0.0579
  524TMC3    O2 7791   3.580   0.909  10.026 -0.3141  0.3260 -0.8336
  525MPD2     C 7792   0.913   1.973  14.707 -0.6307  0.5963 -0.6302
  525MPD2    C1 7793   1.042   1.988  14.767 -0.2554 -0.4471  0.1454
  525MPD2    C2 7794   1.122   2.098  14.728  0.3367 -0.2158  0.0391
  525MPD2    C3 7795   1.071   2.189  14.633 -0.0131 -0.5413 -0.2885
  525MPD2    C4 7796   0.936   2.177  14.594  0.6697 -0.7048 -0.1451
  525MPD2    C5 7797   0.866   2.058  14.617 -0.2792  0.0478 -0.2179
  525MPD2     H 7798   1.223   2.104  14.766  0.4851  1.1831 -0.5838
  525MPD2    H1 7799   0.890   2.247  14.525  2.8852  0.1327 -0.7903
  525MPD2    H2 7800   0.847   1.888  14.722 -0.8050  0.8053 -0.1989
  525MPD2    H3 7801   0.766   2.056  14.576 -0.3790  0.4290  0.0057
  525MPD2     N 7802   1.148   2.303  14.602  0.0566 -0.4192 -0.4737
  525MPD2    H5 7803   1.104   2.388  14.567 -0.1675 -0.2137  0.2895
  525MPD2    N1 7804   1.091   1.899  14.871  0.1483 -0.4587 -0.1407
  525MPD2    H7 7805   1.191   1.908  14.886  0.0145  2.3240 -0.8885
  526TMC3    C1 7806   1.081   1.758  15.059 -0.0672 -0.5914  0.2729
  526TMC3    C2 7807   1.005   1.700  15.162 -0.3659 -0.3663  0.2686
  526TMC3    C3 7808   1.062   1.619  15.259  0.5440  0.7011 -0.6984
  526TMC3    C4 7809   1.212   1.727  15.048 -0.3995 -0.2387  0.2847
  526TMC3    C5 7810   1.260   1.640  15.141 -0.0752 -0.0495 -0.8406
  526TMC3    C6 7811   1.193   1.594  15.251  0.9925 -0.3202  0.1883
  526TMC3     C 7812   1.012   1.826  14.955  0.0898 -1.2199 -0.5920
  526TMC3     O 7813   0.889   1.829  14.970 -0.4314  0.1298  0.2333
  526TMC3     H 7814   0.899   1.723  15.161  0.0336  1.4840  2.0077
  526TMC3    H1 7815   1.269   1.765  14.963 -2.0250 -0.1608 -0.7762
  526TMC3    H2 7816   1.243   1.526  15.319  1.5915  0.7831  0.8446
  526TMC3    C7 7817   1.401   1.600  15.127  0.2628 -0.0402 -0.2693
  526TMC3    C8 7818   1.021   1.617  15.397 -0.0648 -0.0480 -0.3684
  526TMC3    O1 7819   1.448   1.561  15.229  0.0984  0.0982  0.1235
  526TMC3    O2 7820   1.112   1.620  15.480  0.4463  0.0730 -0.3201
  527MPD2     C 7821   3.860   4.418   1.499  0.2050  0.3929  0.2521
  527MPD2    C1 7822   3.935   4.383   1.607  0.5510 -0.5342  0.3803
  527MPD2    C2 7823   4.058   4.333   1.580  0.1862  0.2187  0.3683
  527MPD2    C3 7824   4.109   4.313   1.450 -0.1460 -0.4233  0.4014
  527MPD2    C4 7825   4.032   4.363   1.347 -0.5252  0.0651 -0.3576
  527MPD2    C5 7826   3.907   4.408   1.369 -0.2468  0.2751  0.2123
  527MPD2     H 7827   4.112   4.292   1.665  0.5513 -0.3216 -0.1267
  527MPD2    H1 7828   4.047   4.324   1.247  3.4329  0.7843 -0.0540
  527MPD2    H2 7829   3.759   4.456   1.510 -0.0806  0.6629 -3.2400
  527MPD2    H3 7830   3.842   4.442   1.289 -1.0471  0.6692  1.0201
  527MPD2     N 7831   4.228   4.238   1.437  0.1168  0.3360  0.3386
  527MPD2    H5 7832   4.258   4.189   1.520  1.1598 -0.0454 -0.2656
  527MPD2    N1 7833   3.890   4.403   1.737 -0.5842 -0.6243  0.2687
  527MPD2    H7 7834   3.952   4.387   1.815 -1.1494 -0.2864  0.7922
  528TMC3    C1 7835   3.751   4.473   1.925  1.1470  0.2199  0.0374
  528TMC3    C2 7836   3.865   4.512   1.990  0.8247 -0.1304  1.1255
  528TMC3    C3 7837   3.849   4.549   2.122 -0.2869 -0.2182 -0.1691
  528TMC3    C4 7838   3.627   4.475   1.990 -0.6001  0.7591  0.3297
  528TMC3    C5 7839   3.615   4.528   2.117  0.7896 -0.6631  0.0601
  528TMC3    C6 7840   3.727   4.558   2.189  0.0556 -0.1242 -0.0811
  528TMC3     C 7841   3.761   4.432   1.782  0.7082 -0.3079  1.0713
  528TMC3     O 7842   3.658   4.409   1.725 -0.0238  0.3792 -0.3884
  528TMC3     H 7843   3.965   4.526   1.950  0.3681 -1.2520 -0.3827
  528TMC3    H1 7844   3.537   4.445   1.937 -1.7540  1.3192  1.9750
  528TMC3    H2 7845   3.719   4.581   2.295  1.7681 -3.1823  0.7010
  528TMC3    C7 7846   3.485   4.558   2.176 -0.1797  0.1778 -0.3013
  528TMC3    C8 7847   3.972   4.588   2.194  0.3385 -0.5479  0.3923
  528TMC3    O1 7848   3.387   4.579   2.105  0.0717  0.2050  0.2203
  528TMC3    O2 7849   4.068   4.615   2.128  0.0950  0.1419  0.1700
  529MPD2     C 7850   1.782   3.440   1.267  1.0354 -0.1619  0.3091
  529MPD2    C1 7851   1.809   3.316   1.202  0.4279  0.4810 -0.2005
  529MPD2    C2 7852   1.830   3.316   1.066  0.2700  0.2303 -0.3234
  529MPD2    C3 7853   1.839   3.437   0.996 -0.0119  0.3488  0.4927
  529MPD2    C4 7854   1.822   3.556   1.067  0.0629  0.1239 -0.0006
  529MPD2    C5 7855   1.793   3.555   1.198 -0.1634 -0.1192 -1.0096
  529MPD2     H 7856   1.853   3.225   1.011  2.4251  0.4000  0.3228
  529MPD2    H1 7857   1.827   3.653   1.018  1.5808 -0.3668 -0.8405
  529MPD2    H2 7858   1.761   3.443   1.374  0.2183 -0.2986  0.1539
  529MPD2    H3 7859   1.775   3.649   1.247  1.6009 -1.8061  2.8732
  529MPD2     N 7860   1.871   3.443   0.855 -0.3547 -0.2886  0.2276
  529MPD2    H5 7861   1.881   3.352   0.811 -1.9300 -0.1193 -0.4526
  529MPD2    N1 7862   1.813   3.192   1.275 -0.1083 -0.5322  0.3773
  529MPD2    H7 7863   1.806   3.104   1.224  3.9665 -1.1022  0.8051
  530TMC3    C1 7864   1.874   3.052   1.452 -0.1755  0.7019  0.0594
  530TMC3    C2 7865   1.993   3.046   1.520 -0.2665 -0.0655 -0.2922
  530TMC3    C3 7866   2.039   2.917   1.547  0.1689 -0.1670  0.7413
  530TMC3    C4 7867   1.803   2.944   1.407  0.1063 -0.0089  0.2558
  530TMC3    C5 7868   1.853   2.822   1.441  0.4537  0.4046  0.2802
  530TMC3    C6 7869   1.967   2.802   1.520  0.0831 -0.6328  0.6420
  530TMC3     C 7870   1.839   3.183   1.408  0.4797 -0.3075 -0.1105
  530TMC3     O 7871   1.878   3.276   1.471 -0.5532 -0.6516  0.3163
  530TMC3     H 7872   2.052   3.137   1.528  0.5942 -0.4199 -2.7077
  530TMC3    H1 7873   1.712   2.951   1.349 -1.1139 -2.4776  1.8395
  530TMC3    H2 7874   1.996   2.702   1.547 -0.8041 -1.0091  0.2192
  530TMC3    C7 7875   1.784   2.699   1.389 -0.1595  0.2256 -0.1680
  530TMC3    C8 7876   2.136   2.912   1.659  0.0796  0.5112 -0.2479
  530TMC3    O1 7877   1.717   2.699   1.284  0.2415 -0.1503 -0.2424
  530TMC3    O2 7878   2.123   3.006   1.736  0.8211  0.3640 -0.5654
  531MPD2     C 7879   0.465   0.803  13.339  1.6993 -0.1472  0.0664
  531MPD2    C1 7880   0.354   0.773  13.411  0.1113 -0.0195 -0.1851
  531MPD2    C2 7881   0.291   0.651  13.394  0.2952  0.4634 -0.2912
  531MPD2    C3 7882   0.341   0.557  13.309  0.3951 -0.3929 -0.2534
  531MPD2    C4 7883   0.460   0.584  13.243  0.7009 -0.0792  0.0917
  531MPD2    C5 7884   0.520   0.709  13.262  0.1069 -0.1999 -0.3960
  531MPD2     H 7885   0.202   0.621  13.449  0.2579 -1.4647 -1.4034
  531MPD2    H1 7886   0.502   0.514  13.171  0.7712  1.5307 -1.4288
  531MPD2    H2 7887   0.526   0.892  13.353  2.0169 -0.8587  3.2413
  531MPD2    H3 7888   0.612   0.739  13.214 -0.5590 -0.8321 -2.0548
  531MPD2     N 7889   0.275   0.432  13.297  0.3318 -0.2505 -0.1232
  531MPD2    H5 7890   0.184   0.425  13.341  0.1505  3.3320  0.1232
  531MPD2    N1 7891   0.320   0.861  13.520  0.2524 -0.3255  0.0889
  531MPD2    H7 7892   0.375   0.946  13.528 -1.8096  0.8763  1.3280
  532TMC3    C1 7893   0.221   0.918  13.727  0.2466  0.7209  0.3230
  532TMC3    C2 7894   0.124   0.884  13.814  0.4702 -0.2714 -0.5959
  532TMC3    C3 7895   0.154   0.878  13.942  0.3585  0.0197 -0.3211
  532TMC3    C4 7896   0.341   0.966  13.774 -0.1376  0.5101 -0.2355
  532TMC3    C5 7897   0.368   0.968  13.908 -0.0860  0.6132 -0.0055
  532TMC3    C6 7898   0.278   0.913  13.994  0.2231 -0.0061  1.0892
  532TMC3     C 7899   0.216   0.833  13.612  0.0446 -0.2126 -0.1176
  532TMC3     O 7900   0.139   0.741  13.618  0.1700  0.2043  0.6257
  532TMC3     H 7901   0.022   0.876  13.776  0.0883  1.3446  0.1015
  532TMC3    H1 7902   0.419   1.002  13.708  0.0349  1.0524  0.2680
  532TMC3    H2 7903   0.306   0.892  14.097  0.3931 -0.9969  0.8366
  532TMC3    C7 7904   0.489   1.011  13.963  0.0262  0.8486  0.3410
  532TMC3    C8 7905   0.105   0.751  13.997 -0.2946 -0.7871 -0.8621
  532TMC3    O1 7906   0.471   1.063  14.076 -0.1678  0.0906  0.4392
  532TMC3    O2 7907   0.092   0.740  14.119 -0.1998 -0.4024  0.0686
  533TMC3    C1 7908   1.319   2.454  14.639 -0.2833  0.2802 -0.5272
  533TMC3    C2 7909   1.453   2.488  14.621  1.5226  0.2839  0.5443
  533TMC3    C3 7910   1.499   2.587  14.698  0.0600  0.0422 -0.1422
  533TMC3    C4 7911   1.241   2.520  14.729  0.3344 -0.0769  0.1645
  533TMC3    C5 7912   1.300   2.618  14.808 -0.0423  0.0730  0.7261
  533TMC3    C6 7913   1.428   2.652  14.792  0.1188  0.5397 -0.0123
  533TMC3     C 7914   1.281   2.315  14.615 -0.2540 -0.1737 -0.4644
  533TMC3     O 7915   1.361   2.220  14.610 -0.0196 -0.1026  0.0628
  533TMC3     H 7916   1.513   2.425  14.556 -2.2607 -1.6080 -1.1021
  533TMC3    H1 7917   1.142   2.491  14.762 -0.1109  1.8465  0.5207
  533TMC3    H2 7918   1.472   2.729  14.854 -0.2593 -0.2190  1.1820
  533TMC3    C7 7919   1.271   2.592  14.941 -0.1820 -0.5063  0.2016
  533TMC3    C8 7920   1.630   2.641  14.681 -0.2854  0.0069 -0.1608
  533TMC3    O1 7921   1.247   2.473  14.956  0.3699 -0.2482  0.5079
  533TMC3    O2 7922   1.694   2.679  14.779  0.1601  0.0522 -0.5830
  534MPD2     C 7923   4.004   3.072   2.756 -0.3269  1.1207 -0.2831
  534MPD2    C1 7924   4.025   3.165   2.653  0.2316 -0.3708 -0.6145
  534MPD2    C2 7925   4.001   3.126   2.524 -0.0588  0.2261 -0.0210
  534MPD2    C3 7926   3.945   3.007   2.496  0.1928 -0.0133 -0.3939
  534MPD2    C4 7927   3.907   2.929   2.602 -0.7778 -0.1617 -0.2138
  534MPD2    C5 7928   3.943   2.955   2.730  0.1571 -0.8721  0.1273
  534MPD2     H 7929   4.006   3.212   2.458  2.0427 -0.4353 -0.6971
  534MPD2    H1 7930   3.858   2.833   2.591 -0.9096 -0.1052 -0.1118
  534MPD2    H2 7931   4.023   3.093   2.860 -0.7022  0.4515 -0.0767
  534MPD2    H3 7932   3.917   2.886   2.809  0.1138  0.0529  0.9258
  534MPD2     N 7933   3.913   2.965   2.360 -0.2565 -0.3083  0.7509
  534MPD2    H5 7934   3.853   2.883   2.348  1.3059 -1.5803  1.5689
  534MPD2    N1 7935   4.070   3.298   2.685 -0.0248  0.1764 -0.7150
  534MPD2    H7 7936   4.079   3.355   2.601  0.5916 -0.3409 -1.0010
  535TMC3    C1 7937   3.908   3.006   2.131 -0.1777 -0.6265  0.3002
  535TMC3    C2 7938   3.781   2.952   2.134 -0.4712 -0.1058 -0.1143
  535TMC3    C3 7939   3.729   2.907   2.016 -0.3220 -0.9366  0.2546
  535TMC3    C4 7940   3.978   3.010   2.013  0.1977  0.6190 -0.1572
  535TMC3    C5 7941   3.916   2.963   1.902 -0.4915 -0.4595 -0.1838
  535TMC3    C6 7942   3.795   2.915   1.898 -0.3531 -0.1682  0.8248
  535TMC3     C 7943   3.971   3.029   2.257  0.0816  0.1804  0.4398
  535TMC3     O 7944   4.060   3.118   2.248 -0.3361  0.1088  0.0548
  535TMC3     H 7945   3.715   2.992   2.210  0.1015  1.0972 -0.2554
  535TMC3    H1 7946   4.082   3.040   2.006  0.1020  1.1276  0.6701
  535TMC3    H2 7947   3.734   2.895   1.811  0.6515  0.6897 -0.0853
  535TMC3    C7 7948   3.963   3.029   1.782  0.7986  0.9633 -0.5288
  535TMC3    C8 7949   3.591   2.867   2.013  0.1157 -0.1103  0.3298
  535TMC3    O1 7950   3.941   2.983   1.670  0.0904 -0.4293 -0.2415
  535TMC3    O2 7951   3.526   2.903   1.916 -0.7694  0.6931  0.0758
  536MPD2     C 7952   2.856   2.171  16.694 -0.4771 -0.4690 -0.4890
  536MPD2    C1 7953   2.770   2.067  16.714 -0.0153 -0.2367  0.3778
  536MPD2    C2 7954   2.671   2.040  16.616  0.0055 -0.4149 -0.2692
  536MPD2    C3 7955   2.664   2.122  16.508 -0.4155  0.4352  0.0693
  536MPD2    C4 7956   2.753   2.223  16.492  0.2586  0.8635 -0.0969
  536MPD2    C5 7957   2.850   2.250  16.582 -0.2415  0.2707 -0.0587
  536MPD2     H 7958   2.601   1.958  16.626 -2.2220  1.3888 -1.2506
  536MPD2    H1 7959   2.754   2.291  16.407 -0.9091  0.1668 -0.6631
  536MPD2    H2 7960   2.934   2.188  16.767 -1.1215  0.2465  0.0285
  536MPD2    H3 7961   2.925   2.328  16.569  1.5592 -1.4863 -0.3081
  536MPD2     N 7962   2.574   2.103  16.401 -0.4699  0.3191 -0.6797
  536MPD2    H5 7963   2.580   2.176  16.331  2.9838 -0.2192 -0.9530
  536MPD2    N1 7964   2.788   1.993  16.837  0.1147  0.0441  0.3491
  536MPD2    H7 7965   2.863   2.035  16.891 -0.4215  1.3642  0.0657
  537TMC3    C1 7966   2.794   1.828  17.000  0.3897 -0.3062  0.6907
  537TMC3    C2 7967   2.867   1.919  17.080 -0.2850 -0.1916 -0.1431
  537TMC3    C3 7968   2.889   1.880  17.209  1.1005 -0.5656 -0.4801
  537TMC3    C4 7969   2.742   1.708  17.045  1.1922 -0.3494 -0.5103
  537TMC3    C5 7970   2.771   1.686  17.176 -0.1998 -0.0380  0.1680
  537TMC3    C6 7971   2.842   1.764  17.261 -0.1803  0.3337  0.6983
  537TMC3     C 7972   2.740   1.869  16.870  0.5672 -0.2115  0.2850
  537TMC3     O 7973   2.659   1.801  16.810 -0.0520 -0.6682 -0.1702
  537TMC3     H 7974   2.925   2.001  17.040  0.3482 -1.6132 -2.1397
  537TMC3    H1 7975   2.671   1.654  16.983  1.4185  1.9442 -2.8247
  537TMC3    H2 7976   2.896   1.736  17.350  0.5026  1.0528  0.5053
  537TMC3    C7 7977   2.735   1.554  17.211 -0.2046  0.1104 -0.3471
  537TMC3    C8 7978   2.965   1.973  17.294  0.4092  0.2820 -0.3379
  537TMC3    O1 7979   2.692   1.485  17.116 -0.1953  0.0879 -0.1229
  537TMC3    O2 7980   3.009   1.930  17.399  0.1042 -0.1062 -0.6849
  538TMC3    C1 7981   3.756   4.204  10.796 -0.3150  0.2903 -0.1170
  538TMC3    C2 7982   3.850   4.216  10.698 -0.2437 -0.1621  0.2977
  538TMC3    C3 7983   3.850   4.333  10.629  0.7847 -0.7366  0.1253
  538TMC3    C4 7984   3.658   4.297  10.815  0.8722 -0.0877 -0.9662
  538TMC3    C5 7985   3.656   4.411  10.738 -0.3714  0.3589  0.1514
  538TMC3    C6 7986   3.755   4.431  10.645 -0.3873  0.5346  0.5519
  538TMC3     C 7987   3.776   4.119  10.918  0.4065 -0.6282  0.3652
  538TMC3     O 7988   3.717   4.146  11.024 -0.0456 -0.1461  0.2589
  538TMC3     H 7989   3.941   4.157  10.700 -0.7095 -0.8521  1.7147
  538TMC3    H1 7990   3.585   4.282  10.893 -0.4354  3.2420 -1.5544
  538TMC3    H2 7991   3.759   4.521  10.585 -2.0028 -0.4612 -1.0763
  538TMC3    C7 7992   3.567   4.519  10.784 -0.5642  0.5255  0.4190
  538TMC3    C8 7993   3.942   4.315  10.515  0.4334 -0.4623  0.2068
  538TMC3    O1 7994   3.488   4.490  10.874 -0.1910  0.6302  0.0734
  538TMC3    O2 7995   3.954   4.207  10.468 -0.0559  0.1818  0.1979
  539MPD2     C 7996   3.366   3.815  12.172  0.1045 -0.4207  0.1053
  539MPD2    C1 7997   3.299   3.839  12.052 -0.3296  0.2101  0.0279
  539MPD2    C2 7998   3.252   3.968  12.032  0.8334 -0.0952  0.3924
  539MPD2    C3 7999   3.289   4.073  12.117 -0.4494 -0.4677 -0.2867
  539MPD2    C4 8000   3.362   4.049  12.234  0.4434  0.4413  0.4290
  539MPD2    C5 8001   3.404   3.924  12.248  0.2619 -0.5102  0.0513
  539MPD2     H 8002   3.182   3.980  11.951  1.5594 -0.2320 -0.2557
  539MPD2    H1 8003   3.402   4.123  12.303  1.5671 -1.2826  1.6059
  539MPD2    H2 8004   3.399   3.716  12.201 -1.2509 -1.1236 -0.7472
  539MPD2    H3 8005   3.467   3.905  12.335  1.5520 -0.8534 -0.9682
  539MPD2     N 8006   3.252   4.208  12.095  0.2052  0.2534 -0.8592
  539MPD2    H5 8007   3.275   4.276  12.166 -3.3738  0.7185 -0.1489
  539MPD2    N1 8008   3.262   3.730  11.967  0.1011  0.2003  0.4784
  539MPD2    H7 8009   3.209   3.753  11.884 -1.9364 -0.1676  1.6794
  540TMC3    C1 8010   3.202   4.396  11.974  0.3254  0.5872  0.0537
  540TMC3    C2 8011   3.198   4.456  11.849  0.6390  0.3665 -0.1418
  540TMC3    C3 8012   3.216   4.587  11.835  0.7483  0.1372  0.0830
  540TMC3    C4 8013   3.190   4.475  12.084 -0.7147 -0.3622 -0.0240
  540TMC3    C5 8014   3.218   4.609  12.069  0.1762 -0.0674  0.3065
  540TMC3    C6 8015   3.233   4.668  11.944 -0.5039 -0.1331 -0.0636
  540TMC3     C 8016   3.191   4.251  11.979 -0.2613 -0.1174  0.1482
  540TMC3     O 8017   3.182   4.191  11.874  0.2156  0.3432 -0.3442
  540TMC3     H 8018   3.186   4.392  11.762  0.9486 -0.2875  0.2978
  540TMC3    H1 8019   3.175   4.421  12.176 -0.6068 -0.7805 -0.2502
  540TMC3    H2 8020   3.263   0.049  11.928  0.8785 -0.1398  2.4567
  540TMC3    C7 8021   3.169   4.695  12.177  0.4618 -0.5076 -0.2449
  540TMC3    C8 8022   3.274   4.636  11.715  0.0430 -0.2965 -0.6090
  540TMC3    O1 8023   3.080   4.645  12.248  0.2393 -0.3209 -0.1413
  540TMC3    O2 8024   3.359   0.002  11.729  0.2129  0.0193  0.1311
  541MPD2     C 8025   1.876   1.396  13.326  0.0376  0.0237  0.2723
  541MPD2    C1 8026   1.856   1.293  13.235 -0.6853 -0.9721 -0.1886
  541MPD2    C2 8027   1.923   1.304  13.114  0.4304  0.4965  0.8238
  541MPD2    C3 8028   2.008   1.408  13.088  0.4515 -0.3974 -0.0035
  541MPD2    C4 8029   2.035   1.498  13.189 -0.1765  0.4215  0.3892
  541MPD2    C5 8030   1.964   1.500  13.302  0.9706  0.3766 -0.5347
  541MPD2     H 8031   1.917   1.228  13.036 -0.0287  1.4855 -0.0958
  541MPD2    H1 8032   2.120   1.564  13.175  0.7123 -1.0210 -1.1367
  541MPD2    H2 8033   1.813   1.402  13.415 -3.9776  0.5567 -2.5911
  541MPD2    H3 8034   1.986   1.576  13.377 -1.1476 -0.1931  0.6675
  541MPD2     N 8035   2.066   1.437  12.966 -0.3501 -0.4770  0.5153
  541MPD2    H5 8036   2.121   1.521  12.950 -1.0705 -0.7974 -3.8054
  541MPD2    N1 8037   1.765   1.195  13.269  0.1777  0.4666  0.2035
  541MPD2    H7 8038   1.727   1.215  13.361  1.6928 -0.2412  0.9817
  542TMC3    C1 8039   2.089   1.423  12.736  0.1020 -0.0327 -0.7248
  542TMC3    C2 8040   2.106   1.339  12.629 -0.4443 -0.1041 -0.3942
  542TMC3    C3 8041   2.121   1.396  12.506  0.6034  0.5216 -0.5715
  542TMC3    C4 8042   2.088   1.561  12.724 -0.3527  0.2704 -0.7104
  542TMC3    C5 8043   2.100   1.615  12.602 -0.1227 -0.2288  0.5426
  542TMC3    C6 8044   2.111   1.532  12.492 -0.2403  0.4998 -0.0847
  542TMC3     C 8045   2.047   1.360  12.852  0.0083 -0.5395 -0.4053
  542TMC3     O 8046   1.997   1.245  12.838  0.0758 -0.4681  0.5249
  542TMC3     H 8047   2.115   1.232  12.641  2.8881  0.2948  0.5969
  542TMC3    H1 8048   2.072   1.633  12.805  4.3069  0.7985 -0.2455
  542TMC3    H2 8049   2.133   1.568  12.392 -0.1433 -2.3014 -1.0810
  542TMC3    C7 8050   2.109   1.760  12.594  0.1626 -0.3522  0.3153
  542TMC3    C8 8051   2.153   1.321  12.387  0.7139 -0.2115  0.1321
  542TMC3    O1 8052   2.073   1.821  12.692  0.2836  0.5090 -0.0125
  542TMC3    O2 8053   2.106   1.361  12.282  0.5886  0.6617 -0.0478
  543TMC3    C1 8054   0.755   2.457  17.222  0.3788  0.3203 -0.2706
  543TMC3    C2 8055   0.838   2.348  17.215  0.1760 -0.4643  0.8494
  543TMC3    C3 8056   0.854   2.271  17.326  0.4352  1.0083 -0.0922
  543TMC3    C4 8057   0.680   2.490  17.335 -0.1550 -0.3756 -0.2749
  543TMC3    C5 8058   0.689   2.401  17.438 -0.6206  0.3015 -0.3265
  543TMC3    C6 8059   0.773   2.295  17.435 -0.3208  0.1785 -0.1121
  543TMC3     C 8060   0.790   2.570  17.135 -0.3090 -0.5598 -0.2094
  543TMC3     O 8061   0.723   2.673  17.136  0.0495 -0.5879 -0.4556
  543TMC3     H 8062   0.896   2.319  17.128 -0.6261  0.4446 -0.0019
  543TMC3    H1 8063   0.614   2.576  17.339  1.2204  0.6725  0.0582
  543TMC3    H2 8064   0.780   2.234  17.524  1.8238 -0.4263 -0.6942
  543TMC3    C7 8065   0.639   2.441  17.569  0.1337  0.2093 -0.1266
  543TMC3    C8 8066   0.950   2.162  17.317  0.2112  0.2044  0.7487
  543TMC3    O1 8067   0.522   2.413  17.589 -0.5208 -0.5841  0.0521
  543TMC3    O2 8068   1.008   2.146  17.211  0.1927 -0.6839 -0.2417
  544MPD2     C 8069   1.175   1.756  17.529 -0.3918  0.6864  0.0116
  544MPD2    C1 8070   1.164   1.788  17.399  0.3774 -0.4232  0.1577
  544MPD2    C2 8071   1.097   1.902  17.365  0.0674  0.1441  0.0807
  544MPD2    C3 8072   1.031   1.978  17.459  0.2070  0.1097  0.6723
  544MPD2    C4 8073   1.040   1.937  17.588  0.0178  0.2528  0.4245
  544MPD2    C5 8074   1.106   1.826  17.624  0.1138  0.2908 -0.9239
  544MPD2     H 8075   1.106   1.944  17.265 -3.5510 -0.6490 -0.5702
  544MPD2    H1 8076   0.987   1.996  17.662  1.3724  0.2332  1.4037
  544MPD2    H2 8077   1.229   1.672  17.570 -0.6158  0.2979 -0.4971
  544MPD2    H3 8078   1.116   1.801   0.039 -0.8428  0.0445 -0.8960
  544MPD2     N 8079   0.959   2.096  17.433  0.3450 -0.0336 -0.1502
  544MPD2    H5 8080   0.913   2.138  17.512  1.4576 -0.9932  1.0168
  544MPD2    N1 8081   1.243   1.715  17.315 -0.2814 -0.3726 -0.3596
  544MPD2    H7 8082   1.289   1.634  17.355 -2.9539 -0.9456  1.5657
  545TMC3    C1 8083   1.309   1.624  17.116  0.8380  0.5208  0.5138
  545TMC3    C2 8084   1.394   1.654  17.011  0.1869  0.7910  0.1971
  545TMC3    C3 8085   1.459   1.551  16.945  0.1017  0.1085  0.6694
  545TMC3    C4 8086   1.261   1.497  17.138 -0.7436  0.3121  0.2195
  545TMC3    C5 8087   1.326   1.405  17.060 -0.4259 -0.4941  0.0867
  545TMC3    C6 8088   1.427   1.421  16.968  0.3904 -0.1334  0.5983
  545TMC3     C 8089   1.247   1.740  17.179  0.2969  0.6504  0.7593
  545TMC3     O 8090   1.226   1.838  17.105 -0.5242  0.2146 -0.6463
  545TMC3     H 8091   1.434   1.755  17.007  1.5031  0.2433 -0.4851
  545TMC3    H1 8092   1.198   1.476  17.224  0.2764 -1.0299  0.6212
  545TMC3    H2 8093   1.460   1.342  16.902  1.4760  1.8085 -1.1849
  545TMC3    C7 8094   1.298   1.276  17.096 -0.0526 -0.2301 -0.4736
  545TMC3    C8 8095   1.592   1.573  16.890 -0.0190 -0.1265  0.5289
  545TMC3    O1 8096   1.187   1.249  17.139 -0.6766  0.2456  0.4968
  545TMC3    O2 8097   1.667   1.477  16.877  0.3283  1.0445  0.0453
  546MPD2     C 8098   2.671   2.720  17.053  0.1112  0.6610  0.1173
  546MPD2    C1 8099   2.641   2.734  17.187  0.0214 -0.3774  0.0905
  546MPD2    C2 8100   2.671   2.858  17.245  0.7372 -0.5049 -0.1306
  546MPD2    C3 8101   2.724   2.963  17.175 -0.1236  0.1087 -0.6103
  546MPD2    C4 8102   2.751   2.947  17.046  0.4136  0.0562 -0.7605
  546MPD2    C5 8103   2.734   2.825  16.991 -0.2657  0.1056  0.4119
  546MPD2     H 8104   2.647   2.858  17.351  0.8640  1.6121 -0.1113
  546MPD2    H1 8105   2.788   3.027  16.983  0.8326  0.9176  0.5859
  546MPD2    H2 8106   2.657   2.628  16.999  0.2703 -0.3376  1.7824
  546MPD2    H3 8107   2.756   2.814  16.885 -1.0448  2.4776  0.0023
  546MPD2     N 8108   2.740   3.090  17.231  0.0230 -0.5788 -0.3599
  546MPD2    H5 8109   2.783   3.155  17.167 -1.4078 -1.5602 -2.3122
  546MPD2    N1 8110   2.593   2.627  17.264  0.8664 -0.1485 -0.4646
  546MPD2    H7 8111   2.558   2.642  17.358 -1.0613  3.4351 -1.7337
  547TMC3    C1 8112   2.510   2.409  17.306 -0.0554 -0.0113 -0.0244
  547TMC3    C2 8113   2.374   2.446  17.319  0.0842  0.4171  0.3027
  547TMC3    C3 8114   2.278   2.352  17.368 -0.6580  0.7108 -0.1312
  547TMC3    C4 8115   2.555   2.287  17.351 -0.4828 -0.0544  0.2409
  547TMC3    C5 8116   2.454   2.206  17.404 -0.2175  0.8042 -0.7386
  547TMC3    C6 8117   2.320   2.225  17.407  0.1937  0.0951  0.3544
  547TMC3     C 8118   2.603   2.493  17.229  1.1769  0.5200 -0.0997
  547TMC3     O 8119   2.679   2.445  17.145 -0.1249  0.5274 -0.9565
  547TMC3     H 8120   2.341   2.534  17.265  2.2501  1.5387  0.8419
  547TMC3    H1 8121   2.660   2.259  17.348 -0.4147 -0.0823  2.6857
  547TMC3    H2 8122   2.249   2.146  17.428 -0.3390  0.0027 -1.7476
  547TMC3    C7 8123   2.506   2.080  17.453  0.1672  0.0352 -0.0655
  547TMC3    C8 8124   2.151   2.357  17.298 -0.0343 -0.2753  0.1103
  547TMC3    O1 8125   2.512   2.068  17.575  0.6966 -0.1922 -0.8453
  547TMC3    O2 8126   2.135   2.418  17.195  0.1688  0.0397 -0.0641
  548MPD2     C 8127   2.516   2.743  12.126  0.1658 -0.2693 -0.4796
  548MPD2    C1 8128   2.538   2.717  12.262 -0.5995  0.3024  0.2302
  548MPD2    C2 8129   2.646   2.628  12.289 -1.0556  0.0517  0.5511
  548MPD2    C3 8130   2.728   2.575  12.190 -0.8831  0.1977  0.8509
  548MPD2    C4 8131   2.703   2.605  12.058 -0.3390 -0.7011 -0.3515
  548MPD2    C5 8132   2.595   2.683  12.027 -0.1927  0.2617 -0.0365
  548MPD2     H 8133   2.672   2.614  12.393  1.2325 -2.9419 -0.4027
  548MPD2    H1 8134   2.762   2.564  11.977 -1.2404 -0.8279 -0.9490
  548MPD2    H2 8135   2.433   2.807  12.095 -1.5856 -1.3060  2.1008
  548MPD2    H3 8136   2.575   2.702  11.922  0.4565  0.7635 -0.0664
  548MPD2     N 8137   2.831   2.482  12.227  0.2463  0.1741  0.2605
  548MPD2    H5 8138   2.834   2.448  12.322 -1.7920 -0.1574  0.2077
  548MPD2    N1 8139   2.453   2.775  12.359 -0.4421  0.5696 -0.0433
  548MPD2    H7 8140   2.379   2.836  12.325 -0.4520  0.0025 -1.0398
  549TMC3    C1 8141   2.348   2.805  12.577  0.1468 -0.2412 -0.0369
  549TMC3    C2 8142   2.275   2.913  12.531  1.1988  0.4832 -0.5630
  549TMC3    C3 8143   2.156   2.940  12.604 -0.1553  0.1208  0.3185
  549TMC3    C4 8144   2.304   2.713  12.667 -0.6376 -0.4284 -0.2418
  549TMC3    C5 8145   2.187   2.743  12.721  0.5610  0.1424 -0.2083
  549TMC3    C6 8146   2.118   2.855  12.700 -0.1722  0.2758  0.8893
  549TMC3     C 8147   2.449   2.736  12.497  0.4613 -0.0967 -0.5108
  549TMC3     O 8148   2.512   2.645  12.553 -0.5326 -0.0738  0.3200
  549TMC3     H 8149   2.303   2.971  12.443  3.4563  1.2325  0.6521
  549TMC3    H1 8150   2.364   2.629  12.700 -0.9931 -1.1671 -1.4735
  549TMC3    H2 8151   2.019   2.868  12.744 -1.3537  0.7035 -1.9038
  549TMC3    C7 8152   2.128   2.664  12.824 -0.0731 -0.5152 -0.1553
  549TMC3    C8 8153   2.050   2.997  12.525  0.2499 -0.2190 -0.1760
  549TMC3    O1 8154   2.083   2.719  12.922  1.0453  0.3355  0.4443
  549TMC3    O2 8155   1.948   2.928  12.504  0.0876 -0.3356 -0.5626
  550TMC3    C1 8156   0.897   0.945  12.790  1.6157 -0.2488 -0.5602
  550TMC3    C2 8157   0.817   0.944  12.900  0.0425  0.2810  0.2289
  550TMC3    C3 8158   0.717   0.851  12.907 -0.0263 -0.5098 -0.6625
  550TMC3    C4 8159   0.883   0.862  12.683  0.5065 -0.1881  0.1736
  550TMC3    C5 8160   0.790   0.767  12.699 -0.1431  0.0551 -0.0817
  550TMC3    C6 8161   0.710   0.753  12.812  0.5695  0.0319  0.1698
  550TMC3     C 8162   0.962   1.075  12.763  0.7457  0.1027 -0.4793
  550TMC3     O 8163   0.949   1.165  12.846  0.0713 -0.3531  0.4051
  550TMC3     H 8164   0.810   1.029  12.967 -2.6982  0.4894 -0.3007
  550TMC3    H1 8165   0.959   0.858  12.606  1.1505  0.3491  0.7838
  550TMC3    H2 8166   0.640   0.671  12.825  0.8258 -0.1599  0.3544
  550TMC3    C7 8167   0.752   0.676  12.593  0.3563 -0.1543 -0.0528
  550TMC3    C8 8168   0.601   0.891  12.987  0.2007  0.1224  0.4479
  550TMC3    O1 8169   0.685   0.586  12.629 -0.1280  0.2570 -0.6206
  550TMC3    O2 8170   0.620   0.967  13.083  0.0951 -0.1442 -0.5601
  551TMC3    C1 8171   3.462   3.269  13.242 -0.3531 -0.1203  0.2174
  551TMC3    C2 8172   3.592   3.273  13.204  0.3712 -0.0101  0.5826
  551TMC3    C3 8173   3.682   3.350  13.271  0.1809 -0.5481 -0.6354
  551TMC3    C4 8174   3.434   3.343  13.356  1.3447  0.5625 -0.0693
  551TMC3    C5 8175   3.524   3.425  13.415 -0.4828 -0.1632  0.1586
  551TMC3    C6 8176   3.651   3.433  13.372  0.0225 -0.0215 -0.0627
  551TMC3     C 8177   3.362   3.187  13.180 -0.0709  0.0981 -0.1829
  551TMC3     O 8178   3.392   3.137  13.070  0.1465  0.4974  0.0263
  551TMC3     H 8179   3.617   3.221  13.111  0.7613 -1.9605  1.7662
  551TMC3    H1 8180   3.333   3.356  13.394  1.5971  1.7515  0.1967
  551TMC3    H2 8181   3.724   3.492  13.424 -0.7847  1.1781 -0.2841
  551TMC3    C7 8182   3.487   3.497  13.536 -0.8522 -0.1050  0.1418
  551TMC3    C8 8183   3.800   3.405  13.196  0.6484  0.0981 -0.6262
  551TMC3    O1 8184   3.404   3.445  13.611 -0.6025 -0.3319  0.3199
  551TMC3    O2 8185   3.828   3.523  13.218  0.4012  0.3545 -0.8244
  552MPD2     C 8186   0.507   0.667  14.130  0.5882 -0.5265  0.0114
  552MPD2    C1 8187   0.587   0.561  14.091 -0.6723 -0.4127 -0.2986
  552MPD2    C2 8188   0.722   0.559  14.119  0.0102  0.5370  0.1721
  552MPD2    C3 8189   0.769   0.672  14.186  0.1146 -0.2711 -0.2023
  552MPD2    C4 8190   0.688   0.776  14.233 -0.1848  0.2211  0.4029
  552MPD2    C5 8191   0.549   0.770  14.211 -0.4195  0.2458  0.2141
  552MPD2     H 8192   0.790   0.481  14.088 -1.2137 -1.1646  1.7431
  552MPD2    H1 8193   0.728   0.858  14.291  1.3733  0.9125 -1.6482
  552MPD2    H2 8194   0.402   0.655  14.107  0.9786  0.5635 -2.3579
  552MPD2    H3 8195   0.483   0.848  14.246  0.0749  0.6069  0.3361
  552MPD2     N 8196   0.907   0.682  14.214 -0.2373 -1.1436 -0.2246
  552MPD2    H5 8197   0.962   0.609  14.171 -0.0974 -0.6433 -0.8978
  552MPD2    N1 8198   0.532   0.454  14.014 -0.0619 -0.0513  0.0027
  552MPD2    H7 8199   0.584   0.367  14.012 -2.2261 -1.3326 -0.4742
  553TMC3    C1 8200   0.409   0.351  13.844  0.0634 -0.6015  0.3626
  553TMC3    C2 8201   0.389   0.392  13.711 -0.5513  0.0041  0.0671
  553TMC3    C3 8202   0.446   0.316  13.616  0.0980 -0.5976  0.3361
  553TMC3    C4 8203   0.469   0.237  13.885  0.8305 -0.8627  0.6889
  553TMC3    C5 8204   0.524   0.165  13.789 -0.3087 -0.9903  0.7950
  553TMC3    C6 8205   0.501   0.194  13.654  0.0176 -0.0648  0.3674
  553TMC3     C 8206   0.417   0.464  13.933  0.8201 -0.9115  0.0766
  553TMC3     O 8207   0.350   0.562  13.902  0.3803  0.0427 -0.5910
  553TMC3     H 8208   0.368   0.496  13.690 -1.5206 -0.2783 -0.3465
  553TMC3    H1 8209   0.490   0.211  13.988 -2.2610  1.4717  1.9002
  553TMC3    H2 8210   0.552   0.130  13.583  1.2426 -1.6793  2.6872
  553TMC3    C7 8211   0.605   0.052  13.821  1.1720 -0.0983  0.2945
  553TMC3    C8 8212   0.542   0.396  13.543  0.9290 -0.0652 -0.2302
  553TMC3    O1 8213   0.543   4.669  13.802 -0.0621  0.2385  0.1296
  553TMC3    O2 8214   0.585   0.497  13.600  0.0629  0.4227  0.4291
  554TMC3    C1 8215   2.354   4.454  12.132 -0.6453 -0.3938  0.4422
  554TMC3    C2 8216   2.247   4.465  12.048  0.9163  0.5079  0.1567
  554TMC3    C3 8217   2.259   4.546  11.935  0.6454 -0.3366  0.1984
  554TMC3    C4 8218   2.467   4.532  12.117 -0.0611  0.0969  0.0027
  554TMC3    C5 8219   2.472   4.619  12.014 -0.0121  0.5716 -0.1694
  554TMC3    C6 8220   2.373   4.614  11.919  0.2976  0.8206 -0.2507
  554TMC3     C 8221   2.342   4.364  12.248 -0.4126 -0.0308 -0.5565
  554TMC3     O 8222   2.227   4.335  12.280 -0.7804  0.2520  0.0982
  554TMC3     H 8223   2.161   4.400  12.062 -0.4342  2.1901 -0.3469
  554TMC3    H1 8224   2.543   4.533  12.195 -0.5996 -0.5922  0.5331
  554TMC3    H2 8225   2.382   4.669  11.826  1.8872  3.2139  1.3294
  554TMC3    C7 8226   2.603   4.676  11.981  0.7999  0.8050  0.0523
  554TMC3    C8 8227   2.185   4.502  11.825 -0.1819 -0.6469 -0.0720
  554TMC3    O1 8228   2.690   4.683  12.069 -0.1237  0.0613  0.6292
  554TMC3    O2 8229   2.240   4.497  11.715 -0.7050  0.0657 -0.4164
  555TMC3    C1 8230   1.714   3.725  15.044  0.7906 -0.1856 -0.6809
  555TMC3    C2 8231   1.770   3.811  15.134  0.2134  0.4363 -0.0356
  555TMC3    C3 8232   1.777   3.775  15.267 -0.1930 -0.3066  0.2234
  555TMC3    C4 8233   1.670   3.595  15.087 -0.6718  0.4090 -0.3766
  555TMC3    C5 8234   1.666   3.574  15.227  0.5619  0.1339  0.4479
  555TMC3    C6 8235   1.722   3.663  15.314  0.1231  0.4383  0.3349
  555TMC3     C 8236   1.655   3.771  14.923  0.0417  0.1343  0.1985
  555TMC3     O 8237   1.632   3.698  14.827 -0.0627  0.4809  0.7888
  555TMC3     H 8238   1.812   3.901  15.092  1.6462  0.0414  0.5599
  555TMC3    H1 8239   1.628   3.535  15.008  0.9911 -1.5385  0.1912
  555TMC3    H2 8240   1.713   3.645  15.421  2.3367  2.6093  0.8672
  555TMC3    C7 8241   1.644   3.442  15.272  0.2756  0.2950  0.1582
  555TMC3    C8 8242   1.838   3.875  15.359  0.0695 -0.3389 -0.2634
  555TMC3    O1 8243   1.646   3.429  15.391 -0.2164 -0.1464  0.2397
  555TMC3    O2 8244   1.874   3.986  15.317 -0.2007 -0.5995 -0.0414
  556MPD2     C 8245   0.072   0.777  10.499  0.2761 -0.2653 -0.0398
  556MPD2    C1 8246   0.015   0.663  10.560  0.5533 -0.3879 -0.5659
  556MPD2    C2 8247   4.655   0.579  10.491 -0.1379  0.0369  0.4449
  556MPD2    C3 8248   4.624   0.615  10.363  0.1899  0.2426  0.7481
  556MPD2    C4 8249   4.678   0.719  10.297  0.2017 -0.6135  0.8506
  556MPD2    C5 8250   0.039   0.795  10.371  0.1177 -0.2477  0.4468
  556MPD2     H 8251   4.605   0.500  10.545  0.9654  0.5459  2.1939
  556MPD2    H1 8252   4.649   0.744  10.196 -0.9549  1.2807  1.6392
  556MPD2    H2 8253   0.139   0.848  10.547  0.9129  0.5709 -2.1516
  556MPD2    H3 8254   0.078   0.880  10.317  0.2667  0.8089  2.2185
  556MPD2     N 8255   4.525   0.535  10.297 -0.2908  0.1946 -0.1364
  556MPD2    H5 8256   4.493   0.450  10.342 -0.5694  0.8492  0.9119
  556MPD2    N1 8257   0.044   0.631  10.693  0.0669  0.0108 -0.2302
  556MPD2    H7 8258   0.025   0.535  10.720  1.2176  0.0032  0.5280
  557TMC3    C1 8259   4.365   0.454  10.141  0.4969  0.5649  0.6874
  557TMC3    C2 8260   4.319   0.460  10.017 -0.1054 -0.3172 -0.1944
  557TMC3    C3 8261   4.255   0.351   9.973  0.4053  0.0659  0.0190
  557TMC3    C4 8262   4.341   0.348  10.223 -0.1897  0.5181  0.4162
  557TMC3    C5 8263   4.279   0.245  10.175  0.5533  0.1623 -0.1706
  557TMC3    C6 8264   4.239   0.238  10.043  0.5134 -0.9492 -0.2748
  557TMC3     C 8265   4.456   0.564  10.184 -0.5192 -0.1616  0.0943
  557TMC3     O 8266   4.436   0.670  10.126  0.0657 -0.1213  0.2481
  557TMC3     H 8267   4.334   0.544   9.951 -3.2289  1.4162  1.2982
  557TMC3    H1 8268   4.386   0.332  10.320  0.5498  0.4001  0.0483
  557TMC3    H2 8269   4.164   0.168  10.011 -1.2028  0.9081 -0.2977
  557TMC3    C7 8270   4.235   0.136  10.265  0.8097  0.1651 -0.0257
  557TMC3    C8 8271   4.179   0.360   9.846 -0.3800  0.4894  0.0062
  557TMC3    O1 8272   4.192   0.158  10.378 -0.4796 -0.1297 -0.1066
  557TMC3    O2 8273   4.163   0.471   9.808 -0.4289  0.5901 -0.1653
  558TMC3    C1 8274   1.947   3.164   9.928  0.4165 -0.5091 -0.0275
  558TMC3    C2 8275   1.913   3.046   9.986  0.7762  0.3180 -0.3744
  558TMC3    C3 8276   1.780   3.003   9.973 -0.4516 -0.1398 -1.0592
  558TMC3    C4 8277   1.851   3.246   9.866 -0.3362 -0.1520 -0.2466
  558TMC3    C5 8278   1.725   3.192   9.842 -0.1344  0.2710  0.5351
  558TMC3    C6 8279   1.690   3.072   9.898 -0.9353  0.1799 -0.0074
  558TMC3     C 8280   2.080   3.218   9.947  0.7508  0.0838 -0.2088
  558TMC3     O 8281   2.163   3.157  10.015 -0.9429  0.5649  0.1635
  558TMC3     H 8282   1.989   2.981  10.026  0.3455  1.0316  1.6528
  558TMC3    H1 8283   1.880   3.343   9.827  0.7534 -1.4110 -2.5313
  558TMC3    H2 8284   1.588   3.037   9.884 -1.1624  0.7306  0.2872
  558TMC3    C7 8285   1.636   3.254   9.746 -0.2255 -0.6996 -0.3222
  558TMC3    C8 8286   1.722   2.923  10.084  0.1764  0.4761 -0.0817
  558TMC3    O1 8287   1.691   3.309   9.654  0.1764 -0.1572  0.2452
  558TMC3    O2 8288   1.615   2.869  10.064 -0.5407 -0.5108  0.1274
  559MPD2     C 8289   2.101   3.935  10.697 -0.7563  1.0591 -0.2582
  559MPD2    C1 8290   2.039   3.850  10.792  0.2117 -0.9510 -0.4375
  559MPD2    C2 8291   2.102   3.839  10.921 -0.0495 -0.2712  0.0878
  559MPD2    C3 8292   2.230   3.896  10.949  0.0339 -0.6572  1.0624
  559MPD2    C4 8293   2.292   3.973  10.850 -0.3536  0.1333 -0.5310
  559MPD2    C5 8294   2.222   3.996  10.733  0.0866 -0.2169 -1.0682
  559MPD2     H 8295   2.049   3.793  11.003  0.6444  1.6396  1.5890
  559MPD2    H1 8296   2.394   4.009  10.858  0.4395 -2.2280  0.1353
  559MPD2    H2 8297   2.055   3.954  10.601  1.1722  0.9624 -1.2085
  559MPD2    H3 8298   2.267   4.058  10.656 -1.4380 -0.6317 -2.2792
  559MPD2     N 8299   2.291   3.858  11.067  0.0991  0.0952 -1.0637
  559MPD2    H5 8300   2.234   3.807  11.135 -0.1460  0.3110 -1.1060
  559MPD2    N1 8301   1.916   3.782  10.763  0.2042  0.0165  0.3730
  559MPD2    H7 8302   1.858   3.801  10.682  0.7871  2.3638  0.5312
  560TMC3    C1 8303   2.431   3.828  11.244 -0.4973  0.2649 -0.0506
  560TMC3    C2 8304   2.369   3.704  11.267  0.1620 -0.3685  0.8535
  560TMC3    C3 8305   2.406   3.642  11.386 -0.3158 -1.1356  0.8077
  560TMC3    C4 8306   2.507   3.882  11.334  0.1860  0.4330 -0.2903
  560TMC3    C5 8307   2.536   3.817  11.452  0.0665 -0.1592 -0.1534
  560TMC3    C6 8308   2.489   3.696  11.479  0.5664  0.5351 -0.2217
  560TMC3     C 8309   2.421   3.881  11.109 -0.2054 -0.4380  0.0361
  560TMC3     O 8310   2.511   3.943  11.059 -0.1131  0.8912  0.2561
  560TMC3     H 8311   2.320   3.647  11.189  1.2772  0.3446 -0.3639
  560TMC3    H1 8312   2.542   3.982  11.310  0.4542  0.4068 -0.0028
  560TMC3    H2 8313   2.504   3.652  11.577  1.1869  2.0876  0.3759
  560TMC3    C7 8314   2.613   3.884  11.547 -0.4664  0.4499  0.7894
  560TMC3    C8 8315   2.340   3.514  11.413  0.2650  0.1623 -0.1689
  560TMC3    O1 8316   2.599   3.867  11.667 -0.5634 -0.5137 -0.5143
  560TMC3    O2 8317   2.413   3.415  11.414 -0.3257  0.4668  0.0944
  561TMC3    C1 8318   0.196   2.219  11.449  1.2751  0.3489 -0.0633
  561TMC3    C2 8319   0.135   2.205  11.572 -0.6137 -0.3255 -0.1148
  561TMC3    C3 8320   0.091   2.323  11.625 -0.4863 -0.0004 -0.4221
  561TMC3    C4 8321   0.198   2.345  11.382 -0.2953 -0.8916  0.5557
  561TMC3    C5 8322   0.159   2.456  11.450  0.0738  0.5360  0.4045
  561TMC3    C6 8323   0.109   2.447  11.574  0.5048  1.0802 -0.2700
  561TMC3     C 8324   0.179   2.105  11.356  0.2406 -0.1380  0.6117
  561TMC3     O 8325   0.095   2.027  11.389 -0.0170  0.2847  0.1713
  561TMC3     H 8326   0.108   2.103  11.596 -1.4485 -0.4891 -1.7339
  561TMC3    H1 8327   0.220   2.344  11.276 -1.9688 -0.3455  0.2013
  561TMC3    H2 8328   0.093   2.536  11.634  0.7629  1.6469 -1.0392
  561TMC3    C7 8329   0.186   2.592  11.403  0.3627  0.1098 -0.5053
  561TMC3    C8 8330   0.034   2.313  11.751 -0.3909  0.5886 -0.0568
  561TMC3    O1 8331   0.122   2.677  11.460 -0.4725  0.3915 -0.3380
  561TMC3    O2 8332   0.037   2.203  11.801 -0.3103  0.3093 -0.3074
  562TMC3    C1 8333   1.604   4.202  16.091 -0.0340 -0.5447 -0.0837
  562TMC3    C2 8334   1.501   4.285  16.060 -0.3193 -0.3171 -0.1805
  562TMC3    C3 8335   1.440   4.286  15.943  0.0452 -0.9811 -0.4025
  562TMC3    C4 8336   1.648   4.112  15.996  0.2492  0.1753 -0.5908
  562TMC3    C5 8337   1.582   4.106  15.876  0.0841 -0.1093  0.5874
  562TMC3    C6 8338   1.474   4.191  15.851 -0.0489 -0.2710 -0.3224
  562TMC3     C 8339   1.653   4.219  16.225  0.4547  0.1211  0.3980
  562TMC3     O 8340   1.667   4.336  16.265  0.0402 -0.0766 -0.1588
  562TMC3     H 8341   1.464   4.355  16.134  2.4983 -0.9136  1.7794
  562TMC3    H1 8342   1.740   4.057  16.012  0.3116  0.6442  0.6206
  562TMC3    H2 8343   1.416   4.188  15.759 -0.6670 -2.0887  0.1336
  562TMC3    C7 8344   1.576   3.982  15.797  0.6552 -0.1439 -0.3204
  562TMC3    C8 8345   1.341   4.388  15.911  0.2926 -0.1041 -0.3676
  562TMC3    O1 8346   1.528   4.000  15.684 -0.5004  0.3165 -0.5281
  562TMC3    O2 8347   1.271   4.426  16.002  0.0458  0.2799  0.0958
  563MPD2     C 8348   3.991   0.923  15.725 -0.3993 -0.2256  0.6765
  563MPD2    C1 8349   3.937   0.814  15.795 -0.1555  0.1036 -0.3962
  563MPD2    C2 8350   4.018   0.747  15.885  0.2665 -0.6838  0.0469
  563MPD2    C3 8351   4.141   0.792  15.912  0.4612  1.0655 -0.0376
  563MPD2    C4 8352   4.200   0.889  15.828 -0.7517  0.4827 -0.2582
  563MPD2    C5 8353   4.119   0.955  15.742  0.2581  0.0527 -0.0635
  563MPD2     H 8354   3.984   0.657  15.936  1.4201 -0.0041  1.9846
  563MPD2    H1 8355   4.296   0.934  15.844 -0.3627 -0.7411  0.8414
  563MPD2    H2 8356   3.930   0.986  15.662 -0.1402 -0.4862  0.1675
  563MPD2    H3 8357   4.161   1.027  15.673 -2.4291 -0.2764 -2.0675
  563MPD2     N 8358   4.202   0.735  16.025 -0.5682 -0.1130 -0.2676
  563MPD2    H5 8359   4.153   0.664  16.078  0.5959  0.3722  1.4470
  563MPD2    N1 8360   3.800   0.772  15.797  0.2345  0.3621 -0.4863
  563MPD2    H7 8361   3.779   0.696  15.861  0.7804 -0.0665 -0.8167
  564TMC3    C1 8362   3.565   0.814  15.776  0.2996 -0.0105  0.1878
  564TMC3    C2 8363   3.539   0.699  15.840 -0.2328  0.0805 -0.3761
  564TMC3    C3 8364   3.418   0.669  15.898 -0.1244 -0.6073  1.1534
  564TMC3    C4 8365   3.480   0.919  15.792  0.0087  0.4929  0.3054
  564TMC3    C5 8366   3.359   0.899  15.850  0.3385  0.1884  0.6198
  564TMC3    C6 8367   3.329   0.772  15.899 -0.8222  0.5437 -0.7093
  564TMC3     C 8368   3.701   0.841  15.733  0.2093 -0.1577  0.1261
  564TMC3     O 8369   3.711   0.940  15.660 -0.1552  0.3844  0.0888
  564TMC3     H 8370   3.598   0.614  15.807  1.0370  1.8668 -2.7696
  564TMC3    H1 8371   3.487   1.014  15.741  2.8644  0.0412 -0.1436
  564TMC3    H2 8372   3.233   0.755  15.945 -0.9960  2.2986 -0.4286
  564TMC3    C7 8373   3.288   1.017  15.903 -1.3769  0.7849  0.7431
  564TMC3    C8 8374   3.386   0.549  15.965  0.7930 -0.1500 -0.3011
  564TMC3    O1 8375   3.327   1.128  15.871 -0.0603 -0.3254  0.2680
  564TMC3    O2 8376   3.274   0.527  16.010  0.1343  0.0606  0.1910
  565TMC3    C1 8377   4.186   2.377  10.116 -0.1747 -0.3095 -0.7295
  565TMC3    C2 8378   4.241   2.247  10.128 -0.8337 -0.4992  0.0297
  565TMC3    C3 8379   4.218   2.157  10.028  0.5980 -0.3618  0.5294
  565TMC3    C4 8380   4.146   2.416   9.990 -0.2340 -0.2739  0.2692
  565TMC3    C5 8381   4.133   2.320   9.890 -0.0580 -0.2820 -0.5141
  565TMC3    C6 8382   4.157   2.185   9.911  0.2637  0.3444  0.1469
  565TMC3     C 8383   4.246   2.475  10.199  0.3078  0.3414 -0.5512
  565TMC3     O 8384   4.285   2.583  10.150  0.0625  0.3387 -0.2391
  565TMC3     H 8385   4.284   2.219  10.224 -1.2553  0.0822  0.3921
  565TMC3    H1 8386   4.123   2.520   9.969 -0.6176 -0.6360 -1.1283
  565TMC3    H2 8387   4.173   2.110   9.834 -1.9466 -2.1976  2.1653
  565TMC3    C7 8388   4.097   2.369   9.757  0.2530  0.0868 -0.0610
  565TMC3    C8 8389   4.246   2.016  10.058  0.0888  0.1478  0.2999
  565TMC3    O1 8390   4.026   2.298   9.686 -0.1483  0.2819 -0.4653
  565TMC3    O2 8391   4.341   1.999  10.137  0.2091 -0.3126 -0.2789
  566MPD2     C 8392   0.627   3.914  14.647  0.2767  0.6135 -0.5753
  566MPD2    C1 8393   0.745   3.880  14.580  0.6815 -0.4661  0.5295
  566MPD2    C2 8394   0.736   3.810  14.467 -0.9132 -0.3492 -0.4168
  566MPD2    C3 8395   0.615   3.763  14.418 -0.0200  0.5178  0.8113
  566MPD2    C4 8396   0.502   3.798  14.477 -0.0113  0.1842  0.4384
  566MPD2    C5 8397   0.510   3.872  14.589 -0.1529  0.2611  0.5059
  566MPD2     H 8398   0.826   3.785  14.412 -2.2903 -1.3205 -2.2427
  566MPD2    H1 8399   0.402   3.777  14.441  1.0943 -0.5366 -2.2286
  566MPD2    H2 8400   0.626   3.962  14.744 -0.2490  0.7742 -0.6636
  566MPD2    H3 8401   0.410   3.893  14.626  0.9761  2.3681  2.2937
  566MPD2     N 8402   0.614   3.672  14.303 -0.0358  0.6004 -0.0920
  566MPD2    H5 8403   0.521   3.649  14.270 -0.2453 -0.1263  1.0049
  566MPD2    N1 8404   0.876   3.920  14.622  0.2039 -0.0818  0.0519
  566MPD2    H7 8405   0.949   3.897  14.556  0.2668  2.5163 -0.7718
  567TMC3    C1 8406   1.050   4.010  14.740  0.1252 -0.5955  0.1278
  567TMC3    C2 8407   1.105   4.030  14.619 -0.7354 -0.9940  0.1286
  567TMC3    C3 8408   1.221   3.971  14.585 -0.9731  0.2848 -0.2249
  567TMC3    C4 8409   1.118   3.946  14.842  0.4901 -0.2598  0.5692
  567TMC3    C5 8410   1.238   3.886  14.804 -0.0933 -0.0526 -0.2296
  567TMC3    C6 8411   1.284   3.883  14.673 -0.1478 -0.0028  0.2579
  567TMC3     C 8412   0.908   3.994  14.733  0.9103  0.0526 -0.2468
  567TMC3     O 8413   0.845   4.011  14.836 -0.5470  0.8745 -0.7581
  567TMC3     H 8414   1.059   4.102  14.552  1.0470  1.0199  1.0671
  567TMC3    H1 8415   1.074   3.927  14.939  1.0092  1.0177  1.0531
  567TMC3    H2 8416   1.386   3.847  14.662  1.0370  3.1943  0.7846
  567TMC3    C7 8417   1.271   3.762  14.872  0.4453 -0.0918  0.1437
  567TMC3    C8 8418   1.254   3.976  14.442  0.1937  0.3263  0.3703
  567TMC3    O1 8419   1.303   3.668  14.800  0.3839  0.3242  0.3555
  567TMC3    O2 8420   1.215   4.076  14.383 -0.6041  0.4431  0.4383
  568MPD2     C 8421   3.442   3.952  16.589  0.0444 -0.0593 -0.3518
  568MPD2    C1 8422   3.369   4.039  16.661 -0.2906  0.5048  0.3199
  568MPD2    C2 8423   3.272   4.122  16.602  0.3661  0.0978 -0.2161
  568MPD2    C3 8424   3.257   4.124  16.466  0.0447  0.4617  0.4456
  568MPD2    C4 8425   3.333   4.035  16.401  0.2018 -0.2327 -0.6834
  568MPD2    C5 8426   3.423   3.954  16.454  0.9279  0.0221 -0.2030
  568MPD2     H 8427   3.220   4.198  16.659 -0.1661  0.0579 -0.6480
  568MPD2    H1 8428   3.323   4.015  16.295  1.6582  0.7006 -0.9996
  568MPD2    H2 8429   3.515   3.887  16.637 -0.1572  1.1951  1.6374
  568MPD2    H3 8430   3.481   3.888  16.390  0.5774 -0.1716 -0.3221
  568MPD2     N 8431   3.166   4.221  16.403  0.3565  0.4584  0.1866
  568MPD2    H5 8432   3.135   4.292  16.469 -0.2557  0.6834 -0.3469
  568MPD2    N1 8433   3.394   4.039  16.796 -0.2842 -0.3402 -0.0923
  568MPD2    H7 8434   3.471   3.979  16.823  0.1642  0.1260 -0.3224
  569TMC3    C1 8435   3.086   4.362  16.229 -0.2471 -0.3232 -0.4102
  569TMC3    C2 8436   3.036   4.432  16.333  0.0682 -0.3501 -0.1800
  569TMC3    C3 8437   3.050   4.571  16.344  0.0373 -0.9763  0.0192
  569TMC3    C4 8438   3.166   4.428  16.143 -0.5791  0.2050 -0.3379
  569TMC3    C5 8439   3.188   4.568  16.157 -0.2616  0.0601 -0.9819
  569TMC3    C6 8440   3.134   4.644  16.256 -0.4774  0.0710 -0.5684
  569TMC3     C 8441   3.154   4.244  16.268  0.3262  0.1342  0.6176
  569TMC3     O 8442   3.222   4.182  16.186 -0.1627  0.7592 -0.5253
  569TMC3     H 8443   2.964   4.393  16.403 -2.7027  0.5126 -2.5802
  569TMC3    H1 8444   3.221   4.376  16.066 -0.6722  0.5983 -0.6699
  569TMC3    H2 8445   3.146   0.030  16.258 -0.5991  0.0947 -1.0743
  569TMC3    C7 8446   3.314   4.630  16.106 -0.2048 -0.6907 -0.1845
  569TMC3    C8 8447   2.998   4.639  16.459  0.1081 -0.8791 -0.7327
  569TMC3    O1 8448   3.414   4.556  16.092 -0.1752 -0.1183 -0.6836
  569TMC3    O2 8449   2.905   4.588  16.522 -0.0046 -0.1981 -0.6476
  570TMC3    C1 8450   2.809   2.991  16.369 -0.1654  0.3552  0.0541
  570TMC3    C2 8451   2.879   2.961  16.249 -0.1313 -0.5360 -0.7373
  570TMC3    C3 8452   2.965   3.059  16.209  0.8724  0.2004 -0.3648
  570TMC3    C4 8453   2.823   3.117  16.434  0.1015  0.3015  0.1235
  570TMC3    C5 8454   2.905   3.208  16.377 -0.0949 -0.0945  0.0719
  570TMC3    C6 8455   2.977   3.179  16.269  0.7070  0.2265 -0.2926
  570TMC3     C 8456   2.701   2.901  16.403  0.2198  0.4769  0.1198
  570TMC3     O 8457   2.666   2.820  16.320  0.3583  0.3324 -0.6203
  570TMC3     H 8458   2.873   2.872  16.187  0.1607 -0.1737 -1.2839
  570TMC3    H1 8459   2.757   3.141  16.517  2.5507  2.8147  1.3324
  570TMC3    H2 8460   3.035   3.258  16.223 -0.1485 -0.1267 -1.9716
  570TMC3    C7 8461   2.903   3.339  16.446 -0.5025 -0.3991  0.1367
  570TMC3    C8 8462   3.046   3.033  16.088 -0.2716  0.4538  0.7570
  570TMC3    O1 8463   2.864   3.340  16.564  0.1418 -0.2016 -0.4314
  570TMC3    O2 8464   3.048   2.917  16.049 -0.2627 -0.1228  0.1479
  571MPD2     C 8465   0.787   4.156   0.163 -0.0175 -0.9650  0.1152
  571MPD2    C1 8466   0.852   4.249   0.084 -0.4786  0.3490  0.1394
  571MPD2    C2 8467   0.798   4.378   0.077 -0.1921  0.3026  0.6935
  571MPD2    C3 8468   0.673   4.404   0.121  0.5700 -0.6005 -0.1918
  571MPD2    C4 8469   0.609   4.309   0.202 -0.2433  0.0460  0.2396
  571MPD2    C5 8470   0.671   4.186   0.223  0.4771 -0.5849  0.4390
  571MPD2     H 8471   0.839   4.451   0.007 -0.7896  0.3488  0.3937
  571MPD2    H1 8472   0.520   4.335   0.258  0.5481  0.5017  1.2893
  571MPD2    H2 8473   0.822   4.054   0.177  0.7698 -0.6969  0.0978
  571MPD2    H3 8474   0.613   4.111   0.275  1.3089 -3.2356 -2.4878
  571MPD2     N 8475   0.597   4.522   0.099  0.1260 -0.1387 -0.0114
  571MPD2    H5 8476   0.506   4.533   0.142  0.2866 -3.0525  1.0924
  571MPD2    N1 8477   0.969   4.217   0.014  0.0281  0.0193 -0.5786
  571MPD2    H7 8478   0.998   4.120   0.018 -1.8679 -0.5165  0.3857
  572TMC3    C1 8479   0.553   0.021   0.033  0.0624 -0.2836  0.9590
  572TMC3    C2 8480   0.430   0.006   0.084  0.2456 -0.0055  0.3218
  572TMC3    C3 8481   0.342   0.112   0.078 -0.4730  0.1613  0.6017
  572TMC3    C4 8482   0.596   0.145  17.667  0.0829 -0.0953  0.8065
  572TMC3    C5 8483   0.505   0.248  17.651  0.8507  0.2917  0.8779
  572TMC3    C6 8484   0.375   0.231   0.008  0.8774  0.1600  0.2611
  572TMC3     C 8485   0.648   4.632   0.039 -0.3397  0.5465  0.1928
  572TMC3     O 8486   0.748   4.644  17.658  0.1699 -0.5073 -0.0349
  572TMC3     H 8487   0.392   4.631   0.115 -0.8177  0.5216  0.6651
  572TMC3    H1 8488   0.694   0.149  17.620 -0.2437 -0.0636  0.1310
  572TMC3    H2 8489   0.297   0.305  17.684  1.1905  0.4427 -0.0102
  572TMC3    C7 8490   0.557   0.383  17.646  0.0416 -0.4502 -0.0655
  572TMC3    C8 8491   0.215   0.114   0.145 -0.8060 -0.0097  0.2019
  572TMC3    O1 8492   0.488   0.475  17.688 -0.3687  0.0181 -0.1459
  572TMC3    O2 8493   0.123   0.160   0.076 -0.3890  0.0172  0.1622
  573MPD2     C 8494   1.805   0.600   0.485 -0.4846  0.0672 -0.1999
  573MPD2    C1 8495   1.897   0.701   0.475  0.1181 -0.0199 -0.4945
  573MPD2    C2 8496   1.931   0.734   0.343 -0.2642  0.1332 -0.6453
  573MPD2    C3 8497   1.871   0.668   0.233 -0.5483 -0.0013 -0.3886
  573MPD2    C4 8498   1.781   0.572   0.249  0.0144 -0.0525 -0.0621
  573MPD2    C5 8499   1.754   0.533   0.374  0.3319  0.0029  0.0147
  573MPD2     H 8500   2.010   0.806   0.327  1.2796 -1.2147  0.9582
  573MPD2    H1 8501   1.725   0.518   0.173  0.9834  0.4705 -1.1472
  573MPD2    H2 8502   1.770   0.555   0.578  0.8761 -1.3914 -0.3862
  573MPD2    H3 8503   1.692   0.446   0.391 -0.3575  0.3918 -0.5080
  573MPD2     N 8504   1.898   0.703   0.103 -0.8532 -0.4933  0.1919
  573MPD2    H5 8505   1.841   0.649   0.038 -2.1339  1.3045 -0.1665
  573MPD2    N1 8506   1.944   0.763   0.597 -0.9318 -0.3164 -0.3704
  573MPD2    H7 8507   1.905   0.726   0.683  1.3303 -0.1211  0.7505
  574TMC3    C1 8508   1.967   0.833  17.609  0.0187 -0.3660 -0.1803
  574TMC3    C2 8509   1.875   0.772  17.525  0.0941 -0.8365 -0.6625
  574TMC3    C3 8510   1.884   0.791  17.387 -0.1490  0.6402 -0.3386
  574TMC3    C4 8511   2.071   0.903  17.555  0.3510 -0.3127 -0.0259
  574TMC3    C5 8512   2.069   0.931  17.420 -0.6121  0.3057  0.3651
  574TMC3    C6 8513   1.973   0.874  17.338 -0.1357  0.3548  0.5543
  574TMC3     C 8514   1.984   0.798   0.055 -0.3699  0.2762  1.1453
  574TMC3     O 8515   2.061   0.867   0.112  0.4948 -0.0407  0.0626
  574TMC3     H 8516   1.799   0.707  17.567 -1.1320  0.1948 -1.3106
  574TMC3    H1 8517   2.159   0.934  17.609 -0.5379  0.6311  0.8839
  574TMC3    H2 8518   1.961   0.907  17.235 -1.0034 -0.5060  0.3871
  574TMC3    C7 8519   2.167   1.020  17.366 -0.1732 -0.0142  0.0344
  574TMC3    C8 8520   1.748   0.771  17.328  0.1092 -0.0907 -0.5585
  574TMC3    O1 8521   2.268   1.034  17.434 -0.3693  0.1044 -0.8687
  574TMC3    O2 8522   1.677   0.678  17.370  0.0673 -0.3072 -0.2208
  575TMC3    C1 8523   4.591   1.495  10.638 -0.1658 -0.1333  0.0657
  575TMC3    C2 8524   4.516   1.391  10.681 -0.9919  0.2858  0.4612
  575TMC3    C3 8525   4.400   1.361  10.618 -0.3022 -0.0610  0.9901
  575TMC3    C4 8526   4.557   1.564  10.524 -0.2449 -0.5453 -0.8318
  575TMC3    C5 8527   4.444   1.519  10.456  0.3846  0.1367  0.8665
  575TMC3    C6 8528   4.369   1.418  10.506  0.1144  1.2121  0.1021
  575TMC3     C 8529   4.606   1.598  10.736  0.6002 -0.0726  0.0802
  575TMC3     O 8530   4.629   1.707  10.682  0.7922 -0.1376 -0.1042
  575TMC3     H 8531   4.555   1.337  10.767  0.4830 -2.3298 -1.8484
  575TMC3    H1 8532   4.626   1.626  10.469 -0.1359  0.1657  0.0979
  575TMC3    H2 8533   4.279   1.391  10.453  1.2109 -2.9217  0.3422
  575TMC3    C7 8534   4.414   1.600  10.336  0.5899  0.2411 -0.2893
  575TMC3    C8 8535   4.327   1.247  10.676 -0.1235  0.2701  0.1085
  575TMC3    O1 8536   4.472   1.706  10.317  0.2556 -0.1082 -0.1648
  575TMC3    O2 8537   4.361   1.214  10.788  0.1305 -0.0681 -0.3942
  576MPD2     C 8538   3.774   2.943  12.601 -0.2928 -0.1795  0.5779
  576MPD2    C1 8539   3.804   3.032  12.509  0.3794 -0.2343  0.2267
  576MPD2    C2 8540   3.774   3.165  12.545 -0.0966  0.2268  0.4142
  576MPD2    C3 8541   3.727   3.203  12.673  0.2708 -0.5819 -0.3114
  576MPD2    C4 8542   3.711   3.101  12.768 -1.1716 -0.0263 -0.3417
  576MPD2    C5 8543   3.729   2.967  12.726 -0.6334  0.5305 -0.5208
  576MPD2     H 8544   3.798   3.243  12.474  1.0892 -0.9261 -0.4547
  576MPD2    H1 8545   3.688   3.108  12.874 -1.9260  0.6873 -0.5565
  576MPD2    H2 8546   3.794   2.837  12.587  1.7422  0.0894  1.4477
  576MPD2    H3 8547   3.726   2.880  12.790 -0.2284  1.3133  0.5477
  576MPD2     N 8548   3.706   3.341  12.705 -0.5545 -0.8015 -0.5032
  576MPD2    H5 8549   3.736   3.409  12.636  0.3036  1.0909  1.7309
  576MPD2    N1 8550   3.858   3.002  12.382 -0.1667  0.3657  0.7023
  576MPD2    H7 8551   3.895   3.086  12.339 -1.9886 -0.3281 -2.1958
  577TMC3    C1 8552   3.961   2.874  12.220 -0.2486 -0.1860 -0.3037
  577TMC3    C2 8553   4.061   2.781  12.239  0.5568  0.4148 -0.1908
  577TMC3    C3 8554   4.126   2.733  12.127 -0.1157 -0.1524  0.3417
  577TMC3    C4 8555   3.906   2.901  12.100  0.0263  0.4401 -0.1035
  577TMC3    C5 8556   3.966   2.840  11.998 -0.4990 -0.2406 -0.0540
  577TMC3    C6 8557   4.079   2.766  12.000 -0.1094  0.7021 -0.2932
  577TMC3     C 8558   3.874   2.874  12.327  0.0382  0.2899  0.2737
  577TMC3     O 8559   3.846   2.767  12.375 -0.2757 -0.5823  0.5434
  577TMC3     H 8560   4.088   2.760  12.342 -2.9010 -0.3287  0.5700
  577TMC3    H1 8561   3.821   2.969  12.098 -0.9815 -0.8191 -0.7980
  577TMC3    H2 8562   4.119   2.714  11.914  0.5035  1.3899 -0.4216
  577TMC3    C7 8563   3.918   2.870  11.867 -0.0495 -0.2249 -0.1391
  577TMC3    C8 8564   4.227   2.640  12.146 -0.0829  0.0525 -0.2690
  577TMC3    O1 8565   3.995   2.859  11.769  0.0609  0.4556 -0.7717
  577TMC3    O2 8566   4.209   2.567  12.243  0.3109 -0.1428 -0.4749
  578MPD2     C 8567   2.270   3.477   1.788 -0.5705 -0.3419 -0.1871
  578MPD2    C1 8568   2.289   3.390   1.678  0.0695 -0.4587  0.3161
  578MPD2    C2 8569   2.362   3.273   1.694 -0.7830 -0.0787  0.0909
  578MPD2    C3 8570   2.417   3.236   1.818  0.2436 -0.8432 -0.4940
  578MPD2    C4 8571   2.392   3.322   1.922  0.2282  0.0436  0.7212
  578MPD2    C5 8572   2.318   3.433   1.910 -0.3821  0.6184  0.5080
  578MPD2     H 8573   2.389   3.212   1.609 -1.2652  0.0174 -0.1370
  578MPD2    H1 8574   2.428   3.300   2.022 -1.6954  1.7939  1.7876
  578MPD2    H2 8575   2.251   3.583   1.781  0.1769 -0.0309  2.6536
  578MPD2    H3 8576   2.291   3.496   1.994 -0.8346 -0.0359  0.8475
  578MPD2     N 8577   2.502   3.122   1.837 -0.1789 -0.2452  0.1449
  578MPD2    H5 8578   2.527   3.069   1.754 -1.7042 -0.3296 -0.2592
  578MPD2    N1 8579   2.239   3.435   1.555  0.0004  0.0932  0.0498
  578MPD2    H7 8580   2.192   3.525   1.549 -0.2612 -0.0264  0.2837
  579TMC3    C1 8581   2.645   2.959   1.940 -0.9631 -0.1109  0.0291
  579TMC3    C2 8582   2.746   2.962   2.035 -0.3488 -0.6583  0.2077
  579TMC3    C3 8583   2.845   2.872   2.014  0.1074 -0.0174 -0.1214
  579TMC3    C4 8584   2.639   2.872   1.831  0.1719  0.1028  0.2715
  579TMC3    C5 8585   2.748   2.790   1.812 -0.4320 -0.5090 -0.1430
  579TMC3    C6 8586   2.846   2.779   1.909  0.6385 -0.4964 -0.6714
  579TMC3     C 8587   2.555   3.074   1.957  0.2163  0.0447  0.1403
  579TMC3     O 8588   2.552   3.128   2.064  0.3576  0.1661  0.3689
  579TMC3     H 8589   2.746   3.030   2.119 -0.3960  0.9051 -1.0613
  579TMC3    H1 8590   2.550   2.869   1.768  0.5996  0.2682 -0.3388
  579TMC3    H2 8591   2.927   2.708   1.902  0.5899 -0.5718 -0.4572
  579TMC3    C7 8592   2.726   2.668   1.739 -0.4778 -0.0978  0.1919
  579TMC3    C8 8593   2.946   2.870   2.118 -0.1464 -0.1540 -0.0625
  579TMC3    O1 8594   2.794   2.569   1.760  0.1335 -0.6192 -0.3361
  579TMC3    O2 8595   2.913   2.899   2.232 -0.5283  0.4268  0.1037
  580TMC3    C1 8596   2.480   2.352  11.834  0.7701 -0.0275 -0.0875
  580TMC3    C2 8597   2.557   2.442  11.769  0.1526  0.5209 -0.0681
  580TMC3    C3 8598   2.687   2.406  11.740  0.1292  0.1343 -0.0215
  580TMC3    C4 8599   2.523   2.232  11.880  0.3494  0.0653 -0.0230
  580TMC3    C5 8600   2.656   2.203  11.855  0.1731  0.0130  0.3145
  580TMC3    C6 8601   2.740   2.289  11.787  0.4289  0.6186 -0.1858
  580TMC3     C 8602   2.356   2.408  11.880  0.1439 -0.1988  0.0816
  580TMC3     O 8603   2.316   2.383  11.992  0.1786 -0.1807  0.7742
  580TMC3     H 8604   2.528   2.545  11.749  2.2364  1.2607  0.7065
  580TMC3    H1 8605   2.460   2.177  11.951 -1.2017  3.7533  1.4472
  580TMC3    H2 8606   2.847   2.270  11.779  0.3806 -0.7212  2.5974
  580TMC3    C7 8607   2.716   2.088  11.917 -0.6439 -0.6048 -0.4945
  580TMC3    C8 8608   2.778   2.514  11.705  0.2327 -0.3253 -0.6096
  580TMC3    O1 8609   2.821   2.044  11.865  0.0125  0.4831 -0.0626
  580TMC3    O2 8610   2.741   2.629  11.731  0.0716  1.1807  0.0657
  581MPD2     C 8611   4.314   2.075  14.872  0.5684  0.1529 -0.1758
  581MPD2    C1 8612   4.217   2.055  14.971  0.0692 -0.2475 -0.4315
  581MPD2    C2 8613   4.107   2.138  14.961 -0.6824 -0.0664 -0.4078
  581MPD2    C3 8614   4.093   2.228  14.858 -0.3406 -0.8053  1.2451
  581MPD2    C4 8615   4.196   2.252  14.765 -0.2934  0.1136  0.1239
  581MPD2    C5 8616   4.304   2.167  14.777  0.3028  0.3419  0.2066
  581MPD2     H 8617   4.023   2.122  15.028 -2.1941  0.5539 -2.1413
  581MPD2    H1 8618   4.196   2.331  14.691  1.4429  0.7053  0.7408
  581MPD2    H2 8619   4.405   2.017  14.879  0.7454  0.3417 -0.9136
  581MPD2    H3 8620   4.385   2.189  14.707 -0.2906 -0.4504 -0.7260
  581MPD2     N 8621   3.982   2.314  14.863 -0.0145  0.8944 -0.0580
  581MPD2    H5 8622   3.924   2.314  14.946  2.4688 -0.2491  1.6742
  581MPD2    N1 8623   4.235   1.960  15.080 -0.8132 -0.0981  0.0592
  581MPD2    H7 8624   4.168   1.951  15.156  0.5158  2.1057  1.4847
  582TMC3    C1 8625   4.343   1.824  15.235 -0.9218 -0.6842  1.0624
  582TMC3    C2 8626   4.426   1.856  15.339 -0.0044 -0.2375  0.8430
  582TMC3    C3 8627   4.419   1.777  15.450 -0.1008  0.2926  0.1478
  582TMC3    C4 8628   4.254   1.718  15.239  0.0913  0.1724 -0.5062
  582TMC3    C5 8629   4.251   1.649  15.355 -0.1380 -0.6384  0.3445
  582TMC3    C6 8630   4.334   1.671  15.459 -0.3338  0.8449 -0.3024
  582TMC3     C 8631   4.357   1.905  15.116  0.6795 -0.0860  0.9103
  582TMC3     O 8632   4.476   1.936  15.080  0.3297  0.5949 -0.4668
  582TMC3     H 8633   4.488   1.945  15.333  1.0545 -1.1345 -1.3234
  582TMC3    H1 8634   4.186   1.699  15.156  0.2509  0.3208 -0.6704
  582TMC3    H2 8635   4.322   1.608  15.547 -1.1755 -0.0015 -1.0112
  582TMC3    C7 8636   4.146   1.553  15.374 -0.1131  0.4585 -0.5207
  582TMC3    C8 8637   4.482   1.828  15.571 -0.4651  0.4289 -0.1130
  582TMC3    O1 8638   4.134   1.462  15.292 -0.2341 -0.5351  0.3960
  582TMC3    O2 8639   4.502   1.945  15.572  0.4955 -0.1017  0.0806
  583MPD2     C 8640   0.025   3.660  17.109 -0.0508  0.4439 -0.1461
  583MPD2    C1 8641   0.062   3.786  17.078 -0.3227 -0.6899  0.0832
  583MPD2    C2 8642   0.014   3.886  17.158  0.8591  0.6988 -0.3962
  583MPD2    C3 8643   4.640   3.859  17.255 -0.3573 -0.3307 -0.0736
  583MPD2    C4 8644   4.612   3.729  17.286 -0.3518  0.8054  0.1954
  583MPD2    C5 8645   4.661   3.623  17.211  0.1272  0.1631 -0.1913
  583MPD2     H 8646   0.034   3.987  17.122  0.4380  0.2329 -1.9318
  583MPD2    H1 8647   4.545   3.704  17.367  1.0649 -2.7439  0.2756
  583MPD2    H2 8648   0.068   3.578  17.053 -2.2911 -1.4424  0.9195
  583MPD2    H3 8649   4.660   3.522  17.248 -2.5221  0.9715  1.8640
  583MPD2     N 8650   4.572   3.966  17.325  0.1020  0.1190  0.5365
  583MPD2    H5 8651   4.577   4.062  17.291 -1.5595  0.1821  0.4775
  583MPD2    N1 8652   0.150   3.814  16.961 -0.8014 -0.5709  0.2860
  583MPD2    H7 8653   0.164   3.914  16.947  0.1574 -0.7072  0.2607
  584TMC3    C1 8654   4.436   4.085  17.490 -0.4947  0.2339 -0.5012
  584TMC3    C2 8655   4.490   4.205  17.445  0.0651 -0.4989 -0.7790
  584TMC3    C3 8656   4.470   4.319  17.523  0.3221  0.3675  0.0959
  584TMC3    C4 8657   4.367   4.082  17.605 -0.1248  0.6696 -0.0543
  584TMC3    C5 8658   4.353   4.198  17.676  0.5162  0.2995 -0.7073
  584TMC3    C6 8659   4.402   4.323  17.639 -0.4335 -0.1156  0.0916
  584TMC3     C 8660   4.477   3.956  17.428 -0.1275 -0.0220  0.0155
  584TMC3     O 8661   4.454   3.855  17.488  0.6111 -0.3111  0.2647
  584TMC3     H 8662   4.555   4.221  17.359  0.7559  1.2497  0.0894
  584TMC3    H1 8663   4.337   3.987  17.647  0.8930  0.2655 -0.2266
  584TMC3    H2 8664   4.370   4.414  17.688  0.7415  0.4220 -0.1694
  584TMC3    C7 8665   4.291   4.187   0.114 -0.0609 -0.2190  0.9706
  584TMC3    C8 8666   4.472   4.443  17.450  0.4593 -0.1058 -0.2542
  584TMC3    O1 8667   4.291   4.076   0.164 -0.1959  0.3352 -0.0393
  584TMC3    O2 8668   4.455   4.437  17.326 -0.0592  0.4732 -0.4416
  585MPD2     C 8669   3.859   3.217   0.764 -0.1695 -0.4002  0.0350
  585MPD2    C1 8670   3.982   3.186   0.716 -0.5493 -0.6692  0.7914
  585MPD2    C2 8671   4.006   3.152   0.587 -0.7013  0.1694 -0.2418
  585MPD2    C3 8672   3.892   3.142   0.506  0.0654  0.1935 -0.2780
  585MPD2    C4 8673   3.773   3.180   0.545  0.6668 -0.7510 -0.6135
  585MPD2    C5 8674   3.754   3.206   0.677  0.1802  0.6764  0.5877
  585MPD2     H 8675   4.107   3.141   0.548 -1.2203 -0.8700 -1.3053
  585MPD2    H1 8676   3.694   3.168   0.473 -0.0099 -1.1023  0.1762
  585MPD2    H2 8677   3.838   3.255   0.864  3.3623 -1.1149  1.0661
  585MPD2    H3 8678   3.652   3.217   0.710 -0.6916 -0.8053 -1.6123
  585MPD2     N 8679   3.903   3.125   0.370  0.0634  0.1805  0.2468
  585MPD2    H5 8680   3.818   3.142   0.319  0.3291 -0.2791 -0.3388
  585MPD2    N1 8681   4.094   3.196   0.799 -0.0137  0.3564  0.9009
  585MPD2    H7 8682   4.186   3.183   0.758 -0.2934  1.3338 -0.0530
  586TMC3    C1 8683   4.013   3.072   0.159  0.8186  0.4214 -0.0260
  586TMC3    C2 8684   4.066   2.960   0.099  0.5390  0.2677  0.1246
  586TMC3    C3 8685   4.034   2.931  17.660  0.3810  0.2137  0.0529
  586TMC3    C4 8686   3.899   3.134   0.103  0.2274 -0.2038 -0.0987
  586TMC3    C5 8687   3.864   3.098  17.671 -0.2158 -0.0446  0.2593
  586TMC3    C6 8688   3.935   3.001  17.603 -0.4298  0.7296  0.6482
  586TMC3     C 8689   4.016   3.069   0.307 -0.0045 -0.1549 -0.4735
  586TMC3     O 8690   4.115   3.017   0.359 -0.2834 -0.4722 -0.6379
  586TMC3     H 8691   4.152   2.917   0.149 -0.2831  0.1301  1.4221
  586TMC3    H1 8692   3.874   3.231   0.147 -0.2377 -0.3632 -0.0149
  586TMC3    H2 8693   3.893   2.974  17.507 -0.5272 -0.3436  0.9962
  586TMC3    C7 8694   3.721   3.075  17.660 -0.8640  0.3484  0.2363
  586TMC3    C8 8695   4.087   2.802  17.604  1.1118  0.0167 -0.3210
  586TMC3    O1 8696   3.685   3.006  17.566 -0.0079 -0.2803  0.8117
  586TMC3    O2 8697   4.143   2.728  17.686 -0.1882 -1.0389 -0.3959
  587TMC3    C1 8698   1.397   1.556  16.485  0.1908 -0.0610  0.5501
  587TMC3    C2 8699   1.395   1.683  16.438  0.0174 -0.7265  0.0586
  587TMC3    C3 8700   1.516   1.749  16.443  0.1946  0.3585 -0.8553
  587TMC3    C4 8701   1.509   1.489  16.527  0.3243  0.3270  0.2995
  587TMC3    C5 8702   1.627   1.557  16.533  0.5282  0.5020 -0.3436
  587TMC3    C6 8703   1.632   1.689  16.482 -0.1134 -0.2433  0.1152
  587TMC3     C 8704   1.279   1.475  16.464  0.6888  1.3868 -0.0920
  587TMC3     O 8705   1.303   1.358  16.441  0.3193 -0.3514  0.5054
  587TMC3     H 8706   1.306   1.731  16.398  0.7936  1.2420  0.6633
  587TMC3    H1 8707   1.497   1.389  16.566  0.1537  0.0075 -0.5683
  587TMC3    H2 8708   1.714   1.760  16.496  2.5887 -3.0743 -1.5457
  587TMC3    C7 8709   1.751   1.486  16.554  0.4916  0.6084 -0.0228
  587TMC3    C8 8710   1.522   1.892  16.408 -0.0172  0.2095 -0.1713
  587TMC3    O1 8711   1.747   1.375  16.601 -0.5413 -0.2470  0.4968
  587TMC3    O2 8712   1.627   1.934  16.364 -0.2774  0.2624  0.3938
  588TMC3    C1 8713   3.347   4.557   9.703 -0.0027 -0.2762 -0.2026
  588TMC3    C2 8714   3.307   4.437   9.755 -0.3915  0.2624 -0.9447
  588TMC3    C3 8715   3.375   4.327   9.715 -0.7213 -0.2428 -0.0574
  588TMC3    C4 8716   3.459   4.568   9.625 -0.1650  0.6538  0.7874
  588TMC3    C5 8717   3.523   4.457   9.585  0.7635  0.3651  0.0096
  588TMC3    C6 8718   3.489   4.338   9.636 -0.0077  0.1686 -0.0763
  588TMC3     C 8719   3.282   4.680   9.728  0.3037  0.3819 -0.0761
  588TMC3     O 8720   3.161   4.671   9.747 -0.1026 -0.3663  1.1688
  588TMC3     H 8721   3.226   4.421   9.825 -1.5433  0.9550 -2.1105
  588TMC3    H1 8722   3.482   4.660   9.573 -0.0809 -0.1525 -0.6286
  588TMC3    H2 8723   3.541   4.247   9.608 -0.4727  0.0110 -0.4320
  588TMC3    C7 8724   3.616   4.458   9.479 -0.5705 -0.2077 -0.5772
  588TMC3    C8 8725   3.325   4.197   9.754 -0.0937  0.6591  0.5335
  588TMC3    O1 8726   3.616   4.354   9.415 -0.2323 -0.1248  0.1353
  588TMC3    O2 8727   3.204   4.185   9.758 -0.1855  0.1248  0.3972
  589TMC3    C1 8728   2.566   1.509   1.514  0.1059 -0.1848 -0.0181
  589TMC3    C2 8729   2.619   1.410   1.592 -0.0630  0.3064 -0.8361
  589TMC3    C3 8730   2.695   1.315   1.527 -0.0087  0.5491  0.3463
  589TMC3    C4 8731   2.588   1.520   1.374 -0.0680  0.0277 -0.2555
  589TMC3    C5 8732   2.668   1.422   1.319  0.1647  0.2143  0.0111
  589TMC3    C6 8733   2.716   1.318   1.385  0.0008 -0.5905  0.1092
  589TMC3     C 8734   2.455   1.589   1.562  0.0044 -0.1941 -1.1938
  589TMC3     O 8735   2.380   1.622   1.471  0.4681 -0.1739  0.3220
  589TMC3     H 8736   2.605   1.427   1.698  0.7848  0.0503 -0.6864
  589TMC3    H1 8737   2.551   1.608   1.322  0.6984 -1.1414 -2.8093
  589TMC3    H2 8738   2.779   1.240   1.343 -1.2200 -0.4829 -1.9098
  589TMC3    C7 8739   2.683   1.424   1.173  0.0773 -0.5788  0.4765
  589TMC3    C8 8740   2.776   1.236   1.624 -0.1780  0.0413  0.4389
  589TMC3    O1 8741   2.625   1.517   1.117  0.2786  0.3299 -0.2144
  589TMC3    O2 8742   2.733   1.210   1.734 -0.0560  0.4892 -0.1234
  590MPD2     C 8743   1.908   4.444  16.705 -0.6484 -0.3452  0.1305
  590MPD2    C1 8744   1.882   4.552  16.624 -0.0484  0.2019 -0.0535
  590MPD2    C2 8745   1.993   4.610  16.560 -0.2964 -0.1776  0.1406
  590MPD2    C3 8746   2.123   4.558  16.574  0.0269  0.9702  0.7494
  590MPD2    C4 8747   2.140   4.455  16.660  0.2705  0.2525  0.1713
  590MPD2    C5 8748   2.036   4.398  16.723  0.0672 -0.3548 -0.5497
  590MPD2     H 8749   1.979   4.696  16.496  0.8769 -1.4773 -1.8621
  590MPD2    H1 8750   2.238   4.414  16.680  0.2701 -0.4601 -1.2548
  590MPD2    H2 8751   1.825   4.403  16.761  0.8159 -2.8752  0.4472
  590MPD2    H3 8752   2.059   4.320  16.795  1.3391  1.4629  1.0211
  590MPD2     N 8753   2.223   4.633  16.515  0.2806 -0.3154 -0.0072
  590MPD2    H5 8754   2.199   4.720  16.468 -2.1402 -1.6925 -1.3138
  590MPD2    N1 8755   1.764   4.608  16.589 -0.0848  0.4578  0.0571
  590MPD2    H7 8756   1.761   4.685  16.523  0.6568  0.3324 -0.1170
  591TMC3    C1 8757   2.444   4.711  16.472 -1.0313  0.1450  0.8488
  591TMC3    C2 8758   2.555   4.683  16.394 -0.5853  0.9888 -0.1019
  591TMC3    C3 8759   2.625   0.062  16.326  0.2273 -0.1904 -0.6925
  591TMC3    C4 8760   2.406   0.120  16.486 -0.1078 -0.0393  0.0081
  591TMC3    C5 8761   2.484   0.220  16.433  0.4551 -0.0344 -0.3547
  591TMC3    C6 8762   2.588   0.190  16.349 -0.8773 -0.4631 -0.9497
  591TMC3     C 8763   2.354   4.599  16.518 -0.2374 -1.0640 -0.0334
  591TMC3     O 8764   2.401   4.485  16.531  0.4247  0.3504 -0.8284
  591TMC3     H 8765   2.588   4.580  16.392  1.7249  1.7813 -2.8870
  591TMC3    H1 8766   2.311   0.147  16.530  0.5442 -0.1931  1.5183
  591TMC3    H2 8767   2.632   0.256  16.276 -0.2474  0.0057 -0.1448
  591TMC3    C7 8768   2.467   0.355  16.475 -0.2891 -0.1161  0.4840
  591TMC3    C8 8769   2.715   0.013  16.227  0.2622  0.4541 -0.6086
  591TMC3    O1 8770   2.431   0.375  16.591  0.4791  0.3793 -0.4847
  591TMC3    O2 8771   2.717   4.618  16.211  0.6318 -0.0287 -0.3775
  592MPD2     C 8772   3.286   1.376  11.125  0.7655 -0.7557  0.7340
  592MPD2    C1 8773   3.297   1.456  11.237  0.6992 -0.4215  0.5132
  592MPD2    C2 8774   3.244   1.404  11.356 -0.1850 -0.7351  0.7058
  592MPD2    C3 8775   3.185   1.278  11.360  0.0606 -0.0292  0.3274
  592MPD2    C4 8776   3.166   1.208  11.242 -0.4931  0.1699 -0.5751
  592MPD2    C5 8777   3.224   1.256  11.125 -0.3462 -0.2860 -0.0267
  592MPD2     H 8778   3.252   1.445  11.455 -0.5086  0.7267  0.1182
  592MPD2    H1 8779   3.109   1.116  11.241 -4.1952  2.4693  1.9534
  592MPD2    H2 8780   3.331   1.416  11.035 -2.9130 -2.2675 -1.7492
  592MPD2    H3 8781   3.223   1.203  11.030  0.9795 -3.9933  2.0104
  592MPD2     N 8782   3.149   1.232  11.489  0.2411  0.3267 -0.2337
  592MPD2    H5 8783   3.180   1.298  11.559  1.9721  0.8293 -1.4529
  592MPD2    N1 8784   3.364   1.582  11.226 -0.0488 -0.3205  0.2641
  592MPD2    H7 8785   3.413   1.602  11.139  0.8208  0.0050  0.8279
  593TMC3    C1 8786   3.424   1.809  11.300  0.0774  0.1834 -0.1860
  593TMC3    C2 8787   3.430   1.893  11.405 -0.8227  0.0134 -0.4733
  593TMC3    C3 8788   3.450   2.025  11.382 -0.0172 -0.7921  0.1194
  593TMC3    C4 8789   3.429   1.856  11.175  0.3639  0.4190 -0.2388
  593TMC3    C5 8790   3.451   1.987  11.152 -0.2381  0.0238  0.1225
  593TMC3    C6 8791   3.471   2.073  11.254 -0.6767  0.0040  0.0484
  593TMC3     C 8792   3.367   1.679  11.328  0.2666  0.2141  0.3790
  593TMC3     O 8793   3.308   1.674  11.433  0.7581  0.2852 -0.4396
  593TMC3     H 8794   3.422   1.851  11.505 -0.7141 -1.6087 -1.1373
  593TMC3    H1 8795   3.406   1.804  11.082  2.6215 -1.3264  0.1853
  593TMC3    H2 8796   3.474   2.180  11.234 -2.5504  0.0659  0.1501
  593TMC3    C7 8797   3.498   2.041  11.027 -0.7795  0.5002  0.1745
  593TMC3    C8 8798   3.388   2.118  11.468  0.6340  0.8744 -0.0241
  593TMC3    O1 8799   3.576   2.137  11.030 -0.4753 -0.1874 -0.0410
  593TMC3    O2 8800   3.336   2.219  11.421 -0.2663  0.2468 -0.1299
  594MPD2     C 8801   1.510   1.007  13.937 -0.2378  0.7370  0.3006
  594MPD2    C1 8802   1.491   1.022  14.069  0.2032  0.0402  1.3315
  594MPD2    C2 8803   1.540   1.139  14.130  0.4639 -0.5880  0.6148
  594MPD2    C3 8804   1.630   1.223  14.063  0.2338  0.0928 -0.2518
  594MPD2    C4 8805   1.637   1.207  13.926 -0.1958  0.1317 -0.5896
  594MPD2    C5 8806   1.586   1.094  13.869 -0.6570 -0.4203  0.3668
  594MPD2     H 8807   1.508   1.160  14.231 -1.3775  0.0518 -0.1100
  594MPD2    H1 8808   1.697   1.267  13.858 -0.3380  1.3192  0.3345
  594MPD2    H2 8809   1.483   0.917  13.883  0.0175  0.0390  1.3330
  594MPD2    H3 8810   1.606   1.069  13.766  0.7837 -0.5039  0.6787
  594MPD2     N 8811   1.687   1.323  14.147  0.3051 -0.1130 -0.4463
  594MPD2    H5 8812   1.664   1.320  14.245  0.8987  1.3870 -0.2603
  594MPD2    N1 8813   1.408   0.940  14.141  0.0143  0.3731  0.6225
  594MPD2    H7 8814   1.340   0.883  14.092  2.3141 -0.5196 -1.5157
  595TMC3    C1 8815   1.979   1.658  14.297  0.9164 -0.3846  0.2365
  595TMC3    C2 8816   1.935   1.576  14.195  0.4593  0.1118  0.0007
  595TMC3    C3 8817   1.817   1.505  14.209 -0.1551 -0.7524  0.4318
  595TMC3    C4 8818   1.900   1.669  14.403 -0.0568  0.2543 -0.5027
  595TMC3    C5 8819   1.782   1.601  14.415 -0.4003 -0.2227 -0.2619
  595TMC3    C6 8820   1.736   1.511  14.318 -0.3978 -0.2119 -0.5950
  595TMC3     C 8821   2.115   1.632  14.330  0.1910  0.3075  0.4703
  595TMC3     O 8822   2.136   1.629  14.452  0.5137 -0.2568  0.6618
  595TMC3     H 8823   1.971   1.577  14.093  0.1917  0.5745 -0.0899
  595TMC3    H1 8824   1.918   1.747  14.477 -0.5021 -0.7332  0.6444
  595TMC3    H2 8825   1.664   1.435  14.347  2.4197 -1.7443  2.3107
  595TMC3    C7 8826   1.714   1.602  14.548 -0.0945  0.0848  0.0484
  595TMC3    C8 8827   1.785   1.414  14.105  0.8252  0.3978 -0.0616
  595TMC3    O1 8828   1.593   1.571  14.546  0.4638 -0.1985  0.1262
  595TMC3    O2 8829   1.853   1.411  14.001  0.1802  0.1379  0.1468
  596MPD2     C 8830   0.955   3.814  17.072  0.0541 -0.1573  0.5412
  596MPD2    C1 8831   0.934   3.933  17.005 -0.2556  0.5393 -0.1826
  596MPD2    C2 8832   0.972   3.946  16.871  0.0322 -0.2365  0.2026
  596MPD2    C3 8833   1.020   3.829  16.804 -0.1639  0.0488  0.2611
  596MPD2    C4 8834   1.038   3.715  16.876 -0.0616 -0.0537 -0.1686
  596MPD2    C5 8835   1.005   3.705  17.010 -0.3936 -0.5307  0.1830
  596MPD2     H 8836   0.954   4.042  16.824 -0.0836 -0.2402  0.2388
  596MPD2    H1 8837   1.102   3.639  16.832  3.3777  1.0895  2.8629
  596MPD2    H2 8838   0.943   3.790  17.177  2.3298 -1.5516  0.4681
  596MPD2    H3 8839   1.031   3.619  17.072  1.0937 -2.1090 -2.6441
  596MPD2     N 8840   1.070   3.825  16.671 -0.1101 -0.1365  0.8599
  596MPD2    H5 8841   1.075   3.732  16.632 -1.7870  0.3900 -0.5997
  596MPD2    N1 8842   0.891   4.054  17.066  0.0250 -0.6504  0.3648
  596MPD2    H7 8843   0.909   4.144  17.023 -1.1937 -0.6169 -0.0861
  597TMC3    C1 8844   0.842   4.183  17.256 -1.1031  0.0352  0.4711
  597TMC3    C2 8845   0.931   4.290  17.220 -0.5568 -0.0681  0.0283
  597TMC3    C3 8846   0.909   4.412  17.273 -0.3385 -0.5763  0.1360
  597TMC3    C4 8847   0.739   4.202  17.343  0.9122 -0.0997 -0.0349
  597TMC3    C5 8848   0.707   4.328  17.381  0.2952  0.5213  0.0292
  597TMC3    C6 8849   0.796   4.432  17.356  0.2062 -0.2452 -0.0584
  597TMC3     C 8850   0.834   4.056  17.187  1.1839 -0.0964  0.4072
  597TMC3     O 8851   0.779   3.961  17.237  0.2636  0.1447 -0.0473
  597TMC3     H 8852   1.025   4.267  17.174  0.4107 -1.2567  2.5939
  597TMC3    H1 8853   0.666   4.122  17.352 -0.8585  1.5662  0.3642
  597TMC3    H2 8854   0.775   4.532  17.392  1.8303 -0.4310  1.3695
  597TMC3    C7 8855   0.588   4.354  17.457  0.4450  0.2346 -0.3629
  597TMC3    C8 8856   0.991   4.529  17.242  0.0975  0.0573 -0.3531
  597TMC3    O1 8857   0.547   4.253  17.512 -0.8017 -0.6608 -0.2107
  597TMC3    O2 8858   0.982   4.633  17.311  0.1831 -0.1344 -0.1162
  598TMC3    C1 8859   3.444   0.711  15.223  0.4172 -0.0416 -0.2447
  598TMC3    C2 8860   3.341   0.624  15.214  0.3666 -0.3822  0.9824
  598TMC3    C3 8861   3.264   0.628  15.100  0.3469  0.1431 -0.4582
  598TMC3    C4 8862   3.471   0.804  15.127  0.6538 -0.2339 -0.1380
  598TMC3    C5 8863   3.394   0.800  15.016  0.3281 -0.2648  0.0072
  598TMC3    C6 8864   3.297   0.714  14.998  0.4356 -0.0055 -0.0379
  598TMC3     C 8865   3.565   0.671  15.300  0.1995 -0.6079 -0.0559
  598TMC3     O 8866   3.664   0.745  15.288  0.0247  0.0123  0.1101
  598TMC3     H 8867   3.301   0.579  15.304 -0.8992  0.2960  0.7664
  598TMC3    H1 8868   3.530   0.891  15.156  0.7584 -0.2091 -0.4242
  598TMC3    H2 8869   3.239   0.707  14.906  1.0652  0.3506 -0.4571
  598TMC3    C7 8870   3.412   0.898  14.904  0.3560 -0.6698  0.3507
  598TMC3    C8 8871   3.144   0.550  15.086  1.1023 -0.7103 -0.1650
  598TMC3    O1 8872   3.319   0.920  14.827  0.1776 -0.7671 -0.0412
  598TMC3    O2 8873   3.063   0.598  15.007 -0.4029 -0.2496  0.0931
  599MPD2     C 8874   3.876   3.034  15.934 -0.8439  0.3575 -0.1737
  599MPD2    C1 8875   3.836   2.910  15.973  0.1818  0.1707  0.0537
  599MPD2    C2 8876   3.706   2.893  16.024 -0.8987  0.1928 -0.1789
  599MPD2    C3 8877   3.625   3.004  16.033 -0.8895  0.2606 -0.1989
  599MPD2    C4 8878   3.661   3.125  15.987 -0.2062 -0.0246  0.3589
  599MPD2    C5 8879   3.787   3.140  15.934  0.0342  0.1471  0.8396
  599MPD2     H 8880   3.688   2.799  16.076  1.1155 -0.3296 -0.4128
  599MPD2    H1 8881   3.599   3.213  16.001  0.3951 -0.0586  3.3374
  599MPD2    H2 8882   3.979   3.050  15.906 -0.3641 -3.1031 -0.3296
  599MPD2    H3 8883   3.806   3.235  15.885 -1.9397  0.3419  0.4521
  599MPD2     N 8884   3.504   3.000  16.111  0.4710 -0.0074  0.3244
  599MPD2    H5 8885   3.451   3.086  16.114 -1.8901 -1.4282 -0.3442
  599MPD2    N1 8886   3.929   2.798  15.964 -0.8240 -0.3671  1.0516
  599MPD2    H7 8887   4.027   2.820  15.951 -1.0845 -1.0721 -2.1684
  600TMC3    C1 8888   3.357   2.947  16.279  0.3095  0.9799  0.2641
  600TMC3    C2 8889   3.278   2.841  16.327 -0.4987  0.9272 -0.4590
  600TMC3    C3 8890   3.194   2.873  16.432 -0.4162 -0.0826 -0.1860
  600TMC3    C4 8891   3.360   3.075  16.319 -0.5037 -0.3978 -0.5145
  600TMC3    C5 8892   3.289   3.092  16.433  1.5312 -0.3525  0.5869
  600TMC3    C6 8893   3.207   2.996  16.491  0.0612 -0.3286  0.0032
  600TMC3     C 8894   3.455   2.899  16.190  0.8130  0.3419 -0.3029
  600TMC3     O 8895   3.503   2.785  16.213 -0.4184  0.0604  0.3878
  600TMC3     H 8896   3.278   2.741  16.285 -2.1832  0.5136  0.5210
  600TMC3    H1 8897   3.422   3.153  16.277  1.8293 -2.1504 -0.3369
  600TMC3    H2 8898   3.145   3.027  16.575 -1.2885 -2.3041 -0.2376
  600TMC3    C7 8899   3.303   3.219  16.508  0.6950 -0.0597  0.0586
  600TMC3    C8 8900   3.079   2.791  16.456  0.5045  0.2579  0.2977
  600TMC3    O1 8901   3.230   3.236  16.602  0.3420 -0.1264  0.3688
  600TMC3    O2 8902   3.024   2.736  16.365  0.0551 -0.3303  0.1412
  601MPD2     C 8903   0.916   0.725  17.521  0.0729  0.2080  0.2790
  601MPD2    C1 8904   0.811   0.736  17.609  0.5926  0.3346  0.4655
  601MPD2    C2 8905   0.731   0.622  17.628 -1.0318  0.2655 -0.0079
  601MPD2    C3 8906   0.770   0.500  17.580 -0.3654  0.0271  1.0731
  601MPD2    C4 8907   0.877   0.486  17.501  0.0740  0.1405 -0.0534
  601MPD2    C5 8908   0.949   0.601  17.470  0.3799 -0.2621 -0.2463
  601MPD2     H 8909   0.644   0.634   0.001 -0.3667  2.9507  0.4103
  601MPD2    H1 8910   0.909   0.390  17.461  1.0965  0.0176  1.0675
  601MPD2    H2 8911   0.977   0.805  17.480 -0.7324 -0.0889 -1.4864
  601MPD2    H3 8912   1.018   0.584  17.388  0.7305  0.2145 -0.0504
  601MPD2     N 8913   0.692   0.383  17.598 -0.4411  0.3895 -0.5355
  601MPD2    H5 8914   0.725   0.299  17.551  0.9641 -0.4521  1.9790
  601MPD2    N1 8915   0.773   0.859  17.670 -0.1296  0.1640  0.0896
  601MPD2    H7 8916   0.701   0.865   0.050  1.2261  0.4447  1.4566
  602TMC3    C1 8917   0.771   1.095   0.022  0.7521  0.2545  0.2447
  602TMC3    C2 8918   0.814   1.224  17.690  0.3258  0.5567  0.5722
  602TMC3    C3 8919   0.737   1.337   0.028 -0.8622  0.5146 -0.0250
  602TMC3    C4 8920   0.643   1.083   0.066  0.7628  0.2811  0.1602
  602TMC3    C5 8921   0.559   1.186   0.081 -0.8178  0.3343  0.1353
  602TMC3    C6 8922   0.608   1.316   0.069 -0.2704  0.0229  0.3712
  602TMC3     C 8923   0.838   0.977  17.652 -0.2843  0.5258  0.0168
  602TMC3     O 8924   0.941   1.009  17.598 -0.4605  0.0512  0.0454
  602TMC3     H 8925   0.920   1.234  17.666 -0.1055  1.1047 -1.1209
  602TMC3    H1 8926   0.592   0.988   0.074  1.1378 -0.0928 -2.1050
  602TMC3    H2 8927   0.553   1.403   0.102  0.9624  0.3247  1.6183
  602TMC3    C7 8928   0.417   1.160   0.111 -0.4742 -0.6191  0.1133
  602TMC3    C8 8929   0.781   1.465  17.654  0.4121  0.3050  0.2974
  602TMC3    O1 8930   0.392   1.065   0.180 -0.5531 -0.1379 -0.3014
  602TMC3    O2 8931   0.884   1.472  17.589  0.0887 -0.3323 -0.0372
  603TMC3    C1 8932   3.945   1.093  11.101  0.2446 -0.3260  0.4946
  603TMC3    C2 8933   4.032   1.033  11.189  0.5445 -0.3966 -0.8894
  603TMC3    C3 8934   4.159   1.093  11.199  0.8336  0.2395 -0.2928
  603TMC3    C4 8935   3.977   1.201  11.025  0.3045 -0.1907 -0.1072
  603TMC3    C5 8936   4.107   1.257  11.043  0.0130  0.3253 -0.5620
  603TMC3    C6 8937   4.207   1.195  11.120 -0.0517 -0.6170 -0.1741
  603TMC3     C 8938   3.814   1.043  11.094 -0.4404 -0.1973  0.1907
  603TMC3     O 8939   3.736   1.095  11.012 -0.7139  0.3283  0.0991
  603TMC3     H 8940   4.024   0.939  11.243  2.9177 -0.5784 -0.8622
  603TMC3    H1 8941   3.899   1.256  10.974  0.4163 -0.2239 -0.3133
  603TMC3    H2 8942   4.291   1.253  11.155 -1.7562  2.2365 -0.8266
  603TMC3    C7 8943   4.142   1.388  10.990  0.1041 -0.3299  0.1595
  603TMC3    C8 8944   4.244   1.044  11.301 -0.0996  0.4489 -0.2079
  603TMC3    O1 8945   4.225   1.452  11.053 -0.0566 -0.3216  0.3902
  603TMC3    O2 8946   4.192   1.016  11.407  0.9806 -0.9009  0.5405
  604MPD2     C 8947   4.006   0.092  16.250 -0.4398 -0.1596 -0.2417
  604MPD2    C1 8948   4.048   0.215  16.196  0.5514  0.1868 -0.1865
  604MPD2    C2 8949   4.153   0.218  16.109  0.7031 -0.8059 -0.2496
  604MPD2    C3 8950   4.221   0.103  16.071 -0.3571  0.1096 -0.1041
  604MPD2    C4 8951   4.164   4.706  16.102 -0.8711 -0.3681 -0.8063
  604MPD2    C5 8952   4.063   4.699  16.199 -0.7457  0.0311  0.4520
  604MPD2     H 8953   4.188   0.318  16.088  0.2787 -0.4685  0.6370
  604MPD2    H1 8954   4.206   4.615  16.060 -0.0572 -0.6525  0.6130
  604MPD2    H2 8955   3.921   0.092  16.317 -0.8692 -0.3591 -0.7911
  604MPD2    H3 8956   4.017   4.605  16.225 -2.1399  0.6682  0.2676
  604MPD2     N 8957   4.340   0.109  15.989  0.3040 -0.2278 -0.2021
  604MPD2    H5 8958   4.369   0.202  15.957 -1.5773  0.6551  0.7107
  604MPD2    N1 8959   3.993   0.329  16.253 -0.3211 -0.3278 -0.0370
  604MPD2    H7 8960   3.938   0.312  16.337 -0.7643 -1.1326 -0.4890
  605TMC3    C1 8961   3.944   0.548  16.286  0.0986 -0.0645 -0.4609
  605TMC3    C2 8962   3.979   0.550  16.417  0.1408  0.2752 -0.0524
  605TMC3    C3 8963   3.903   0.625  16.497 -1.3701 -0.1917 -0.0908
  605TMC3    C4 8964   3.858   0.637  16.223 -0.5767 -0.0892  0.4788
  605TMC3    C5 8965   3.780   0.707  16.309 -0.2754  0.5156  0.2041
  605TMC3    C6 8966   3.806   0.710  16.442 -0.6681 -0.5074 -0.3247
  605TMC3     C 8967   4.007   0.450  16.199 -0.9338  0.1127 -0.2114
  605TMC3     O 8968   4.073   0.499  16.108  0.2679  1.1913 -0.1426
  605TMC3     H 8969   4.057   0.483  16.451  0.0035  0.7892  1.2561
  605TMC3    H1 8970   3.829   0.628  16.119  1.0859 -0.6384  0.0565
  605TMC3    H2 8971   3.761   0.782  16.510  1.3040  1.4624 -1.1057
  605TMC3    C7 8972   3.669   0.781  16.253  0.4340  0.1800 -0.2700
  605TMC3    C8 8973   3.934   0.642  16.633 -0.3825 -0.1234 -1.3780
  605TMC3    O1 8974   3.679   0.805  16.132 -0.0391 -0.0765 -0.0380
  605TMC3    O2 8975   3.927   0.751  16.689 -0.2580  0.0901 -0.6956
  606TMC3    C1 8976   1.194   3.203  17.392 -0.6061  0.1546  0.0312
  606TMC3    C2 8977   1.268   3.269  17.484 -0.1763 -0.2697  0.7055
  606TMC3    C3 8978   1.223   3.265  17.616  0.1470 -0.1255 -1.2624
  606TMC3    C4 8979   1.090   3.116  17.427 -0.6569 -0.5343 -0.0319
  606TMC3    C5 8980   1.053   3.109  17.561  0.0017  0.5608  0.0699
  606TMC3    C6 8981   1.122   3.186  17.653  0.0610  0.4862  0.4077
  606TMC3     C 8982   1.197   3.244  17.255 -0.5266 -0.3693 -0.4172
  606TMC3     O 8983   1.152   3.170  17.170 -0.1436  0.6041  0.4519
  606TMC3     H 8984   1.348   3.334  17.451  0.1279  0.1165  2.1928
  606TMC3    H1 8985   1.039   3.058  17.351 -0.2605 -1.9077  0.7564
  606TMC3    H2 8986   1.095   3.174   0.067 -1.2465 -0.7795 -0.0725
  606TMC3    C7 8987   0.939   3.033  17.615 -0.4083  0.3153 -0.0191
  606TMC3    C8 8988   1.302   3.339   0.022 -0.5015  0.3553  0.7582
  606TMC3    O1 8989   0.952   3.002   0.042  0.2423  0.7312  0.0206
  606TMC3    O2 8990   1.414   3.373  17.672  0.8700 -0.4282 -0.5249
  607MPD2     C 8991   3.720   1.449  11.173  0.1285  0.1459 -0.0870
  607MPD2    C1 8992   3.752   1.550  11.261 -0.0018  0.0519  0.1895
  607MPD2    C2 8993   3.689   1.552  11.390  0.3746 -0.3927 -0.1563
  607MPD2    C3 8994   3.605   1.448  11.429 -0.3655 -0.1851  0.4985
  607MPD2    C4 8995   3.569   1.349  11.333 -0.1635 -0.3235  0.1322
  607MPD2    C5 8996   3.632   1.349  11.214 -0.5548  0.0536  0.6984
  607MPD2     H 8997   3.714   1.626  11.464 -0.1974 -0.2297 -0.1306
  607MPD2    H1 8998   3.488   1.278  11.344  0.6355 -0.8956  2.2416
  607MPD2    H2 8999   3.768   1.447  11.076  2.0734 -1.8697  0.9200
  607MPD2    H3 9000   3.616   1.278  11.134  2.8207  0.6712 -0.5398
  607MPD2     N 9001   3.579   1.442  11.567  0.3905 -0.4817 -0.4144
  607MPD2    H5 9002   3.620   1.515  11.624  1.2059 -1.9752  0.9093
  607MPD2    N1 9003   3.852   1.645  11.233 -0.2289 -0.3464 -0.2701
  607MPD2    H7 9004   3.870   1.710  11.308 -1.4151  1.3818 -1.4991
  608TMC3    C1 9005   4.047   1.731  11.131  0.6890 -0.0357 -0.0725
  608TMC3    C2 9006   4.095   1.732  11.260  0.1372  0.1115  0.3420
  608TMC3    C3 9007   4.174   1.840  11.306 -0.5601 -0.6432  0.2535
  608TMC3    C4 9008   4.083   1.834  11.047 -0.0435  0.0768 -0.2021
  608TMC3    C5 9009   4.153   1.946  11.097 -0.2925 -0.0445  0.6114
  608TMC3    C6 9010   4.199   1.945  11.224 -0.6269  0.3114  0.4736
  608TMC3     C 9011   3.916   1.669  11.112  0.2309  0.2240  0.4010
  608TMC3     O 9012   3.882   1.638  10.998  0.1938 -0.6519 -0.0379
  608TMC3     H 9013   4.097   1.641  11.320 -0.1605  0.4201  0.8196
  608TMC3    H1 9014   4.023   1.845  10.957  1.4762  0.7050 -1.1590
  608TMC3    H2 9015   4.230   2.037  11.273  0.9331  0.0930 -0.1143
  608TMC3    C7 9016   4.121   2.073  11.032  1.1183  0.1715  0.0597
  608TMC3    C8 9017   4.203   1.855  11.446  0.2720  0.0787 -0.1924
  608TMC3    O1 9018   4.040   2.057  10.940 -0.2144 -0.1066 -0.0487
  608TMC3    O2 9019   4.285   1.938  11.483 -0.1774 -0.3025 -0.2017
  609TMC3    C1 9020   1.711   0.032   9.216 -0.0820  0.1311  0.3624
  609TMC3    C2 9021   1.682   4.696   9.094  0.4515 -0.0678  0.6224
  609TMC3    C3 9022   1.728   4.569   9.073 -0.1286  0.3037 -0.3788
  609TMC3    C4 9023   1.785   4.690   9.317  0.6249  0.4726  0.3207
  609TMC3    C5 9024   1.825   4.557   9.291  0.0561 -0.0204 -0.1069
  609TMC3    C6 9025   1.802   4.494   9.167 -0.0424 -0.0909 -0.4343
  609TMC3     C 9026   1.662   0.171   9.233 -0.8313  0.0229 -0.2733
  609TMC3     O 9027   1.588   0.210   9.144  0.1975 -0.3925  0.3210
  609TMC3     H 9028   1.628   0.019   9.011  1.3474 -1.6561 -0.8223
  609TMC3    H1 9029   1.818   0.009   9.412 -0.3324 -0.2034  0.9419
  609TMC3    H2 9030   1.807   4.386   9.158  2.7325 -0.1261  1.6438
  609TMC3    C7 9031   1.903   4.492   9.393 -0.5040 -0.7786  0.2144
  609TMC3    C8 9032   1.684   4.517   8.943  0.4832 -0.6384  0.0295
  609TMC3    O1 9033   1.906   4.540   9.508 -0.1723  0.6202 -0.0773
  609TMC3    O2 9034   1.576   4.557   8.901 -0.1124 -0.0973 -0.2855
  610TMC3    C1 9035   4.249   1.536  12.230 -0.1536 -0.5572 -0.4423
  610TMC3    C2 9036   4.280   1.506  12.104 -0.1867  0.4780  0.0398
  610TMC3    C3 9037   4.228   1.400  12.042 -0.1284  0.0584 -0.3322
  610TMC3    C4 9038   4.140   1.482  12.286  0.1066  0.5299  0.4170
  610TMC3    C5 9039   4.090   1.368  12.225  0.3350 -0.0359 -0.2687
  610TMC3    C6 9040   4.135   1.325  12.101 -0.2945 -0.1766 -0.9937
  610TMC3     C 9041   4.314   1.661  12.291 -0.7091 -0.1888  0.3188
  610TMC3     O 9042   4.397   1.718  12.222 -0.0519  0.8812 -0.0821
  610TMC3     H 9043   4.363   1.566  12.068 -1.0380  0.4135 -2.0504
  610TMC3    H1 9044   4.097   1.493  12.385 -0.8379 -1.8937  0.2852
  610TMC3    H2 9045   4.104   1.232  12.054  0.7752 -1.1477  0.2037
  610TMC3    C7 9046   3.989   1.295  12.303 -0.2566 -0.2371  0.4265
  610TMC3    C8 9047   4.249   1.393  11.900 -0.6802  0.3536  1.1226
  610TMC3    O1 9048   3.935   1.337  12.404 -0.1456  0.0342 -0.5235
  610TMC3    O2 9049   4.364   1.412  11.855  0.1194 -1.0398  0.0364
  611MPD2     C 9050   3.401   1.128  10.285 -0.1988  1.2024 -0.1305
  611MPD2    C1 9051   3.340   1.249  10.251 -0.7417 -0.0422  0.2360
  611MPD2    C2 9052   3.432   1.345  10.212  0.2032 -1.0467  0.1193
  611MPD2    C3 9053   3.568   1.333  10.215 -0.4682  0.5270 -0.3488
  611MPD2    C4 9054   3.616   1.212  10.259  0.7731  0.1996  0.0044
  611MPD2    C5 9055   3.536   1.107  10.287 -0.3573 -0.2357  0.3557
  611MPD2     H 9056   3.391   1.444  10.195  0.8584 -0.6211  1.0238
  611MPD2    H1 9057   3.724   1.196  10.258  0.5973 -0.9071 -1.1245
  611MPD2    H2 9058   3.337   1.049  10.323 -1.0565  1.8163 -0.2969
  611MPD2    H3 9059   3.566   1.010  10.326 -3.2626 -2.1391 -2.1704
  611MPD2     N 9060   3.663   1.436  10.185  0.0857  0.5401  0.4763
  611MPD2    H5 9061   3.760   1.410  10.201 -0.1034 -0.6943 -0.4139
  611MPD2    N1 9062   3.206   1.272  10.271 -0.4839  0.4213 -0.3737
  611MPD2    H7 9063   3.163   1.197  10.324  0.2641  0.6178  0.5103
  612TMC3    C1 9064   3.742   1.648  10.141 -0.3734  0.7146  0.6800
  612TMC3    C2 9065   3.804   1.656  10.263  0.5172  0.5327  1.2036
  612TMC3    C3 9066   3.881   1.767  10.283  0.3389  0.2994 -0.8668
  612TMC3    C4 9067   3.737   1.747  10.047 -0.4440  0.0678  0.4379
  612TMC3    C5 9068   3.803   1.859  10.078 -0.4258  0.6278 -0.0002
  612TMC3    C6 9069   3.885   1.868  10.187 -0.9200  0.4643  0.3503
  612TMC3     C 9070   3.632   1.551  10.124 -0.8457  0.9877 -0.2228
  612TMC3     O 9071   3.530   1.584  10.062 -0.1424  0.3765  0.3700
  612TMC3     H 9072   3.799   1.573  10.332 -0.0536 -0.0103  0.5059
  612TMC3    H1 9073   3.670   1.726   9.964  0.6628 -1.8370  0.0158
  612TMC3    H2 9074   3.944   1.958  10.199  1.1394 -0.6037 -1.8985
  612TMC3    C7 9075   3.803   1.970   9.987  0.5369 -0.3974  0.1453
  612TMC3    C8 9076   3.965   1.789  10.396 -0.5377 -0.1709  0.7125
  612TMC3    O1 9077   3.779   1.938   9.873  0.0040 -0.4199  0.1753
  612TMC3    O2 9078   4.033   1.892  10.402 -0.8293  0.2188 -0.2379
  613MPD2     C 9079   2.229   3.344  16.683 -0.1468  0.5415 -0.2653
  613MPD2    C1 9080   2.164   3.433  16.603  0.1547  0.0119  0.7142
  613MPD2    C2 9081   2.044   3.385  16.547  0.1427  0.3561 -0.7747
  613MPD2    C3 9082   2.014   3.249  16.548 -0.2806 -0.1530 -0.5355
  613MPD2    C4 9083   2.088   3.160  16.628  0.5752  0.2877 -0.4753
  613MPD2    C5 9084   2.197   3.214  16.691  0.0255  0.9189 -0.2681
  613MPD2     H 9085   1.981   3.457  16.495 -0.0326  1.2183  0.6259
  613MPD2    H1 9086   2.061   3.056  16.646 -0.5383  0.8583  1.0615
  613MPD2    H2 9087   2.311   3.376  16.746  0.9928 -3.2264  0.1405
  613MPD2    H3 9088   2.262   3.148  16.747 -0.8282  1.5450  1.4771
  613MPD2     N 9089   1.908   3.189  16.479  0.4089 -0.4941  0.3148
  613MPD2    H5 9090   1.906   3.087  16.483  0.6686 -0.5403 -0.6970
  613MPD2    N1 9091   2.223   3.561  16.591  0.1703  0.0621  0.1281
  613MPD2    H7 9092   2.289   3.589  16.664  1.3883  0.2119 -1.0427
  614TMC3    C1 9093   2.158   3.623  16.371 -0.7207  1.0112 -1.1043
  614TMC3    C2 9094   2.215   3.511  16.315  0.3142 -0.0872  0.1683
  614TMC3    C3 9095   2.200   3.485  16.179 -0.2129  0.1429 -0.1625
  614TMC3    C4 9096   2.112   3.717  16.289  0.5159 -0.9264  0.1508
  614TMC3    C5 9097   2.092   3.689  16.152 -0.0151  0.2373 -0.0278
  614TMC3    C6 9098   2.137   3.571  16.102 -0.1237  0.1005  0.4824
  614TMC3     C 9099   2.197   3.661  16.498 -0.2544  0.1181 -0.3295
  614TMC3     O 9100   2.218   3.778  16.516  0.0516 -0.4191  0.2314
  614TMC3     H 9101   2.268   3.441  16.378  1.8297 -0.2586 -1.3007
  614TMC3    H1 9102   2.083   3.814  16.328  0.7212 -0.8717  0.1651
  614TMC3    H2 9103   2.134   3.550  15.996  0.2992  0.4532  0.3994
  614TMC3    C7 9104   2.023   3.795  16.078  0.8981  0.7307 -0.8907
  614TMC3    C8 9105   2.188   3.345  16.151  0.2374 -0.0929  0.5175
  614TMC3    O1 9106   2.014   3.907  16.131 -0.0129 -0.6104  0.3224
  614TMC3    O2 9107   2.149   3.272  16.238  0.3023 -0.3965  0.0377
  615MPD2     C 9108   1.422   0.426  15.946 -0.6842 -0.3582 -0.3349
  615MPD2    C1 9109   1.309   0.483  15.994  0.0836 -0.1606  0.5292
  615MPD2    C2 9110   1.195   0.418  15.970 -0.1497 -0.4031 -0.8354
  615MPD2    C3 9111   1.189   0.309  15.889 -0.3255 -0.2134 -0.4571
  615MPD2    C4 9112   1.303   0.243  15.852 -0.0107  0.0341  0.1300
  615MPD2    C5 9113   1.421   0.303  15.887 -0.5711 -0.0324 -0.0654
  615MPD2     H 9114   1.106   0.470  16.002 -0.2877 -0.0801 -1.7583
  615MPD2    H1 9115   1.300   0.155  15.789 -0.2357  0.3752 -0.3395
  615MPD2    H2 9116   1.523   0.461  15.963 -0.9809 -0.1792  1.1201
  615MPD2    H3 9117   1.514   0.260  15.850  1.5494  3.4456  1.2016
  615MPD2     N 9118   1.074   0.246  15.848 -0.4514 -0.0337  0.1101
  615MPD2    H5 9119   1.082   0.171  15.780 -0.1077  0.2612 -0.1676
  615MPD2    N1 9120   1.304   0.601  16.073 -0.6413 -0.1010  0.1838
  615MPD2    H7 9121   1.213   0.619  16.114 -0.7961  1.3896 -0.8119
  616TMC3    C1 9122   1.379   0.790  16.194 -0.0789  0.3113  0.1230
  616TMC3    C2 9123   1.474   0.888  16.186  0.2589 -0.3792  0.2245
  616TMC3    C3 9124   1.445   1.010  16.240 -0.5439  0.6594 -0.0593
  616TMC3    C4 9125   1.251   0.820  16.239  0.6743 -0.0988 -0.1625
  616TMC3    C5 9126   1.229   0.950  16.273 -0.7978 -0.0767  0.9760
  616TMC3    C6 9127   1.324   1.046  16.286  0.4712  0.1057 -0.6824
  616TMC3     C 9128   1.412   0.677  16.107  0.2617  0.0177 -0.7428
  616TMC3     O 9129   1.520   0.679  16.052  0.0818 -0.3881  0.9329
  616TMC3     H 9130   1.569   0.869  16.137 -0.1847 -0.4776 -0.5810
  616TMC3    H1 9131   1.171   0.749  16.255 -0.5489  1.2055 -0.5707
  616TMC3    H2 9132   1.295   1.143  16.325 -0.7786 -0.1328 -1.0315
  616TMC3    C7 9133   1.095   0.983  16.313  0.3122 -0.1096 -0.0291
  616TMC3    C8 9134   1.561   1.094  16.244  0.5491 -0.1024  0.6553
  616TMC3    O1 9135   1.083   1.063  16.405  0.2450  0.4303  0.3312
  616TMC3    O2 9136   1.668   1.038  16.224 -0.5860  0.1025 -0.0541
  617MPD2     C 9137   4.095   3.653  13.932  0.2061 -0.0533  0.0423
  617MPD2    C1 9138   4.111   3.523  13.904  0.4916  0.1415 -0.3403
  617MPD2    C2 9139   3.998   3.445  13.891  0.4259  0.3791 -0.2148
  617MPD2    C3 9140   3.875   3.504  13.912  0.2794  0.3753  0.2628
  617MPD2    C4 9141   3.865   3.633  13.955 -0.3434  0.0819 -0.1232
  617MPD2    C5 9142   3.977   3.709  13.972  0.4485 -0.1129  0.4282
  617MPD2     H 9143   4.009   3.340  13.868  0.6805  0.5362 -0.8060
  617MPD2    H1 9144   3.773   3.676  13.994  0.6098  0.2409  1.9400
  617MPD2    H2 9145   4.181   3.716  13.950  0.9788 -0.3297 -2.6426
  617MPD2    H3 9146   3.978   3.813  14.002  1.4578 -0.0570  0.2137
  617MPD2     N 9147   3.754   3.441  13.883 -0.0025 -0.0320 -0.2019
  617MPD2    H5 9148   3.673   3.493  13.918  0.4993  1.8539 -1.8691
  617MPD2    N1 9149   4.243   3.483  13.891 -0.4863  0.2073  0.2582
  617MPD2    H7 9150   4.315   3.552  13.910 -0.3267  0.5167 -1.4704
  618TMC3    C1 9151   4.422   3.334  13.859  0.6688  0.1950  0.4519
  618TMC3    C2 9152   4.468   3.226  13.781  0.5746  0.0299 -0.3775
  618TMC3    C3 9153   4.589   3.170  13.808  0.0507  0.0507 -0.1193
  618TMC3    C4 9154   4.495   3.387  13.960 -1.0226  0.3176 -0.3093
  618TMC3    C5 9155   4.621   3.326  13.987  0.4938  0.8046 -0.8199
  618TMC3    C6 9156   4.662   3.216  13.914  0.1034 -0.0509 -0.5265
  618TMC3     C 9157   4.281   3.360  13.844  0.1733  0.7130  0.8248
  618TMC3     O 9158   4.203   3.268  13.816  0.3346  0.4389 -0.2448
  618TMC3     H 9159   4.420   3.197  13.688  0.8139 -3.5146  0.5863
  618TMC3    H1 9160   4.449   3.468  14.015 -0.8581 -0.0243  0.3223
  618TMC3    H2 9161   0.033   3.174  13.952  0.3172 -0.9808 -2.0818
  618TMC3    C7 9162   4.700   3.394  14.093  0.8494 -0.5080  1.0561
  618TMC3    C8 9163   4.659   3.116  13.692 -0.1988  0.0386  0.1515
  618TMC3    O1 9164   4.631   3.473  14.151 -0.1085 -0.7349  0.4691
  618TMC3    O2 9165   4.590   3.081  13.601  0.0724  0.7267 -0.1519
  619MPD2     C 9166   1.265   0.108  13.839  0.1491  0.8592  0.0665
  619MPD2    C1 9167   1.196   0.169  13.742 -0.9302 -0.0676 -0.4269
  619MPD2    C2 9168   1.100   0.097  13.669  0.4234  0.6192 -0.3453
  619MPD2    C3 9169   1.056   4.699  13.718 -0.0745  0.0027 -0.4454
  619MPD2    C4 9170   1.112   4.644  13.834  0.7057  0.6744  0.7351
  619MPD2    C5 9171   1.213   4.711  13.892  0.6888  0.4992  0.7002
  619MPD2     H 9172   1.060   0.150  13.583 -3.5165 -1.5785  0.1177
  619MPD2    H1 9173   1.075   4.551  13.875  1.1766  0.7767  1.3989
  619MPD2    H2 9174   1.349   0.154  13.892 -0.4130  1.8429  0.1056
  619MPD2    H3 9175   1.254   4.669  13.983  0.9422  0.6705  0.6644
  619MPD2     N 9176   0.945   4.635  13.658 -0.1919 -0.2043 -0.0685
  619MPD2    H5 9177   0.899   4.555  13.700 -0.9015 -0.9584 -2.2650
  619MPD2    N1 9178   1.225   0.302  13.704  0.3058 -0.3259  0.2163
  619MPD2    H7 9179   1.172   0.344  13.628  0.7790  1.1567  0.7156
  620TMC3    C1 9180   1.322   0.515  13.676 -0.2104 -0.1948 -0.1431
  620TMC3    C2 9181   1.245   0.522  13.566 -0.1343 -0.0122  0.0447
  620TMC3    C3 9182   1.183   0.640  13.533  0.0669 -0.9419 -0.1808
  620TMC3    C4 9183   1.321   0.622  13.762  0.1234  0.2763  0.1049
  620TMC3    C5 9184   1.251   0.738  13.734 -0.0977  0.5053 -0.6851
  620TMC3    C6 9185   1.188   0.747  13.616  0.5165 -0.6012 -0.0892
  620TMC3     C 9186   1.322   0.388  13.747 -0.1199  0.4939 -0.4007
  620TMC3     O 9187   1.400   0.376  13.844 -0.0747 -0.0423  0.3742
  620TMC3     H 9188   1.252   0.447  13.487 -1.5930  0.3000 -0.3698
  620TMC3    H1 9189   1.358   0.624  13.864  0.6505 -0.9244 -0.0550
  620TMC3    H2 9190   1.136   0.837  13.586  2.1316 -0.4820 -2.4769
  620TMC3    C7 9191   1.189   0.805  13.846  0.8676 -0.3193  0.3981
  620TMC3    C8 9192   1.050   0.606  13.497 -0.8028 -0.5823  0.0927
  620TMC3    O1 9193   1.243   0.813  13.952  0.2101 -0.1611  0.5709
  620TMC3    O2 9194   0.957   0.659  13.560  0.7641  0.3258  0.2499
  621MPD2     C 9195   1.808   4.299  10.142 -0.0175  0.1628  0.0681
  621MPD2    C1 9196   1.780   4.437  10.141 -1.0391 -0.3748 -0.1528
  621MPD2    C2 9197   1.879   4.522  10.195  0.0279 -0.3789 -0.2370
  621MPD2    C3 9198   1.986   4.471  10.260  0.5454 -0.8038 -0.6233
  621MPD2    C4 9199   2.015   4.333  10.253 -0.6886 -0.2405 -0.0554
  621MPD2    C5 9200   1.922   4.247  10.187 -0.3207  0.1382 -0.0956
  621MPD2     H 9201   1.863   4.629  10.192 -0.3414 -0.4094  0.6468
  621MPD2    H1 9202   2.110   4.294  10.288 -0.4289 -1.1695 -1.7748
  621MPD2    H2 9203   1.726   4.238  10.106 -0.7540  0.3653  1.3758
  621MPD2    H3 9204   1.937   4.140  10.183  1.5817  0.3857  0.1502
  621MPD2     N 9205   2.076   4.560  10.326 -0.5595 -0.3493  0.0111
  621MPD2    H5 9206   2.069   4.657  10.299 -0.8190 -0.3644  0.0212
  621MPD2    N1 9207   1.660   4.475  10.085  0.4612  0.1042 -0.2621
  621MPD2    H7 9208   1.600   4.403  10.045  0.6603 -0.0696 -0.2453
  622TMC3    C1 9209   1.473   4.628  10.068  0.4724 -0.1741  0.2077
  622TMC3    C2 9210   1.411   0.018  10.117 -0.4799 -0.7280 -0.1990
  622TMC3    C3 9211   1.289   0.057  10.059 -0.0028 -0.2705 -0.2852
  622TMC3    C4 9212   1.435   4.563   9.946 -0.0330  0.7566  0.3765
  622TMC3    C5 9213   1.324   4.615   9.885  0.5942  0.8435  0.3105
  622TMC3    C6 9214   1.247   4.713   9.942 -0.5821  0.0039  0.6337
  622TMC3     C 9215   1.603   4.596  10.121  0.3057 -0.2794 -0.2495
  622TMC3     O 9216   1.650   4.683  10.193 -0.1173  0.1549  0.0607
  622TMC3     H 9217   1.445   0.072  10.204  0.3451  0.0783 -1.0258
  622TMC3    H1 9218   1.481   4.473   9.906  1.5414  2.4157 -1.4968
  622TMC3    H2 9219   1.151   0.022   9.902 -0.4692 -0.6732 -0.1632
  622TMC3    C7 9220   1.245   4.519   9.807 -0.9429 -0.4604  0.4148
  622TMC3    C8 9221   1.223   0.180  10.103  0.7860 -0.2548 -0.5484
  622TMC3    O1 9222   1.241   4.401   9.840  0.3733  0.2408  0.6026
  622TMC3    O2 9223   1.276   0.226  10.200  0.0730 -0.1136 -0.2694
  623MPD2     C 9224   4.480   0.196  16.256  0.0860  0.6046  0.1129
  623MPD2    C1 9225   4.409   0.253  16.359  0.4623  0.1544 -0.1259
  623MPD2    C2 9226   4.378   0.176  16.471  0.3716 -0.4139 -0.6120
  623MPD2    C3 9227   4.434   0.052  16.495 -0.5414  0.1570  0.9404
  623MPD2    C4 9228   4.522   0.007  16.395 -0.4151 -1.1094 -0.0853
  623MPD2    C5 9229   4.548   0.081  16.283 -0.2728  0.3685  0.1648
  623MPD2     H 9230   4.316   0.211  16.553  0.5545  0.3065 -0.7794
  623MPD2    H1 9231   4.583   4.639  16.398 -0.9740 -1.4244  1.8538
  623MPD2    H2 9232   4.502   0.254  16.167  0.6710 -1.8899 -1.3733
  623MPD2    H3 9233   4.604   0.039  16.201 -0.5326 -0.3341  0.3463
  623MPD2     N 9234   4.418   4.715  16.621 -0.0236  0.0554 -0.6670
  623MPD2    H5 9235   4.353   0.047  16.678  1.4061  1.1352 -0.0872
  623MPD2    N1 9236   4.381   0.393  16.343  0.6259 -0.0632  0.2059
  623MPD2    H7 9237   4.404   0.437  16.255 -0.7002  0.8263  0.3030
  624TMC3    C1 9238   4.540   4.699  16.961  0.9771 -0.5489 -0.0371
  624TMC3    C2 9239   4.420   0.023  17.007 -0.0240 -0.1598 -0.8096
  624TMC3    C3 9240   4.313   4.709  16.927  0.3705  0.1162 -0.4957
  624TMC3    C4 9241   4.546   4.610  16.856  0.5790  0.3642  0.8253
  624TMC3    C5 9242   4.440   4.571  16.788 -0.2089 -0.4327  0.2777
  624TMC3    C6 9243   4.316   4.620  16.824  0.3692  0.5955 -0.2721
  624TMC3     C 9244   4.662   0.016  17.028  0.6664  0.4631  0.5155
  624TMC3     O 9245   0.047   4.705  16.968 -0.1724  0.1731  0.3339
  624TMC3     H 9246   4.401   0.102  17.078 -0.9860  0.6319 -1.9535
  624TMC3    H1 9247   4.639   4.565  16.824 -0.3209 -0.0879 -1.1869
  624TMC3    H2 9248   4.227   4.604  16.764 -0.2006  1.9527  0.2109
  624TMC3    C7 9249   4.481   4.599  16.657 -0.1378 -0.2796 -1.1201
  624TMC3    C8 9250   4.231   0.097  16.878 -0.1225 -0.4638 -0.0872
  624TMC3    O1 9251   4.564   4.525  16.604  0.1338  0.1000 -0.5850
  624TMC3    O2 9252   4.184   0.093  16.766 -0.6197  0.0259  0.0951
  625MPD2     C 9253   0.708   1.594   0.686 -0.3121  0.1409 -0.2634
  625MPD2    C1 9254   0.772   1.712   0.678 -1.0030  0.6899  0.2249
  625MPD2    C2 9255   0.912   1.719   0.679 -0.4667 -0.0002  0.1713
  625MPD2    C3 9256   0.985   1.603   0.689  0.4244  1.0152 -0.0944
  625MPD2    C4 9257   0.916   1.485   0.722 -0.3031 -0.6391 -0.5828
  625MPD2    C5 9258   0.779   1.482   0.718  0.5139 -0.0105 -0.1648
  625MPD2     H 9259   0.961   1.811   0.648 -0.7804  0.0272 -0.2400
  625MPD2    H1 9260   0.965   1.389   0.736  0.0071 -0.3757  0.1747
  625MPD2    H2 9261   0.600   1.581   0.679 -0.5005  1.6921 -0.3020
  625MPD2    H3 9262   0.720   1.392   0.722  0.0562  0.3328  0.8183
  625MPD2     N 9263   1.130   1.610   0.698  0.2413  0.1585  0.0169
  625MPD2    H5 9264   1.172   1.702   0.688 -0.2016  0.2259 -1.3019
  625MPD2    N1 9265   0.711   1.840   0.645  0.1572  0.5870 -0.7026
  625MPD2    H7 9266   0.764   1.926   0.646 -0.1577  0.7339  1.5643
  626TMC3    C1 9267   0.550   1.995   0.575  0.9863  0.7731  0.3488
  626TMC3    C2 9268   0.445   2.025   0.492 -0.2619  0.5917 -0.5241
  626TMC3    C3 9269   0.426   2.158   0.460  0.9399 -0.1472 -0.6458
  626TMC3    C4 9270   0.600   2.097   0.659  0.1242 -0.7212  0.1207
  626TMC3    C5 9271   0.557   2.221   0.649  0.6226 -0.2567 -0.4215
  626TMC3    C6 9272   0.473   2.254   0.545 -0.5665 -0.1130 -0.6780
  626TMC3     C 9273   0.581   1.853   0.616  0.5305 -0.2032  0.3470
  626TMC3     O 9274   0.492   1.769   0.603 -0.5209  0.2319  0.5976
  626TMC3     H 9275   0.410   1.953   0.419 -1.0983  0.9959 -0.5178
  626TMC3    H1 9276   0.681   2.076   0.728 -1.1426  0.0280  1.8340
  626TMC3    H2 9277   0.442   2.356   0.525 -0.2953 -0.1111 -1.0870
  626TMC3    C7 9278   0.524   2.273   0.782  0.2045 -0.1951  0.1460
  626TMC3    C8 9279   0.333   2.200   0.357 -0.1613 -0.0760  0.9654
  626TMC3    O1 9280   0.611   2.247   0.863 -0.3713  0.5453 -0.8666
  626TMC3    O2 9281   0.341   2.316   0.316  0.4666  0.2117  0.3987
  627MPD2     C 9282   3.281   2.208  14.529 -0.5674 -0.4220 -0.2526
  627MPD2    C1 9283   3.352   2.185  14.643  0.4703 -0.6020  0.2734
  627MPD2    C2 9284   3.333   2.075  14.725 -0.6844 -0.2616 -0.2898
  627MPD2    C3 9285   3.240   1.987  14.686  0.2127  0.5128 -0.0891
  627MPD2    C4 9286   3.176   1.997  14.568 -0.6935  1.0146 -0.5708
  627MPD2    C5 9287   3.199   2.109  14.488  0.3696 -0.2579  0.3203
  627MPD2     H 9288   3.384   2.068  14.820  0.7367 -0.1713 -1.0477
  627MPD2    H1 9289   3.099   1.927  14.535  0.7365 -0.5850 -0.5110
  627MPD2    H2 9290   3.294   2.297  14.468 -0.6023  0.0008  0.3460
  627MPD2    H3 9291   3.157   2.118  14.388  0.5468  0.4574  0.3113
  627MPD2     N 9292   3.219   1.871  14.769 -0.7158 -0.2534  1.2190
  627MPD2    H5 9293   3.267   1.878  14.857  2.1796  0.8534 -0.4592
  627MPD2    N1 9294   3.453   2.275  14.695 -0.0655  0.4064 -0.4529
  627MPD2    H7 9295   3.484   2.253  14.789 -0.0741 -0.6274 -0.6906
  628TMC3    C1 9296   3.606   2.455  14.680  0.4352  0.0253 -0.3587
  628TMC3    C2 9297   3.706   2.392  14.749  1.0518  0.3029  0.3558
  628TMC3    C3 9298   3.826   2.458  14.778 -0.2995 -0.4234 -0.0215
  628TMC3    C4 9299   3.617   2.593  14.646 -0.6292  0.3516  0.0898
  628TMC3    C5 9300   3.736   2.647  14.682 -0.3890 -0.0882  1.1488
  628TMC3    C6 9301   3.834   2.588  14.756  0.3405 -0.0510 -0.2675
  628TMC3     C 9302   3.477   2.404  14.652  1.4429 -1.0371 -0.5911
  628TMC3     O 9303   3.403   2.474  14.580 -0.1458  0.3324 -0.3941
  628TMC3     H 9304   3.695   2.285  14.762 -0.7791  0.6751  1.9465
  628TMC3    H1 9305   3.539   2.647  14.593  0.6860  0.3161 -1.8749
  628TMC3    H2 9306   3.930   2.638  14.754 -1.1281  2.7948  0.9857
  628TMC3    C7 9307   3.760   2.788  14.644  0.4475 -0.4871  0.5379
  628TMC3    C8 9308   3.942   2.379  14.749  0.6121  0.6674 -0.2764
  628TMC3    O1 9309   3.849   2.850  14.700 -0.2929  0.5483 -0.4076
  628TMC3    O2 9310   3.964   2.348  14.632 -0.5718  0.4285 -0.3962
  629MPD2     C 9311   1.814   1.541  16.149 -0.2791 -0.1846  0.4090
  629MPD2    C1 9312   1.856   1.409  16.152  0.7406 -0.6516  0.1712
  629MPD2    C2 9313   1.765   1.312  16.187  0.0489 -0.6298 -0.3317
  629MPD2    C3 9314   1.629   1.338  16.210 -0.0061  0.6903  0.1430
  629MPD2    C4 9315   1.586   1.468  16.200  0.1639 -0.2264  0.2099
  629MPD2    C5 9316   1.679   1.570  16.175  0.6640  0.2550  0.0110
  629MPD2     H 9317   1.790   1.208  16.169  2.1806  0.0278 -1.1762
  629MPD2    H1 9318   1.483   1.503  16.201  0.1831 -0.1518 -0.1699
  629MPD2    H2 9319   1.879   1.627  16.136  0.5277 -0.5705  1.9221
  629MPD2    H3 9320   1.646   1.673  16.178  0.3812  0.0630  3.4950
  629MPD2     N 9321   1.536   1.234  16.236 -0.0416 -0.4346  0.0990
  629MPD2    H5 9322   1.440   1.266  16.247 -0.5007 -1.0630 -2.1304
  629MPD2    N1 9323   1.990   1.382  16.112 -0.7435 -0.0829 -0.4375
  629MPD2    H7 9324   2.044   1.461  16.076 -0.9020  0.6674  0.9777
  630TMC3    C1 9325   2.188   1.253  16.090 -0.1953 -0.5700  0.1548
  630TMC3    C2 9326   2.264   1.360  16.056 -0.2175 -0.2594  0.4046
  630TMC3    C3 9327   2.407   1.364  16.065 -0.2834  0.2268  0.3281
  630TMC3    C4 9328   2.249   1.158  16.161  0.7852 -0.2827 -0.4527
  630TMC3    C5 9329   2.384   1.165  16.179  0.4103  0.5136 -0.3905
  630TMC3    C6 9330   2.468   1.256  16.122 -0.7179 -0.3001 -0.5866
  630TMC3     C 9331   2.050   1.257  16.119 -0.1714  0.5525  1.1221
  630TMC3     O 9332   2.003   1.148  16.145  0.0731 -0.7842 -0.1247
  630TMC3     H 9333   2.211   1.449  16.024  1.7380  0.2219 -1.4907
  630TMC3    H1 9334   2.193   1.103  16.236  0.6079  2.0074  1.0972
  630TMC3    H2 9335   2.576   1.257  16.133 -0.8912  0.2900  1.0272
  630TMC3    C7 9336   2.414   1.129  16.322 -0.0234 -0.3639  0.1697
  630TMC3    C8 9337   2.459   1.479  16.132  1.0437  0.4865  0.1077
  630TMC3    O1 9338   2.357   1.038  16.378 -0.5314 -0.2618  0.1298
  630TMC3    O2 9339   2.473   1.471  16.255  0.1094 -0.4136 -0.4028
  631MPD2     C 9340   0.059   0.369  15.909 -0.1997 -0.4064  0.4146
  631MPD2    C1 9341   0.127   0.369  15.791  0.0728 -0.4007 -0.5077
  631MPD2    C2 9342   0.244   0.297  15.782 -0.3114 -0.2649  0.4936
  631MPD2    C3 9343   0.298   0.231  15.891  0.5150  0.7431  0.2881
  631MPD2    C4 9344   0.229   0.226  16.011 -0.0924  0.0229  0.4324
  631MPD2    C5 9345   0.104   0.295  16.016  0.4818 -0.1386 -0.4624
  631MPD2     H 9346   0.310   0.316  15.698 -0.3776 -0.5663  0.3732
  631MPD2    H1 9347   0.265   0.169  16.096  2.7347  0.5299 -0.4391
  631MPD2    H2 9348   4.681   0.408  15.927 -1.1567 -2.6586 -0.0038
  631MPD2    H3 9349   0.040   0.301  16.104 -0.7444  0.9579 -1.4299
  631MPD2     N 9350   0.424   0.173  15.863 -0.1349 -0.0191  0.0045
  631MPD2    H5 9351   0.471   0.191  15.776 -1.1563  1.1066 -0.3178
  631MPD2    N1 9352   0.063   0.445  15.687  0.7550  0.3529  0.0053
  631MPD2    H7 9353   4.706   0.499  15.720  2.2241  2.8146 -0.4634
  632TMC3    C1 9354   0.080   0.587  15.500  0.0958  0.2656 -0.9848
  632TMC3    C2 9355   0.029   0.692  15.568  0.5180 -0.1590  0.3441
  632TMC3    C3 9356   0.047   0.817  15.510 -0.8993 -0.0918 -0.1271
  632TMC3    C4 9357   0.146   0.605  15.379  0.0687 -0.2622 -0.0356
  632TMC3    C5 9358   0.178   0.731  15.333  0.6029  0.0798 -1.2217
  632TMC3    C6 9359   0.125   0.840  15.397  0.7898 -0.4281 -0.4124
  632TMC3     C 9360   0.119   0.463  15.562 -0.0598 -0.1390 -0.2730
  632TMC3     O 9361   0.209   0.399  15.511 -0.1916  0.0815  0.7109
  632TMC3     H 9362   4.715   0.678  15.670  3.6342 -2.3344  1.1544
  632TMC3    H1 9363   0.173   0.515  15.323  1.9566 -0.5423  1.3126
  632TMC3    H2 9364   0.160   0.940  15.376 -1.9547  0.5519 -0.4197
  632TMC3    C7 9365   0.264   0.756  15.222 -0.5935  0.5554 -0.3001
  632TMC3    C8 9366   4.692   0.923  15.569  1.0076 -0.3761  0.1954
  632TMC3    O1 9367   0.254   0.864  15.165  0.3650 -0.4482 -0.3030
  632TMC3    O2 9368   4.672   0.909  15.692  0.5146  0.1934 -1.0503
  633MPD2     C 9369   0.057   3.401  17.535 -0.0696  0.1921 -0.6706
  633MPD2    C1 9370   0.125   3.396  17.415  0.5590  0.0630 -0.0330
  633MPD2    C2 9371   0.126   3.278  17.347  0.1716  0.2001  0.1438
  633MPD2    C3 9372   0.040   3.169  17.377  0.5625  0.2191  0.2194
  633MPD2    C4 9373   4.693   3.180  17.500  0.3631 -0.4011  0.3966
  633MPD2    C5 9374   4.700   3.295  17.576  0.0728  0.6646  0.5281
  633MPD2     H 9375   0.193   3.274  17.263 -0.7428 -2.3491 -0.4523
  633MPD2    H1 9376   4.628   3.097  17.525 -0.9629  0.2788 -0.8438
  633MPD2    H2 9377   0.057   3.497  17.587  1.7283  0.1103 -0.5075
  633MPD2    H3 9378   4.630   3.298  17.659  0.1266 -1.2866  0.6517
  633MPD2     N 9379   0.028   3.044  17.304 -0.2572  0.4690 -0.0740
  633MPD2    H5 9380   4.722   2.968  17.364  1.1583  0.0973  0.1141
  633MPD2    N1 9381   0.205   3.496  17.357  0.1090 -0.3018  0.5013
  633MPD2    H7 9382   0.240   3.479  17.263  1.7453  1.7034  0.7475
  634TMC3    C1 9383   0.314   3.693  17.317  0.3068 -0.1673 -0.5890
  634TMC3    C2 9384   0.384   3.619  17.226 -0.3268  0.4963 -0.3482
  634TMC3    C3 9385   0.481   3.691  17.159 -0.1857  0.2210 -0.0623
  634TMC3    C4 9386   0.320   3.831  17.325 -0.4637 -0.4230 -0.0735
  634TMC3    C5 9387   0.416   3.896  17.253 -0.1657  0.2790  0.2645
  634TMC3    C6 9388   0.502   3.824  17.174 -0.3462 -0.0225  0.3895
  634TMC3     C 9389   0.228   3.622  17.409 -0.3444  0.4067  0.0262
  634TMC3     O 9390   0.182   3.686  17.502  0.3861 -0.3707 -0.3394
  634TMC3     H 9391   0.391   3.512  17.214 -0.6349  0.0967  2.8687
  634TMC3    H1 9392   0.256   3.889  17.391 -0.1430 -0.9426  0.6996
  634TMC3    H2 9393   0.596   3.868  17.142  0.0718 -1.3937 -0.2388
  634TMC3    C7 9394   0.375   4.017  17.184 -0.1740 -0.4035  0.4472
  634TMC3    C8 9395   0.535   3.623  17.045  0.4559  0.2412 -0.3703
  634TMC3    O1 9396   0.408   4.023  17.069  0.3001  0.6825 -0.1652
  634TMC3    O2 9397   0.522   3.502  17.022  0.4979 -0.4430 -0.0432
  635TMC3    C1 9398   1.136   4.205  17.555  0.1307  0.4809  0.5798
  635TMC3    C2 9399   1.222   4.269  17.473 -0.1172  0.1750  0.2682
  635TMC3    C3 9400   1.281   4.196  17.378 -0.3156  0.3201  0.6101
  635TMC3    C4 9401   1.105   4.068  17.537 -0.7491 -0.1123  0.1064
  635TMC3    C5 9402   1.165   4.003  17.429  0.8048  0.8995 -0.4134
  635TMC3    C6 9403   1.255   4.070  17.354  0.3692 -0.0283  0.1266
  635TMC3     C 9404   1.046   4.290  17.624  0.2039 -0.8129  0.0672
  635TMC3     O 9405   1.056   4.414  17.613  0.0893 -0.1948 -0.2674
  635TMC3     H 9406   1.222   4.377  17.465  0.6471  0.1364 -0.2276
  635TMC3    H1 9407   1.021   4.027  17.592  0.3890 -1.0912  1.1050
  635TMC3    H2 9408   1.301   4.011  17.276  1.0983  0.1939  0.3901
  635TMC3    C7 9409   1.138   3.863  17.402 -0.3163 -0.6750 -0.6991
  635TMC3    C8 9410   1.379   4.265  17.297  0.3208 -0.2473 -0.5737
  635TMC3    O1 9411   1.171   3.824  17.293 -0.2134 -0.2553  0.4727
  635TMC3    O2 9412   1.412   4.211  17.195  0.2688  0.4866 -0.1291
  636MPD2     C 9413   1.563   3.704  15.709 -0.5404 -0.3062 -0.0081
  636MPD2    C1 9414   1.609   3.738  15.831  0.7214  0.4019 -0.1023
  636MPD2    C2 9415   1.645   3.640  15.921  0.1653 -0.1013  0.0346
  636MPD2    C3 9416   1.636   3.503  15.885 -0.1757  0.5505 -0.1770
  636MPD2    C4 9417   1.581   3.470  15.760 -0.2431 -0.6041 -0.3569
  636MPD2    C5 9418   1.548   3.576  15.676  0.8425 -0.6620 -0.1298
  636MPD2     H 9419   1.669   3.662  16.024 -1.2264 -1.2911  0.6066
  636MPD2    H1 9420   1.569   3.370  15.722  2.3924  0.0579 -2.9978
  636MPD2    H2 9421   1.537   3.781  15.638 -0.6961  0.1374  0.5303
  636MPD2    H3 9422   1.499   3.551  15.582  1.2646 -0.8570 -0.2973
  636MPD2     N 9423   1.671   3.400  15.974  0.2004  0.0318 -0.1676
  636MPD2    H5 9424   1.694   3.426  16.069  0.3556 -1.9017  0.3230
  636MPD2    N1 9425   1.611   3.872  15.872 -0.5731 -0.3460  0.4018
  636MPD2    H7 9426   1.644   3.884  15.967 -0.2746 -0.6616  0.3360
  637TMC3    C1 9427   1.711   3.193  16.062 -0.0131  0.0309 -0.9105
  637TMC3    C2 9428   1.691   3.234  16.191  0.3145  0.1909 -0.2238
  637TMC3    C3 9429   1.756   3.165  16.294  0.0390  0.5352 -0.2740
  637TMC3    C4 9430   1.772   3.075  16.031  0.1100 -0.3782 -0.4965
  637TMC3    C5 9431   1.822   2.996  16.140 -0.0643  0.6308  0.2908
  637TMC3    C6 9432   1.823   3.043  16.271 -0.4078 -0.1893 -0.3339
  637TMC3     C 9433   1.665   3.267  15.944  0.1355 -0.1592 -0.2015
  637TMC3     O 9434   1.650   3.199  15.845 -0.2478 -0.1989  0.8135
  637TMC3     H 9435   1.629   3.321  16.210 -0.4411 -0.3431 -0.2377
  637TMC3    H1 9436   1.763   3.031  15.933  1.5326 -2.0678  0.1267
  637TMC3    H2 9437   1.866   2.982  16.350  0.4268  0.0996 -0.5617
  637TMC3    C7 9438   1.905   2.879  16.113  0.0704  0.4610 -0.0381
  637TMC3    C8 9439   1.822   3.252  16.395 -0.5407 -0.4475 -0.0343
  637TMC3    O1 9440   1.881   2.789  16.193  0.6436 -0.0124  0.0782
  637TMC3    O2 9441   1.794   3.370  16.379 -0.1250 -0.5142 -0.0411
  638MPD2     C 9442   1.225   2.786  15.244 -0.3940 -0.2187  0.4241
  638MPD2    C1 9443   1.265   2.677  15.169  0.2865 -0.4078  0.1170
  638MPD2    C2 9444   1.296   2.562  15.237 -0.4491 -0.0887 -1.0919
  638MPD2    C3 9445   1.294   2.556  15.378 -0.2797 -0.2961 -0.5566
  638MPD2    C4 9446   1.246   2.664  15.448 -1.0842  0.1659  0.3994
  638MPD2    C5 9447   1.218   2.776  15.379  0.3070  0.4603  0.1880
  638MPD2     H 9448   1.324   2.475  15.179 -0.6977  0.1138 -1.5130
  638MPD2    H1 9449   1.254   2.670  15.556 -3.4787  3.4187  0.3683
  638MPD2    H2 9450   1.191   2.883  15.207 -1.4146 -0.7958 -0.1649
  638MPD2    H3 9451   1.191   2.865  15.434 -1.5697 -0.1288  0.2496
  638MPD2     N 9452   1.319   2.428  15.442 -0.1378 -0.4895 -0.3203
  638MPD2    H5 9453   1.358   2.359  15.379  1.2783  0.6527 -0.7106
  638MPD2    N1 9454   1.277   2.695  15.033 -0.1308 -0.0659  0.2881
  638MPD2    H7 9455   1.282   2.788  14.993 -0.0918 -1.1081 -2.1512
  639TMC3    C1 9456   1.313   2.251  15.577 -0.3208  0.6261  0.1157
  639TMC3    C2 9457   1.198   2.194  15.533 -0.0777  0.0039 -0.0552
  639TMC3    C3 9458   1.217   2.065  15.485  0.3160  0.0235  0.1787
  639TMC3    C4 9459   1.440   2.200  15.553 -0.2524  0.1408  0.0111
  639TMC3    C5 9460   1.456   2.070  15.513 -0.0749  0.2375 -0.4225
  639TMC3    C6 9461   1.340   2.001  15.474  0.4177  0.2675  1.0384
  639TMC3     C 9462   1.297   2.388  15.567 -0.0308 -0.2487  0.0961
  639TMC3     O 9463   1.230   2.440  15.653 -0.4005 -0.2730 -0.2002
  639TMC3     H 9464   1.108   2.255  15.522 -0.2903 -0.4249 -0.7262
  639TMC3    H1 9465   1.529   2.250  15.591 -1.3463  1.7847  0.4271
  639TMC3    H2 9466   1.340   1.904  15.426  1.0911  0.5918  0.3770
  639TMC3    C7 9467   1.588   2.015  15.496 -0.3546 -0.3072 -0.0047
  639TMC3    C8 9468   1.106   2.001  15.424  0.2381 -0.5865 -1.1394
  639TMC3    O1 9469   1.673   2.098  15.495  0.1715 -0.2934 -0.1057
  639TMC3    O2 9470   1.123   1.936  15.319 -0.1945 -0.5676 -0.0758
  640MPD2     C 9471   2.634   1.099   9.718  0.3992 -0.0890  0.1960
  640MPD2    C1 9472   2.565   0.997   9.782 -0.7539 -0.3204 -0.1693
  640MPD2    C2 9473   2.432   1.016   9.822  0.9624 -0.3620  0.2933
  640MPD2    C3 9474   2.382   1.149   9.819 -0.3284  0.3027  0.1468
  640MPD2    C4 9475   2.453   1.247   9.760  0.0731 -0.1791 -0.2995
  640MPD2    C5 9476   2.577   1.218   9.707  0.4506 -0.2358  0.1089
  640MPD2     H 9477   2.377   0.951   9.889 -0.7269  0.5003 -0.2387
  640MPD2    H1 9478   2.410   1.347   9.753  0.4721  0.1093  1.3488
  640MPD2    H2 9479   2.734   1.083   9.680 -0.0090 -0.8854 -0.5555
  640MPD2    H3 9480   2.646   1.289   9.663 -0.5784  0.2213 -0.7619
  640MPD2     N 9481   2.251   1.191   9.866  0.8338 -0.2300  0.7063
  640MPD2    H5 9482   2.218   1.282   9.837 -3.0203 -1.6125  0.7894
  640MPD2    N1 9483   2.627   0.865   9.793 -0.4375 -0.5282  0.3778
  640MPD2    H7 9484   2.726   0.856   9.772 -0.4316 -0.8519  0.5384
  641TMC3    C1 9485   2.669   0.645   9.880 -0.0445 -0.4779  0.5293
  641TMC3    C2 9486   2.622   0.529   9.938 -0.0032  0.3159 -0.4791
  641TMC3    C3 9487   2.701   0.436   9.983 -0.5104 -0.4756 -0.1552
  641TMC3    C4 9488   2.808   0.663   9.871  0.8432  0.6440 -0.3775
  641TMC3    C5 9489   2.890   0.557   9.913 -0.0429  0.2565  0.8083
  641TMC3    C6 9490   2.837   0.447   9.974 -0.2107 -1.0623  0.8271
  641TMC3     C 9491   2.569   0.753   9.856  0.0275 -0.2940 -0.5130
  641TMC3     O 9492   2.449   0.721   9.860  0.1850 -0.4775 -0.0422
  641TMC3     H 9493   2.517   0.511   9.958  0.5952 -0.0956  2.3758
  641TMC3    H1 9494   2.852   0.755   9.836 -1.7941  0.8720 -3.1370
  641TMC3    H2 9495   2.895   0.361  10.006  1.1145 -0.2447  0.5889
  641TMC3    C7 9496   3.031   0.581   9.903  0.7919  0.8249 -0.6408
  641TMC3    C8 9497   2.646   0.301  10.024 -0.3910 -0.3193  0.1206
  641TMC3    O1 9498   3.079   0.681   9.850 -0.2343  0.5999 -0.5832
  641TMC3    O2 9499   2.533   0.275   9.980 -0.0994  0.6500  0.4725
  642TMC3    C1 9500   2.956   2.293  12.211  0.7402 -1.0474 -0.3268
  642TMC3    C2 9501   3.015   2.322  12.335 -0.0148 -0.0060 -0.6739
  642TMC3    C3 9502   3.080   2.217  12.401 -0.4598 -0.5440 -0.1072
  642TMC3    C4 9503   2.986   2.170  12.143  0.0490 -0.1048  0.5801
  642TMC3    C5 9504   3.043   2.073  12.213  0.0992  0.0017  0.2721
  642TMC3    C6 9505   3.088   2.089  12.344  0.2558 -0.0121  0.4308
  642TMC3     C 9506   2.896   2.399  12.136 -0.1034  0.2481 -0.6578
  642TMC3     O 9507   2.917   2.413  12.019  0.0818  0.0734 -0.5871
  642TMC3     H 9508   3.010   2.422  12.376  0.1672  0.2916 -1.3767
  642TMC3    H1 9509   2.941   2.154  12.045 -0.3821  1.1876  0.5712
  642TMC3    H2 9510   3.149   2.013  12.391 -1.8235 -2.2820 -0.5876
  642TMC3    C7 9511   3.072   1.945  12.150 -0.1852  0.8170  0.5040
  642TMC3    C8 9512   3.150   2.237  12.525 -0.0446  0.2813  0.0860
  642TMC3    O1 9513   3.106   1.848  12.219  0.3303 -0.2961  0.3048
  642TMC3    O2 9514   3.172   2.131  12.583  0.8815  0.2147  0.4187
  643TMC3    C1 9515   2.268   1.561   0.373 -0.0157 -0.0514  0.0041
  643TMC3    C2 9516   2.137   1.575   0.327 -0.1317 -0.3855 -0.2987
  643TMC3    C3 9517   2.109   1.565   0.196 -0.9423  0.4078 -0.0349
  643TMC3    C4 9518   2.374   1.563   0.283 -0.0337 -0.0213 -0.2965
  643TMC3    C5 9519   2.338   1.556   0.150 -0.1174  0.0060  0.1584
  643TMC3    C6 9520   2.209   1.553   0.099  0.1133  0.7555 -0.7000
  643TMC3     C 9521   2.290   1.644   0.496  0.0134  0.5350  0.0110
  643TMC3     O 9522   2.200   1.720   0.521  0.3792 -0.0253  0.1467
  643TMC3     H 9523   2.062   1.596   0.402  1.1213 -0.0891  0.8792
  643TMC3    H1 9524   2.477   1.548   0.314  0.4690  2.3609 -0.7597
  643TMC3    H2 9525   2.179   1.538  17.686 -0.4435 -0.0166 -0.4226
  643TMC3    C7 9526   2.427   1.625   0.064  0.4327  0.2347  0.1931
  643TMC3    C8 9527   1.983   1.618   0.146 -0.2946 -0.6691 -0.7239
  643TMC3    O1 9528   2.503   1.707   0.116 -0.6391  0.2791  0.2965
  643TMC3    O2 9529   1.922   1.556   0.059  0.2440 -0.1539 -0.4389
  644MPD2     C 9530   3.301   1.994   9.827  0.8167  0.9245 -0.1299
  644MPD2    C1 9531   3.182   2.061   9.811 -0.1969 -0.3169  0.2281
  644MPD2    C2 9532   3.169   2.188   9.756  0.4530 -0.0432  0.8340
  644MPD2    C3 9533   3.278   2.254   9.721  1.1302 -0.6653 -0.2279
  644MPD2    C4 9534   3.405   2.205   9.750 -0.5268  0.1763  0.5349
  644MPD2    C5 9535   3.409   2.070   9.795 -0.0697 -0.3365  0.7218
  644MPD2     H 9536   3.074   2.237   9.745  0.5723  0.3128  1.3890
  644MPD2    H1 9537   3.501   2.255   9.741 -0.6181 -0.2343 -2.7973
  644MPD2    H2 9538   3.311   1.890   9.852 -0.5031  1.0656  1.0053
  644MPD2    H3 9539   3.507   2.024   9.796  0.4716  0.7522 -1.8848
  644MPD2     N 9540   3.262   2.391   9.681  0.1788 -0.1557 -0.3936
  644MPD2    H5 9541   3.166   2.423   9.684  0.7951  1.6690 -0.3378
  644MPD2    N1 9542   3.060   2.000   9.848 -0.2703 -0.1142  0.0924
  644MPD2    H7 9543   2.973   2.051   9.838  0.1278  0.5442  0.0182
  645TMC3    C1 9544   3.307   2.616   9.609  0.2382 -0.0244  0.6679
  645TMC3    C2 9545   3.390   2.715   9.570 -0.9254 -0.1312  0.7528
  645TMC3    C3 9546   3.339   2.846   9.567  0.5614 -0.0878 -0.3354
  645TMC3    C4 9547   3.174   2.643   9.645 -0.1712 -0.3723  0.0500
  645TMC3    C5 9548   3.133   2.768   9.643  0.1087 -0.5346 -0.0034
  645TMC3    C6 9549   3.210   2.871   9.599 -1.0140  0.1255 -0.3789
  645TMC3     C 9550   3.358   2.488   9.647 -0.3923 -0.0795  0.4347
  645TMC3     O 9551   3.480   2.477   9.663  0.1537 -0.1304 -0.5600
  645TMC3     H 9552   3.487   2.680   9.534  0.3500 -0.1299  4.2370
  645TMC3    H1 9553   3.108   2.564   9.677 -1.7768  0.7081 -0.5895
  645TMC3    H2 9554   3.180   2.975   9.597  2.6393  1.1613 -1.3200
  645TMC3    C7 9555   3.012   2.795   9.717  0.5265  0.3359 -1.2338
  645TMC3    C8 9556   3.415   2.958   9.509  0.0464  0.7382  0.6052
  645TMC3    O1 9557   2.954   2.701   9.769 -0.1399  0.1388  0.5247
  645TMC3    O2 9558   3.350   3.048   9.459 -0.1204  0.3666 -0.3011
  646MPD2     C 9559   1.238   1.322  14.909  0.0242  0.6182  0.3733
  646MPD2    C1 9560   1.173   1.338  15.029  0.3692  0.4585  0.3837
  646MPD2    C2 9561   1.044   1.391  15.026 -0.0514 -0.3159  0.5569
  646MPD2    C3 9562   0.994   1.454  14.910 -0.1526  0.3986 -0.0337
  646MPD2    C4 9563   1.066   1.439  14.796 -0.3011  0.1686 -0.3026
  646MPD2    C5 9564   1.188   1.379  14.790 -0.4567  0.6344  0.0161
  646MPD2     H 9565   0.989   1.391  15.119  0.5585  0.6129  0.9222
  646MPD2    H1 9566   1.025   1.471  14.701  1.1995  1.6374 -0.4498
  646MPD2    H2 9567   1.335   1.273  14.908 -0.0771  0.4255 -1.6733
  646MPD2    H3 9568   1.247   1.361  14.701 -0.1269  1.5001  0.0620
  646MPD2     N 9569   0.861   1.507  14.909 -0.8597  0.0305  0.6897
  646MPD2    H5 9570   0.816   1.527  14.998  0.2384 -1.2964  1.5338
  646MPD2    N1 9571   1.234   1.273  15.135 -0.3251 -0.5575 -0.1970
  646MPD2    H7 9572   1.322   1.227  15.113  0.4080  1.4631 -1.5375
  647TMC3    C1 9573   1.274   1.212  15.361 -0.3689  0.3001  0.2171
  647TMC3    C2 9574   1.245   1.122  15.455  0.2607  0.0083  0.0311
  647TMC3    C3 9575   1.344   1.077  15.542  0.7056  0.0425 -0.2428
  647TMC3    C4 9576   1.407   1.260  15.354  0.3924  0.4919  0.0443
  647TMC3    C5 9577   1.505   1.202  15.440  0.2900  0.7434  0.2443
  647TMC3    C6 9578   1.473   1.120  15.539 -0.2234 -0.2149  0.4971
  647TMC3     C 9579   1.179   1.259  15.262  0.8895  0.6451 -0.1743
  647TMC3     O 9580   1.063   1.277  15.298 -0.2459 -0.0276 -0.0479
  647TMC3     H 9581   1.145   1.079  15.458 -0.1929  1.0959  0.5532
  647TMC3    H1 9582   1.439   1.329  15.277  0.2553  0.2505 -0.2307
  647TMC3    H2 9583   1.553   1.087  15.605  1.1507  0.2386 -0.9525
  647TMC3    C7 9584   1.649   1.220  15.406 -0.6025 -0.4489 -0.6733
  647TMC3    C8 9585   1.320   0.947  15.595 -0.4931  0.2997  0.8349
  647TMC3    O1 9586   1.728   1.233  15.501 -0.2886  0.1152  0.2293
  647TMC3    O2 9587   1.420   0.877  15.584  0.8582 -0.1055  0.1749
  648TMC3    C1 9588   1.086   3.891  16.436 -0.2339  0.7094  0.0890
  648TMC3    C2 9589   1.133   3.766  16.407 -0.8063 -0.6232  0.0573
  648TMC3    C3 9590   1.082   3.699  16.302  0.1375 -0.2070 -0.7685
  648TMC3    C4 9591   0.998   3.953  16.351  0.1643  0.3987  0.0875
  648TMC3    C5 9592   0.942   3.882  16.249 -0.2179  0.3980  0.7016
  648TMC3    C6 9593   0.980   3.752  16.220 -0.3672 -1.2029  0.3527
  648TMC3     C 9594   1.075   3.929  16.580  0.4755 -0.2384 -0.7589
  648TMC3     O 9595   1.067   4.049  16.610 -0.0415 -0.2585 -0.0283
  648TMC3     H 9596   1.198   3.714  16.476 -0.7525 -0.2779  0.2621
  648TMC3    H1 9597   0.970   4.055  16.373  0.7402  0.1715  1.8840
  648TMC3    H2 9598   0.930   3.701  16.138 -2.7205 -2.5369  2.6168
  648TMC3    C7 9599   0.819   3.936  16.192  0.0165  0.5273 -0.3699
  648TMC3    C8 9600   1.130   3.571  16.252 -0.1920  0.1641 -0.3063
  648TMC3    O1 9601   0.771   3.881  16.094 -0.2517  0.7310 -0.1155
  648TMC3    O2 9602   1.107   3.538  16.135 -0.4530  0.1974 -0.3010
  649TMC3    C1 9603   0.310   4.313  12.740 -0.0532 -0.4423 -0.3202
  649TMC3    C2 9604   0.425   4.338  12.818  0.1698  0.0577 -1.3591
  649TMC3    C3 9605   0.413   4.321  12.952  0.3629 -0.0090  0.1736
  649TMC3    C4 9606   0.188   4.272  12.794 -0.3722  0.1861 -0.2054
  649TMC3    C5 9607   0.183   4.256  12.933  0.1018  0.5189  1.0649
  649TMC3    C6 9608   0.295   4.279  13.012 -0.5947 -0.6199 -0.1574
  649TMC3     C 9609   0.299   4.379  12.612  0.1847 -0.1196  0.2880
  649TMC3     O 9610   0.202   4.342  12.555 -0.1586  0.0271  0.7482
  649TMC3     H 9611   0.517   4.355  12.763  0.5633  0.0620 -0.6933
  649TMC3    H1 9612   0.098   4.268  12.734 -0.7893  0.8843  0.3654
  649TMC3    H2 9613   0.283   4.281  13.120  0.0767 -0.8913 -0.0772
  649TMC3    C7 9614   0.059   4.230  13.005 -0.6664  0.2662  0.6946
  649TMC3    C8 9615   0.529   4.323  13.040 -0.2569  0.5530  0.1558
  649TMC3    O1 9616   0.059   4.253  13.123 -0.2347  0.5922  0.1962
  649TMC3    O2 9617   0.506   4.273  13.150  0.3205  0.3871  0.0825
  650TMC3    C1 9618   2.427   1.716  12.835 -0.3357 -0.1280 -0.4119
  650TMC3    C2 9619   2.364   1.838  12.853  0.2886  0.5697  0.4236
  650TMC3    C3 9620   2.408   1.942  12.780 -0.7576 -0.1581  0.0353
  650TMC3    C4 9621   2.537   1.686  12.762 -0.5689 -0.0956 -0.0895
  650TMC3    C5 9622   2.570   1.791  12.686  0.3230  0.3602 -0.8930
  650TMC3    C6 9623   2.508   1.915  12.692 -0.4560  0.3428  0.0718
  650TMC3     C 9624   2.372   1.606  12.919  0.1776  0.3682  0.5935
  650TMC3     O 9625   2.281   1.635  12.998  0.8705  0.1751  0.7920
  650TMC3     H 9626   2.275   1.847  12.915  0.4372  0.6043  0.6313
  650TMC3    H1 9627   2.591   1.593  12.750 -2.6004 -1.2794 -0.2468
  650TMC3    H2 9628   2.547   2.002  12.639 -0.1101  1.2022  1.7087
  650TMC3    C7 9629   2.653   1.768  12.571 -0.0752 -0.6354 -0.3379
  650TMC3    C8 9630   2.358   2.077  12.795 -0.4010 -0.3950 -0.0169
  650TMC3    O1 9631   2.723   1.669  12.575 -0.1250  0.0324 -0.6825
  650TMC3    O2 9632   2.421   2.166  12.738  0.2903  0.2683  0.2552
  651MPD2     C 9633   1.373   2.848  10.819 -0.0180 -0.1224 -0.2191
  651MPD2    C1 9634   1.278   2.930  10.780  0.4038 -0.5033 -0.3569
  651MPD2    C2 9635   1.308   3.065  10.778 -0.0968 -0.2467 -0.1299
  651MPD2    C3 9636   1.431   3.116  10.812  0.4688 -0.1362 -0.8426
  651MPD2    C4 9637   1.532   3.028  10.854 -0.0866  0.5667  0.3001
  651MPD2    C5 9638   1.498   2.896  10.855  0.1620 -0.5767 -0.4050
  651MPD2     H 9639   1.227   3.135  10.761 -0.6272 -0.3230  2.0541
  651MPD2    H1 9640   1.634   3.059  10.870  0.1892  1.1002 -2.3905
  651MPD2    H2 9641   1.361   2.740  10.818 -3.5864  0.2781 -0.8687
  651MPD2    H3 9642   1.583   2.831  10.870  0.3679 -0.1901  0.1134
  651MPD2     N 9643   1.443   3.259  10.815  1.0896  0.1334 -0.2629
  651MPD2    H5 9644   1.365   3.315  10.783 -1.2817 -1.5664  2.5025
  651MPD2    N1 9645   1.145   2.887  10.755 -0.3223 -0.6101 -0.2427
  651MPD2    H7 9646   1.082   2.965  10.738 -0.6865 -0.4263  1.8842
  652TMC3    C1 9647   1.742   3.629  10.800  0.1326  0.5720  0.9047
  652TMC3    C2 9648   1.706   3.513  10.852 -0.3158  1.0182  0.6046
  652TMC3    C3 9649   1.576   3.468  10.836 -0.1876 -0.3839  0.5430
  652TMC3    C4 9650   1.646   3.705  10.739  0.3612 -0.1692 -0.3776
  652TMC3    C5 9651   1.518   3.668  10.719  0.1857  0.7548  0.4454
  652TMC3    C6 9652   1.484   3.543  10.767  0.9100 -0.0115  0.5665
  652TMC3     C 9653   1.868   3.676  10.843  0.0129 -0.9197  0.4743
  652TMC3     O 9654   1.925   3.614  10.930 -0.1228  0.0347 -0.4655
  652TMC3     H 9655   1.777   3.457  10.911 -1.5588 -0.9199  0.2668
  652TMC3    H1 9656   1.671   3.807  10.712  1.3065 -0.5197 -0.8307
  652TMC3    H2 9657   1.378   3.523  10.761  0.9566  0.3377 -1.2731
  652TMC3    C7 9658   1.418   3.765  10.674  0.0085  0.3650  0.4154
  652TMC3    C8 9659   1.555   3.321  10.872  0.1787  1.0135  0.5565
  652TMC3    O1 9660   1.332   3.719  10.598  0.3915  0.0412  0.3024
  652TMC3    O2 9661   1.649   3.269  10.932 -0.4945  0.1390 -0.4362
  653MPD2     C 9662   4.641   3.640   0.279  0.1525 -0.4008  0.2597
  653MPD2    C1 9663   4.626   3.751   0.192 -0.0463  0.2267  0.2956
  653MPD2    C2 9664   4.565   3.733   0.071  0.0242 -0.3223 -0.2624
  653MPD2    C3 9665   4.518   3.603   0.039 -0.1010 -0.2647 -0.5085
  653MPD2    C4 9666   4.522   3.499   0.127 -0.7476 -0.2024  0.0536
  653MPD2    C5 9667   4.594   3.513   0.243 -0.3671 -1.0900  0.6210
  653MPD2     H 9668   4.567   3.810  17.684  0.7761 -0.4363 -0.3483
  653MPD2    H1 9669   4.477   3.407   0.092 -1.7721  0.6537 -0.8853
  653MPD2    H2 9670   4.707   3.653   0.364 -0.3250 -0.4069  0.6292
  653MPD2    H3 9671   4.605   3.423   0.303  0.0630 -2.1014 -0.9480
  653MPD2     N 9672   4.469   3.590  17.596 -0.0087  0.2215 -0.4642
  653MPD2    H5 9673   4.474   3.673  17.537 -0.8465  0.6004 -0.0059
  653MPD2    N1 9674   4.665   3.879   0.230  0.0971  0.7023  0.5627
  653MPD2    H7 9675   4.696   3.893   0.326  2.0262  0.7688 -0.0801
  654TMC3    C1 9676   4.382   3.506  17.398  0.7554  0.2447 -0.3308
  654TMC3    C2 9677   4.301   3.615  17.374 -0.3180 -0.2601 -0.5064
  654TMC3    C3 9678   4.238   3.618  17.255 -0.1790  0.1080  0.4134
  654TMC3    C4 9679   4.374   3.395  17.311  0.3940  0.0407 -0.4965
  654TMC3    C5 9680   4.320   3.413  17.187 -0.4051 -0.0137 -0.4569
  654TMC3    C6 9681   4.256   3.527  17.155  0.0894 -0.3287 -0.0857
  654TMC3     C 9682   4.417   3.479  17.535 -0.0504 -0.1488 -0.1946
  654TMC3     O 9683   4.404   3.364  17.574 -0.3030  0.3589  0.3482
  654TMC3     H 9684   4.275   3.688  17.450  1.6030  0.7415 -0.8118
  654TMC3    H1 9685   4.442   3.319  17.347  2.2149  1.1694 -1.5418
  654TMC3    H2 9686   4.197   3.537  17.065 -1.3976  0.7115  1.0010
  654TMC3    C7 9687   4.289   3.298  17.108  0.0343 -0.5490  0.2761
  654TMC3    C8 9688   4.152   3.733  17.231  0.1527 -0.6825 -0.6473
  654TMC3    O1 9689   4.223   3.315  17.005 -0.4295 -0.3238 -0.4369
  654TMC3    O2 9690   4.098   3.788  17.328 -0.1835 -0.4019  0.8718
  655MPD2     C 9691   1.291   4.210  16.360  0.3718  0.2413 -0.4314
  655MPD2    C1 9692   1.194   4.239  16.263 -0.0680 -0.6676  0.4671
  655MPD2    C2 9693   1.187   4.149  16.151 -0.6972  0.0208  0.5135
  655MPD2    C3 9694   1.264   4.037  16.151 -0.1428 -0.0770 -0.0116
  655MPD2    C4 9695   1.365   4.013  16.248  0.8271 -0.4502  0.2050
  655MPD2    C5 9696   1.367   4.098  16.359 -0.7340 -0.0670  0.2678
  655MPD2     H 9697   1.121   4.172  16.068  1.4583 -0.5036 -1.3343
  655MPD2    H1 9698   1.432   3.928  16.244  1.1796 -0.1386 -0.3679
  655MPD2    H2 9699   1.299   4.274  16.447  0.1296  1.4176 -1.2691
  655MPD2    H3 9700   1.438   4.071  16.436 -1.2741  0.0653  0.8118
  655MPD2     N 9701   1.240   3.942  16.045 -0.0043  0.1825  0.0180
  655MPD2    H5 9702   1.290   3.855  16.051  1.1509  0.7732 -0.9949
  655MPD2    N1 9703   1.104   4.349  16.261  0.7673 -0.1788 -0.4854
  655MPD2    H7 9704   1.036   4.350  16.186  1.4004  0.5599 -1.0479
  656TMC3    C1 9705   0.978   4.527  16.333 -0.4510 -0.0573  0.2543
  656TMC3    C2 9706   0.907   4.549  16.447 -0.0879  0.7062  0.0590
  656TMC3    C3 9707   0.775   4.569  16.432 -0.2818  0.0302 -0.0775
  656TMC3    C4 9708   0.918   4.525  16.206  0.3061 -0.1588 -0.2145
  656TMC3    C5 9709   0.785   4.535  16.207 -0.3201 -0.0274 -0.3065
  656TMC3    C6 9710   0.711   4.563  16.318 -0.4293  0.4543 -0.3416
  656TMC3     C 9711   1.100   4.451  16.354  0.2211 -0.5760 -0.4249
  656TMC3     O 9712   1.158   4.467  16.457  0.5207 -0.3331  0.2595
  656TMC3     H 9713   0.952   4.570  16.543  2.2857 -2.1842 -0.4083
  656TMC3    H1 9714   0.981   4.517  16.119  1.6030 -0.6925  0.7733
  656TMC3    H2 9715   0.604   4.575  16.308 -0.3610 -0.6201 -2.3846
  656TMC3    C7 9716   0.724   4.482  16.087  0.0486 -0.3925 -0.8518
  656TMC3    C8 9717   0.691   4.539  16.541 -0.0837  0.8689 -0.0061
  656TMC3    O1 9718   0.792   4.417  16.009 -0.1411  0.2099 -0.3256
  656TMC3    O2 9719   0.574   4.527  16.506  0.0216 -0.0088 -0.0148
  657TMC3    C1 9720   4.537   3.394  14.915 -0.4630 -0.6132 -0.0978
  657TMC3    C2 9721   4.480   3.298  14.991  0.3238  1.4201 -0.2346
  657TMC3    C3 9722   4.366   3.333  15.051 -1.2744  0.0533  0.3390
  657TMC3    C4 9723   4.484   3.520  14.893  0.4527 -0.0838  0.6776
  657TMC3    C5 9724   4.372   3.548  14.960  0.1478 -0.5119  0.3816
  657TMC3    C6 9725   4.311   3.453  15.039  0.2990  0.0691 -0.3981
  657TMC3     C 9726   4.673   3.383  14.872  0.4993  0.0236 -0.4958
  657TMC3     O 9727   4.721   3.487  14.835  0.3713  0.2000 -0.1077
  657TMC3     H 9728   4.543   3.212  15.011 -0.5013  1.0624  0.7706
  657TMC3    H1 9729   4.540   3.596  14.840  0.1109 -1.1223 -1.1763
  657TMC3    H2 9730   4.229   3.489  15.101  0.7401  1.5564 -0.6799
  657TMC3    C7 9731   4.276   3.634  14.901  0.1366 -0.1211 -0.3864
  657TMC3    C8 9732   4.309   3.231  15.141  0.2389 -0.8940  0.2509
  657TMC3    O1 9733   4.182   3.665  14.967  0.0784  0.1224 -0.1482
  657TMC3    O2 9734   4.216   3.263  15.210  0.2598 -0.6025 -0.0951
  658MPD2     C 9735   1.298   3.472  15.297 -0.0664 -0.1965  0.2910
  658MPD2    C1 9736   1.293   3.603  15.332  0.4117 -0.9656  0.7463
  658MPD2    C2 9737   1.281   3.706  15.233 -0.5112  0.4462  0.5345
  658MPD2    C3 9738   1.288   3.677  15.105  0.1660  0.3978 -0.5167
  658MPD2    C4 9739   1.315   3.545  15.071  0.6903  0.6462  0.0218
  658MPD2    C5 9740   1.319   3.440  15.162  0.3405  0.4874  0.7147
  658MPD2     H 9741   1.234   3.801  15.257 -1.6103 -0.1340  0.6764
  658MPD2    H1 9742   1.338   3.521  14.968 -0.2906  1.4844 -0.3908
  658MPD2    H2 9743   1.288   3.390  15.368 -2.6209  0.1026  0.2545
  658MPD2    H3 9744   1.340   3.339  15.128  1.3001  0.4748  1.3313
  658MPD2     N 9745   1.266   3.775  15.006  0.1401 -0.0373 -0.0598
  658MPD2    H5 9746   1.256   3.870  15.040 -0.2305  0.1069 -0.5838
  658MPD2    N1 9747   1.253   3.618  15.469 -0.3471 -0.0211 -0.0610
  658MPD2    H7 9748   1.251   3.529  15.519  0.4764 -0.9784 -1.7298
  659TMC3    C1 9749   1.192   3.716  15.675 -0.5229  0.6731  0.5413
  659TMC3    C2 9750   1.220   3.820  15.764  0.1608 -0.7926 -0.1154
  659TMC3    C3 9751   1.136   3.834  15.872  0.2629 -0.1478 -0.0651
  659TMC3    C4 9752   1.079   3.633  15.690 -0.0900 -0.5781 -0.1143
  659TMC3    C5 9753   0.989   3.677  15.783 -0.0347  0.4214 -0.2280
  659TMC3    C6 9754   1.014   3.773  15.874  0.3035 -0.7359 -0.8674
  659TMC3     C 9755   1.246   3.738  15.538  0.5621  0.5196 -0.2750
  659TMC3     O 9756   1.269   3.854  15.507  0.7245 -0.1199 -0.5783
  659TMC3     H 9757   1.310   3.876  15.740 -0.7203 -0.9784 -3.8889
  659TMC3    H1 9758   1.059   3.556  15.616  0.7361 -1.3065  0.4104
  659TMC3    H2 9759   0.950   3.801  15.956 -0.5594  1.4111 -2.2817
  659TMC3    C7 9760   0.860   3.616  15.771 -0.2926  0.3333  0.1971
  659TMC3    C8 9761   1.144   3.953  15.950  0.1789  0.3283 -0.1211
  659TMC3    O1 9762   0.854   3.532  15.683 -0.9864  0.2356  0.3670
  659TMC3    O2 9763   1.056   4.036  15.929  0.3672  0.1404  0.1575
  660MPD2     C 9764   3.918   2.046  12.828 -0.1591 -0.5452  0.4074
  660MPD2    C1 9765   3.783   2.071  12.796 -0.3102 -0.7162  0.0354
  660MPD2    C2 9766   3.684   2.037  12.880  0.5269  0.1494 -0.7606
  660MPD2    C3 9767   3.716   1.988  13.002 -0.4086  0.2051  0.1737
  660MPD2    C4 9768   3.844   1.960  13.034  0.0901 -0.2227 -0.7929
  660MPD2    C5 9769   3.945   1.994  12.952  0.4046 -0.2719 -0.4974
  660MPD2     H 9770   3.582   2.058  12.850 -0.0833  1.4248  2.2222
  660MPD2    H1 9771   3.863   1.917  13.131  1.3900 -1.1795 -1.4646
  660MPD2    H2 9772   4.005   2.065  12.766  0.1327  1.3319  1.3797
  660MPD2    H3 9773   4.048   1.970  12.975 -0.2742 -0.6588  2.1817
  660MPD2     N 9774   3.619   1.954  13.101  0.5427 -0.1167 -0.3523
  660MPD2    H5 9775   3.652   1.921  13.190  2.2927 -0.0918 -0.9970
  660MPD2    N1 9776   3.757   2.131  12.666 -0.8012 -0.4276 -0.0318
  660MPD2    H7 9777   3.839   2.165  12.618 -0.7075 -1.8248 -0.8710
  661TMC3    C1 9778   3.643   2.193  12.471 -0.3196 -0.0773 -0.0838
  661TMC3    C2 9779   3.762   2.180  12.406  0.2649 -0.0182 -0.2897
  661TMC3    C3 9780   3.761   2.188  12.269 -0.5008 -0.1084 -0.2652
  661TMC3    C4 9781   3.527   2.203  12.405  0.2026  1.2779  0.6360
  661TMC3    C5 9782   3.529   2.203  12.267 -0.0150  0.1490 -0.1463
  661TMC3    C6 9783   3.644   2.205  12.194  0.5992 -1.0723  0.9862
  661TMC3     C 9784   3.632   2.138  12.604  0.1452 -0.4481  0.6546
  661TMC3     O 9785   3.529   2.083  12.636 -0.2973 -0.2934  0.0398
  661TMC3     H 9786   3.857   2.159  12.454 -0.1828 -1.8993 -0.2226
  661TMC3    H1 9787   3.433   2.210  12.459  1.0594  1.0675  2.1494
  661TMC3    H2 9788   3.647   2.210  12.086 -0.5310 -2.3320  0.8942
  661TMC3    C7 9789   3.403   2.197  12.195 -0.3983 -0.6362 -0.6639
  661TMC3    C8 9790   3.880   2.232  12.211 -0.2218  0.7908 -0.2065
  661TMC3    O1 9791   3.310   2.269  12.224 -0.0872 -0.5556 -0.1827
  661TMC3    O2 9792   3.983   2.178  12.246  0.2982 -0.0241  0.1980
  662MPD2     C 9793   4.184   2.506  17.197  0.4610 -0.1567  0.1625
  662MPD2    C1 9794   4.212   2.482  17.328  0.0036  0.4024  0.1777
  662MPD2    C2 9795   4.178   2.580  17.422  0.4220 -0.3790 -0.7180
  662MPD2    C3 9796   4.125   2.699  17.380  0.3797  0.3322 -0.2359
  662MPD2    C4 9797   4.100   2.724  17.244  0.3747 -0.2992 -0.0359
  662MPD2    C5 9798   4.132   2.622  17.160  0.0601 -0.4895 -0.4143
  662MPD2     H 9799   4.193   2.555  17.527 -0.1805  0.3117 -0.4645
  662MPD2    H1 9800   4.052   2.816  17.214 -0.3829 -0.9037 -0.6862
  662MPD2    H2 9801   4.216   2.446  17.114  1.0171  0.2899  0.0540
  662MPD2    H3 9802   4.116   2.644  17.055  1.4149  2.3465 -0.0045
  662MPD2     N 9803   4.076   2.802  17.465  0.0886 -0.5563 -0.1472
  662MPD2    H5 9804   4.025   2.876  17.418  0.8645 -0.0458 -0.1919
  662MPD2    N1 9805   4.273   2.363  17.376  0.5205 -0.5189 -0.2952
  662MPD2    H7 9806   4.277   2.358  17.478 -0.7742 -2.3945 -0.3324
  663TMC3    C1 9807   4.324   2.136  17.365  0.4525  0.5113 -0.7695
  663TMC3    C2 9808   4.297   2.143  17.498 -0.7712  0.2980  0.0841
  663TMC3    C3 9809   4.226   2.045  17.572 -0.0465  0.3548 -0.0927
  663TMC3    C4 9810   4.275   2.032  17.293  0.4975 -0.8566  0.1253
  663TMC3    C5 9811   4.189   1.952  17.360  0.5668  0.3428 -0.5604
  663TMC3    C6 9812   4.166   1.944  17.496  0.7863 -0.3992  0.1275
  663TMC3     C 9813   4.311   2.259  17.291 -0.7369 -0.2488 -0.0357
  663TMC3     O 9814   4.328   2.263  17.167 -0.4904  0.5054  0.3992
  663TMC3     H 9815   4.357   2.207  17.563  0.5094  0.8880 -1.6788
  663TMC3    H1 9816   4.276   2.024  17.185 -0.8080  0.8206  0.0001
  663TMC3    H2 9817   4.075   1.902  17.537 -0.1678  0.5505 -1.0326
  663TMC3    C7 9818   4.125   1.858  17.272  1.8382 -0.3109  0.1731
  663TMC3    C8 9819   4.151   2.106  17.677  0.7388  0.6025  0.3101
  663TMC3    O1 9820   4.102   1.887  17.153 -0.5465 -0.1598  0.0136
  663TMC3    O2 9821   4.141   2.227  17.670  0.2215  0.0321  0.2607
  664MPD2     C 9822   2.109   0.512  17.363 -0.3952  0.0079 -0.3574
  664MPD2    C1 9823   2.204   0.602  17.416 -0.1333  0.2238 -0.5096
  664MPD2    C2 9824   2.231   0.587  17.554 -0.1451 -0.1562  0.0044
  664MPD2    C3 9825   2.165   0.495  17.636 -0.2184  0.4078  0.7510
  664MPD2    C4 9826   2.082   0.404  17.576  0.2136 -0.0531 -0.2395
  664MPD2    C5 9827   2.053   0.411  17.443 -0.2683  0.6757 -0.0627
  664MPD2     H 9828   2.277   0.675  17.599 -2.6490  2.5586 -2.7182
  664MPD2    H1 9829   2.030   0.323  17.624  0.5294 -0.0467  0.1073
  664MPD2    H2 9830   2.076   0.519  17.260 -0.9035 -0.9263 -0.2646
  664MPD2    H3 9831   1.988   0.334  17.404 -0.3619  0.4247  0.5885
  664MPD2     N 9832   2.183   0.485   0.086  0.4714  0.0162 -0.2608
  664MPD2    H5 9833   2.260   0.540   0.123  0.0042  0.4666  0.0360
  664MPD2    N1 9834   2.278   0.696  17.341  0.2967  0.3613  0.2754
  664MPD2    H7 9835   2.350   0.744  17.395 -0.4464  0.9435  0.7442
  665TMC3    C1 9836   2.152   0.457   0.309 -0.3605  0.2559  0.3242
  665TMC3    C2 9837   2.113   0.377   0.412  0.0097 -0.5439  0.1422
  665TMC3    C3 9838   2.164   0.414   0.538 -0.0650 -0.1933  0.0107
  665TMC3    C4 9839   2.224   0.573   0.322  0.4329  0.4039  0.3356
  665TMC3    C5 9840   2.264   0.611   0.451  0.1571  0.4012  0.5479
  665TMC3    C6 9841   2.243   0.526   0.556  0.0521  0.1586  0.2602
  665TMC3     C 9842   2.108   0.419   0.178  0.0504  0.0892 -0.2890
  665TMC3     O 9843   2.012   0.347   0.163  0.5322 -0.4125  0.2105
  665TMC3     H 9844   2.057   0.286   0.394 -4.2086  2.0839 -0.1402
  665TMC3    H1 9845   2.234   0.647   0.243  1.1889  0.1850  0.2272
  665TMC3    H2 9846   2.292   0.531   0.653  1.4727 -2.4747 -0.3227
  665TMC3    C7 9847   2.288   0.754   0.475  0.1495 -0.3579 -0.5188
  665TMC3    C8 9848   2.078   0.395   0.652 -0.1879  0.1007 -0.2906
  665TMC3    O1 9849   2.278   0.828   0.377  0.2318  0.5596 -0.0052
  665TMC3    O2 9850   2.093   0.490   0.728 -0.4497 -0.5177  0.7728
  666TMC3    C1 9851   2.266   4.641  10.449  0.3595 -0.3600  0.3462
  666TMC3    C2 9852   2.337   4.620  10.562  0.1825  0.0489  0.1400
  666TMC3    C3 9853   2.406   0.006  10.613  0.1576 -0.0361 -0.2264
  666TMC3    C4 9854   2.262   0.045  10.388  0.3521 -0.6434  0.1408
  666TMC3    C5 9855   2.341   0.147  10.442  0.6691  0.1468 -0.2342
  666TMC3    C6 9856   2.418   0.128  10.550 -0.4559  0.0685  1.2999
  666TMC3     C 9857   2.188   4.527  10.404  0.4074 -0.5997 -0.7490
  666TMC3     O 9858   2.226   4.418  10.438 -0.4672 -0.4291  0.5468
  666TMC3     H 9859   2.335   4.526  10.614 -2.4420 -0.3637 -0.6942
  666TMC3    H1 9860   2.215   0.058  10.292  0.4170  1.2138  0.3568
  666TMC3    H2 9861   2.468   0.209  10.602  1.1827  0.4814 -0.9505
  666TMC3    C7 9862   2.361   0.273  10.365 -1.6134  0.5711  0.5576
  666TMC3    C8 9863   2.388   0.021  10.750  0.7467  0.0772  0.4472
  666TMC3    O1 9864   2.276   0.296  10.282  0.2800 -0.0065  0.9743
  666TMC3    O2 9865   2.448   0.111  10.809 -0.0419  0.0953 -0.3298
  667MPD2     C 9866   2.391   0.781  15.055  0.2650 -0.3683  0.1242
  667MPD2    C1 9867   2.425   0.652  15.076  0.6548 -0.0581  0.0714
  667MPD2    C2 9868   2.330   0.553  15.046  0.1861  0.8909  0.5378
  667MPD2    C3 9869   2.213   0.596  14.990  0.9050 -1.1040 -0.4904
  667MPD2    C4 9870   2.188   0.729  14.965 -0.7457 -0.0867  0.2931
  667MPD2    C5 9871   2.276   0.826  15.007 -0.1394  0.5282 -0.6638
  667MPD2     H 9872   2.345   0.450  15.076  0.2056  0.2864 -1.6027
  667MPD2    H1 9873   2.090   0.765  14.935 -0.2968 -0.0474 -1.1620
  667MPD2    H2 9874   2.457   0.860  15.088  0.3479 -0.4408  0.1314
  667MPD2    H3 9875   2.249   0.931  15.007  0.7197  0.7810 -4.3292
  667MPD2     N 9876   2.100   0.518  14.969  0.0905 -0.1884 -0.4509
  667MPD2    H5 9877   2.024   0.571  14.927  0.1196  0.0564 -0.1915
  667MPD2    N1 9878   2.542   0.617  15.145  0.3451  0.1018  0.0627
  667MPD2    H7 9879   2.557   0.522  15.176  2.0703  0.5830  0.7066
  668TMC3    C1 9880   2.755   0.634  15.243 -0.8861 -0.2658  0.1884
  668TMC3    C2 9881   2.863   0.720  15.268  0.0809 -0.4858  1.0436
  668TMC3    C3 9882   2.934   0.699  15.387  0.8498  0.6479  0.8416
  668TMC3    C4 9883   2.716   0.533  15.326 -0.4574 -1.1613  0.8527
  668TMC3    C5 9884   2.790   0.516  15.436  0.2645  0.2888 -0.5963
  668TMC3    C6 9885   2.899   0.597  15.470  0.0871  0.4721 -0.3783
  668TMC3     C 9886   2.647   0.700  15.173 -0.3284  0.6775 -0.1241
  668TMC3     O 9887   2.661   0.816  15.142  0.1157  0.3203 -0.1437
  668TMC3     H 9888   2.882   0.810  15.211  0.0031 -2.5665 -2.2812
  668TMC3    H1 9889   2.638   0.467  15.292 -1.2699 -0.1060  0.6657
  668TMC3    H2 9890   2.950   0.581  15.564 -0.2074  1.1986 -0.1029
  668TMC3    C7 9891   2.764   0.411  15.538  0.1691 -0.2422 -0.1664
  668TMC3    C8 9892   3.027   0.800  15.446  0.3834 -0.4008  0.7554
  668TMC3    O1 9893   2.843   0.380  15.625  0.4751 -0.1167 -0.2401
  668TMC3    O2 9894   3.075   0.784  15.557 -0.1535 -0.0893  0.2300
  669TMC3    C1 9895   1.262   0.648  14.453 -0.6475 -0.6621 -0.4672
  669TMC3    C2 9896   1.133   0.649  14.396  0.1869 -0.0871  0.1272
  669TMC3    C3 9897   1.110   0.736  14.296 -0.3966 -0.1207 -0.6490
  669TMC3    C4 9898   1.360   0.724  14.410 -0.2855  0.1677 -0.0957
  669TMC3    C5 9899   1.328   0.819  14.323 -0.7444 -0.7533 -0.9840
  669TMC3    C6 9900   1.206   0.823  14.257  0.0204  0.0383  0.3375
  669TMC3     C 9901   1.291   0.533  14.527  0.1900  0.0562  0.2352
  669TMC3     O 9902   1.222   0.434  14.501 -0.7004 -0.0463 -0.8072
  669TMC3     H 9903   1.056   0.577  14.420  1.0784 -0.5476  1.6276
  669TMC3    H1 9904   1.464   0.719  14.441 -0.0514 -1.4967 -1.1106
  669TMC3    H2 9905   1.177   0.912  14.202 -0.7541 -0.3541  0.1080
  669TMC3    C7 9906   1.426   0.914  14.277  0.3016 -0.3097 -0.1656
  669TMC3    C8 9907   0.974   0.783  14.288 -0.8626  0.2045  0.3022
  669TMC3    O1 9908   1.513   0.941  14.357 -0.2183 -0.7220 -0.0644
  669TMC3    O2 9909   0.935   0.852  14.380  0.1006 -0.1083  0.2928
  670MPD2     C 9910   4.209   3.113  13.224  0.7942 -0.0915 -0.1052
  670MPD2    C1 9911   4.271   3.159  13.338  0.7087  0.3601 -0.0162
  670MPD2    C2 9912   4.205   3.133  13.464  0.0386  0.4403  0.9107
  670MPD2    C3 9913   4.099   3.053  13.472  0.2964  0.3768 -0.1741
  670MPD2    C4 9914   4.035   3.013  13.354  0.2044  0.4588  0.6996
  670MPD2    C5 9915   4.096   3.042  13.234 -0.0999 -0.6758  0.1712
  670MPD2     H 9916   4.258   3.186  13.543 -0.4558 -0.5632  1.9167
  670MPD2    H1 9917   3.950   2.945  13.357  0.7061 -0.1216  1.7089
  670MPD2    H2 9918   4.253   3.116  13.126  1.2088  0.3135  0.0914
  670MPD2    H3 9919   4.054   2.998  13.144  0.7809  0.9181 -1.0088
  670MPD2     N 9920   4.054   3.029  13.603 -0.1811  0.6939  0.6392
  670MPD2    H5 9921   4.103   3.074  13.680 -1.1553 -1.1896  2.3694
  670MPD2    N1 9922   4.398   3.231  13.337 -0.4901  0.0324  0.6444
  670MPD2    H7 9923   4.432   3.246  13.431 -1.9772 -1.4336  1.4113
  671TMC3    C1 9924   3.902   2.947  13.765  0.4917 -0.2591  0.1868
  671TMC3    C2 9925   3.974   3.007  13.867  0.5200 -0.4509 -0.0728
  671TMC3    C3 9926   3.933   2.981  13.996  0.0392 -0.1237  0.3076
  671TMC3    C4 9927   3.793   2.872  13.796  0.2153  0.2005 -0.0989
  671TMC3    C5 9928   3.747   2.878  13.925  0.3840  0.6427 -1.0116
  671TMC3    C6 9929   3.808   2.945  14.025  0.1321 -0.6378 -0.2629
  671TMC3     C 9930   3.940   2.959  13.627  0.2382 -0.4921 -0.3377
  671TMC3     O 9931   3.868   2.898  13.553  0.2261 -0.2425 -0.1159
  671TMC3     H 9932   4.077   3.026  13.841  0.3287  0.4931 -0.1122
  671TMC3    H1 9933   3.742   2.809  13.725 -2.3684  0.2301  1.7208
  671TMC3    H2 9934   3.764   2.942  14.124  2.2999 -0.6891  0.6884
  671TMC3    C7 9935   3.692   2.747  13.955 -0.2602  0.1854  0.5379
  671TMC3    C8 9936   4.025   2.890  14.055  0.3033 -0.6921 -0.0131
  671TMC3    O1 9937   3.620   2.697  13.875 -0.2840  0.4666  0.3587
  671TMC3    O2 9938   4.054   2.792  13.990 -0.0155  0.5687  0.1872
  672MPD2     C 9939   4.586   3.049   1.154  0.6265  0.1700 -0.5307
  672MPD2    C1 9940   4.674   3.143   1.198  0.1048 -0.1021  1.1420
  672MPD2    C2 9941   4.655   3.191   1.324  0.4716 -0.1662  0.3109
  672MPD2    C3 9942   4.564   3.139   1.416 -0.6997 -0.0288 -0.7870
  672MPD2    C4 9943   4.468   3.054   1.368 -0.5673 -0.5797  0.1447
  672MPD2    C5 9944   4.477   3.016   1.237 -0.5155 -0.5303  0.3814
  672MPD2     H 9945   0.004   3.265   1.358  0.0397  0.6885 -0.6601
  672MPD2    H1 9946   4.386   3.016   1.427 -0.5116 -0.0439  0.5651
  672MPD2    H2 9947   4.581   3.010   1.053  1.4502  1.1295 -0.9408
  672MPD2    H3 9948   4.404   2.946   1.198  0.7186  0.5945 -3.9463
  672MPD2     N 9949   4.579   3.186   1.549 -0.0318  0.4034  0.0433
  672MPD2    H5 9950   4.647   3.259   1.568  0.8052 -0.9189  2.0986
  672MPD2    N1 9951   0.047   3.203   1.116 -0.6430 -0.1902 -0.1201
  672MPD2    H7 9952   0.096   3.286   1.148  0.5154 -0.3886 -1.3836
  673TMC3    C1 9953   0.220   3.205   0.962 -0.4484 -0.0052 -0.0961
  673TMC3    C2 9954   0.327   3.124   0.941  1.0968 -0.6987 -0.2015
  673TMC3    C3 9955   0.447   3.186   0.905  0.3528 -0.1485 -0.1097
  673TMC3    C4 9956   0.218   3.340   0.935 -0.4933 -0.1273 -0.0578
  673TMC3    C5 9957   0.343   3.396   0.908 -0.3755  0.3043  0.4819
  673TMC3    C6 9958   0.456   3.318   0.882  0.3278  0.4510 -0.3250
  673TMC3     C 9959   0.108   3.138   1.016  0.0311  0.3787  0.0247
  673TMC3     O 9960   0.077   3.032   0.963  0.1110  0.2541  0.3102
  673TMC3     H 9961   0.320   3.016   0.952  0.8379 -0.5825  0.8200
  673TMC3    H1 9962   0.125   3.395   0.941 -0.6202 -0.4817  1.1299
  673TMC3    H2 9963   0.553   3.362   0.866  0.0319  0.4243 -2.1776
  673TMC3    C7 9964   0.365   3.531   0.870  0.6328  0.5554 -0.4624
  673TMC3    C8 9965   0.569   3.109   0.917  0.0724  0.5275 -0.0146
  673TMC3    O1 9966   0.457   3.550   0.789 -0.1416  0.1489  0.0625
  673TMC3    O2 9967   0.654   3.111   0.827  0.6016  0.3145  0.2379
  674MPD2     C 9968   0.104   3.411   0.489  0.0119  0.6627  0.3324
  674MPD2    C1 9969   0.034   3.291   0.481  0.3712  0.3470 -0.2878
  674MPD2    C2 9970   4.663   3.263   0.587 -0.3072  0.2875  0.0892
  674MPD2    C3 9971   4.639   3.363   0.679  0.6402 -0.5741 -0.3639
  674MPD2    C4 9972   4.706   3.482   0.676 -0.3422 -0.0269  0.0629
  674MPD2    C5 9973   0.081   3.506   0.586 -0.1978  0.2525  0.4263
  674MPD2     H 9974   4.601   3.175   0.577 -0.0790  0.0345  0.8473
  674MPD2    H1 9975   4.684   3.566   0.741 -2.3770  0.2080 -0.9308
  674MPD2    H2 9976   0.185   3.420   0.418 -0.7483  1.5591 -0.4158
  674MPD2    H3 9977   0.127   3.604   0.581  0.0807 -0.1049 -3.8250
  674MPD2     N 9978   4.542   3.340   0.779  0.2840 -0.3173  0.0337
  674MPD2    H5 9979   4.482   3.262   0.755  0.7393 -0.1888 -1.5546
  674MPD2    N1 9980   0.085   3.201   0.387 -0.3681  0.2073 -0.0744
  674MPD2    H7 9981   0.132   3.245   0.309 -1.9619 -0.1758 -1.2498
  675TMC3    C1 9982   0.115   2.991   0.283  0.4698 -0.0037  0.4548
  675TMC3    C2 9983   0.046   2.875   0.255 -0.0165 -0.5128 -0.1151
  675TMC3    C3 9984   0.045   2.832   0.125  0.0273  0.3397  0.4094
  675TMC3    C4 9985   0.180   3.063   0.186 -0.3377  0.3081  0.0768
  675TMC3    C5 9986   0.174   3.014   0.052 -0.2101 -0.4803 -0.2568
  675TMC3    C6 9987   0.101   2.903   0.018 -0.8552 -0.3423 -0.1022
  675TMC3     C 9988   0.075   3.067   0.400 -0.6805  0.3611 -0.2102
  675TMC3     O 9989   0.024   3.009   0.493 -0.5253 -0.0039  0.1575
  675TMC3     H 9990   4.720   2.825   0.338 -0.0699 -0.2749 -0.0024
  675TMC3    H1 9991   0.238   3.145   0.226  1.2310 -0.4932 -0.5617
  675TMC3    H2 9992   0.098   2.858  17.609  1.6038  0.8742 -0.7239
  675TMC3    C7 9993   0.267   3.071  17.642  0.2060 -0.0371 -0.5112
  675TMC3    C8 9994   4.692   2.718   0.087 -0.4433 -0.0712 -0.0692
  675TMC3    O1 9995   0.279   3.006  17.536 -0.5013  0.5201  0.2913
  675TMC3    O2 9996   4.625   2.724  17.677 -0.3485 -0.1940 -0.1973
  676MPD2     C 9997   2.455   1.518  10.895 -0.3990 -0.3588  0.0232
  676MPD2    C1 9998   2.382   1.471  11.000  0.0173 -0.5550 -0.1454
  676MPD2    C2 9999   2.324   1.349  10.994  0.0659 -1.0225 -0.0677
  676MPD2    C310000   2.349   1.267  10.889 -0.2059 -0.1753 -0.0422
  676MPD2    C410001   2.440   1.307  10.796  0.2321  0.0790  0.0280
  676MPD2    C510002   2.492   1.428  10.798  0.2373 -0.3251 -0.0112
  676MPD2     H10003   2.279   1.309  11.084  0.3283  1.6045  1.2481
  676MPD2    H110004   2.467   1.237  10.717  1.8513  0.9156 -0.1685
  676MPD2    H210005   2.489   1.620  10.883 -0.0059 -0.5866 -0.7591
  676MPD2    H310006   2.550   1.452  10.709  0.5053 -2.3083 -0.3746
  676MPD2     N10007   2.300   1.131  10.879 -0.3180 -0.5913  0.0766
  676MPD2    H510008   2.318   1.088  10.789  0.2446  0.1737 -0.1776
  676MPD2    N110009   2.372   1.537  11.123 -0.1178  0.2388 -0.0415
  676MPD2    H710010   2.318   1.487  11.193 -1.0292  0.5916 -0.4952
  677TMC3    C110011   2.396   1.696  11.289 -0.3203 -0.1130 -0.2381
  677TMC3    C210012   2.426   1.599  11.381  0.6705 -0.3904 -0.1302
  677TMC3    C310013   2.441   1.626  11.508  0.3194 -0.6017  0.3338
  677TMC3    C410014   2.388   1.824  11.327  0.1196  0.6138 -0.3403
  677TMC3    C510015   2.398   1.855  11.466  0.0348 -0.4590 -0.1770
  677TMC3    C610016   2.421   1.752  11.556  0.9266 -0.5199  0.2225
  677TMC3     C10017   2.414   1.666  11.151 -0.1064  0.0947 -1.2368
  677TMC3     O10018   2.447   1.754  11.069 -0.2850  0.1100 -0.0911
  677TMC3     H10019   2.459   1.502  11.345 -1.1804 -0.0917 -2.6695
  677TMC3    H110020   2.377   1.911  11.263 -1.3819 -0.1161 -1.0575
  677TMC3    H210021   2.460   1.778  11.653  1.7031  0.5091 -0.3582
  677TMC3    C710022   2.471   1.979  11.490 -0.7226  0.5723 -0.0162
  677TMC3    C810023   2.500   1.525  11.590 -0.1772 -0.1849  0.1890
  677TMC3    O110024   2.450   2.049  11.588  0.1115 -0.4830 -0.5605
  677TMC3    O210025   2.569   1.438  11.541 -0.4020 -0.0943  0.4921
  678MPD2     C10026   3.209   0.968   1.730  0.0178  0.3031  0.6471
  678MPD2    C110027   3.204   0.987   1.593  0.0743 -0.5042 -0.0606
  678MPD2    C210028   3.095   1.064   1.546  0.1465  0.2754  0.2682
  678MPD2    C310029   2.997   1.125   1.624  0.1322  0.0505 -1.0969
  678MPD2    C410030   3.005   1.094   1.758  0.4286 -0.2521  0.5105
  678MPD2    C510031   3.109   1.018   1.810 -0.2390  0.1584  0.4254
  678MPD2     H10032   3.082   1.072   1.438 -0.3982 -0.9066  0.2422
  678MPD2    H110033   2.930   1.136   1.824 -0.9251  0.3224 -1.4071
  678MPD2    H210034   3.289   0.916   1.783 -1.0060 -0.3509  1.5464
  678MPD2    H310035   3.107   0.997   1.916 -0.2074 -0.6249  0.2721
  678MPD2     N10036   2.894   1.198   1.564 -0.4458  0.0560  0.3972
  678MPD2    H510037   2.901   1.218   1.465 -0.1620  1.9344  0.7949
  678MPD2    N110038   3.308   0.955   1.501  0.1762  0.6201  0.7249
  678MPD2    H710039   3.296   0.986   1.405 -2.1072  0.8699  1.1085
  679TMC3    C110040   3.699   0.734   1.351 -0.0212 -0.4128 -0.3369
  679TMC3    C210041   3.615   0.770   1.456 -0.4608 -0.2429  0.0229
  679TMC3    C310042   3.532   0.884   1.440  0.2970  0.2582  0.2004
  679TMC3    C410043   3.709   0.813   1.238  1.3689  0.5429 -0.2693
  679TMC3    C510044   3.644   0.934   1.243  0.4185  1.5649  0.4202
  679TMC3    C610045   3.547   0.971   1.336 -0.3156 -0.1092 -0.0064
  679TMC3     C10046   3.797   0.625   1.382 -0.5587 -0.8518  0.0137
  679TMC3     O10047   3.910   0.646   1.344 -0.5080 -0.5651 -0.4204
  679TMC3     H10048   3.606   0.704   1.542  0.1334 -0.6745 -0.2502
  679TMC3    H110049   3.764   0.771   1.155 -1.4576 -2.3671 -0.6942
  679TMC3    H210050   3.503   1.070   1.340  1.8250  0.8199  0.5809
  679TMC3    C710051   3.684   1.034   1.149 -0.6215  0.2031 -0.0907
  679TMC3    C810052   3.433   0.896   1.541  0.0106  0.0829 -0.4023
  679TMC3    O110053   3.623   1.137   1.138  0.3460 -0.1719 -0.3020
  679TMC3    O210054   3.471   0.853   1.652 -0.0852  0.0336  0.1906
  680MPD2     C10055   4.308   0.222  13.442 -0.7252 -0.2471  0.0073
  680MPD2    C110056   4.187   0.174  13.491 -0.3315 -0.8006 -0.1924
  680MPD2    C210057   4.095   0.266  13.516 -0.5920 -0.2927  0.0474
  680MPD2    C310058   4.119   0.402  13.526  0.3738  0.3948 -0.0041
  680MPD2    C410059   4.244   0.444  13.495  0.2973  0.4147 -0.4478
  680MPD2    C510060   4.333   0.354  13.445  0.3004  0.4371  0.2156
  680MPD2     H10061   3.999   0.231  13.554 -1.5519 -0.2726 -2.3684
  680MPD2    H110062   4.281   0.546  13.501 -0.7600  0.7704 -0.0748
  680MPD2    H210063   4.392   0.157  13.425 -1.2080 -1.1022  0.8633
  680MPD2    H310064   4.425   0.401  13.412 -1.0329  1.3924 -2.1114
  680MPD2     N10065   4.029   0.494  13.583  1.0625  0.2430  0.0317
  680MPD2    H510066   4.066   0.585  13.610 -1.7053  2.1153 -2.5249
  680MPD2    N110067   4.154   0.036  13.509 -0.1919 -0.2618 -1.0694
  680MPD2    H710068   4.060   0.014  13.542  1.2848 -1.7064  2.1925
  681TMC3    C110069   4.167   4.519  13.459  0.8738 -0.9165  0.4299
  681TMC3    C210070   4.084   4.472  13.557  0.6086 -0.1803  0.3184
  681TMC3    C310071   4.007   4.355  13.541 -0.3550 -0.2995  0.5732
  681TMC3    C410072   4.201   4.440  13.357 -0.3197  0.1587 -0.3076
  681TMC3    C510073   4.136   4.319  13.348  0.1898  0.0290 -0.2847
  681TMC3    C610074   4.035   4.278  13.430  0.4116  0.9381  0.1432
  681TMC3     C10075   4.240   4.651  13.475  0.1626 -0.4629 -0.0629
  681TMC3     O10076   4.356   4.650  13.436 -0.4698  0.3887 -0.4167
  681TMC3     H10077   4.066   4.535  13.643 -1.7986  1.3345 -1.3096
  681TMC3    H110078   4.263   4.490  13.283 -0.4095  0.7294  0.0031
  681TMC3    H210079   4.006   4.176  13.408 -2.3742  1.8843 -0.5930
  681TMC3    C710080   4.166   4.226  13.239 -0.1164 -1.2863 -0.1756
  681TMC3    C810081   3.896   4.329  13.629 -0.2717 -0.1385 -0.0098
  681TMC3    O110082   4.082   4.147  13.197 -0.4109 -0.2871  0.5453
  681TMC3    O210083   3.799   4.261  13.592  0.0331  0.4961  0.4087
  682MPD2     C10084   1.808   1.496  10.430 -0.4595  0.1181  0.1644
  682MPD2    C110085   1.779   1.376  10.491 -0.6035 -0.2531  0.6038
  682MPD2    C210086   1.666   1.365  10.578  0.2762 -0.1889  0.4438
  682MPD2    C310087   1.594   1.480  10.614 -0.1004 -0.6543  0.2679
  682MPD2    C410088   1.619   1.594  10.546  0.3977  0.6739 -0.0421
  682MPD2    C510089   1.725   1.603  10.458 -0.0106  0.5112  0.5976
  682MPD2     H10090   1.649   1.266  10.620  2.3475 -0.8475 -0.2887
  682MPD2    H110091   1.571   1.687  10.576  1.9771  1.3508  0.3566
  682MPD2    H210092   1.886   1.516  10.358  0.6859  0.5348  1.5213
  682MPD2    H310093   1.741   1.699  10.409  0.5829 -0.4151 -1.0139
  682MPD2     N10094   1.504   1.489  10.720 -0.1803  0.2600 -0.1562
  682MPD2    H510095   1.478   1.582  10.752  2.3808  0.9093  0.0075
  682MPD2    N110096   1.850   1.257  10.457  0.1310  0.2279 -0.0313
  682MPD2    H710097   1.805   1.173  10.492  2.2042 -0.1317  1.7860
  683TMC3    C110098   1.295   1.535  11.079  0.0817 -0.0365  0.1731
  683TMC3    C210099   1.198   1.440  11.126 -0.1999 -0.6593 -0.3476
  683TMC3    C310100   1.199   1.326  11.049 -0.3539 -0.3615 -0.6662
  683TMC3    C410101   1.373   1.516  10.968  0.0170 -0.2032 -0.3616
  683TMC3    C510102   1.351   1.404  10.889  0.0924 -0.0454 -0.2421
  683TMC3    C610103   1.274   1.302  10.934 -0.7846  0.3510  1.1427
  683TMC3     C10104   1.323   1.633  11.187 -0.8082 -0.3027  0.6297
  683TMC3     O10105   1.287   1.606  11.301  0.1793  0.1810  0.0110
  683TMC3     H10106   1.138   1.458  11.214  0.5418  0.5890 -0.0936
  683TMC3    H110107   1.433   1.592  10.919 -0.1019 -1.2930 -2.1869
  683TMC3    H210108   1.276   1.199  10.901  0.9793  1.0142 -0.8281
  683TMC3    C710109   1.434   1.382  10.771 -0.1097  0.4726  0.6537
  683TMC3    C810110   1.172   1.207  11.129  0.3752  0.3032 -0.2101
  683TMC3    O110111   1.421   1.266  10.735 -0.2296  0.1924 -0.3328
  683TMC3    O210112   1.105   1.118  11.078 -0.2201  0.3864  0.1633
  684MPD2     C10113   4.209   0.944  16.908  0.1385  0.4344 -0.5114
  684MPD2    C110114   4.212   1.001  16.784 -0.1435 -0.2021 -0.2907
  684MPD2    C210115   4.156   1.125  16.763  0.4293 -0.1020 -0.3265
  684MPD2    C310116   4.110   1.198  16.864 -0.0406  0.4747 -0.2681
  684MPD2    C410117   4.117   1.146  16.994  0.2388  0.3749 -0.0614
  684MPD2    C510118   4.156   1.015  17.010 -0.2481  0.0395 -0.1990
  684MPD2     H10119   4.156   1.160  16.660  0.2798  1.6854  0.2811
  684MPD2    H110120   4.090   1.204  17.082  1.2602  1.8610 -0.7387
  684MPD2    H210121   4.240   0.841  16.916 -2.2829 -0.2631 -0.4108
  684MPD2    H310122   4.159   0.973  17.109 -1.0696 -1.2086 -0.7132
  684MPD2     N10123   4.082   1.335  16.838 -0.4899  0.8592  0.3101
  684MPD2    H510124   4.095   1.388  16.923 -1.3598  2.8425 -0.8001
  684MPD2    N110125   4.256   0.914  16.677  0.3607 -0.4176 -0.1968
  684MPD2    H710126   4.293   0.825  16.708 -0.6730 -0.5861  0.5967
  685TMC3    C110127   4.266   0.824  16.455 -0.4967 -0.4717  0.3244
  685TMC3    C210128   4.283   0.862  16.326 -0.4990  0.6618 -0.0989
  685TMC3    C310129   4.298   0.765  16.233  0.2348 -0.1247  0.0913
  685TMC3    C410130   4.273   0.693  16.495  0.4299  0.4292 -0.8651
  685TMC3    C510131   4.292   0.598  16.401 -0.2182  0.6432 -0.8040
  685TMC3    C610132   4.304   0.629  16.265  0.6577 -0.0250  0.0103
  685TMC3     C10133   4.226   0.938  16.541  0.3637 -0.2239 -0.0626
  685TMC3     O10134   4.210   1.044  16.479  0.6238 -0.5163  0.3304
  685TMC3     H10135   4.280   0.965  16.290  0.1972  0.8033  0.2524
  685TMC3    H110136   4.285   0.663  16.599 -0.9659  1.6753 -0.3479
  685TMC3    H210137   4.314   0.568  16.176  2.7474 -0.9432  0.8552
  685TMC3    C710138   4.316   0.460  16.440 -0.3612  0.0141  0.1059
  685TMC3    C810139   4.296   0.804  16.093  0.1958  0.4167 -0.8375
  685TMC3    O110140   4.283   0.430  16.552  0.1570  0.1864 -0.0252
  685TMC3    O210141   4.345   0.913  16.074  0.4138 -0.5002 -0.0605
  686MPD2     C10142   0.589   0.684  15.495 -0.0048 -0.4111 -0.0425
  686MPD2    C110143   0.560   0.601  15.603 -0.2355 -0.4903  0.1594
  686MPD2    C210144   0.599   0.473  15.607 -0.0560  0.1107  0.2952
  686MPD2    C310145   0.674   0.422  15.509  1.0268  0.6897 -0.0173
  686MPD2    C410146   0.727   0.506  15.409  0.2181  0.4628 -0.0645
  686MPD2    C510147   0.679   0.637  15.401 -0.2821 -0.5708 -0.3051
  686MPD2     H10148   0.572   0.413  15.693 -0.7155  0.3471  0.2489
  686MPD2    H110149   0.805   0.468  15.344 -0.3362 -1.9624  0.6765
  686MPD2    H210150   0.554   0.786  15.499 -0.1236 -0.4452 -0.2221
  686MPD2    H310151   0.721   0.700  15.323  1.7856 -0.1121  1.1750
  686MPD2     N10152   0.726   0.285  15.517  0.1677  0.5152  0.1297
  686MPD2    H510153   0.811   0.262  15.466  0.1398  1.0284 -0.1467
  686MPD2    N110154   0.483   0.665  15.699 -0.1167 -0.2791  0.0560
  686MPD2    H710155   0.449   0.759  15.678  1.1528  0.1513 -0.0925
  687TMC3    C110156   0.714   0.105  15.674 -0.4286 -0.4827  0.0172
  687TMC3    C210157   0.619   0.057  15.756  0.4538  0.0024  0.1399
  687TMC3    C310158   0.637   0.084  15.891  0.5812 -0.6841 -0.0949
  687TMC3    C410159   0.836   0.161  15.716 -0.1583  0.4325  0.0920
  687TMC3    C510160   0.849   0.177  15.853 -0.0876  0.0822 -0.4318
  687TMC3    C610161   0.749   0.146  15.941  0.1576 -0.1913  0.2716
  687TMC3     C10162   0.647   0.188  15.578 -0.2611  0.2974 -0.4154
  687TMC3     O10163   0.527   0.191  15.597  0.3811  0.3537 -0.0618
  687TMC3     H10164   0.539   4.713  15.725 -0.7663  1.4370  0.2496
  687TMC3    H110165   0.912   0.196  15.648  1.1381  0.4960  1.5709
  687TMC3    H210166   0.756   0.171  16.046 -1.7445  0.5344  0.2168
  687TMC3    C710167   0.956   0.250  15.914  1.1514 -0.7685 -0.0573
  687TMC3    C810168   0.511   0.122  15.955  0.0199 -0.2733  0.0887
  687TMC3    O110169   0.936   0.291  16.026  0.3581 -0.3443 -0.4232
  687TMC3    O210170   0.519   0.124  16.078 -0.0900  0.0704  0.0017
  688MPD2     C10171   0.160   4.613  17.585 -0.1015 -0.1627 -0.4600
  688MPD2    C110172   0.216   4.495  17.637  0.5245  0.0980 -1.4216
  688MPD2    C210173   0.335   4.449  17.584 -0.5236  0.4427 -0.0587
  688MPD2    C310174   0.407   4.517  17.486  0.4685  0.5616  0.0101
  688MPD2    C410175   0.355   4.639  17.439  0.8908  0.0366 -0.3920
  688MPD2    C510176   0.234   4.672  17.486 -0.5031  0.3113  0.5327
  688MPD2     H10177   0.381   4.362  17.631 -0.3478  0.0792 -0.9005
  688MPD2    H110178   0.390   4.693  17.352  1.8678 -0.9497 -0.6100
  688MPD2    H210179   0.068   4.655  17.626 -0.0135  1.2139 -1.6970
  688MPD2    H310180   0.183   0.030  17.434 -1.2868  0.4151  1.4341
  688MPD2     N10181   0.528   4.477  17.432 -0.3588  0.6014  0.4247
  688MPD2    H510182   0.575   4.534  17.363 -1.3894  1.3062  0.3068
  688MPD2    N110183   0.160   4.424   0.057  0.2364 -0.3305 -0.6354
  688MPD2    H710184   0.206   4.336   0.081  0.9933  0.3240  0.3102
  689TMC3    C110185   0.003   4.346   0.206 -0.8277  0.1820  0.4647
  689TMC3    C210186   4.705   4.370   0.338 -0.0590 -0.0239 -0.0541
  689TMC3    C310187   4.675   4.260   0.413 -0.4852  0.2410 -0.2802
  689TMC3    C410188   4.716   4.226   0.144 -0.5882  0.0088  0.1203
  689TMC3    C510189   4.670   4.119   0.214 -0.4832 -0.6462 -0.8321
  689TMC3    C610190   4.643   4.136   0.353  0.9092 -0.3980  0.1253
  689TMC3     C10191   0.045   4.455   0.125  0.4592  0.2338  0.6041
  689TMC3     O10192   4.692   4.543   0.097  0.3316  0.0439  0.1908
  689TMC3     H10193   0.013   4.469   0.370  1.0766 -0.3168 -0.2219
  689TMC3    H110194   0.012   4.217   0.038  1.0418  0.0396  0.3993
  689TMC3    H210195   4.601   4.055   0.412 -0.6219  0.9978  0.9424
  689TMC3    C710196   4.653   3.993   0.150  0.2311  0.3539  0.4196
  689TMC3    C810197   4.699   4.254   0.555 -0.1301 -0.7261 -0.3248
  689TMC3    O110198   4.670   3.997   0.032 -0.7409  0.4442  0.2974
  689TMC3    O210199   4.632   4.176   0.627 -0.1079  0.2520 -0.6816
  690MPD2     C10200   2.076   1.635  15.707  0.1235  0.3900 -0.2239
  690MPD2    C110201   2.144   1.518  15.731 -0.2020  0.1517 -0.4850
  690MPD2    C210202   2.282   1.521  15.725  0.3085 -1.1593  0.0942
  690MPD2    C310203   2.345   1.633  15.673  0.3151 -0.3766  0.5559
  690MPD2    C410204   2.272   1.748  15.645  0.2379 -0.2856 -0.3000
  690MPD2    C510205   2.138   1.744  15.662 -0.4351 -0.2694  0.1130
  690MPD2     H10206   2.323   1.425  15.755 -0.0116 -1.2775  0.1515
  690MPD2    H110207   2.317   1.836  15.600 -1.5023 -1.0052 -3.4978
  690MPD2    H210208   1.968   1.644  15.719  0.1375  0.4322 -0.1348
  690MPD2    H310209   2.079   1.833  15.645 -1.5344 -0.9560  0.2806
  690MPD2     N10210   2.486   1.640  15.643  0.4809 -0.5123  0.2724
  690MPD2    H510211   2.521   1.713  15.582  0.9954 -0.4406  0.6497
  690MPD2    N110212   2.079   1.392  15.760 -0.8256  0.5013 -0.0493
  690MPD2    H710213   2.140   1.311  15.752  1.1091  2.0999 -1.5422
  691TMC3    C110214   1.898   1.243  15.794 -0.2124  0.0118 -0.2934
  691TMC3    C210215   1.781   1.227  15.852  0.4921  1.0559  0.8914
  691TMC3    C310216   1.720   1.105  15.847  0.2323 -0.4476 -0.5806
  691TMC3    C410217   1.966   1.142  15.730  0.5392 -0.8240  0.0026
  691TMC3    C510218   1.899   1.021  15.710  0.8501 -0.0437  0.3401
  691TMC3    C610219   1.778   1.003  15.769 -0.1758 -0.3901  0.1280
  691TMC3     C10220   1.947   1.384  15.795 -0.5243 -0.1838 -0.1638
  691TMC3     O10221   1.866   1.470  15.825 -0.0813  0.2682 -0.2543
  691TMC3     H10222   1.733   1.312  15.899 -2.1348  0.4449 -0.6608
  691TMC3    H110223   2.061   1.160  15.681  0.3781  0.1247  0.0332
  691TMC3    H210224   1.723   0.910  15.761  0.7021 -0.9099  0.1967
  691TMC3    C710225   1.926   0.955  15.582  0.6034  0.2787 -0.0143
  691TMC3    C810226   1.579   1.085  15.888  0.0744  0.6138  0.3508
  691TMC3    O110227   2.027   0.982  15.523 -0.0704  0.3158 -0.4343
  691TMC3    O210228   1.539   0.972  15.883 -0.6736 -0.3050  0.5663
  692TMC3    C110229   4.017   2.590  15.979  0.0432 -0.2235 -0.1749
  692TMC3    C210230   4.105   2.633  16.073 -0.7613  0.9128  0.1435
  692TMC3    C310231   4.186   2.541  16.143  1.0495 -0.0354 -0.2082
  692TMC3    C410232   4.003   2.456  15.950 -0.2228 -0.5116  0.2533
  692TMC3    C510233   4.086   2.367  16.009 -0.0593 -0.0805  0.0088
  692TMC3    C610234   4.174   2.410  16.112 -0.8610 -0.6507 -0.2715
  692TMC3     C10235   3.895   2.665  15.971  0.4376  0.8001  1.1918
  692TMC3     O10236   3.785   2.611  15.965 -0.0514  0.4046 -0.4482
  692TMC3     H10237   4.132   2.738  16.071 -1.8160  1.0767 -4.5627
  692TMC3    H110238   3.939   2.431  15.866  1.7807 -2.2517 -0.7853
  692TMC3    H210239   4.243   2.338  16.156 -1.1495 -1.0482 -0.4629
  692TMC3    C710240   4.084   2.219  15.990  0.0635  0.6755 -0.7157
  692TMC3    C810241   4.178   2.559  16.289  0.3045  1.2099 -0.1340
  692TMC3    O110242   4.068   2.177  15.876  0.0894 -0.2172  0.3345
  692TMC3    O210243   4.207   2.468  16.365 -0.3100  0.1126 -0.2183
  693MPD2     C10244   3.423   0.285  10.857  0.4836 -0.2911 -0.3500
  693MPD2    C110245   3.370   0.163  10.893  0.8309  0.3977  0.5236
  693MPD2    C210246   3.432   0.049  10.847 -0.2801 -0.2832 -0.1964
  693MPD2    C310247   3.546   0.044  10.767 -0.8871  0.1467 -0.7928
  693MPD2    C410248   3.613   0.166  10.745  0.1107 -0.1714  0.2974
  693MPD2    C510249   3.552   0.280  10.796 -0.5078 -0.3446  0.4066
  693MPD2     H10250   3.388   4.680  10.887  0.8360 -1.4190 -1.5394
  693MPD2    H110251   3.705   0.171  10.688 -0.2295 -1.5961 -0.3666
  693MPD2    H210252   3.379   0.380  10.883 -3.7339 -1.8194 -1.8768
  693MPD2    H310253   3.608   0.369  10.768  1.4072 -2.0222 -1.0606
  693MPD2     N10254   3.615   4.646  10.737  0.0331 -0.9209 -0.4775
  693MPD2    H510255   3.695   4.653  10.675  1.1662 -1.6006  0.8959
  693MPD2    N110256   3.240   0.163  10.947 -0.2935 -0.4438  0.1252
  693MPD2    H710257   3.202   0.257  10.955  0.2923  0.0630 -3.0515
  694TMC3    C110258   3.021   0.112  11.004  0.4297  0.1348  0.0346
  694TMC3    C210259   2.914   0.036  10.960  0.0670  0.4374 -0.0913
  694TMC3    C310260   2.802   0.025  11.043  0.0321  0.9523 -0.4655
  694TMC3    C410261   3.014   0.167  11.132 -0.0756 -0.7156  0.6620
  694TMC3    C510262   2.904   0.138  11.216 -0.0509 -0.1141 -0.0930
  694TMC3    C610263   2.795   0.083  11.167 -0.5925  0.2797 -0.7636
  694TMC3     C10264   3.152   0.066  10.956  0.1479 -0.1625  0.0981
  694TMC3     O10265   3.162   4.669  10.934  0.9454  0.8663 -0.8516
  694TMC3     H10266   2.919   4.694  10.873  0.4167  0.5530 -0.1587
  694TMC3    H110267   3.099   0.216  11.178 -0.0397 -2.0169  1.9863
  694TMC3    H210268   2.707   0.079  11.230  0.5734 -0.1834  0.8198
  694TMC3    C710269   2.930   0.149  11.354  0.2829  1.3342 -0.2477
  694TMC3    C810270   2.695   4.648  11.014  0.2082 -0.2180 -0.6387
  694TMC3    O110271   3.020   0.226  11.375 -0.1544 -0.2554 -0.4233
  694TMC3    O210272   2.603   4.651  11.093  0.0909 -0.4677  0.0174
  695MPD2     C10273   4.273   2.051  13.742  0.2008  0.0320 -0.1868
  695MPD2    C110274   4.207   2.105  13.855  0.0365  0.1729  0.0706
  695MPD2    C210275   4.072   2.124  13.855  0.0582  1.0050 -0.0751
  695MPD2    C310276   3.995   2.082  13.745  0.0429  0.3942 -0.0626
  695MPD2    C410277   4.062   2.021  13.637  0.3525 -0.3798 -0.4300
  695MPD2    C510278   4.199   2.014  13.634 -0.1155  0.5671  0.1339
  695MPD2     H10279   4.031   2.159  13.949  0.6254  2.1991 -0.2783
  695MPD2    H110280   4.009   1.968  13.558  0.4212  1.5093 -1.7684
  695MPD2    H210281   4.380   2.036  13.737  0.3992  1.1313  0.7046
  695MPD2    H310282   4.253   1.964  13.554 -1.6337 -2.5602  1.0455
  695MPD2     N10283   3.855   2.090  13.758 -0.8976  0.5271  0.1554
  695MPD2    H510284   3.807   2.118  13.842 -1.3863  0.9963 -0.2772
  695MPD2    N110285   4.272   2.146  13.970 -0.1788 -0.0780  0.4630
  695MPD2    H710286   4.217   2.174  14.051 -1.2995  1.6785 -0.8926
  696TMC3    C110287   3.626   2.070  13.691  0.0284 -0.0606 -0.5148
  696TMC3    C210288   3.595   2.089  13.814 -0.0742 -0.4953  0.5378
  696TMC3    C310289   3.485   2.159  13.844 -0.3276  0.6980 -0.7494
  696TMC3    C410290   3.540   2.095  13.584 -0.3415 -0.1593 -0.2842
  696TMC3    C510291   3.433   2.174  13.613  0.4825  0.2447 -0.7968
  696TMC3    C610292   3.403   2.200  13.741  0.1805  0.4812  0.2043
  696TMC3     C10293   3.768   2.069  13.656 -0.2894  0.6278  0.0409
  696TMC3     O10294   3.788   2.049  13.539 -0.2268  0.2356  0.7518
  696TMC3     H10295   3.647   2.027  13.887  0.0904 -1.7427 -0.6449
  696TMC3    H110296   3.571   2.086  13.480  0.0178 -0.7905 -0.1254
  696TMC3    H210297   3.306   2.245  13.759 -0.3852 -0.9962  0.8718
  696TMC3    C710298   3.430   2.290  13.522  0.0679  0.5703 -0.0731
  696TMC3    C810299   3.498   2.270  13.935 -0.1405 -0.3384 -0.0475
  696TMC3    O110300   3.446   2.266  13.405  0.2271 -0.3067  0.2658
  696TMC3    O210301   3.429   2.367  13.915 -0.2235 -0.1031 -0.1421
  697MPD2     C10302   3.399   4.232  15.782  0.1206 -0.3746  0.2553
  697MPD2    C110303   3.438   4.184  15.659  0.1648  0.0833 -0.0701
  697MPD2    C210304   3.500   4.271  15.564  1.1489  0.4616 -0.4087
  697MPD2    C310305   3.524   4.402  15.599 -0.2436 -0.1108  0.0976
  697MPD2    C410306   3.489   4.447  15.721  0.0970  0.0849  0.2663
  697MPD2    C510307   3.424   4.364  15.811 -0.3210 -0.4207 -0.3974
  697MPD2     H10308   3.533   4.229  15.470 -1.5160  1.3795 -1.7245
  697MPD2    H110309   3.507   4.551  15.743 -0.5392  0.7522 -2.3516
  697MPD2    H210310   3.336   4.170  15.846  1.1489  0.7042  2.2899
  697MPD2    H310311   3.390   4.407  15.904  0.9186  1.7447 -0.9455
  697MPD2     N10312   3.592   4.491  15.508  0.2243  0.2898 -0.0421
  697MPD2    H510313   3.611   4.454  15.416 -0.3147 -0.1866  0.0374
  697MPD2    N110314   3.432   4.050  15.617 -0.1603 -0.2048 -0.2112
  697MPD2    H710315   3.453   4.031  15.520  0.3631 -2.5568  0.3615
  698TMC3    C110316   3.724   4.665  15.422  0.2127 -0.0412  0.5020
  698TMC3    C210317   3.732   0.081  15.416  0.2910  0.5504  0.4944
  698TMC3    C310318   3.798   0.133  15.308  0.2935 -0.5669 -0.2254
  698TMC3    C410319   3.786   4.577  15.336  0.5192 -0.0696  0.5219
  698TMC3    C510320   3.851   4.632  15.232  1.0655 -0.1687 -0.0819
  698TMC3    C610321   3.856   0.044  15.213  0.8776  0.1337 -0.0493
  698TMC3     C10322   3.642   4.619  15.531 -0.3024 -0.5734  0.2162
  698TMC3     O10323   3.623   4.698  15.621 -0.0381 -0.1223  0.0318
  698TMC3     H10324   3.663   0.143  15.472 -0.8467  0.1374 -0.4575
  698TMC3    H110325   3.783   4.469  15.340 -1.9046  0.0220  0.7702
  698TMC3    H210326   3.900   0.073  15.118  1.8686  0.3347  0.4760
  698TMC3    C710327   3.843   4.554  15.111 -0.0892  0.0102  0.7198
  698TMC3    C810328   3.749   0.256  15.251  0.2033 -0.0648  0.4584
  698TMC3    O110329   3.773   4.607  15.026  0.1962 -0.4971  0.0293
  698TMC3    O210330   3.634   0.288  15.284  0.2373  0.3620  0.2225
  699TMC3    C110331   3.415   1.935  13.210  0.5876 -0.1828 -0.0508
  699TMC3    C210332   3.456   1.845  13.299 -1.1368 -0.5686 -0.0132
  699TMC3    C310333   3.378   1.828  13.413  0.2133  0.0748 -0.2577
  699TMC3    C410334   3.315   2.023  13.239  0.2182  0.5517 -0.6284
  699TMC3    C510335   3.227   2.001  13.345  0.5727 -0.2968 -0.1564
  699TMC3    C610336   3.260   1.905  13.438  0.3470 -1.0579  0.2311
  699TMC3     C10337   3.485   1.965  13.082 -0.1204  0.5337  0.6713
  699TMC3     O10338   3.416   1.991  12.982 -0.3250  0.6267 -0.0256
  699TMC3     H10339   3.535   1.777  13.270 -2.7403 -2.4849  0.1460
  699TMC3    H110340   3.309   2.109  13.173 -2.6161 -0.0356 -1.1428
  699TMC3    H210341   3.193   1.891  13.522 -1.3881 -2.8852 -1.4621
  699TMC3    C710342   3.152   2.104  13.398  0.2976  0.1149  0.1211
  699TMC3    C810343   3.433   1.765  13.530  0.4016  0.5365 -0.3275
  699TMC3    O110344   3.131   2.103  13.518 -0.2316  0.7020  0.2091
  699TMC3    O210345   3.353   1.743  13.619  0.1415  0.2184 -0.1666
  700TMC3    C110346   2.742   0.026   0.080  1.1902  0.0887 -0.2330
  700TMC3    C210347   2.791   4.621   0.053 -0.0012 -0.4353 -0.0530
  700TMC3    C310348   2.922   4.593   0.073 -0.4540  0.2708  0.2083
  700TMC3    C410349   2.830   0.115   0.129  0.5193  0.1235  0.1447
  700TMC3    C510350   2.956   0.084   0.163  0.1835 -0.4965  0.1901
  700TMC3    C610351   3.002   4.682   0.124 -0.0394 -0.6460 -0.7597
  700TMC3     C10352   2.647   0.078  17.677 -0.2745 -0.3510  0.1557
  700TMC3     O10353   2.545   0.001  17.661 -0.1282 -0.5188 -0.4998
  700TMC3     H10354   2.734   4.547  17.688  0.3577 -1.6637  1.2449
  700TMC3    H110355   2.779   0.210   0.140  0.8959  0.3844 -0.4094
  700TMC3    H210356   3.108   4.661   0.139  0.0141 -0.3923 -0.7782
  700TMC3    C710357   3.042   0.177   0.239 -0.4433  0.1524 -0.0374
  700TMC3    C810358   2.983   4.484  17.689  0.0142 -0.0416 -0.4034
  700TMC3    O110359   3.163   0.145   0.236 -0.0294 -0.1184 -0.1439
  700TMC3    O210360   3.100   4.496  17.663  0.6628  0.2288  0.7208
  701TMC3    C110361   3.036   3.112  15.516  0.4679  0.7908  0.4259
  701TMC3    C210362   3.029   3.116  15.378 -0.2411 -0.0567  0.2774
  701TMC3    C310363   3.066   3.229  15.318 -0.3458 -0.1686 -0.2188
  701TMC3    C410364   3.074   3.226  15.583 -0.5848 -0.1106  0.3632
  701TMC3    C510365   3.116   3.338  15.520  0.6186 -0.0840  0.2443
  701TMC3    C610366   3.109   3.336  15.386 -0.3970  0.1231 -0.3557
  701TMC3     C10367   2.956   3.022  15.606  0.4348 -0.0196 -0.0708
  701TMC3     O10368   2.982   3.020  15.724  0.4053 -0.2230  0.0844
  701TMC3     H10369   2.999   3.026  15.326 -1.4639 -0.4250  1.6011
  701TMC3    H110370   3.067   3.226  15.691 -1.6931  0.8487  0.2890
  701TMC3    H210371   3.131   3.435  15.347  0.6317 -0.0464 -0.2204
  701TMC3    C710372   3.104   3.467  15.586 -0.0270  0.8102  0.9259
  701TMC3    C810373   3.062   3.241  15.170 -0.7202  0.1129  0.1356
  701TMC3    O110374   3.184   3.552  15.546 -1.1324  0.2978 -0.5164
  701TMC3    O210375   3.118   3.339  15.125  0.2148  0.2224 -0.1922
  702MPD2     C10376   2.698   0.718  10.670 -0.2280 -0.1570  0.5109
  702MPD2    C110377   2.605   0.800  10.617 -0.4951 -0.1695 -0.4107
  702MPD2    C210378   2.649   0.914  10.547  0.1302 -0.0362 -0.2260
  702MPD2    C310379   2.779   0.942  10.528  0.1948  0.0520  0.7636
  702MPD2    C410380   2.870   0.848  10.579  0.7682 -0.3347  0.0280
  702MPD2    C510381   2.831   0.737  10.649  0.8216  0.4355  0.1755
  702MPD2     H10382   2.573   0.988  10.521  1.1802  0.9375 -0.5208
  702MPD2    H110383   2.975   0.857  10.553  0.8687  1.1036  0.9084
  702MPD2    H210384   2.662   0.635  10.731  0.2250 -0.1575  0.7769
  702MPD2    H310385   2.912   0.673  10.685 -0.2433 -0.2887  1.2776
  702MPD2     N10386   2.833   1.060  10.475  0.0206  0.3432 -0.6063
  702MPD2    H510387   2.934   1.056  10.466 -0.0040  1.1854 -1.1968
  702MPD2    N110388   2.469   0.799  10.649 -0.3111 -0.3096  0.0086
  702MPD2    H710389   2.417   0.880  10.616  0.0931 -0.0250  0.0776
  703TMC3    C110390   2.833   1.294  10.417 -0.9558 -0.2462  0.0515
  703TMC3    C210391   2.772   1.415  10.438 -0.3141  0.1403 -0.1254
  703TMC3    C310392   2.830   1.524  10.373  0.5098  0.6582 -0.7812
  703TMC3    C410393   2.942   1.280  10.343  0.6402  0.6198  0.1294
  703TMC3    C510394   3.002   1.389  10.291 -0.1078  0.4120  0.2359
  703TMC3    C610395   2.947   1.516  10.302  0.1687  0.5204  0.0507
  703TMC3     C10396   2.759   1.177  10.449  0.3166 -0.3600 -0.5040
  703TMC3     O10397   2.641   1.199  10.484 -0.1983  0.2864  0.0270
  703TMC3     H10398   2.697   1.417  10.516  0.1179 -1.5253  0.3316
  703TMC3    H110399   2.977   1.181  10.316 -0.1693  0.3686  0.0167
  703TMC3    H210400   3.005   1.600  10.265  0.9579  0.2260  0.6248
  703TMC3    C710401   3.138   1.387  10.237 -0.1867 -0.2932  0.2544
  703TMC3    C810402   2.773   1.650  10.383 -0.9006  0.0576  0.4350
  703TMC3    O110403   3.180   1.495  10.194 -0.1758 -0.6357 -0.1903
  703TMC3    O210404   2.806   1.742  10.308 -0.5031 -0.0001  0.2246
  704TMC3    C110405   4.512   3.673  12.109 -0.2694 -0.5865  0.4647
  704TMC3    C210406   4.645   3.689  12.101 -0.5630  0.6514 -0.1437
  704TMC3    C310407   0.002   3.641  12.204 -0.6130  0.6313 -0.3390
  704TMC3    C410408   4.462   3.585  12.197 -0.7262 -0.5566 -0.2535
  704TMC3    C510409   4.539   3.519  12.292  0.0920 -0.0456  0.6227
  704TMC3    C610410   4.668   3.559  12.305  0.4462  0.1628  0.1759
  704TMC3     C10411   4.425   3.706  12.000 -0.2237 -0.6862 -0.4964
  704TMC3     O10412   4.311   3.730  12.026 -0.0976 -0.3102 -0.4849
  704TMC3     H10413   4.685   3.748  12.020  0.0595 -0.5211 -0.6924
  704TMC3    H110414   4.355   3.569  12.203 -0.1874 -3.8309  0.3212
  704TMC3    H210415   0.004   3.498  12.373 -3.3805 -1.1228  2.2668
  704TMC3    C710416   4.543   3.375  12.265 -0.7438 -0.4395  0.7511
  704TMC3    C810417   0.142   3.658  12.188 -0.2242  0.2503 -0.5339
  704TMC3    O110418   4.642   3.324  12.219  0.2341  0.0494 -0.3008
  704TMC3    O210419   0.189   3.678  12.079  0.0494  0.3504  0.4958
  705MPD2     C10420   4.210   2.158  16.769  0.1906 -0.0661 -0.2318
  705MPD2    C110421   4.166   2.232  16.662  0.2990 -0.1014 -0.9127
  705MPD2    C210422   4.062   2.320  16.689 -0.4980  0.5087  0.0012
  705MPD2    C310423   4.003   2.335  16.813  0.6205  0.0840  0.1125
  705MPD2    C410424   4.055   2.266  16.915 -0.1706 -0.5434 -0.5194
  705MPD2    C510425   4.153   2.176  16.894  0.4583  0.1171  0.2211
  705MPD2     H10426   4.030   2.382  16.606  1.0045 -0.9662 -1.6807
  705MPD2    H110427   4.023   2.281  17.018 -0.6679 -0.1307 -0.7384
  705MPD2    H210428   4.298   2.095  16.776 -0.3318 -1.2546 -4.0449
  705MPD2    H310429   4.188   2.121  16.980 -0.7808  0.7551  1.1323
  705MPD2     N10430   3.896   2.432  16.826 -0.0088 -0.5388 -0.3488
  705MPD2    H510431   3.851   2.468  16.742  0.2748 -1.7266 -0.9979
  705MPD2    N110432   4.233   2.240  16.535  0.0903 -0.2449 -0.7152
  705MPD2    H710433   4.208   2.322  16.481  0.9423 -0.4519 -1.4387
  706TMC3    C110434   4.461   2.180  16.163  0.4703  0.1267 -0.3189
  706TMC3    C210435   4.510   2.309  16.154 -0.2968 -0.3326 -0.0692
  706TMC3    C310436   4.518   2.376  16.273  0.4268  0.1060  0.6180
  706TMC3    C410437   4.419   2.114  16.281 -0.0669 -0.0240  0.5439
  706TMC3    C510438   4.399   2.199  16.382  0.3416  0.2470  0.3436
  706TMC3    C610439   4.457   2.323  16.384  0.1782 -0.1742 -0.2977
  706TMC3     C10440   4.481   2.102  16.046  0.1600  0.4824 -0.4704
  706TMC3     O10441   4.485   2.154  15.934  0.4792 -0.2028 -0.4238
  706TMC3     H10442   4.545   2.352  16.060 -1.8468  0.7678 -0.1393
  706TMC3    H110443   4.376   2.015  16.285  0.9604 -0.4857  0.0831
  706TMC3    H210444   4.447   2.382  16.474 -0.3811  2.6447 -2.1670
  706TMC3    C710445   4.329   2.152  16.494  0.0120  0.0320  0.0841
  706TMC3    C810446   4.535   2.527  16.257 -0.1439  0.6391 -0.2526
  706TMC3    O110447   4.359   2.046  16.547  0.1202  0.4979  0.0846
  706TMC3    O210448   4.546   2.574  16.146 -0.1879 -0.3583  0.3885
  707TMC3    C110449   1.631   1.833   1.151 -0.0974 -0.0496 -0.0238
  707TMC3    C210450   1.658   1.734   1.251  0.4468 -0.8839  0.3574
  707TMC3    C310451   1.593   1.742   1.371  0.0004 -0.6472  0.1255
  707TMC3    C410452   1.543   1.933   1.170  0.3983  0.4480  0.3521
  707TMC3    C510453   1.473   1.920   1.290  0.5643 -0.6183 -0.4600
  707TMC3    C610454   1.493   1.829   1.393  0.8690 -0.6235 -0.0138
  707TMC3     C10455   1.688   1.818   1.015  0.7178  0.5238  0.1716
  707TMC3     O10456   1.706   1.914   0.946 -0.2636 -0.4123  0.5245
  707TMC3     H10457   1.741   1.666   1.231  1.8333  0.7921  0.3799
  707TMC3    H110458   1.526   1.998   1.084  0.2720  0.2823  0.2517
  707TMC3    H210459   1.431   1.825   1.482 -1.5286  2.1072 -1.5485
  707TMC3    C710460   1.358   2.004   1.291  0.0882 -0.4891  0.6184
  707TMC3    C810461   1.603   1.634   1.471  0.2840  0.4361 -0.3215
  707TMC3    O110462   1.325   2.048   1.182  0.6032 -0.1414  0.1103
  707TMC3    O210463   1.537   1.648   1.571 -0.1375  0.2433  0.0246
  708MPD2     C10464   2.791   4.607  13.946 -0.2452  0.0083  0.3516
  708MPD2    C110465   2.729   4.720  13.908  0.6202 -0.2750 -0.0877
  708MPD2    C210466   2.640   0.061  13.996  0.5315 -0.3363 -0.7983
  708MPD2    C310467   2.607   0.008  14.118 -0.0265  0.7987 -0.1251
  708MPD2    C410468   2.679   4.615  14.156  0.1579 -0.3087  0.1890
  708MPD2    C510469   2.773   4.557  14.075  0.4412  0.1398  0.2847
  708MPD2     H10470   2.590   0.151  13.963  2.0570  1.4803  1.8645
  708MPD2    H110471   2.647   4.574  14.251 -0.0012 -1.9313 -0.5684
  708MPD2    H210472   2.876   4.567  13.892 -2.2416 -1.8145 -1.4225
  708MPD2    H310473   2.812   4.458  14.092 -1.8494 -0.2947  3.0027
  708MPD2     N10474   2.508   0.065  14.202 -0.4089  0.5028 -0.3225
  708MPD2    H510475   2.501   0.033  14.298  2.5159  0.1636 -0.2142
  708MPD2    N110476   2.757   0.060  13.781  0.2119  0.1012  0.7183
  708MPD2    H710477   2.717   0.154  13.782 -0.6852 -0.2875  1.1949
  709TMC3    C110478   2.815   0.103  13.568  0.6163 -0.5156  0.8371
  709TMC3    C210479   2.740   0.051  13.471  0.0388  0.0022  0.4077
  709TMC3    C310480   2.649   0.135  13.414  0.6965  0.2544 -0.2032
  709TMC3    C410481   2.789   0.229  13.613  0.2390 -0.0473 -0.1232
  709TMC3    C510482   2.688   0.305  13.560 -0.0878 -0.3927  0.5903
  709TMC3    C610483   2.615   0.260  13.454  0.0321  0.7046 -0.1209
  709TMC3     C10484   2.820   0.014  13.677  0.1648  0.0063  0.3018
  709TMC3     O10485   2.870   4.626  13.659 -0.0327 -0.3676  0.3581
  709TMC3     H10486   2.751   4.670  13.438  1.1481  0.1526  0.3090
  709TMC3    H110487   2.844   0.268  13.697  0.8159  0.9481 -0.9680
  709TMC3    H210488   2.529   0.309  13.408 -0.2786  1.0516  0.8320
  709TMC3    C710489   2.592   0.352  13.663  0.2978  0.5438 -0.2514
  709TMC3    C810490   2.607   0.102  13.275 -0.2644  0.1309 -0.3521
  709TMC3    O110491   2.616   0.304  13.775 -0.4961 -0.5050 -0.0524
  709TMC3    O210492   2.621   4.703  13.245  0.5863 -0.4328  0.1951
  710TMC3    C110493   3.559   1.740   0.700  0.1388  0.5528  0.1965
  710TMC3    C210494   3.634   1.789   0.597  0.1031 -0.0816  0.7509
  710TMC3    C310495   3.760   1.729   0.585 -0.1031  0.0715 -0.1106
  710TMC3    C410496   3.600   1.641   0.784 -0.1995 -0.0191  0.0066
  710TMC3    C510497   3.721   1.587   0.769  0.3459 -0.5943  0.5993
  710TMC3    C610498   3.807   1.640   0.675 -0.5224 -0.0147 -0.0669
  710TMC3     C10499   3.444   1.817   0.738 -0.2258  0.3489  1.2733
  710TMC3     O10500   3.402   1.900   0.656 -0.0310  0.1461  0.2449
  710TMC3     H10501   3.593   1.865   0.532 -1.2039 -1.3693  0.0771
  710TMC3    H110502   3.533   1.602   0.859 -1.7207  2.4241 -0.0642
  710TMC3    H210503   3.902   1.590   0.663 -0.1131  0.1975  2.2340
  710TMC3    C710504   3.755   1.463   0.832  0.4044 -0.2406  0.3901
  710TMC3    C810505   3.838   1.780   0.476 -0.4185 -0.7535  0.5625
  710TMC3    O110506   3.660   1.396   0.872 -0.4813 -0.4155  0.2796
  710TMC3    O210507   3.922   1.714   0.422  0.7017  0.0760  0.1898
  711TMC3    C110508   3.669   3.166  14.998 -0.4033  0.9870  0.1120
  711TMC3    C210509   3.706   3.255  15.090  0.2366  0.2113  0.2657
  711TMC3    C310510   3.833   3.255  15.127 -0.6976  0.2213 -0.9087
  711TMC3    C410511   3.762   3.089  14.931 -0.6491 -0.3834  0.1967
  711TMC3    C510512   3.895   3.100  14.961 -0.0640  0.3782  0.0094
  711TMC3    C610513   3.925   3.176  15.064  0.2933 -0.3061 -0.0164
  711TMC3     C10514   3.553   3.085  15.024  0.2678  0.3355 -0.0452
  711TMC3     O10515   3.526   3.002  14.942 -0.7221 -0.2976 -0.3912
  711TMC3     H10516   3.632   3.327  15.124 -0.3211 -1.0761  1.7975
  711TMC3    H110517   3.736   3.000  14.874  0.5455 -0.4945 -0.1879
  711TMC3    H210518   4.025   3.166  15.105  0.0250 -0.7365  0.5240
  711TMC3    C710519   3.956   2.966  14.987 -0.0444 -0.3613 -0.1793
  711TMC3    C810520   3.840   3.254  15.277  0.3555  0.5471  0.1716
  711TMC3    O110521   3.882   2.887  15.041 -0.0120 -0.3119  0.0555
  711TMC3    O210522   3.731   3.240  15.330 -0.6887 -0.1621 -0.2946
  712MPD2     C10523   0.478   4.026  14.013 -0.0758 -0.1960  0.4508
  712MPD2    C110524   0.397   4.043  13.905 -0.7064 -0.0193 -1.1488
  712MPD2    C210525   0.420   4.157  13.822 -0.0920 -0.6763  0.3885
  712MPD2    C310526   0.526   4.237  13.846 -1.0361  0.3991  0.0969
  712MPD2    C410527   0.605   4.219  13.956  0.0311  0.5919 -0.5482
  712MPD2    C510528   0.584   4.114  14.042 -0.5443 -0.1190 -0.0732
  712MPD2     H10529   0.346   4.166  13.743  0.9647 -3.4621 -0.9129
  712MPD2    H110530   0.682   4.293  13.977  2.7338 -2.3711  0.0231
  712MPD2    H210531   0.469   3.940  14.080 -0.0785  0.9647  1.9436
  712MPD2    H310532   0.637   4.097  14.134 -0.0975  1.2480 -0.0800
  712MPD2     N10533   0.564   4.342  13.756  0.3720  0.2164 -0.8083
  712MPD2    H510534   0.646   4.398  13.781 -1.6725  2.1258  1.6738
  712MPD2    N110535   0.296   3.954  13.865 -0.0764  0.1063  0.3891
  712MPD2    H710536   0.238   3.981  13.786 -0.5688  0.1816  0.7743
  713TMC3    C110537   0.577   4.472  13.549  0.1665 -0.3440  0.1547
  713TMC3    C210538   0.696   4.522  13.591 -0.2626 -0.0141 -0.1012
  713TMC3    C310539   0.761   4.602  13.500  0.3747 -1.2655  0.4421
  713TMC3    C410540   0.523   4.492  13.426 -0.0532 -0.4073  0.0779
  713TMC3    C510541   0.576   4.591  13.355  0.5266 -0.0256  0.0633
  713TMC3    C610542   0.702   4.633  13.386 -0.0462  0.2731  1.1142
  713TMC3     C10543   0.510   4.372  13.636 -0.5845  0.1175  0.1200
  713TMC3     O10544   0.412   4.321  13.578 -0.5482 -0.3258 -0.5048
  713TMC3     H10545   0.744   4.503  13.686 -1.1056  1.3960  0.6119
  713TMC3    H110546   0.430   4.449  13.390 -0.2776  2.3608 -2.6454
  713TMC3    H210547   0.753   4.702  13.320  1.2663 -3.1145 -1.4096
  713TMC3    C710548   0.533   4.630  13.221  0.0262  0.1533 -0.4568
  713TMC3    C810549   0.892   4.666  13.536  0.7006 -0.5188  0.3911
  713TMC3    O110550   0.614   4.679  13.146 -0.2972 -0.1241  0.2192
  713TMC3    O210551   0.919   0.034  13.455 -0.0158 -0.4208  0.3509
  714MPD2     C10552   2.407   2.635   1.991  0.2354  0.2394 -0.3543
  714MPD2    C110553   2.378   2.553   1.886 -0.3959 -0.0288 -0.0384
  714MPD2    C210554   2.307   2.606   1.783  0.3956  0.2101 -0.4133
  714MPD2    C310555   2.274   2.740   1.776 -0.6169 -0.2339  0.2329
  714MPD2    C410556   2.307   2.821   1.882  0.5636  0.6897  0.8285
  714MPD2    C510557   2.376   2.771   1.988  0.1074  0.1475 -0.0240
  714MPD2     H10558   2.287   2.549   1.693 -1.7382  1.7310 -0.9050
  714MPD2    H110559   2.284   2.927   1.882  2.8199  1.1703 -1.2580
  714MPD2    H210560   2.459   2.591   2.076  1.2290  0.8118 -0.6682
  714MPD2    H310561   2.412   2.833   2.070 -0.9708  1.0796 -0.2478
  714MPD2     N10562   2.206   2.794   1.667  0.0102 -0.5148  0.2724
  714MPD2    H510563   2.185   2.737   1.586 -0.9729  1.5878 -0.9695
  714MPD2    N110564   2.418   2.419   1.891  0.3769  0.5188 -0.6953
  714MPD2    H710565   2.476   2.385   1.968  0.8045 -0.2566 -1.3586
  715TMC3    C110566   2.475   2.194   1.837 -0.2929  0.3556  0.3625
  715TMC3    C210567   2.542   2.127   1.740  0.2172 -0.5569 -0.2809
  715TMC3    C310568   2.594   2.004   1.783  0.3610 -0.0211  0.3133
  715TMC3    C410569   2.454   2.157   1.965  0.2281  0.0358  0.0515
  715TMC3    C510570   2.486   2.026   1.995  0.2533 -0.5688 -0.0798
  715TMC3    C610571   2.562   1.951   1.906 -0.3704 -0.4661  0.1100
  715TMC3     C10572   2.414   2.326   1.792  0.4091 -0.0428  0.0491
  715TMC3     O10573   2.347   2.321   1.691 -0.1424  0.3897 -0.0432
  715TMC3     H10574   2.551   2.164   1.639  0.0985 -2.0140 -0.8264
  715TMC3    H110575   2.390   2.215   2.030 -0.3658 -0.1666 -0.3491
  715TMC3    H210576   2.576   1.845   1.919  0.1391 -0.1916  1.9200
  715TMC3    C710577   2.522   1.994   2.132 -0.1851 -0.8373  0.1691
  715TMC3    C810578   2.656   1.912   1.681 -0.5090  0.1408 -0.0640
  715TMC3    O110579   2.640   1.956   2.142  0.1310  0.3479  0.2172
  715TMC3    O210580   2.641   1.938   1.560  0.3359  0.5558 -0.0590
  716MPD2     C10581   2.781   0.082  10.290  0.5870 -0.1575  0.2103
  716MPD2    C110582   2.706   0.112  10.180  0.6377  0.7694  1.1138
  716MPD2    C210583   2.614   0.013  10.137 -0.5318  0.0792  0.1932
  716MPD2    C310584   2.610   4.610  10.198  0.3276  0.0736  0.0643
  716MPD2    C410585   2.684   4.587  10.315 -0.7656 -0.4444 -0.1134
  716MPD2    C510586   2.768   4.688  10.357  0.2327  0.0298  0.2230
  716MPD2     H10587   2.543   0.034  10.058 -0.2060 -0.8328 -0.3404
  716MPD2    H110588   2.682   4.497  10.376  2.5136  0.7920  1.8057
  716MPD2    H210589   2.858   0.152  10.320  1.4141 -0.7736 -0.4966
  716MPD2    H310590   2.843   4.659  10.430  0.3324 -0.8729 -0.2406
  716MPD2     N10591   2.507   4.526  10.147  0.4497  0.6830 -0.4056
  716MPD2    H510592   2.461   4.560  10.063  0.4508  0.0701 -0.6531
  716MPD2    N110593   2.725   0.238  10.122 -1.2511  0.3468  0.2311
  716MPD2    H710594   2.805   0.294  10.150  0.0385 -2.3490  1.9479
  717TMC3    C110595   2.402   4.320  10.099  0.0681 -0.5315 -0.2025
  717TMC3    C210596   2.299   4.368  10.019 -0.3234 -0.3511  0.0487
  717TMC3    C310597   2.204   4.279   9.963 -0.2517 -0.4324  0.0161
  717TMC3    C410598   2.399   4.185  10.139 -1.0978 -0.4382 -0.4615
  717TMC3    C510599   2.302   4.097  10.087  0.4431  0.6978  0.0759
  717TMC3    C610600   2.216   4.141   9.994 -0.7131  0.0819  0.2244
  717TMC3     C10601   2.485   4.402  10.185 -0.2140  0.5172 -0.8777
  717TMC3     O10602   2.529   4.341  10.282  0.0284 -0.2655 -0.0576
  717TMC3     H10603   2.296   4.475  10.002  0.9480 -0.3627 -0.2432
  717TMC3    H110604   2.487   4.141  10.183 -1.3646 -1.4489 -0.9339
  717TMC3    H210605   2.132   4.080   9.962  1.1977 -3.2860  1.5014
  717TMC3    C710606   2.288   3.962  10.134  0.2119  0.2906  0.8777
  717TMC3    C810607   2.146   4.305   9.832  0.0576  0.2083  0.0112
  717TMC3    O110608   2.248   3.873  10.056  0.8942  0.2282 -0.1910
  717TMC3    O210609   2.122   4.421   9.806 -0.3445 -0.2515 -0.4330
  718MPD2     C10610   1.642   4.642  13.372 -0.5550  0.2379  0.2692
  718MPD2    C110611   1.609   4.548  13.274 -0.7100 -0.3764 -0.0247
  718MPD2    C210612   1.643   4.416  13.293  0.4040 -0.3714  0.0621
  718MPD2    C310613   1.691   4.371  13.412 -0.7930 -0.5764  0.0951
  718MPD2    C410614   1.713   4.466  13.515  0.6806  0.5304 -0.2092
  718MPD2    C510615   1.691   4.599  13.498  0.5023 -0.2607 -0.2350
  718MPD2     H10616   1.642   4.346  13.210 -2.6263  1.0299 -1.0863
  718MPD2    H110617   1.756   4.434  13.610  0.2738 -0.4713 -0.3590
  718MPD2    H210618   1.634   0.026  13.352 -2.3898 -0.0763 -0.6760
  718MPD2    H310619   1.736   4.671  13.566 -0.3468  0.0072  0.0558
  718MPD2     N10620   1.728   4.238  13.423 -0.0078 -0.6486  0.2253
  718MPD2    H510621   1.713   4.175  13.345  0.1212 -2.9794  2.1037
  718MPD2    N110622   1.571   4.593  13.147  0.2101 -0.7023 -0.0812
  718MPD2    H710623   1.593   4.689  13.122  2.0197 -1.5638 -1.8175
  719TMC3    C110624   1.484   4.571  12.926  0.1340 -0.0575  1.1041
  719TMC3    C210625   1.399   4.501  12.851  0.6125 -0.0578  0.3526
  719TMC3    C310626   1.423   4.469  12.715 -0.9139  0.3531  0.6571
  719TMC3    C410627   1.597   4.622  12.868  0.2319 -0.1213 -0.3209
  719TMC3    C510628   1.615   4.600  12.732 -0.1606  0.3465  0.1961
  719TMC3    C610629   1.524   4.528  12.653 -0.2967  0.9012  0.2638
  719TMC3     C10630   1.508   4.510  13.054  0.4996  0.3574 -0.0335
  719TMC3     O10631   1.453   4.408  13.086 -0.8934  0.0095 -0.9050
  719TMC3     H10632   1.322   4.457  12.913  0.0383 -0.6142 -0.7436
  719TMC3    H110633   1.680   4.645  12.933 -0.4720 -0.5678  0.7345
  719TMC3    H210634   1.536   4.507  12.547 -1.4042 -0.4625  0.4078
  719TMC3    C710635   1.721   4.667  12.662  0.1699  1.0474 -0.6682
  719TMC3    C810636   1.439   4.325  12.687 -0.4667 -0.0640 -0.5413
  719TMC3    O110637   1.728   4.648  12.544 -0.1036  0.3689 -0.1247
  719TMC3    O210638   1.434   4.287  12.573 -0.1553 -0.1509 -0.1159
  720MPD2     C10639   0.013   1.395  14.142 -0.3821  0.7581 -0.1106
  720MPD2    C110640   0.108   1.348  14.062 -0.0414  0.3380 -0.0744
  720MPD2    C210641   0.195   1.253  14.106  0.3755 -0.2709 -0.1901
  720MPD2    C310642   0.199   1.216  14.242  0.2862  0.3893  0.3916
  720MPD2    C410643   0.102   1.272  14.326 -0.5722 -0.1110  0.1005
  720MPD2    C510644   0.013   1.362  14.273 -0.6571  0.7400  0.0848
  720MPD2     H10645   0.270   1.220  14.036  0.9772  2.0942 -0.6567
  720MPD2    H110646   0.108   1.253  14.432  0.4387  1.3522  0.3199
  720MPD2    H210647   4.658   1.463  14.105 -4.0616 -1.6979  2.9341
  720MPD2    H310648   4.672   1.404  14.350 -0.7019  0.1159  0.3904
  720MPD2     N10649   0.305   1.134  14.279 -0.3544 -0.0468 -0.0270
  720MPD2    H510650   0.375   1.111  14.209  0.2108  1.6957 -0.0334
  720MPD2    N110651   0.123   1.381  13.928  0.2368  0.4789  0.1309
  720MPD2    H710652   0.204   1.348  13.877 -1.3146  1.4328 -2.9012
  721TMC3    C110653   0.461   1.053  14.429 -0.2761  0.7210  0.5359
  721TMC3    C210654   0.480   0.984  14.549  0.7182  0.9771  0.3353
  721TMC3    C310655   0.603   0.974  14.599 -0.3697 -0.5909 -0.1774
  721TMC3    C410656   0.564   1.120  14.373 -0.2727 -0.2445 -0.5956
  721TMC3    C510657   0.690   1.094  14.419 -0.0770  0.3720 -0.4385
  721TMC3    C610658   0.714   1.018  14.530 -0.1807  0.5051  1.1846
  721TMC3     C10659   0.328   1.096  14.411  0.2045 -0.1495 -0.3577
  721TMC3     O10660   0.257   1.110  14.515  0.2517 -0.0952 -0.2543
  721TMC3     H10661   0.390   0.942  14.593 -0.5806  2.3298 -1.0296
  721TMC3    H110662   0.558   1.191  14.292 -2.3737 -2.5216 -2.4282
  721TMC3    H210663   0.811   1.014  14.578  0.0845  0.5827  0.6582
  721TMC3    C710664   0.797   1.178  14.375 -0.4782  0.2710  0.2005
  721TMC3    C810665   0.630   0.874  14.702  0.1677 -0.6078 -0.1397
  721TMC3    O110666   0.775   1.273  14.305  0.6625 -0.0235 -0.6417
  721TMC3    O210667   0.749   0.843  14.716 -0.0425 -0.2600 -0.1311
  722MPD2     C10668   3.980   4.712  13.223 -0.2204  0.0194  0.2688
  722MPD2    C110669   3.966   4.612  13.129 -0.3391 -0.7600  0.0950
  722MPD2    C210670   3.831   4.579  13.106 -0.2355 -0.1623  0.1952
  722MPD2    C310671   3.726   4.647  13.164 -0.1561 -0.7572  0.5184
  722MPD2    C410672   3.751   0.019  13.267  0.2461 -0.2000 -0.5488
  722MPD2    C510673   3.878   0.047  13.291 -0.1998 -0.0448 -0.4574
  722MPD2     H10674   3.812   4.509  13.024  0.8336 -0.1776 -0.0441
  722MPD2    H110675   3.679   0.078  13.322  0.7527 -0.5089  0.4459
  722MPD2    H210676   4.079   0.026  13.250 -0.5219  1.9414 -1.2180
  722MPD2    H310677   3.891   0.136  13.351  1.3061 -0.1296 -0.6550
  722MPD2     N10678   3.594   4.610  13.124 -0.5196 -0.7242 -0.2631
  722MPD2    H510679   3.582   4.536  13.056  0.2083 -1.7201  0.6926
  722MPD2    N110680   4.066   4.554  13.050  0.8075 -0.1138 -0.8293
  722MPD2    H710681   4.042   4.469  12.999  0.6742  0.3165 -1.4810
  723TMC3    C110682   3.354   4.615  13.107  0.5434 -0.2848  0.3362
  723TMC3    C210683   3.325   4.482  13.112  0.4507 -0.0391 -0.0765
  723TMC3    C310684   3.196   4.434  13.089 -0.3576 -0.1244  0.2037
  723TMC3    C410685   3.255   4.702  13.113 -0.1862 -0.0569  0.2099
  723TMC3    C510686   3.127   4.652  13.106  0.0509 -0.5372 -0.0135
  723TMC3    C610687   3.095   4.520  13.090  0.6269 -0.8288  0.9974
  723TMC3     C10688   3.474   4.659  13.171 -0.3685 -0.1859  0.0163
  723TMC3     O10689   3.463   0.034  13.246  0.6497  0.3015 -0.2656
  723TMC3     H10690   3.407   4.413  13.130 -0.1856 -0.8790 -0.4032
  723TMC3    H110691   3.283   0.084  13.122  1.2225 -0.3923 -0.3558
  723TMC3    H210692   2.989   4.498  13.087  0.9455 -2.1172 -0.7584
  723TMC3    C710693   3.015   0.027  13.112  0.1402  0.1749 -0.1864
  723TMC3    C810694   3.165   4.303  13.163  0.2976 -0.1523 -0.5031
  723TMC3    O110695   2.931   0.004  13.026 -0.1286  0.0570  0.0239
  723TMC3    O210696   3.121   4.324  13.277 -0.1591 -0.1205  0.2857
  724TMC3    C110697   4.086   2.851   9.971 -0.2298 -0.1886  0.5723
  724TMC3    C210698   3.958   2.886   9.928  0.3471  0.8680  0.2032
  724TMC3    C310699   3.952   2.977   9.822  0.0460 -0.4386  0.0409
  724TMC3    C410700   4.199   2.881   9.896 -0.6965  0.6196  0.3431
  724TMC3    C510701   4.180   2.960   9.786 -0.2227 -0.0844 -0.3683
  724TMC3    C610702   4.061   3.015   9.753  0.1225  0.2127  0.3817
  724TMC3     C10703   4.105   2.833  10.117  0.1224 -0.8143  0.4551
  724TMC3     O10704   4.012   2.793  10.181  0.1343 -0.1377  0.1627
  724TMC3     H10705   3.884   2.880  10.007  0.4454  0.5697  0.2741
  724TMC3    H110706   4.297   2.846   9.926  0.0091  2.2097 -0.1323
  724TMC3    H210707   4.049   3.075   9.663  0.7431  0.0167  0.1707
  724TMC3    C710708   4.303   2.987   9.707  0.3848  0.3508 -0.0592
  724TMC3    C810709   3.834   3.066   9.802  0.2824  0.3103 -0.4518
  724TMC3    O110710   4.407   2.937   9.746  0.0533 -0.1166 -0.1243
  724TMC3    O210711   3.727   3.018   9.833  0.2153  0.0985 -0.0100
  725TMC3    C110712   0.609   1.350  12.996 -0.5073  0.0468  0.4697
  725TMC3    C210713   0.610   1.304  12.870  0.0998 -0.5942  0.5727
  725TMC3    C310714   0.498   1.262  12.809  0.4493 -1.4815 -0.0550
  725TMC3    C410715   0.488   1.367  13.058  0.2562  0.1790  0.4182
  725TMC3    C510716   0.379   1.315  12.995  0.1957  0.0807  0.1162
  725TMC3    C610717   0.379   1.262  12.871  0.8394  0.0978  0.2417
  725TMC3     C10718   0.717   1.432  13.040 -0.3632 -0.6629 -0.5541
  725TMC3     O10719   0.808   1.473  12.971 -0.9614  0.0329 -0.3126
  725TMC3     H10720   0.700   1.307  12.810  0.0278 -1.3729  0.4225
  725TMC3    H110721   0.473   1.398  13.161 -0.5112  0.7476  0.1397
  725TMC3    H210722   0.284   1.255  12.819  2.3585  1.4796 -2.7567
  725TMC3    C710723   0.260   1.303  13.076 -0.5910 -0.1740 -0.0531
  725TMC3    C810724   0.493   1.230  12.671 -0.0780 -0.4162 -0.2098
  725TMC3    O110725   0.237   1.400  13.147 -0.4233 -0.3155  0.4487
  725TMC3    O210726   0.422   1.138  12.641  0.4922  0.0882 -0.2077
  726MPD2     C10727   3.307   3.451  10.392 -0.3072 -0.0269 -0.1139
  726MPD2    C110728   3.236   3.462  10.273  0.4636  0.3169 -0.2316
  726MPD2    C210729   3.174   3.341  10.232  0.0324  0.1900 -0.0758
  726MPD2    C310730   3.174   3.219  10.309  0.0598 -0.5175  0.4267
  726MPD2    C410731   3.250   3.220  10.420  0.2369  0.5585 -0.2304
  726MPD2    C510732   3.321   3.330  10.458 -0.9732 -0.1418  0.1529
  726MPD2     H10733   3.134   3.341  10.131 -0.0966 -0.2855 -0.0228
  726MPD2    H110734   3.268   3.133  10.482 -0.8836  1.5183  1.4285
  726MPD2    H210735   3.359   3.535  10.437 -0.3887 -0.1709  0.2418
  726MPD2    H310736   3.386   3.323  10.545 -1.6404  0.5068  0.7018
  726MPD2     N10737   3.121   3.097  10.266 -0.2990  1.0396  0.2543
  726MPD2    H510738   3.105   3.019  10.329 -0.3609  0.8390 -0.0097
  726MPD2    N110739   3.229   3.581  10.200 -0.2797 -1.1141  0.6159
  726MPD2    H710740   3.174   3.574  10.115  0.1126 -1.0279  0.3575
  727TMC3    C110741   3.251   3.816  10.155 -0.6774  0.8027  0.0778
  727TMC3    C210742   3.330   3.927  10.182 -0.2733 -0.3205 -0.2341
  727TMC3    C310743   3.299   4.052  10.136 -0.4190 -0.1879 -0.1482
  727TMC3    C410744   3.136   3.841  10.093  0.2259  0.2361 -0.2044
  727TMC3    C510745   3.098   3.968  10.054 -0.6559 -0.0102  0.1493
  727TMC3    C610746   3.179   4.078  10.075 -1.5053 -0.0461 -0.3517
  727TMC3     C10747   3.282   3.699  10.236  0.2668 -0.1371  0.0911
  727TMC3     O10748   3.363   3.730  10.318 -0.2218  0.0678 -0.6713
  727TMC3     H10749   3.432   3.917  10.217 -0.1836  0.3851 -0.2956
  727TMC3    H110750   3.076   3.751  10.089 -1.5832  1.4435 -0.1269
  727TMC3    H210751   3.153   4.171  10.025 -1.2261  1.8060  2.9554
  727TMC3    C710752   2.954   3.969  10.007  0.3465  0.2599  0.6529
  727TMC3    C810753   3.414   4.146  10.121 -0.1407 -0.1044 -0.7210
  727TMC3    O110754   2.906   3.857   9.994  0.6582  0.9070  0.1219
  727TMC3    O210755   3.535   4.122  10.132 -0.0811 -0.7007  0.0841
  728TMC3    C110756   2.711   1.562  15.621  0.4575 -0.7182  0.1994
  728TMC3    C210757   2.808   1.618  15.706 -0.0143  0.3063  0.1142
  728TMC3    C310758   2.909   1.685  15.643 -0.2805  0.3836 -0.4472
  728TMC3    C410759   2.712   1.582  15.486  0.2433  0.4174 -0.2944
  728TMC3    C510760   2.825   1.637  15.429 -0.2394  0.3518  0.0154
  728TMC3    C610761   2.918   1.711  15.502 -0.1575 -0.4573 -0.1734
  728TMC3     C10762   2.582   1.547  15.685  0.3930 -0.2280 -0.4504
  728TMC3     O10763   2.572   1.469  15.782  0.0647 -0.2073  0.0056
  728TMC3     H10764   2.797   1.591  15.810 -0.0095  2.6371  0.7084
  728TMC3    H110765   2.638   1.535  15.422  0.8302  1.8449 -2.0112
  728TMC3    H210766   3.000   1.765  15.457  0.7303  0.0034  1.9881
  728TMC3    C710767   2.819   1.659  15.288 -0.3544  0.0297  0.1394
  728TMC3    C810768   2.985   1.769  15.733  0.6749 -0.6855 -0.2715
  728TMC3    O110769   2.753   1.581  15.216  0.4813  0.5668 -0.4262
  728TMC3    O210770   2.994   1.728  15.849 -0.1662 -0.3640 -0.1233
  729MPD2     C10771   0.302   2.879  16.361 -0.1175  0.0021  0.1294
  729MPD2    C110772   0.396   2.904  16.453 -0.1791 -0.1556  0.3071
  729MPD2    C210773   0.374   2.871  16.587  0.6164 -0.3336  0.1856
  729MPD2    C310774   0.256   2.826  16.636  0.4655  0.5409 -0.2838
  729MPD2    C410775   0.161   2.809  16.544 -0.2817 -0.0027 -0.5634
  729MPD2    C510776   0.174   2.839  16.414 -1.1562 -0.1167  0.3148
  729MPD2     H10777   0.458   2.879  16.655  0.5744  0.4262  0.1464
  729MPD2    H110778   0.061   2.786  16.579  0.0405 -1.7572 -0.8238
  729MPD2    H210779   0.310   2.891  16.254 -0.6310 -2.8870 -0.2477
  729MPD2    H310780   0.087   2.822  16.352 -1.1430  2.0700 -0.3084
  729MPD2     N10781   0.224   2.799  16.771 -0.5501 -0.2012  1.0363
  729MPD2    H510782   0.129   2.783  16.801 -1.3770  0.2066 -1.3343
  729MPD2    N110783   0.515   2.969  16.414  0.4688  0.0185 -0.3568
  729MPD2    H710784   0.527   3.006  16.321 -3.1088  1.7506 -0.1126
  730TMC3    C110785   0.242   2.793  17.007 -0.2417  0.0207  0.0940
  730TMC3    C210786   0.316   2.741  17.110  0.7201 -0.2447 -0.3838
  730TMC3    C310787   0.257   2.732  17.239 -0.1041 -0.5685 -0.8981
  730TMC3    C410788   0.118   2.836  17.029 -0.2729  0.1498 -0.2376
  730TMC3    C510789   0.087   2.865  17.156  0.5531 -0.5701 -0.1140
  730TMC3    C610790   0.140   2.793  17.262 -0.1724 -0.3476 -0.4022
  730TMC3     C10791   0.313   2.809  16.878 -0.0889 -0.1777 -1.1266
  730TMC3     O10792   0.435   2.809  16.883 -0.4233 -0.7306  0.0737
  730TMC3     H10793   0.403   2.679  17.093  1.4881  1.2054 -1.6961
  730TMC3    H110794   0.071   2.897  16.953 -1.6544 -0.4804  0.1021
  730TMC3    H210795   0.112   2.809  17.365  1.3812  0.6259 -0.1221
  730TMC3    C710796   0.083   3.013  17.178  0.2234 -0.4833  0.2338
  730TMC3    C810797   0.332   2.708  17.359  0.0839  0.4256 -0.2015
  730TMC3    O110798   0.154   3.085  17.107 -0.0201 -0.9241  0.0274
  730TMC3    O210799   0.277   2.658  17.456 -0.3433  0.0895  0.3346
  731MPD2     C10800   4.515   0.140  12.599 -0.1830  0.6462  0.1724
  731MPD2    C110801   4.645   0.176  12.616 -1.2045  0.1762 -0.0982
  731MPD2    C210802   4.685   0.222  12.744 -0.2629  0.2900 -0.4291
  731MPD2    C310803   4.600   0.211  12.852 -0.5370 -0.3026 -0.6715
  731MPD2    C410804   4.469   0.170  12.836  0.6034 -0.2947  0.4039
  731MPD2    C510805   4.429   0.133  12.707  0.2115 -0.1421 -0.4108
  731MPD2     H10806   0.058   0.269  12.766 -0.6287  0.2714  1.2087
  731MPD2    H110807   4.401   0.155  12.920  0.7555  1.0205  0.7685
  731MPD2    H210808   4.475   0.117  12.501  0.5085  1.5624 -0.3236
  731MPD2    H310809   4.329   0.095  12.687  1.3452 -3.1412 -0.3680
  731MPD2     N10810   4.666   0.211  12.978 -0.6227 -0.1175 -0.7233
  731MPD2    H510811   0.045   0.217  12.970 -0.8757  3.6821 -1.0219
  731MPD2    N110812   0.004   0.177  12.502 -0.5108  0.5155 -0.7743
  731MPD2    H710813   4.684   0.159  12.411 -0.8187 -3.3428  0.1323
  732TMC3    C110814   0.192   0.188  12.358 -0.7308 -0.3863  0.8450
  732TMC3    C210815   0.093   0.157  12.263 -0.1312 -0.0328  0.0760
  732TMC3    C310816   0.120   0.175  12.130  0.2848 -0.6580 -0.3925
  732TMC3    C410817   0.292   0.271  12.318 -0.9118 -1.0150  0.0566
  732TMC3    C510818   0.320   0.280  12.180  0.7058  0.1307 -0.0660
  732TMC3    C610819   0.231   0.237  12.087  0.0266 -0.1725 -0.1423
  732TMC3     C10820   0.144   0.201  12.501 -0.2302  0.3305 -0.7631
  732TMC3     O10821   0.228   0.229  12.583  0.0920 -0.3331 -0.5872
  732TMC3     H10822   0.002   0.105  12.291 -1.6122  3.3684  1.5500
  732TMC3    H110823   0.369   0.295  12.390 -1.3651 -1.4487  0.6830
  732TMC3    H210824   0.241   0.251  11.980  0.5245 -0.7974 -0.1778
  732TMC3    C710825   0.425   0.368  12.129  0.1001 -0.5350  0.0196
  732TMC3    C810826   0.020   0.160  12.030  0.5854 -0.5107 -0.7549
  732TMC3    O110827   0.435   0.377  12.008 -0.5719 -0.3634 -0.2792
  732TMC3    O210828   0.047   0.149  11.908 -0.0729 -0.2100  0.4242
  733TMC3    C110829   1.644   3.860  13.450  0.6918 -0.0852  0.4565
  733TMC3    C210830   1.694   3.958  13.537  1.1675 -0.0812  0.1877
  733TMC3    C310831   1.799   4.032  13.503  0.4706  0.5618  0.0628
  733TMC3    C410832   1.697   3.855  13.326  0.6234 -0.5693 -0.0226
  733TMC3    C510833   1.801   3.936  13.284 -0.5539  1.2534 -0.4425
  733TMC3    C610834   1.854   4.016  13.381  0.2335 -0.3894  0.1424
  733TMC3     C10835   1.496   3.873  13.437  0.2437 -0.6797 -0.0312
  733TMC3     O10836   1.457   3.930  13.339  0.0997 -0.2252 -0.1488
  733TMC3     H10837   1.645   3.967  13.634 -0.7537 -0.1941 -0.7637
  733TMC3    H110838   1.646   3.784  13.262 -2.7701  2.5206 -0.7228
  733TMC3    H210839   1.939   4.080  13.360  0.3329  0.3045  2.6775
  733TMC3    C710840   1.765   4.008  13.159 -0.3840 -0.1045  0.0606
  733TMC3    C810841   1.785   4.171  13.533  0.0077 -0.2198 -0.4264
  733TMC3    O110842   1.753   4.130  13.170 -0.1923 -0.2855 -0.3167
  733TMC3    O210843   1.836   4.217  13.635  1.1907 -0.0471 -0.0988
  734MPD2     C10844   4.084   1.731  11.920 -0.0068  0.3568 -0.5082
  734MPD2    C110845   3.973   1.703  11.840  0.1904  0.0969  0.0384
  734MPD2    C210846   3.990   1.710  11.702  0.2811 -0.7368 -0.0080
  734MPD2    C310847   4.099   1.773  11.653 -0.0423  0.3490  0.0179
  734MPD2    C410848   4.195   1.820  11.730 -0.1439 -0.1525 -0.0342
  734MPD2    C510849   4.196   1.787  11.863  0.1444  0.0526 -0.6856
  734MPD2     H10850   3.910   1.677  11.637  0.4807  2.2887 -1.7845
  734MPD2    H110851   4.279   1.880  11.698 -1.7556  1.8079 -0.6318
  734MPD2    H210852   4.089   1.728  12.028  3.3161  2.1697 -0.6304
  734MPD2    H310853   4.277   1.809  11.931  0.0294 -0.2930 -0.4363
  734MPD2     N10854   4.103   1.783  11.513  0.3311  0.1361 -0.0403
  734MPD2    H510855   4.046   1.721  11.457 -1.6853  0.9487  1.0982
  734MPD2    N110856   3.855   1.644  11.898 -0.3548 -0.1247  0.3121
  734MPD2    H710857   3.859   1.607  11.992 -2.0969 -0.9737  0.0527
  735TMC3    C110858   3.656   1.518  11.881  0.5998  0.9783  0.0436
  735TMC3    C210859   3.546   1.496  11.809 -0.4119  0.2933 -0.1421
  735TMC3    C310860   3.507   1.368  11.777 -0.5239 -0.1950 -0.4059
  735TMC3    C410861   3.725   1.410  11.930 -0.2355 -0.6495  0.5401
  735TMC3    C510862   3.680   1.288  11.910 -0.0683  0.3514 -0.4405
  735TMC3    C610863   3.564   1.269  11.837 -0.0973  0.0566 -0.2474
  735TMC3     C10864   3.739   1.620  11.828 -0.2719  0.2594 -0.0106
  735TMC3     O10865   3.715   1.654  11.713  0.2054 -0.2708 -0.0639
  735TMC3     H10866   3.497   1.583  11.766 -0.5143 -0.4822 -1.6193
  735TMC3    H110867   3.823   1.422  11.975 -0.2436 -1.5437  0.8002
  735TMC3    H210868   3.519   1.171  11.841  0.8135 -0.4329 -2.2406
  735TMC3    C710869   3.774   1.178  11.912 -0.5525 -0.3629 -0.4097
  735TMC3    C810870   3.508   1.343  11.631 -0.0391  0.2328 -0.1171
  735TMC3    O110871   3.890   1.212  11.943  0.2670 -0.5007  0.3172
  735TMC3    O210872   3.479   1.233  11.589  0.0071  0.5347  0.3102
  736MPD2     C10873   3.710   0.825  11.859 -0.0708  0.5138  0.0953
  736MPD2    C110874   3.790   0.938  11.862  0.8556 -0.0368 -0.1366
  736MPD2    C210875   3.929   0.934  11.878 -0.1164  0.3044  0.3166
  736MPD2    C310876   3.982   0.808  11.881 -0.3383 -0.5794 -0.3092
  736MPD2    C410877   3.900   0.700  11.866 -0.0649  0.4393  0.1293
  736MPD2    C510878   3.766   0.704  11.848 -0.2992  0.0660  0.4780
  736MPD2     H10879   3.987   1.022  11.902 -0.4181  0.9300 -1.2518
  736MPD2    H110880   3.927   0.595  11.876  1.9245  0.8967 -0.4291
  736MPD2    H210881   3.601   0.830  11.863 -0.2262 -0.9591 -2.3389
  736MPD2    H310882   3.708   0.613  11.837 -0.3758  0.4127 -1.9484
  736MPD2     N10883   4.118   0.780  11.910 -0.4662  0.3831  0.5906
  736MPD2    H510884   4.146   0.683  11.903  3.1574  1.4870 -0.4275
  736MPD2    N110885   3.722   1.059  11.873 -0.1689 -0.4935  0.1976
  736MPD2    H710886   3.633   1.061  11.824 -0.3749 -1.0654  0.5538
  737TMC3    C110887   4.344   0.793  11.939 -0.3750  0.4206 -0.2281
  737TMC3    C210888   4.453   0.862  11.891  0.1241  0.0231 -0.1045
  737TMC3    C310889   4.579   0.806  11.889 -0.6740 -0.8301  0.3254
  737TMC3    C410890   4.356   0.659  11.966 -0.5282 -0.6097  0.2043
  737TMC3    C510891   4.480   0.602  11.948 -0.0636 -0.3507  0.8484
  737TMC3    C610892   4.596   0.674  11.927  0.7822  0.1087  0.3225
  737TMC3     C10893   4.214   0.869  11.940 -1.1612 -0.4478  0.0516
  737TMC3     O10894   4.213   0.989  11.950 -0.1661 -0.6167 -0.0740
  737TMC3     H10895   4.444   0.969  11.874  1.3612  0.3083  1.0692
  737TMC3    H110896   4.270   0.602  12.000  0.1369 -0.3234  2.3778
  737TMC3    H210897   4.688   0.617  11.921  0.9003  0.4810 -1.2795
  737TMC3    C710898   4.475   0.486  11.864 -0.4738  0.5123  0.3534
  737TMC3    C810899   4.649   0.832  11.765  0.0359 -0.3712 -0.5919
  737TMC3    O110900   4.368   0.426  11.873  0.0505  0.0220 -0.4571
  737TMC3    O210901   0.040   0.796  11.744  0.5230  0.1302 -0.2128
  738MPD2     C10902   3.673   0.432  15.026 -1.0263  0.0350  0.4772
  738MPD2    C110903   3.799   0.406  15.064  0.3000  0.3741  0.4517
  738MPD2    C210904   3.905   0.465  14.989  0.0333  0.6131 -0.1841
  738MPD2    C310905   3.882   0.564  14.894 -0.1478 -0.4566  0.3060
  738MPD2    C410906   3.754   0.593  14.853  0.8073  0.3807  0.3883
  738MPD2    C510907   3.653   0.521  14.918 -0.6467  0.3376  0.2288
  738MPD2     H10908   4.009   0.444  15.011  0.0913  1.6669  0.5586
  738MPD2    H110909   3.720   0.663  14.778  0.3366  0.3130  0.5395
  738MPD2    H210910   3.589   0.385  15.077 -1.2832  0.1876  0.1993
  738MPD2    H310911   3.553   0.545  14.883  0.0261  2.2994 -0.3667
  738MPD2     N10912   3.984   0.633  14.831  0.1112 -0.1057 -0.2119
  738MPD2    H510913   3.955   0.708  14.769  0.5452  0.0970 -0.1694
  738MPD2    N110914   3.834   0.315  15.162 -0.2723  0.3064 -0.0721
  738MPD2    H710915   3.932   0.292  15.165  0.4875  3.6905  1.0163
  739TMC3    C110916   4.202   0.701  14.760 -0.3667 -1.0844 -0.4687
  739TMC3    C210917   4.153   0.734  14.639 -1.2337 -0.1923  0.5811
  739TMC3    C310918   4.244   0.779  14.546  0.1766  0.7748 -0.2306
  739TMC3    C410919   4.336   0.705  14.794  0.1525  0.2715  0.5032
  739TMC3    C510920   4.426   0.757  14.705  0.4696 -0.2155  0.0311
  739TMC3    C610921   4.385   0.792  14.577  0.4526  0.3984 -0.7381
  739TMC3     C10922   4.118   0.621  14.855  0.0249  0.8948  0.5773
  739TMC3     O10923   4.180   0.582  14.951  0.2242  0.4603 -0.1376
  739TMC3     H10924   4.049   0.713  14.615 -0.7212 -1.7736 -0.2105
  739TMC3    H110925   4.361   0.695  14.899  0.7905  2.7169  0.5826
  739TMC3    H210926   4.444   0.815  14.490  0.0549  0.6270 -0.9441
  739TMC3    C710927   4.570   0.742  14.727 -0.2877  0.4131 -0.1644
  739TMC3    C810928   4.205   0.781  14.403  0.9689  0.1566 -0.2009
  739TMC3    O110929   4.607   0.682  14.831 -0.6525 -0.2468  0.4623
  739TMC3    O210930   4.108   0.715  14.362 -0.1317  0.2654 -0.1311
  740TMC3    C110931   0.135   1.696  14.353 -0.5511 -0.5573 -0.0382
  740TMC3    C210932   0.150   1.640  14.473 -0.6959 -0.0147  0.3978
  740TMC3    C310933   0.263   1.565  14.498  0.1319  0.1165  0.0125
  740TMC3    C410934   0.225   1.669  14.251 -0.2204  0.2313  0.4074
  740TMC3    C510935   0.330   1.582  14.267  0.2760  0.1641  0.8872
  740TMC3    C610936   0.355   1.537  14.397 -0.8609 -0.3133 -0.7473
  740TMC3     C10937   0.005   1.751  14.308 -1.0571 -0.2613  0.0533
  740TMC3     O10938   0.010   1.821  14.209  0.1925 -0.2115 -0.5311
  740TMC3     H10939   0.072   1.659  14.546 -2.3643 -0.8883 -1.1647
  740TMC3    H110940   0.197   1.700  14.151  2.3304  1.2021 -0.0117
  740TMC3    H210941   0.436   1.465  14.406 -1.1228 -0.7139 -1.6184
  740TMC3    C710942   0.407   1.518  14.156 -0.2660  1.0150 -0.1748
  740TMC3    C810943   0.277   1.491  14.624 -0.2903 -0.0938 -0.9123
  740TMC3    O110944   0.442   1.404  14.192 -0.0818  0.0118  0.7205
  740TMC3    O210945   0.186   1.510  14.707 -0.2868  0.1668 -0.1117
  741TMC3    C110946   3.997   1.132  14.282  0.4180 -0.7203  0.1671
  741TMC3    C210947   3.929   1.018  14.313 -0.2084 -0.4875 -0.1561
  741TMC3    C310948   3.927   0.971  14.443  0.2172  0.2151 -0.8955
  741TMC3    C410949   4.071   1.198  14.380  0.5609  0.1110  0.7718
  741TMC3    C510950   4.064   1.151  14.506 -0.5377 -0.5279  0.2622
  741TMC3    C610951   3.989   1.043  14.536 -0.0136  0.3720 -0.0446
  741TMC3     C10952   3.992   1.198  14.154  0.1725  0.3685  0.0243
  741TMC3     O10953   4.065   1.292  14.131 -0.2721 -0.2172  0.4829
  741TMC3     H10954   3.875   0.963  14.237  2.2325  0.9045 -2.8832
  741TMC3    H110955   4.141   1.275  14.354  0.0479 -0.1801 -1.4453
  741TMC3    H210956   3.965   1.001  14.634 -2.3941 -2.8598 -1.9902
  741TMC3    C710957   4.132   1.233  14.608 -0.1300 -0.0608  0.1037
  741TMC3    C810958   3.840   0.864  14.486  0.1254 -0.3780  0.1410
  741TMC3    O110959   4.196   1.335  14.576 -0.0784  0.1566  0.1551
  741TMC3    O210960   3.805   0.842  14.600  1.0844 -0.7560  0.6470
  742TMC3    C110961   3.912   3.982  15.388  0.5199 -0.1267 -0.2746
  742TMC3    C210962   3.843   4.016  15.274  0.4544  0.4642 -0.5492
  742TMC3    C310963   3.905   4.003  15.156 -0.5933 -0.1793  0.5290
  742TMC3    C410964   4.049   3.952  15.390  0.4114  0.3151  0.5355
  742TMC3    C510965   4.110   3.946  15.268 -0.4351  0.2599  0.2381
  742TMC3    C610966   4.040   3.970  15.150  0.3586  0.4419 -0.0315
  742TMC3     C10967   3.834   3.975  15.510  0.5257 -0.4010 -0.6313
  742TMC3     O10968   3.730   4.037  15.524 -0.4740  0.1314  0.1880
  742TMC3     H10969   3.735   4.028  15.272  0.2891 -1.0431 -0.3589
  742TMC3    H110970   4.104   3.941  15.483  0.3526  0.8157  0.6293
  742TMC3    H210971   4.083   3.962  15.051 -0.1372  1.5967 -0.3473
  742TMC3    C710972   4.239   3.880  15.255 -0.4179 -0.2899 -0.2456
  742TMC3    C810973   3.821   3.987  15.037 -0.0895 -0.0016  0.2605
  742TMC3    O110974   4.306   3.908  15.160  0.2071 -0.2857  0.1309
  742TMC3    O210975   3.886   3.929  14.951  0.1675  0.1330  0.2495
  743MPD2     C10976   1.927   0.732   1.813 -0.1704 -0.3903  0.5075
  743MPD2    C110977   1.966   0.657   1.707  0.2273 -0.2294  0.2900
  743MPD2    C210978   2.083   0.583   1.718 -0.3147  0.8482  0.0301
  743MPD2    C310979   2.171   0.610   1.820  0.2685 -0.5083  0.4934
  743MPD2    C410980   2.132   0.703   1.920  0.8225 -0.2104 -0.0662
  743MPD2    C510981   2.012   0.762   1.915  0.1480  0.1873 -0.1898
  743MPD2     H10982   2.117   0.510   1.645  1.6153 -1.0578  2.8334
  743MPD2    H110983   2.185   0.731   2.011  0.3689 -0.6071  0.3204
  743MPD2    H210984   1.838   0.794   1.806 -1.8276 -2.7155  0.7118
  743MPD2    H310985   1.985   0.836   1.989  1.3580  1.4787 -1.0491
  743MPD2     N10986   2.294   0.538   1.820 -0.6735 -0.2118 -0.1338
  743MPD2    H510987   2.323   0.488   1.737  2.9087  0.3491  0.8157
  743MPD2    N110988   1.880   0.651   1.592 -0.8951  0.4713  0.1809
  743MPD2    H710989   1.796   0.708   1.595 -0.1251  1.6466 -0.5300
  744TMC3    C110990   1.831   0.663   1.365 -0.4825 -0.3470  0.7168
  744TMC3    C210991   1.839   0.801   1.373 -0.0384  0.7825 -0.4661
  744TMC3    C310992   1.802   0.875   1.264 -0.8029  0.6250  0.0594
  744TMC3    C410993   1.792   0.595   1.251 -0.1281  0.7840  0.3528
  744TMC3    C510994   1.757   0.680   1.147 -0.1976  0.0529 -0.4883
  744TMC3    C610995   1.765   0.818   1.149 -0.7388 -0.4844  0.2647
  744TMC3     C10996   1.906   0.596   1.471  0.2983  0.8072  0.0754
  744TMC3     O10997   1.971   0.497   1.438  0.4379  0.5365  0.0562
  744TMC3     H10998   1.876   0.853   1.460 -3.0234  0.0730  1.2223
  744TMC3    H110999   1.820   0.492   1.232 -0.9953  0.5126  0.5636
  744TMC3    H211000   1.745   0.874   1.058 -1.6392  1.8070  1.8836
  744TMC3    C711001   1.767   0.616   1.010  0.5263  0.0058 -0.6064
  744TMC3    C811002   1.760   1.007   1.290 -0.8646 -0.1608 -0.4083
  744TMC3    O111003   1.819   0.679   0.921  0.6574 -0.4516  0.3520
  744TMC3    O211004   1.746   1.086   1.193  0.4848 -0.1602 -0.3025
  745TMC3    C111005   0.143   3.778  13.866  0.1033  0.4124  0.8899
  745TMC3    C211006   0.043   3.735  13.946 -0.7147 -0.4000 -0.5097
  745TMC3    C311007   4.641   3.703  13.884 -0.0778  0.1097 -0.3810
  745TMC3    C411008   0.131   3.777  13.728  1.3185  0.0417 -0.0724
  745TMC3    C511009   0.007   3.759  13.671 -0.2906 -0.5290 -0.5572
  745TMC3    C611010   4.623   3.725  13.750  0.2050 -0.4918 -0.5773
  745TMC3     C11011   0.256   3.840  13.932  0.5373  0.6542  0.3573
  745TMC3     O11012   0.274   3.826  14.054 -0.0233 -0.2124 -0.1316
  745TMC3     H11013   0.066   3.700  14.046  1.5870 -0.7793 -1.1701
  745TMC3    H111014   0.219   3.790  13.667  2.0366 -2.4149  0.4813
  745TMC3    H211015   4.528   3.706  13.703 -0.1498  0.1236 -0.1054
  745TMC3    C711016   4.711   3.738  13.529  0.4539  0.1255 -0.1707
  745TMC3    C811017   4.526   3.741  13.961 -0.1457  0.3350 -0.4943
  745TMC3    O111018   4.603   3.695  13.493 -0.0183 -0.5858 -0.2626
  745TMC3    O211019   4.413   3.722  13.918  0.5467 -0.4265  0.1538
  746TMC3    C111020   2.203   0.931  10.916  0.6163 -0.1156  0.3676
  746TMC3    C211021   2.305   0.882  10.847  0.9239  0.4434 -0.5670
  746TMC3    C311022   2.292   0.760  10.794  0.0447 -0.3400  0.2795
  746TMC3    C411023   2.104   0.852  10.976  0.7466  0.4692 -1.2489
  746TMC3    C511024   2.099   0.724  10.931  0.9803 -0.3538 -0.0326
  746TMC3    C611025   2.189   0.677  10.836  0.0395 -0.1291 -0.2184
  746TMC3     C11026   2.220   1.065  10.970 -0.2015 -0.2892  0.8856
  746TMC3     O11027   2.165   1.107  11.072  0.1260  0.3877  0.4514
  746TMC3     H11028   2.398   0.937  10.846  1.8012 -1.0223  1.5006
  746TMC3    H111029   2.038   0.902  11.045  1.2922  1.1219 -1.1980
  746TMC3    H211030   2.175   0.583  10.784  0.1408  0.9545 -2.1917
  746TMC3    C711031   1.976   0.644  10.939 -0.2377 -0.4609 -0.5216
  746TMC3    C811032   2.397   0.704  10.713 -0.0126  0.3031  0.1139
  746TMC3    O111033   1.955   0.571  10.844  0.0072  0.4750  0.0336
  746TMC3    O211034   2.430   0.589  10.733 -0.2096  0.1388 -0.2128
  747TMC3    C111035   0.153   0.649  10.896 -0.1810 -0.7145  0.2329
  747TMC3    C211036   0.058   0.568  10.952 -0.1475  0.6109  0.2126
  747TMC3    C311037   0.056   0.558  11.090 -0.0136 -0.4637 -0.7861
  747TMC3    C411038   0.242   0.719  10.976 -0.3409  0.0960  0.0267
  747TMC3    C511039   0.237   0.698  11.115  0.3087 -0.3068  0.5035
  747TMC3    C611040   0.142   0.623  11.174  0.2044  0.5452  0.1193
  747TMC3     C11041   0.126   0.710  10.772  0.9000 -0.4769  0.3330
  747TMC3     O11042   0.159   0.828  10.770  0.1574  0.1571 -0.0318
  747TMC3     H11043   4.697   0.528  10.894  0.0826 -1.5956  1.3974
  747TMC3    H111044   0.300   0.803  10.939 -1.0267  0.5434 -0.0236
  747TMC3    H211045   0.163   0.590  11.275  1.5922  1.4642  0.1252
  747TMC3    C711046   0.320   0.783  11.200 -0.1690  0.6790 -0.7795
  747TMC3    C811047   4.670   0.470  11.148 -0.0878 -0.5518 -0.0571
  747TMC3    O111048   0.275   0.784  11.312 -0.0738 -0.0945  0.3000
  747TMC3    O211049   4.615   0.387  11.073 -0.0718 -0.2535 -0.3209
  748MPD2     C11050   1.074   1.804   1.905 -0.2061 -0.4458 -0.5303
  748MPD2    C111051   1.129   1.789   1.779  0.4271  0.2843  0.2309
  748MPD2    C211052   1.267   1.765   1.763 -0.1131 -0.1017  0.1640
  748MPD2    C311053   1.350   1.740   1.870  0.1084  0.2232 -0.9295
  748MPD2    C411054   1.293   1.745   1.998 -0.3292 -1.1048 -0.0401
  748MPD2    C511055   1.160   1.778   2.013  0.6597 -1.1215  0.2131
  748MPD2     H11056   1.309   1.749   1.664  0.0177  2.5143 -0.2052
  748MPD2    H111057   1.345   1.718   2.089 -1.1725  0.9420  1.0415
  748MPD2    H211058   0.973   1.843   1.915 -0.4917 -0.9848 -1.3298
  748MPD2    H311059   1.124   1.802   2.113  3.9038  4.1802  0.1401
  748MPD2     N11060   1.483   1.710   1.851 -0.5022 -1.0059 -0.1979
  748MPD2    H511061   1.522   1.722   1.758  0.4614 -0.1237  0.3110
  748MPD2    N111062   1.045   1.827   1.674 -0.3499 -0.0778 -0.2228
  748MPD2    H711063   0.956   1.868   1.701 -1.1696 -1.3918 -0.9481
  749TMC3    C111064   1.703   1.696   1.897  0.9419 -0.1783  0.2108
  749TMC3    C211065   1.796   1.603   1.935  0.1356 -0.1154  0.1283
  749TMC3    C311066   1.919   1.581   1.873 -1.1981  0.0784 -0.3342
  749TMC3    C411067   1.730   1.765   1.780 -0.8336  0.2593 -0.3903
  749TMC3    C511068   1.856   1.751   1.729 -0.2487 -0.2511  0.0103
  749TMC3    C611069   1.955   1.661   1.770  0.0820 -0.1682  0.2944
  749TMC3     C11070   1.575   1.681   1.951 -0.9993 -0.2861 -0.3390
  749TMC3     O11071   1.554   1.611   2.051 -0.0249  0.2838 -0.4676
  749TMC3     H11072   1.781   1.541   2.023 -0.0822 -2.2672 -1.4300
  749TMC3    H111073   1.655   1.828   1.735  0.1264  0.7061 -1.3813
  749TMC3    H211074   2.053   1.657   1.725  0.2837  0.6536  0.6622
  749TMC3    C711075   1.887   1.844   1.622 -0.1172 -0.0262 -0.3156
  749TMC3    C811076   2.018   1.500   1.932 -0.7105  0.0357  0.0029
  749TMC3    O111077   1.823   1.949   1.624 -0.3511  0.3972 -0.0190
  749TMC3    O211078   2.036   1.504   2.053 -1.2434 -0.4111 -0.0741
  750MPD2     C11079   2.596   2.914  11.221 -0.6706  0.6522  0.2981
  750MPD2    C111080   2.477   2.858  11.255 -0.4484  0.7586 -0.5063
  750MPD2    C211081   2.448   2.736  11.200  0.3413  0.6156 -0.0414
  750MPD2    C311082   2.541   2.668  11.127 -0.7264 -0.0978 -0.3113
  750MPD2    C411083   2.663   2.733  11.094 -0.2347 -0.3176  0.8995
  750MPD2    C511084   2.685   2.854  11.143 -0.2150 -0.1348 -0.4497
  750MPD2     H11085   2.356   2.679  11.211 -0.7306  2.3888  0.1860
  750MPD2    H111086   2.742   2.685  11.038 -0.9278  0.2087 -0.5348
  750MPD2    H211087   2.618   3.016  11.249 -1.2854  1.2191 -1.2805
  750MPD2    H311088   2.780   2.904  11.123 -1.1206  0.6953 -2.6633
  750MPD2     N11089   2.523   2.534  11.086  0.0949  0.5715 -0.4365
  750MPD2    H511090   2.583   2.500  11.012  0.7291  0.2278  0.2376
  750MPD2    N111091   2.382   2.936  11.321 -0.2268 -0.1460  0.1518
  750MPD2    H711092   2.399   3.035  11.330  1.6688 -0.6431  1.9985
  751TMC3    C111093   2.423   2.324  11.068 -0.6912  1.3371 -0.6343
  751TMC3    C211094   2.307   2.257  11.086 -0.1337  0.0673 -0.5104
  751TMC3    C311095   2.291   2.134  11.034  0.1361  0.4385  0.3307
  751TMC3    C411096   2.531   2.253  11.023  0.5315 -0.1443  0.2657
  751TMC3    C511097   2.521   2.120  10.985  0.2418  0.1710  0.1299
  751TMC3    C611098   2.397   2.061  10.983 -0.9034 -0.2558 -0.5046
  751TMC3     C11099   2.437   2.441  11.137  0.2719 -0.0045 -0.6626
  751TMC3     O11100   2.371   2.448  11.240  0.4069 -0.3022  0.0512
  751TMC3     H11101   2.228   2.313  11.135  1.7168  1.6203  0.7051
  751TMC3    H111102   2.621   2.312  11.014  0.3979  0.0763  0.3702
  751TMC3    H211103   2.392   1.959  10.946 -0.2044 -0.4354 -0.1036
  751TMC3    C711104   2.627   2.064  10.900  0.4808 -0.9848 -0.0519
  751TMC3    C811105   2.161   2.100  10.976 -0.2353  0.2902  0.0228
  751TMC3    O111106   2.696   2.151  10.841  0.0566  0.3202 -0.1038
  751TMC3    O211107   2.161   2.011  10.893  0.1692  0.2757 -0.3557
  752TMC3    C111108   1.514   3.087  17.188  0.1272  1.0882  0.5950
  752TMC3    C211109   1.531   3.019  17.305 -0.0730 -0.4463  0.1160
  752TMC3    C311110   1.584   3.090  17.409 -0.1175  0.0072  0.0667
  752TMC3    C411111   1.551   3.218  17.167  0.3693  0.0413  0.5306
  752TMC3    C511112   1.622   3.279  17.268  1.1302  0.0727  0.4837
  752TMC3    C611113   1.633   3.217  17.393 -0.1403 -0.1550  0.2176
  752TMC3     C11114   1.513   3.012  17.060  0.0791 -0.2950  0.3693
  752TMC3     O11115   1.607   2.929  17.055 -0.0169 -0.0863  0.4793
  752TMC3     H11116   1.495   2.917  17.310 -1.1160 -0.2435 -2.7467
  752TMC3    H111117   1.550   3.263  17.069  2.4004 -1.9857 -0.4226
  752TMC3    H211118   1.687   3.261  17.476 -1.2891 -0.4606  1.1201
  752TMC3    C711119   1.708   3.393  17.231  0.8507  0.2535  0.3582
  752TMC3    C811120   1.575   3.026  17.534 -0.3355  0.4161  0.4877
  752TMC3    O111121   1.711   3.415  17.109 -0.3416 -0.3898 -0.0975
  752TMC3    O211122   1.564   2.904  17.531  0.1707  0.9120  0.3756
  753TMC3    C111123   3.241   3.907  13.435 -0.2353  0.0467 -0.6497
  753TMC3    C211124   3.191   3.910  13.566 -0.5949 -0.6759 -0.3666
  753TMC3    C311125   3.119   3.799  13.598 -0.0966  0.2110  0.1281
  753TMC3    C411126   3.232   3.803  13.347 -0.7453 -0.3168  0.1176
  753TMC3    C511127   3.165   3.695  13.397  0.2639  0.2975  0.4031
  753TMC3    C611128   3.109   3.689  13.521 -0.2656 -0.7446 -0.0404
  753TMC3     C11129   3.298   4.035  13.396  0.1889 -0.1133  0.1754
  753TMC3     O11130   3.253   4.136  13.449 -0.2130 -0.2885 -0.2405
  753TMC3     H11131   3.195   4.001  13.626  0.4502  0.7814 -2.6395
  753TMC3    H111132   3.239   3.828  13.242  1.2415  0.9028  0.5365
  753TMC3    H211133   3.058   3.607  13.570 -2.0288 -0.3457 -1.2239
  753TMC3    C711134   3.107   3.596  13.302  0.8000  0.0407  0.2268
  753TMC3    C811135   3.062   3.797  13.736  0.0441  0.6650  0.2643
  753TMC3    O111136   3.172   3.555  13.206  0.8355 -0.5631  0.4664
  753TMC3    O211137   2.956   3.740  13.749  0.1025  0.0877  0.4971
  754MPD2     C11138   1.856   2.151  12.744  0.3310  0.1194 -0.4938
  754MPD2    C111139   1.821   2.051  12.832 -0.2357  0.5812 -0.1432
  754MPD2    C211140   1.689   2.035  12.861 -0.4753  0.2093  0.1217
  754MPD2    C311141   1.595   2.132  12.824 -0.1260  0.5741  0.3008
  754MPD2    C411142   1.630   2.234  12.741 -0.0982  0.1015 -0.1693
  754MPD2    C511143   1.760   2.245  12.701 -0.7520  0.3256  0.0315
  754MPD2     H11144   1.656   1.956  12.927  1.5240 -1.6570 -1.1085
  754MPD2    H111145   1.552   2.306  12.718  1.1153  1.5582  0.2571
  754MPD2    H211146   1.959   2.181  12.725  1.0507 -1.7850  0.4514
  754MPD2    H311147   1.796   2.325  12.637  0.6006  0.2114  0.6629
  754MPD2     N11148   1.469   2.135  12.872 -0.4034  0.4732  0.0457
  754MPD2    H511149   1.417   2.222  12.870  0.0934  0.7917  1.1760
  754MPD2    N111150   1.920   1.970  12.893 -0.5678  0.1322 -0.0577
  754MPD2    H711151   2.014   1.954  12.858 -0.3583 -3.5364  2.1466
  755MPD2     C11152   1.116   2.762  13.201 -0.2098 -0.4207 -0.0022
  755MPD2    C111153   1.101   2.690  13.313 -0.7050 -0.6439  0.4481
  755MPD2    C211154   1.154   2.558  13.317 -0.5576 -0.2024  0.3418
  755MPD2    C311155   1.205   2.506  13.202  0.0456 -0.0107 -0.4658
  755MPD2    C411156   1.223   2.586  13.093  0.2347  0.5746 -0.1263
  755MPD2    C511157   1.181   2.714  13.092 -0.2899  0.0674 -0.1454
  755MPD2     H11158   1.148   2.499  13.408 -2.1805 -0.4878  0.0386
  755MPD2    H111159   1.267   2.555  12.999 -0.9419 -0.7655 -0.2381
  755MPD2    H211160   1.064   2.854  13.180 -1.1479 -1.2505 -1.3360
  755MPD2    H311161   1.187   2.773  13.002  2.2865  0.3101  0.1610
  755MPD2     N11162   1.248   2.374  13.190  0.1825  0.0171 -0.3895
  755MPD2    H511163   1.290   2.353  13.099 -1.5082 -1.4521 -0.8146
  755MPD2    N111164   1.056   2.748  13.438  0.2883  0.6891 -0.3208
  755MPD2    H711165   1.068   2.692  13.522  0.1576  1.5834  0.3104
  756MPD2     C11166   1.398   3.373   9.598 -0.2257  0.1831  0.1167
  756MPD2    C111167   1.391   3.276   9.697  0.1482  0.1546  0.1876
  756MPD2    C211168   1.270   3.229   9.737 -0.0550  0.0788 -0.5995
  756MPD2    C311169   1.151   3.269   9.679 -0.2732  0.4246  0.2323
  756MPD2    C411170   1.157   3.364   9.581  0.1202 -0.4040 -0.4661
  756MPD2    C511171   1.277   3.417   9.540  0.8613  0.7819  0.7841
  756MPD2     H11172   1.268   3.164   9.823 -1.8735  1.9532  0.7780
  756MPD2    H111173   1.068   3.392   9.526  1.5611  3.9780 -0.5451
  756MPD2    H211174   1.496   3.411   9.571 -1.0092  1.5062 -0.8993
  756MPD2    H311175   1.276   3.497   9.467 -2.4842  0.9330  0.9580
  756MPD2     N11176   1.036   3.189   9.716  0.4068  0.4473  1.2529
  756MPD2    H511177   1.064   3.107   9.768 -0.8632 -1.1251 -0.5297
  756MPD2    N111178   1.503   3.230   9.768  0.3978  0.5889 -0.2110
  756MPD2    H711179   1.489   3.175   9.852  0.3176  1.4954  0.3788
  757MPD2     C11180   1.157   2.431  10.024 -0.1670 -0.4792  0.5456
  757MPD2    C111181   1.217   2.504   9.931  0.5968  0.0285 -0.6717
  757MPD2    C211182   1.146   2.612   9.879  0.0094  0.1857  0.0264
  757MPD2    C311183   1.017   2.637   9.922 -0.7952  0.0275 -0.6688
  757MPD2    C411184   0.956   2.557  10.016 -0.1716 -0.5308  0.1770
  757MPD2    C511185   1.026   2.457  10.069  0.1363 -0.0424 -0.1584
  757MPD2     H11186   1.188   2.673   9.800  0.9480  1.7013  1.7071
  757MPD2    H111187   0.859   2.576  10.059 -1.0977 -1.3831 -1.5661
  757MPD2    H211188   1.220   2.354  10.067  1.0182  1.0970  1.6667
  757MPD2    H311189   0.984   2.391  10.144 -0.0789  0.7776  0.4424
  757MPD2     N11190   0.945   2.745   9.858 -0.4548  0.5734  0.0830
  757MPD2    H511191   0.999   2.798   9.791  2.2867  0.4325  2.1787
  757MPD2    N111192   1.351   2.472   9.897  0.0257 -0.2047 -0.2095
  757MPD2    H711193   1.393   2.388   9.936 -1.1691  0.3460  2.2515
  758MPD2     C11194   1.903   2.370  16.015  0.2350 -0.5433 -0.4324
  758MPD2    C111195   1.937   2.286  16.113  0.4751 -0.2739 -0.5920
  758MPD2    C211196   1.864   2.298  16.230 -0.6458  0.1295 -0.2890
  758MPD2    C311197   1.776   2.407  16.257 -0.4319  0.4475  0.0628
  758MPD2    C411198   1.753   2.494  16.152 -0.4106 -0.1555 -0.0280
  758MPD2    C511199   1.820   2.475  16.038  0.3793  0.0951 -0.2431
  758MPD2     H11200   1.872   2.221  16.306  1.5057 -0.5810 -1.2282
  758MPD2    H111201   1.696   2.586  16.153 -1.2048 -0.6726  1.4422
  758MPD2    H211202   1.954   2.355  15.920  0.3519 -0.4024 -0.3918
  758MPD2    H311203   1.811   2.555  15.966 -2.2080  0.6704  0.7405
  758MPD2     N11204   1.704   2.433  16.377  0.2690 -0.0589  0.0753
  758MPD2    H511205   1.629   2.502  16.379 -0.3775 -0.7656  0.0514
  758MPD2    N111206   2.038   2.190  16.091 -0.2816  0.6138  0.3460
  758MPD2    H711207   2.097   2.200  16.008 -3.0631  0.4596 -1.6414
  759MPD2     C11208   0.542   1.022   9.618  0.1457  0.3134  0.7601
  759MPD2    C111209   0.589   0.892   9.622 -0.0286 -0.1957  0.3277
  759MPD2    C211210   0.695   0.856   9.539 -0.1432  0.3788 -0.3140
  759MPD2    C311211   0.751   0.945   9.449  0.5645 -0.0382 -0.4802
  759MPD2    C411212   0.709   1.076   9.451  0.2671  0.1075 -0.2486
  759MPD2    C511213   0.604   1.108   9.530  0.3604  0.1826 -0.2430
  759MPD2     H11214   0.734   0.755   9.542 -0.8482  0.0752 -1.5365
  759MPD2    H111215   0.757   1.153   9.392  0.3550  0.1392 -0.1342
  759MPD2    H211216   0.459   1.052   9.681  1.5699  0.9925  2.3327
  759MPD2    H311217   0.585   1.214   9.545 -0.5655  0.1444 -1.1609
  759MPD2     N11218   0.870   0.907   9.381  0.0948  0.3339 -0.4260
  759MPD2    H511219   0.902   0.815   9.407  3.5128  1.8029  0.6862
  759MPD2    N111220   0.535   0.779   9.702  0.5324 -0.2798 -0.1031
  759MPD2    H711221   0.563   0.685   9.677  2.1950  0.0529  0.5531
  760MPD2     C11222   0.290   2.286  11.999 -0.0139 -0.5678  0.6844
  760MPD2    C111223   0.415   2.314  11.946 -0.4532  0.7520  0.5402
  760MPD2    C211224   0.508   2.223  11.966 -0.5508 -0.0121  0.3251
  760MPD2    C311225   0.490   2.107  12.044 -0.2009  0.1590  0.4458
  760MPD2    C411226   0.360   2.082  12.090  0.0168  0.2599  0.5449
  760MPD2    C511227   0.265   2.172  12.068  0.3503  0.2471  0.0511
  760MPD2     H11228   0.605   2.243  11.924  1.4687 -3.1831  3.4076
  760MPD2    H111229   0.328   1.989  12.136  1.1407 -0.1204  0.5538
  760MPD2    H211230   0.206   2.353  11.988 -0.6313 -1.1845  1.6986
  760MPD2    H311231   0.170   2.156  12.116 -0.4453  1.2930 -1.1652
  760MPD2     N11232   0.590   2.012  12.075 -0.7673 -0.6268  0.0029
  760MPD2    H511233   0.559   1.922  12.110 -0.8439 -0.3860  0.5574
  760MPD2    N111234   0.446   2.429  11.868  0.1005  0.4323 -0.2088
  760MPD2    H711235   0.543   2.442  11.841  0.3539 -3.2145 -1.0931
  761MPD2     C11236   1.658   2.166  10.913  1.0699 -0.3255  0.0979
  761MPD2    C111237   1.754   2.107  10.826 -0.0278 -0.1447  0.0551
  761MPD2    C211238   1.885   2.122  10.853 -0.7234 -0.6488 -0.2610
  761MPD2    C311239   1.926   2.178  10.970 -0.2885  1.0302  0.5569
  761MPD2    C411240   1.835   2.249  11.046 -0.0570  0.2593  0.1673
  761MPD2    C511241   1.704   2.246  11.015 -0.5110  0.0472 -0.4868
  761MPD2     H11242   1.956   2.075  10.785 -0.2806 -0.6266  0.1905
  761MPD2    H111243   1.865   2.300  11.137 -0.4073 -0.9409  0.9501
  761MPD2    H211244   1.552   2.164  10.888  1.4093 -2.5324 -1.1597
  761MPD2    H311245   1.630   2.294  11.078 -1.8321  0.4558 -2.3434
  761MPD2     N11246   2.056   2.176  11.020  0.0582  0.4225  0.7445
  761MPD2    H511247   2.082   2.242  11.093  0.6107  1.4591 -0.3929
  761MPD2    N111248   1.700   2.048  10.705 -0.0950 -0.0966 -0.0292
  761MPD2    H711249   1.609   2.075  10.671 -0.4129  0.4609  1.2637
  762MPD2     C11250   2.415   1.958  10.598 -0.4735  1.1515  0.2999
  762MPD2    C111251   2.362   1.828  10.594 -0.1197 -0.8139  0.0738
  762MPD2    C211252   2.440   1.730  10.530  0.3334  0.5303 -0.2013
  762MPD2    C311253   2.572   1.755  10.483  0.0049 -0.6166 -0.0081
  762MPD2    C411254   2.630   1.878  10.509  0.7453 -0.2924 -0.4169
  762MPD2    C511255   2.549   1.973  10.557 -0.2475 -0.5069 -0.6345
  762MPD2     H11256   2.403   1.631  10.507 -1.4939  1.4332 -1.1803
  762MPD2    H111257   2.733   1.896  10.480  0.2342  1.1311 -1.3739
  762MPD2    H211258   2.355   2.041  10.633 -0.9093  1.2851 -0.7580
  762MPD2    H311259   2.596   2.071  10.561  0.1238 -0.6852 -0.7184
  762MPD2     N11260   2.654   1.647  10.448  0.1739 -0.6088 -0.2220
  762MPD2    H511261   2.610   1.559  10.475 -1.8423  0.5429  0.2579
  762MPD2    N111262   2.232   1.813  10.640  0.2278  0.0299  0.3626
  762MPD2    H711263   2.194   1.892  10.692 -1.2468 -0.7875  0.5346
  763MPD2     C11264   3.786   2.305  16.304  0.0835 -0.4230  0.6778
  763MPD2    C111265   3.726   2.387  16.210 -0.1030 -0.4577  1.1456
  763MPD2    C211266   3.690   2.515  16.245 -0.5561 -0.2899  0.4195
  763MPD2    C311267   3.723   2.567  16.368  0.7158  0.0128  0.4215
  763MPD2    C411268   3.800   2.490  16.452 -0.0099 -0.7182 -0.2277
  763MPD2    C511269   3.828   2.358  16.425 -0.2659 -0.3716  0.4587
  763MPD2     H11270   3.644   2.581  16.172  0.2837 -0.7170 -0.5082
  763MPD2    H111271   3.827   2.521  16.552 -0.9479 -1.0777  0.1363
  763MPD2    H211272   3.804   2.199  16.301 -0.1025 -0.3932 -1.4816
  763MPD2    H311273   3.859   2.292  16.506 -0.3932 -1.5520 -0.4588
  763MPD2     N11274   3.668   2.691  16.399  0.1777  0.5388 -0.2679
  763MPD2    H511275   3.614   2.742  16.330 -0.3767 -0.9589 -0.9475
  763MPD2    N111276   3.712   2.348  16.074 -0.9146 -0.0730  0.0785
  763MPD2    H711277   3.687   2.422  16.009  0.1379 -1.4243 -1.8746
  764MPD2     C11278   2.459   4.019   0.181 -0.0302 -0.3195 -0.0449
  764MPD2    C111279   2.389   3.941   0.088  0.7551 -0.3997 -0.1604
  764MPD2    C211280   2.282   3.866   0.135  0.7510  0.0739  0.4168
  764MPD2    C311281   2.272   3.852   0.274  0.6034 -0.0617  0.5362
  764MPD2    C411282   2.350   3.924   0.364 -0.3043  0.3272  0.6732
  764MPD2    C511283   2.442   4.021   0.311 -0.0810  0.0603  0.0988
  764MPD2     H11284   2.216   3.814   0.067  1.4692  1.1651 -1.1087
  764MPD2    H111285   2.344   3.933   0.472 -0.4816 -0.0627  0.6940
  764MPD2    H211286   2.542   4.084   0.156 -1.2780  1.1744 -0.3230
  764MPD2    H311287   2.502   4.085   0.376  0.5961  0.5343 -0.9900
  764MPD2     N11288   2.173   3.753   0.321 -0.3161 -0.6492  0.4401
  764MPD2    H511289   2.128   3.692   0.255 -0.8170 -1.4737  1.5507
  764MPD2    N111290   2.403   3.959  17.639  0.1163  0.1201 -0.0641
  764MPD2    H711291   2.331   3.912  17.585 -0.1754  0.7866 -0.2560
  765MPD2     C11292   1.117   1.281  16.014  0.6213 -0.1170 -0.0080
  765MPD2    C111293   1.211   1.385  16.010  0.3538 -0.2540  0.0449
  765MPD2    C211294   1.343   1.356  15.987  0.0357 -0.7590 -0.5857
  765MPD2    C311295   1.380   1.230  15.947 -0.4376 -0.1613 -0.1389
  765MPD2    C411296   1.284   1.131  15.926  0.2777 -0.5223  0.5101
  765MPD2    C511297   1.155   1.158  15.972 -0.8431  0.6189  0.1974
  765MPD2     H11298   1.425   1.425  16.002  1.2756 -2.1597 -0.9404
  765MPD2    H111299   1.304   1.029  15.898 -1.0565 -1.1043  1.6940
  765MPD2    H211300   1.020   1.310  16.053  0.8228  0.2839  0.1855
  765MPD2    H311301   1.084   1.076  15.969 -0.2123  0.0323  1.3398
  765MPD2     N11302   1.520   1.206  15.926  0.5123 -0.2988 -0.1077
  765MPD2    H511303   1.586   1.282  15.940 -0.9547  0.5122  2.3335
  765MPD2    N111304   1.166   1.507  16.058  0.7377  0.3283  0.0571
  765MPD2    H711305   1.066   1.515  16.073  0.5952 -1.4614  0.0634
  766MPD2     C11306   0.672   1.741  15.756  0.6374 -0.2881 -0.1150
  766MPD2    C111307   0.808   1.756  15.752 -0.3559 -0.0889  0.6390
  766MPD2    C211308   0.884   1.713  15.641 -0.5139 -0.1106  0.1970
  766MPD2    C311309   0.821   1.658  15.531  0.4432 -0.9631  0.3224
  766MPD2    C411310   0.685   1.647  15.535  0.4530 -0.2333  0.0781
  766MPD2    C511311   0.608   1.690  15.643 -0.0199  0.2577  0.9622
  766MPD2     H11312   0.991   1.730  15.633  0.0573 -4.1389 -0.6747
  766MPD2    H111313   0.629   1.610  15.451  0.9870  0.5733 -0.6373
  766MPD2    H211314   0.604   1.762  15.838 -0.5208  0.4597 -1.2504
  766MPD2    H311315   0.504   1.662  15.642  0.1260 -0.1370 -2.5556
  766MPD2     N11316   0.885   1.631  15.411 -0.2313  0.1320 -0.1747
  766MPD2    H511317   0.833   1.633  15.324  0.7942  1.7473 -0.7435
  766MPD2    N111318   0.879   1.793  15.869  0.1683 -0.3628  0.0460
  766MPD2    H711319   0.979   1.797  15.857  0.4967 -0.7625  2.6920
  767MPD2     C11320   0.744   2.036  15.509  0.1382 -0.6910 -0.3333
  767MPD2    C111321   0.852   2.005  15.431 -0.4029 -0.6134 -0.1375
  767MPD2    C211322   0.826   1.948  15.308 -0.5997 -0.4077 -0.1795
  767MPD2    C311323   0.696   1.919  15.272  0.6130 -0.8958 -0.9743
  767MPD2    C411324   0.592   1.936  15.358  0.1449  0.5464 -0.7606
  767MPD2    C511325   0.618   1.991  15.483  0.0566  0.0944 -0.2919
  767MPD2     H11326   0.899   1.941  15.228  2.5751 -0.6093  2.7383
  767MPD2    H111327   0.491   1.898  15.348  0.5101 -0.6087 -0.0707
  767MPD2    H211328   0.760   2.088  15.602 -1.5836  0.7143 -0.8083
  767MPD2    H311329   0.533   1.995  15.550 -0.0772 -0.4216 -0.4338
  767MPD2     N11330   0.679   1.860  15.139  0.0751  0.4919  0.6380
  767MPD2    H511331   0.757   1.849  15.075 -1.1266  2.2614 -1.1156
  767MPD2    N111332   0.988   2.039  15.479 -0.4495 -0.1644  0.5366
  767MPD2    H711333   0.985   2.102  15.559 -0.2432  0.2135  0.2426
  768MPD2     C11334   1.693   0.020  10.657  0.6241 -0.7316  0.5953
  768MPD2    C111335   1.639   0.119  10.743 -0.0917 -0.4367  0.6374
  768MPD2    C211336   1.718   0.185  10.839  0.5275 -0.1964  0.6474
  768MPD2    C311337   1.854   0.164  10.841 -0.4143 -0.4666  0.4700
  768MPD2    C411338   1.907   0.086  10.737 -0.2017 -0.0884  0.6765
  768MPD2    C511339   1.832   0.017  10.650  0.1268 -0.5989  0.0904
  768MPD2     H11340   1.662   0.263  10.890  1.1064  0.3037  0.5124
  768MPD2    H111341   2.015   0.082  10.729 -0.3119 -1.0749 -0.2290
  768MPD2    H211342   1.641   4.685  10.582 -0.6186  1.2187 -0.0168
  768MPD2    H311343   1.884   4.676  10.580  0.6992  0.8922 -0.8273
  768MPD2     N11344   1.936   0.243  10.929 -0.4615  0.4647  0.1788
  768MPD2    H511345   2.034   0.259  10.907 -0.6858  0.5524 -0.7556
  768MPD2    N111346   1.501   0.149  10.724  0.5811  0.6803  0.1562
  768MPD2    H711347   1.468   0.227  10.780 -0.1301  0.3653  0.1678
  769MPD2     C11348   2.867   3.173  14.692 -0.1745  0.1757  0.1511
  769MPD2    C111349   2.799   3.092  14.785 -0.6603 -0.1101 -0.2833
  769MPD2    C211350   2.840   3.077  14.918  0.6210 -0.5037  0.0677
  769MPD2    C311351   2.944   3.153  14.966 -0.1151 -0.5739  0.6212
  769MPD2    C411352   3.016   3.224  14.875  0.0244  0.0254  1.1089
  769MPD2    C511353   2.983   3.235  14.735  0.0317  1.0371 -0.0017
  769MPD2     H11354   2.776   3.035  14.994 -2.4111  0.6696 -1.8564
  769MPD2    H111355   3.089   3.296  14.909 -0.6445  2.1780 -2.0667
  769MPD2    H211356   2.834   3.191  14.591  1.5043  0.8768 -0.2689
  769MPD2    H311357   3.050   3.288  14.669 -0.1333  0.1634 -0.8704
  769MPD2     N11358   2.972   3.156  15.108  0.4216 -1.1824  0.1264
  769MPD2    H511359   2.927   3.088  15.169 -1.7361  0.1292  0.0094
  769MPD2    N111360   2.678   3.029  14.745 -0.4253  0.3396 -0.2251
  769MPD2    H711361   2.624   3.081  14.676 -0.9623 -0.9872 -0.8110
  770MPD2     C11362   2.140   2.478  15.349 -0.4763 -0.2069 -0.3145
  770MPD2    C111363   2.223   2.441  15.249  0.5549 -0.1159 -0.4665
  770MPD2    C211364   2.263   2.532  15.158  0.2930  0.0750  0.4741
  770MPD2    C311365   2.216   2.661  15.169 -0.0931  0.6795 -0.0758
  770MPD2    C411366   2.121   2.699  15.271 -0.4780  0.3307 -1.3557
  770MPD2    C511367   2.080   2.601  15.359  0.0431  0.7723  0.0152
  770MPD2     H11368   2.327   2.498  15.078 -2.4887 -0.9627 -1.3019
  770MPD2    H111369   2.077   2.798  15.277  2.1277  1.3908  0.2559
  770MPD2    H211370   2.097   2.402  15.414 -0.2384  1.1387  1.4172
  770MPD2    H311371   2.002   2.617  15.432 -0.1387 -0.7445  0.1582
  770MPD2     N11372   2.260   2.755  15.075 -0.4255 -1.1291  0.2578
  770MPD2    H511373   2.351   2.726  15.043 -1.0598 -1.1396 -1.5169
  770MPD2    N111374   2.265   2.311  15.246 -0.2190  0.1321 -0.0561
  770MPD2    H711375   2.215   2.253  15.312 -2.9086  1.5836 -0.8198
  771MPD2     C11376   3.532   0.859  14.122 -0.1700  0.0068  0.1597
  771MPD2    C111377   3.431   0.952  14.105  0.3395 -0.0371  0.4906
  771MPD2    C211378   3.309   0.917  14.048 -0.4464  0.2139  0.0180
  771MPD2    C311379   3.294   0.796  13.980  0.4529  0.1184 -0.4264
  771MPD2    C411380   3.399   0.709  13.991 -0.8561  0.1330 -0.1109
  771MPD2    C511381   3.516   0.738  14.060 -0.1019 -0.2540 -0.5034
  771MPD2     H11382   3.231   0.991  14.057  0.4581  1.1490  0.1232
  771MPD2    H111383   3.389   0.617  13.933 -3.7863 -0.3318  1.1573
  771MPD2    H211384   3.625   0.873  14.176  1.3990 -2.4908 -1.8996
  771MPD2    H311385   3.595   0.663  14.062  0.0652 -0.0782 -0.4585
  771MPD2     N11386   3.175   0.775  13.913  0.3485 -0.2636  0.0551
  771MPD2    H511387   3.109   0.852  13.911  1.7023  0.9111 -0.0353
  771MPD2    N111388   3.433   1.077  14.171  0.7200 -0.0751 -0.2209
  771MPD2    H711389   3.352   1.138  14.170  0.3829 -0.4975  1.5500
  772MPD2     C11390   2.952   1.409  13.982  0.1567 -0.6032 -0.5831
  772MPD2    C111391   2.975   1.464  14.110 -0.3707 -0.0685 -0.5739
  772MPD2    C211392   2.874   1.528  14.171  0.2785 -0.5138  0.4988
  772MPD2    C311393   2.746   1.544  14.116  0.2707 -1.0785 -0.0815
  772MPD2    C411394   2.726   1.487  13.993 -0.3521 -0.0154 -0.4453
  772MPD2    C511395   2.825   1.427  13.929  0.0380  0.1272 -0.0318
  772MPD2     H11396   2.890   1.573  14.269 -1.1099  1.5648 -0.2288
  772MPD2    H111397   2.625   1.499  13.954 -0.2150  0.1459 -0.7527
  772MPD2    H211398   3.029   1.357  13.926  2.0418  0.2170  1.2471
  772MPD2    H311399   2.792   1.399  13.829  1.8852 -1.4340 -0.2164
  772MPD2     N11400   2.641   1.613  14.178  0.3840 -0.2766 -0.2833
  772MPD2    H511401   2.551   1.623  14.132  1.0954  2.0647 -1.2021
  772MPD2    N111402   3.102   1.457  14.174  0.0674 -0.4269 -0.0772
  772MPD2    H711403   3.114   1.512  14.258 -1.0036 -0.9998  0.4542
  773MPD2     C11404   2.390   2.337   0.666 -0.1103  0.3814  0.7070
  773MPD2    C111405   2.361   2.279   0.545  0.7515 -0.2040 -0.0919
  773MPD2    C211406   2.433   2.163   0.503  0.3009  0.6936 -0.6393
  773MPD2    C311407   2.545   2.121   0.572 -0.2844 -0.7418 -0.7096
  773MPD2    C411408   2.575   2.180   0.696 -0.0907  0.6692  0.0436
  773MPD2    C511409   2.496   2.285   0.737 -0.4202  0.4685 -0.1518
  773MPD2     H11410   2.400   2.105   0.417 -0.0467  0.1268 -0.1231
  773MPD2    H111411   2.649   2.164   0.774 -0.8833 -0.1486  0.6308
  773MPD2    H211412   2.335   2.424   0.704  0.5519  1.1923 -0.1984
  773MPD2    H311413   2.518   2.337   0.830  0.0710 -3.0469  1.6784
  773MPD2     N11414   2.633   2.018   0.526  0.1606 -0.4211 -0.4051
  773MPD2    H511415   2.608   1.974   0.438 -0.5225  0.7069 -0.7787
  773MPD2    N111416   2.262   2.333   0.455  0.1527  0.0201  0.1653
  773MPD2    H711417   2.236   2.270   0.380  2.4903 -0.1451 -0.5251
  774MPD2     C11418   1.191   1.662  13.629 -0.2097  0.9018  0.1023
  774MPD2    C111419   1.271   1.755  13.694 -0.1256 -0.5354 -0.1386
  774MPD2    C211420   1.368   1.819  13.613  0.5608  0.3630 -0.1785
  774MPD2    C311421   1.393   1.787  13.479  0.8594  0.5525  0.3323
  774MPD2    C411422   1.310   1.693  13.424  0.7614  0.4756 -0.9607
  774MPD2    C511423   1.214   1.630  13.496 -0.0019  0.3222  0.5629
  774MPD2     H11424   1.431   1.897  13.656 -0.5018  1.2467 -0.2225
  774MPD2    H111425   1.324   1.673  13.318  0.9495 -2.6512 -0.3697
  774MPD2    H211426   1.116   1.617  13.693 -0.8912  2.1344  0.1657
  774MPD2    H311427   1.159   1.559  13.435  0.8825  2.6621 -2.9765
  774MPD2     N11428   1.502   1.842  13.417 -0.3351 -0.4284  0.1113
  774MPD2    H511429   1.553   1.916  13.464 -0.5129 -0.6865  0.7100
  774MPD2    N111430   1.244   1.783  13.826  0.5486  0.6032 -1.0860
  774MPD2    H711431   1.186   1.710  13.866 -0.6751  1.3208 -1.5579
  775MPD2     C11432   3.257   3.019  15.895 -0.2743 -0.3784 -0.0211
  775MPD2    C111433   3.202   3.141  15.938 -0.4626 -0.3440 -0.0421
  775MPD2    C211434   3.251   3.260  15.882  0.0281  0.0068 -0.0858
  775MPD2    C311435   3.357   3.251  15.791 -0.1433  0.6049 -0.4313
  775MPD2    C411436   3.410   3.136  15.746 -0.2967  0.6970 -0.4199
  775MPD2    C511437   3.356   3.019  15.801 -0.1575 -0.0591  0.2283
  775MPD2     H11438   3.219   3.352  15.930 -0.5076 -0.5733  0.6409
  775MPD2    H111439   3.498   3.139  15.684 -0.8170  2.0482 -1.0765
  775MPD2    H211440   3.230   2.918  15.925 -1.0690 -0.4760 -1.0915
  775MPD2    H311441   3.401   2.922  15.781 -2.3720 -1.3553  1.6000
  775MPD2     N11442   3.418   3.369  15.739 -0.6732  0.2314  0.7829
  775MPD2    H511443   3.469   3.365  15.652 -0.8902 -0.7852  0.7100
  775MPD2    N111444   3.110   3.146  16.037  0.5819 -0.1830  0.3675
  775MPD2    H711445   3.089   3.239  16.072 -0.3751  0.1997 -1.2429
  776MPD2     C11446   2.451   3.279  11.864 -0.1843 -0.5129  0.4823
  776MPD2    C111447   2.344   3.319  11.791 -0.4364 -0.0715  0.1709
  776MPD2    C211448   2.308   3.453  11.799  0.3691  0.3336  0.1781
  776MPD2    C311449   2.382   3.549  11.866 -0.2097 -0.5299  0.2211
  776MPD2    C411450   2.481   3.505  11.949 -0.5294 -0.0487 -0.2253
  776MPD2    C511451   2.513   3.373  11.942  0.4435 -0.8228  0.0679
  776MPD2     H11452   2.226   3.483  11.734 -1.5158 -2.4952  1.2258
  776MPD2    H111453   2.542   3.567  12.014 -1.4152 -0.8983  1.4273
  776MPD2    H211454   2.486   3.176  11.872  0.4468 -0.2822  0.7050
  776MPD2    H311455   2.599   3.344  12.003  1.2885 -0.3208 -0.8863
  776MPD2     N11456   2.357   3.688  11.864  0.3644  0.2152  0.3046
  776MPD2    H511457   2.412   3.746  11.928 -1.5463  0.6557  1.5473
  776MPD2    N111458   2.273   3.227  11.713 -0.6318 -0.1878 -0.1132
  776MPD2    H711459   2.308   3.132  11.720  1.5212  0.6925  0.9154
  777MPD2     C11460   2.386   1.150   0.788 -0.1665  0.5054 -0.3303
  777MPD2    C111461   2.392   1.036   0.863  0.2714 -0.7038  0.0754
  777MPD2    C211462   2.363   0.913   0.798 -0.2671  1.5158 -0.1530
  777MPD2    C311463   2.332   0.905   0.665 -0.3515  1.1957 -0.2603
  777MPD2    C411464   2.325   1.028   0.593  0.6161 -0.5357  0.5845
  777MPD2    C511465   2.352   1.146   0.659 -1.0574  0.3089  0.1554
  777MPD2     H11466   2.363   0.816   0.846  0.0149  0.7695 -1.6567
  777MPD2    H111467   2.296   1.030   0.488  0.8673  0.4479  0.5309
  777MPD2    H211468   2.403   1.249   0.827 -1.3210  0.2108  0.9042
  777MPD2    H311469   2.357   1.241   0.608  1.0116  0.4082  0.5409
  777MPD2     N11470   2.317   0.779   0.608  0.4554 -0.0301  0.2765
  777MPD2    H511471   2.327   0.702   0.674  2.6473 -0.4014 -0.4809
  777MPD2    N111472   2.424   1.055   1.002 -0.3203  0.0285 -0.5240
  777MPD2    H711473   2.418   1.146   1.047 -1.4422 -0.8083  1.0211
  778MPD2     C11474   3.290   0.930  15.438  0.3443 -0.2218 -0.2776
  778MPD2    C111475   3.190   0.946  15.341  0.6585  0.1494  0.1635
  778MPD2    C211476   3.220   1.028  15.236 -0.6924  0.1905  0.0676
  778MPD2    C311477   3.338   1.099  15.225 -0.2862 -0.0230 -0.2833
  778MPD2    C411478   3.434   1.080  15.314 -0.1429  0.5020 -0.1584
  778MPD2    C511479   3.412   1.000  15.421 -0.3271 -0.6797  0.1947
  778MPD2     H11480   3.147   1.042  15.158  1.3337  2.4648 -1.4113
  778MPD2    H111481   3.536   1.116  15.311 -0.0832  0.6567  3.6274
  778MPD2    H211482   3.286   0.857  15.518 -0.2407  0.4013  0.2662
  778MPD2    H311483   3.498   0.994  15.487  0.0842  1.8524 -0.1229
  778MPD2     N11484   3.347   1.174  15.110 -0.7288 -0.1136  0.4055
  778MPD2    H511485   3.262   1.184  15.057 -0.5245  2.1249  0.4980
  778MPD2    N111486   3.060   0.885  15.346 -0.0710  0.1107  0.1690
  778MPD2    H711487   3.010   0.886  15.257 -1.1785 -0.0242  0.7950
  779MPD2     C11488   2.957   4.523  14.501  0.7701 -0.2048  0.0458
  779MPD2    C111489   3.090   4.551  14.501 -0.0073 -0.3770  0.1184
  779MPD2    C211490   3.128   4.684  14.481 -0.1578  0.3938  0.1802
  779MPD2    C311491   3.024   0.057  14.497 -0.2622  0.0316  0.1987
  779MPD2    C411492   2.893   0.026  14.526 -0.0115  0.5370  0.4080
  779MPD2    C511493   2.862   4.617  14.525  0.3416 -0.4967 -0.4649
  779MPD2     H11494   3.226   4.711  14.444 -0.2295  1.9562  1.0983
  779MPD2    H111495   2.812   0.098  14.522  0.1865  0.6789 -1.0631
  779MPD2    H211496   2.928   4.419  14.517  1.3449 -0.3554  0.1093
  779MPD2    H311497   2.760   4.589  14.547  0.1872 -0.0880 -0.6704
  779MPD2     N11498   3.068   0.189  14.490 -0.5739 -0.0988 -0.4922
  779MPD2    H511499   3.169   0.201  14.479 -0.2463 -2.4321 -0.0669
  779MPD2    N111500   3.183   4.440  14.489 -0.5898 -0.0116  0.2563
  779MPD2    H711501   3.155   4.343  14.481 -0.2058  0.0525 -1.9356
  780MPD2     C11502   3.444   4.619   1.552  0.5823 -0.0319  0.2345
  780MPD2    C111503   3.333   4.603   1.467 -0.3253  0.1301 -0.0804
  780MPD2    C211504   3.332   4.677   1.349 -0.4411  0.2033 -0.1297
  780MPD2    C311505   3.429   0.052   1.325 -0.0864 -0.7079 -0.1834
  780MPD2    C411506   3.527   0.081   1.416  0.7118 -0.8209 -0.6919
  780MPD2    C511507   3.540   4.720   1.532 -0.7863  0.4698  0.4962
  780MPD2     H11508   3.255   4.665   1.274 -0.4811 -2.1708  0.2915
  780MPD2    H111509   3.595   0.164   1.401  1.5426 -1.2481  0.7241
  780MPD2    H211510   3.449   4.566   1.646 -0.2146  0.6610  0.6742
  780MPD2    H311511   3.618   0.017   1.605  0.7013 -1.3342 -0.6373
  780MPD2     N11512   3.398   0.137   1.216 -0.0161 -0.3524 -0.1728
  780MPD2    H511513   3.317   0.119   1.157  0.8072 -0.6230 -1.2167
  780MPD2    N111514   3.236   4.510   1.503  0.2147  0.0749 -0.2577
  780MPD2    H711515   3.262   4.467   1.591  0.1219  1.3231  0.3816
  781MPD2     C11516   0.171   0.786  12.157  0.5947 -0.0450 -0.3399
  781MPD2    C111517   0.151   0.916  12.193  0.6964 -0.6706  0.2706
  781MPD2    C211518   0.220   1.015  12.128 -0.1915 -0.0202  0.3808
  781MPD2    C311519   0.304   0.986  12.017  0.2309  0.3555 -0.0886
  781MPD2    C411520   0.317   0.851  11.987 -0.0948  0.3834 -0.1562
  781MPD2    C511521   0.254   0.754  12.057  0.6390 -0.7651 -0.2401
  781MPD2     H11522   0.205   1.118  12.161  0.2331  0.3208 -0.5058
  781MPD2    H111523   0.373   0.821  11.899 -1.5812 -0.9077 -0.6667
  781MPD2    H211524   0.131   0.702  12.213 -2.1854  1.7689  0.3844
  781MPD2    H311525   0.269   0.649  12.033 -2.9156 -0.7970 -2.3279
  781MPD2     N11526   0.372   1.073  11.934 -0.0134  0.8280 -0.5201
  781MPD2    H511527   0.429   1.038  11.857 -0.5255 -0.2896 -0.3883
  781MPD2    N111528   0.077   0.951  12.306 -0.7002  0.4623 -0.2380
  781MPD2    H711529   0.074   1.050  12.328  1.4565  0.2973  0.8512
  782MPD2     C11530   3.449   2.226  10.128 -0.5386  0.9541 -0.6625
  782MPD2    C111531   3.318   2.189  10.141  0.3665  0.2568 -0.4224
  782MPD2    C211532   3.221   2.277  10.095 -1.0148 -0.2585  0.5530
  782MPD2    C311533   3.257   2.403  10.061 -0.8262 -0.6536  0.4423
  782MPD2    C411534   3.387   2.433  10.047  0.1910  0.0639  0.3570
  782MPD2    C511535   3.483   2.345  10.078 -0.1495  0.3513  0.1389
  782MPD2     H11536   3.117   2.249  10.084 -0.0455 -3.4972 -0.3580
  782MPD2    H111537   3.422   2.516   9.987  0.1966 -1.5457 -1.8672
  782MPD2    H211538   3.518   2.154  10.170 -1.4615  1.6137  1.9440
  782MPD2    H311539   3.589   2.363  10.065  0.2538 -2.3837 -0.3844
  782MPD2     N11540   3.159   2.505  10.060  0.1229  0.2553  0.1665
  782MPD2    H511541   3.064   2.474  10.078  0.7627 -2.5315 -1.3141
  782MPD2    N111542   3.296   2.058  10.180  0.4772 -0.3674 -0.2295
  782MPD2    H711543   3.374   1.997  10.202  0.5502 -0.2774 -0.2383
  783MPD2     C11544   2.764   1.728  10.939  0.5089  0.1826 -0.5339
  783MPD2    C111545   2.758   1.854  10.884  0.0669 -0.4225  0.2549
  783MPD2    C211546   2.841   1.888  10.774 -0.3114  0.4745  0.0854
  783MPD2    C311547   2.931   1.790  10.720  0.4625 -0.4184  1.1188
  783MPD2    C411548   2.938   1.673  10.786 -0.1303  0.1603  0.4809
  783MPD2    C511549   2.860   1.647  10.888  0.1839 -0.7405 -0.3590
  783MPD2     H11550   2.830   1.986  10.729  1.6649  0.8602  0.4182
  783MPD2    H111551   3.016   1.598  10.782 -1.4735 -1.0500 -3.0524
  783MPD2    H211552   2.702   1.703  11.024  1.8019 -0.5544  0.1919
  783MPD2    H311553   2.878   1.548  10.931 -1.0013 -0.4895  0.7214
  783MPD2     N11554   3.006   1.815  10.597 -0.7332  0.8564  0.7041
  783MPD2    H511555   2.998   1.909  10.561 -0.6291 -0.3705 -2.4763
  783MPD2    N111556   2.643   1.931  10.924  0.3867 -0.0634  0.6392
  783MPD2    H711557   2.569   1.885  10.976  0.7059 -0.5442  0.6633
  784MPD2     C11558   0.866   2.786   1.194  0.2458  0.3071  0.1612
  784MPD2    C111559   0.758   2.837   1.274 -0.0653  0.6164 -0.0096
  784MPD2    C211560   0.664   2.924   1.222 -0.2697 -0.0526  0.2849
  784MPD2    C311561   0.669   2.959   1.088 -0.5929  0.2054 -0.6172
  784MPD2    C411562   0.778   2.914   1.018 -0.7784  0.3432 -0.6258
  784MPD2    C511563   0.873   2.827   1.065 -0.6115  0.2986  0.5133
  784MPD2     H11564   0.576   2.958   1.275 -1.1908 -0.4604 -0.9701
  784MPD2    H111565   0.798   2.956   0.920  0.5495  0.7491 -0.1769
  784MPD2    H211566   0.942   2.719   1.233 -0.2561  0.7822  1.9678
  784MPD2    H311567   0.961   2.809   1.005 -1.4556 -2.3339  0.0953
  784MPD2     N11568   0.569   3.043   1.034  0.2289 -0.6624 -0.0905
  784MPD2    H511569   0.485   3.050   1.091  0.6067 -3.0631  0.7885
  784MPD2    N111570   0.760   2.805   1.413 -0.1579 -0.2608 -0.0010
  784MPD2    H711571   0.697   2.858   1.472  3.1372  0.9164  2.4582
  785MPD2     C11572   0.953   0.640  10.555 -0.0384  0.0841 -0.6245
  785MPD2    C111573   0.857   0.723  10.615  0.4406  0.0814  0.3160
  785MPD2    C211574   0.727   0.689  10.603 -0.9862 -0.1077 -0.9795
  785MPD2    C311575   0.690   0.569  10.533  0.0805  0.3567 -0.1196
  785MPD2    C411576   0.782   0.485  10.476 -0.0680 -0.1262  0.2162
  785MPD2    C511577   0.916   0.517  10.499  0.5526  0.0803  0.5709
  785MPD2     H11578   0.650   0.753  10.643 -2.2090 -0.5980 -2.5534
  785MPD2    H111579   0.757   0.391  10.428 -1.2005 -0.3586  1.2594
  785MPD2    H211580   1.059   0.661  10.552  0.6342 -2.9383  1.3283
  785MPD2    H311581   0.986   0.445  10.460 -1.3220 -1.1936 -0.4666
  785MPD2     N11582   0.554   0.523  10.527  0.3859  0.0930  0.1501
  785MPD2    H511583   0.546   0.424  10.511 -2.8240  0.2760  0.6103
  785MPD2    N111584   0.901   0.845  10.670  0.5311  0.1755  0.0290
  785MPD2    H711585   0.990   0.887  10.645  2.1806 -2.6719  1.2388
  786MPD2     C11586   3.420   4.025  14.719 -0.3761 -0.0671 -0.2660
  786MPD2    C111587   3.530   3.948  14.725  0.0043 -0.1675  0.3175
  786MPD2    C211588   3.628   3.956  14.826 -0.4966  0.6522  0.2886
  786MPD2    C311589   3.608   4.039  14.930  0.5556 -0.5004  0.4633
  786MPD2    C411590   3.496   4.122  14.929  0.0065 -0.1788 -0.9382
  786MPD2    C511591   3.400   4.106  14.831  0.6656 -0.3145 -0.4045
  786MPD2     H11592   3.700   3.876  14.840 -1.8445 -0.6210 -0.0800
  786MPD2    H111593   3.467   4.185  15.013  2.5097 -0.2520 -0.0188
  786MPD2    H211594   3.343   4.019  14.643 -2.6016  1.7573  1.8325
  786MPD2    H311595   3.308   4.164  14.827  0.8158 -0.0791 -0.4263
  786MPD2     N11596   3.696   4.040  15.040 -0.0076 -0.0009 -0.4351
  786MPD2    H511597   3.671   4.100  15.117 -1.7101 -1.3774  0.0689
  786MPD2    N111598   3.573   3.862  14.625 -0.2463 -0.0135 -0.1337
  786MPD2    H711599   3.665   3.822  14.638 -0.4533 -0.5898 -0.4739
  787MPD2     C11600   3.964   3.395  14.692  0.3380  0.6345  0.3243
  787MPD2    C111601   3.970   3.400  14.555 -1.1106  0.7071 -0.3698
  787MPD2    C211602   4.072   3.336  14.487  0.0869  0.3463  0.0140
  787MPD2    C311603   4.169   3.272  14.550 -0.3698  0.5704  0.1049
  787MPD2    C411604   4.176   3.277  14.687 -0.2932 -0.4251  0.4755
  787MPD2    C511605   4.070   3.336  14.758  0.5016  0.1542 -0.0800
  787MPD2     H11606   4.073   3.347  14.379  2.0281 -0.8435 -0.0904
  787MPD2    H111607   4.255   3.237  14.751 -2.0260 -4.0391  0.3676
  787MPD2    H211608   3.892   3.453  14.749  0.1852  1.1991 -0.4622
  787MPD2    H311609   4.081   3.350  14.864  1.9442  1.3423 -0.3901
  787MPD2     N11610   4.275   3.216  14.475  0.1021  0.3689  0.3650
  787MPD2    H511611   4.275   3.211  14.374 -1.4240 -0.6338  0.3981
  787MPD2    N111612   3.873   3.480  14.491 -0.3389  0.3010  0.0017
  787MPD2    H711613   3.799   3.512  14.553 -0.1057 -2.3003  1.6080
  788MPD2     C11614   1.439   2.142   0.733 -1.3465  0.4875  0.2336
  788MPD2    C111615   1.481   2.046   0.644  0.1528 -0.5826 -0.1375
  788MPD2    C211616   1.502   2.089   0.513 -0.0980  0.6221 -0.4220
  788MPD2    C311617   1.477   2.220   0.466 -0.7093  0.0433 -0.1336
  788MPD2    C411618   1.451   2.316   0.564  0.6825 -0.1053  0.7683
  788MPD2    C511619   1.420   2.273   0.686  0.1211  0.4400  0.3630
  788MPD2     H11620   1.534   2.023   0.433  0.7928  2.0726 -1.2553
  788MPD2    H111621   1.427   2.419   0.539 -0.0325 -0.4780 -0.1078
  788MPD2    H211622   1.418   2.120   0.837  0.2701 -2.2847 -0.0128
  788MPD2    H311623   1.386   2.344   0.760  1.7541  1.9333 -0.3263
  788MPD2     N11624   1.463   2.266   0.333 -0.2091 -0.0733  0.0079
  788MPD2    H511625   1.450   2.365   0.320  1.0160  0.3622  2.1068
  788MPD2    N111626   1.496   1.912   0.684 -0.2412  0.1668  0.6938
  788MPD2    H711627   1.481   1.891   0.782  0.3849 -0.6143  0.6206
  789MPD2     C11628   1.465   2.169  16.314 -0.1690 -0.4000  0.8909
  789MPD2    C111629   1.382   2.084  16.389  0.3917 -0.0854 -0.2644
  789MPD2    C211630   1.265   2.147  16.437  0.1149  0.3365 -1.0131
  789MPD2    C311631   1.243   2.282  16.435  0.6249  0.9288  0.0526
  789MPD2    C411632   1.316   2.351  16.343 -0.3909 -0.0055 -0.1961
  789MPD2    C511633   1.423   2.294  16.282 -0.0504  1.1603  0.4396
  789MPD2     H11634   1.202   2.077  16.492 -0.1240  0.4477 -1.1451
  789MPD2    H111635   1.303   2.456  16.319 -2.2462 -0.3086 -0.4958
  789MPD2    H211636   1.555   2.132  16.265  0.2016  2.6381 -0.7481
  789MPD2    H311637   1.479   2.347  16.207 -1.1576  0.7328 -0.6862
  789MPD2     N11638   1.134   2.345  16.502  0.5758 -0.1914 -0.2526
  789MPD2    H511639   1.117   2.440  16.472  3.0178  0.5723  0.8250
  789MPD2    N111640   1.402   1.952  16.421 -0.1044  0.3485  0.0246
  789MPD2    H711641   1.327   1.898  16.463  1.3230 -1.5558  0.1379
  790MPD2     C11642   2.223   3.923  13.365 -0.2298 -0.2740 -0.0258
  790MPD2    C111643   2.265   3.788  13.386  0.2327 -0.5243 -0.1702
  790MPD2    C211644   2.225   3.697  13.292  0.0043  1.0203  0.3227
  790MPD2    C311645   2.144   3.729  13.183 -0.0655  0.4195  0.1439
  790MPD2    C411646   2.105   3.862  13.169  0.5963 -0.3304 -0.1337
  790MPD2    C511647   2.158   3.957  13.254  0.1485 -0.0972  0.0702
  790MPD2     H11648   2.260   3.594  13.299 -1.5291  0.6340  2.3375
  790MPD2    H111649   2.048   3.898  13.085 -1.1038 -0.8171  0.8173
  790MPD2    H211650   2.248   3.998  13.439  0.5388  0.6375 -1.2037
  790MPD2    H311651   2.130   4.058  13.225  1.9091  0.2620 -0.4240
  790MPD2     N11652   2.105   3.626  13.099  0.0925 -0.2042 -0.9739
  790MPD2    H511653   2.151   3.537  13.115  0.0905 -0.2119 -1.0117
  790MPD2    N111654   2.329   3.753  13.502 -0.4679 -0.0997 -1.1434
  790MPD2    H711655   2.338   3.827  13.571  0.7987  0.1598 -1.5815
  791MPD2     C11656   1.504   3.496  12.647  0.3371  0.2166  0.0290
  791MPD2    C111657   1.581   3.385  12.645  0.0271  0.1328 -0.4856
  791MPD2    C211658   1.521   3.262  12.610 -0.7614 -0.2881  0.5199
  791MPD2    C311659   1.390   3.258  12.573 -0.1507  0.0315 -1.4983
  791MPD2    C411660   1.310   3.371  12.573  0.3991  0.2421 -0.8005
  791MPD2    C511661   1.376   3.489  12.609 -0.2704  0.6002 -0.0223
  791MPD2     H11662   1.573   3.168  12.611  1.0993  0.7364 -1.0190
  791MPD2    H111663   1.210   3.384  12.534 -0.1064 -0.1639  0.3770
  791MPD2    H211664   1.533   3.597  12.673 -1.6773  0.7587  0.2121
  791MPD2    H311665   1.324   3.584  12.608  1.6189  1.6330 -1.2066
  791MPD2     N11666   1.340   3.134  12.530 -0.2301  0.3227 -0.7844
  791MPD2    H511667   1.403   3.055  12.517  2.6570  2.3489  0.8929
  791MPD2    N111668   1.710   3.401  12.704 -0.0909 -0.8251  0.5949
  791MPD2    H711669   1.739   3.498  12.704 -0.6564 -0.6643  2.4063
  792MPD2     C11670   1.992   3.489  11.318 -0.3333  0.6946  1.4007
  792MPD2    C111671   2.123   3.443  11.324 -0.0413 -0.0290  0.2485
  792MPD2    C211672   2.160   3.325  11.263 -0.3073  0.6706 -0.1426
  792MPD2    C311673   2.075   3.266  11.177  0.7446 -0.5036 -0.2941
  792MPD2    C411674   1.940   3.308  11.183 -0.1672  0.6030  0.2693
  792MPD2    C511675   1.896   3.411  11.257  0.7875 -0.1156  0.6897
  792MPD2     H11676   2.258   3.286  11.286 -0.1766  1.7937  1.1756
  792MPD2    H111677   1.867   3.258  11.120  0.0166 -0.3708  0.8315
  792MPD2    H211678   1.964   3.585  11.359  0.9168  1.6992 -0.0735
  792MPD2    H311679   1.794   3.445  11.254  0.8650  0.1010  0.5004
  792MPD2     N11680   2.112   3.151  11.103  0.2567 -0.2022 -0.3250
  792MPD2    H511681   2.036   3.109  11.050  0.6146 -1.5846  0.2581
  792MPD2    N111682   2.208   3.530  11.387  0.5329 -0.1403  0.1314
  792MPD2    H711683   2.172   3.624  11.380  1.5199  0.2340  0.0676
  793MPD2     C11684   1.672   2.806  10.365  0.5464 -0.7334 -0.4690
  793MPD2    C111685   1.786   2.868  10.321  0.2803 -0.7924  0.0316
  793MPD2    C211686   1.881   2.886  10.420  0.1542  0.2697 -0.9805
  793MPD2    C311687   1.860   2.860  10.550 -0.1237 -0.0348  1.1542
  793MPD2    C411688   1.734   2.811  10.596  0.1418  0.0566 -0.9751
  793MPD2    C511689   1.643   2.787  10.497 -0.9352  0.7801 -0.0410
  793MPD2     H11690   1.980   2.920  10.389  0.1739  1.1684  0.0399
  793MPD2    H111691   1.710   2.784  10.699  2.3259  0.2665 -0.4140
  793MPD2    H211692   1.596   2.787  10.290 -0.7111 -0.4178  0.7471
  793MPD2    H311693   1.545   2.744  10.512 -0.9002  0.6389 -0.2112
  793MPD2     N11694   1.965   2.880  10.641 -0.1665 -0.4126 -0.2712
  793MPD2    H511695   2.049   2.914  10.595  1.3077 -1.4945  1.6394
  793MPD2    N111696   1.806   2.925  10.198  0.1574  0.1810 -0.3871
  793MPD2    H711697   1.895   2.972  10.185 -0.7359  2.2557  1.1640
  794MPD2     C11698   1.929   3.065   0.112 -1.0226 -0.4539  0.1720
  794MPD2    C111699   1.941   2.955   0.028 -0.7008 -0.1607 -0.0277
  794MPD2    C211700   1.932   2.977  17.581 -0.0989 -0.0873 -0.2131
  794MPD2    C311701   1.938   3.109  17.526  0.7188  0.6356 -0.3562
  794MPD2    C411702   1.952   3.211  17.613  0.1851  0.4302 -0.3004
  794MPD2    C511703   1.928   3.190   0.056  1.3037 -0.0061  0.0947
  794MPD2     H11704   1.921   2.888  17.520 -1.0919 -0.5979  0.7177
  794MPD2    H111705   1.970   3.314  17.585 -1.3861  0.7295 -0.1961
  794MPD2    H211706   1.911   3.069   0.219 -0.8991  1.5361  0.1120
  794MPD2    H311707   1.932   3.275   0.123  0.9239 -0.3897  0.6007
  794MPD2     N11708   1.958   3.138  17.390  0.1492  0.3612 -0.4072
  794MPD2    H511709   1.982   3.232  17.362  0.2535 -0.5545 -3.4795
  794MPD2    N111710   1.930   2.823   0.082  0.5328  0.0407  0.7582
  794MPD2    H711711   1.917   2.751   0.012  2.2523  1.6496 -1.2402
  795MPD2     C11712   0.193   4.678  12.839 -0.6298 -0.1528  0.1553
  795MPD2    C111713   0.127   4.640  12.952  0.7543  0.0290  0.0545
  795MPD2    C211714   0.192   4.633  13.074  1.0494  0.5981 -0.1877
  795MPD2    C311715   0.327   4.645  13.085  0.6887 -0.0134 -0.4590
  795MPD2    C411716   0.390   4.689  12.969  0.4722 -0.2473 -0.2318
  795MPD2    C511717   0.325   4.699  12.850  0.0125  0.2369 -0.1329
  795MPD2     H11718   0.133   4.611  13.163  2.2443  0.2771  0.5239
  795MPD2    H111719   0.491   0.005  12.962 -0.6419  2.8534  0.4398
  795MPD2    H211720   0.151   4.688  12.740 -0.4149  0.3316  0.1162
  795MPD2    H311721   0.383   0.010  12.766  0.1708  2.9270  1.0515
  795MPD2     N11722   0.398   4.620  13.205 -0.4028  0.5224 -0.4419
  795MPD2    H511723   0.347   4.595  13.290 -2.5093 -0.6114 -2.0457
  795MPD2    N111724   4.711   4.598  12.954 -0.0365 -0.6731  0.0608
  795MPD2    H711725   4.664   4.578  13.042  0.0246 -0.7946  0.0664
  796MPD2     C11726   4.192   1.757  16.153 -0.1963  0.1791 -0.3959
  796MPD2    C111727   4.137   1.831  16.257  0.2136 -0.6663 -0.5728
  796MPD2    C211728   4.106   1.961  16.237  1.1734 -0.5347 -0.1015
  796MPD2    C311729   4.126   2.020  16.113 -0.1544 -0.2787  0.9236
  796MPD2    C411730   4.168   1.942  16.007  0.1533  0.4390 -0.6992
  796MPD2    C511731   4.203   1.811  16.029  0.5788  0.7749 -0.5702
  796MPD2     H11732   4.054   2.019  16.312 -1.2436 -2.4671 -0.2803
  796MPD2    H111733   4.197   1.984  15.912  1.5794  1.6992  0.2852
  796MPD2    H211734   4.203   1.649  16.154 -0.7506  0.1472  1.7301
  796MPD2    H311735   4.235   1.741  15.952 -1.5633 -1.1001  0.2301
  796MPD2     N11736   4.092   2.156  16.108  0.8765 -0.1380  0.0238
  796MPD2    H511737   4.065   2.204  16.193 -0.8520  1.7074 -1.5733
  796MPD2    N111738   4.126   1.765  16.383 -0.7691 -0.0724  0.1505
  796MPD2    H711739   4.158   1.669  16.384 -0.5345 -0.0178 -1.8904
  797MPD2     C11740   0.158   1.236   0.229 -0.1085  0.1498 -0.2649
  797MPD2    C111741   0.218   1.298   0.120  0.4565  1.1915 -0.6932
  797MPD2    C211742   0.151   1.404   0.073 -0.4022 -0.4388  0.1468
  797MPD2    C311743   0.039   1.461   0.137  0.2403  0.0429  0.6933
  797MPD2    C411744   4.713   1.411   0.252 -0.7585 -0.0205 -0.3785
  797MPD2    C511745   0.047   1.292   0.287 -0.1213  0.1198 -0.0488
  797MPD2     H11746   0.193   1.453  17.676 -1.2365  2.1793  1.2049
  797MPD2    H111747   4.628   1.459   0.298 -1.2050 -0.8092 -0.3853
  797MPD2    H211748   0.202   1.145   0.269  0.9486  0.7528 -0.0530
  797MPD2    H311749   0.010   1.252   0.381  0.6347  0.8866  0.5714
  797MPD2     N11750   4.712   1.592   0.096 -0.0153 -0.3999 -0.2475
  797MPD2    H511751   4.648   1.636   0.161  3.3137  1.0635  2.0421
  797MPD2    N111752   0.344   1.259   0.063  0.2440  0.5699 -0.1612
  797MPD2    H711753   0.382   1.328  17.689 -2.1442  1.5207 -0.5426
  798MPD2     C11754   0.591   1.915  17.488  0.0567 -0.8408 -0.0468
  798MPD2    C111755   0.517   1.879  17.604  0.0890 -0.3804 -0.2391
  798MPD2    C211756   0.553   1.754  17.656 -0.6450 -0.2761  0.3726
  798MPD2    C311757   0.665   1.681  17.610  0.4445 -0.1097 -0.5471
  798MPD2    C411758   0.746   1.733  17.510  0.5193  0.4609  0.8600
  798MPD2    C511759   0.704   1.848  17.449 -0.0694  0.6002  0.7767
  798MPD2     H11760   0.493   1.721   0.049 -0.1066  0.9140  1.2347
  798MPD2    H111761   0.843   1.688  17.491  0.8772  0.9391  1.5671
  798MPD2    H211762   0.558   1.997  17.425 -0.6951 -0.8168  0.3709
  798MPD2    H311763   0.762   1.889  17.367  2.2247 -1.2820  1.4672
  798MPD2     N11764   0.685   1.557  17.673  0.1886 -0.2540 -0.6799
  798MPD2    H511765   0.609   1.527   0.043  0.8987 -1.1726 -0.2398
  798MPD2    N111766   0.400   1.950  17.638  0.1669 -0.2553 -0.7281
  798MPD2    H711767   0.383   2.030  17.579  0.8466  1.0027  0.7892
  799MPD2     C11768   3.698   3.066  14.580  0.3537 -0.1318  0.4426
  799MPD2    C111769   3.652   2.961  14.501 -0.3104 -0.1936 -0.8286
  799MPD2    C211770   3.587   2.996  14.380 -0.1537  1.2490 -0.2716
  799MPD2    C311771   3.567   3.127  14.339  0.1782 -0.6974  0.1516
  799MPD2    C411772   3.597   3.228  14.429 -0.4181 -0.2755  0.7095
  799MPD2    C511773   3.660   3.196  14.551  0.5011  1.2455  0.5040
  799MPD2     H11774   3.554   2.915  14.317 -3.1373  2.0916  0.2421
  799MPD2    H111775   3.610   3.331  14.398  0.3844 -1.2923 -2.3224
  799MPD2    H211776   3.762   3.053  14.666 -0.9988  1.0783  1.6284
  799MPD2    H311777   3.701   3.273  14.616  0.7583 -0.1711  2.0369
  799MPD2     N11778   3.510   3.165  14.213 -0.2545  0.0942  0.8842
  799MPD2    H511779   3.472   3.259  14.202 -0.5710 -0.2551 -1.0543
  799MPD2    N111780   3.678   2.823  14.536  0.4419 -0.8704  0.4311
  799MPD2    H711781   3.628   2.753  14.483 -0.4870  1.3559 -1.6568
  800MPD2     C11782   4.356   4.037  14.351 -0.4810 -0.5184  0.2386
  800MPD2    C111783   4.489   4.004  14.366 -0.0066  0.2777  0.2025
  800MPD2    C211784   4.561   3.921  14.277  0.8246  0.1482  0.0462
  800MPD2    C311785   4.491   3.863  14.174 -0.5642 -0.8998 -0.3589
  800MPD2    C411786   4.355   3.880  14.169  0.1940 -0.2678  0.5543
  800MPD2    C511787   4.293   3.968  14.253  0.2405  0.0053  0.2463
  800MPD2     H11788   4.669   3.910  14.280  0.8709 -0.2929 -2.9036
  800MPD2    H111789   4.290   3.832  14.096  0.8589  0.7228 -0.6697
  800MPD2    H211790   4.298   4.104  14.413  0.5808  1.1228 -0.5067
  800MPD2    H311791   4.189   3.987  14.226  0.7752  1.6055 -0.6605
  800MPD2     N11792   4.571   3.801  14.077  0.4796  0.5366 -0.5102
  800MPD2    H511793   4.672   3.802  14.091  0.6636 -0.6370 -1.8914
  800MPD2    N111794   4.552   4.078  14.472 -0.0839 -0.2486  0.0972
  800MPD2    H711795   4.493   4.138  14.528 -1.0386 -0.9401 -0.1610
  801MPD2     C11796   4.340   4.491  15.026  0.0598 -0.7921 -0.3193
  801MPD2    C111797   4.348   4.436  14.897 -0.1275 -0.1271  0.3805
  801MPD2    C211798   4.253   4.483  14.800  0.0877  0.0930  0.4293
  801MPD2    C311799   4.160   4.582  14.832  0.4903 -1.2681  0.0890
  801MPD2    C411800   4.154   4.639  14.963 -0.6200  0.1218 -0.7637
  801MPD2    C511801   4.240   4.582  15.054  0.6108 -0.1637  0.7183
  801MPD2     H11802   4.253   4.444  14.699  2.3986 -2.2043  1.2949
  801MPD2    H111803   4.086   4.713  15.003 -0.5927 -0.7475  0.9249
  801MPD2    H211804   4.400   4.452  15.107 -1.6205 -0.7661  0.9417
  801MPD2    H311805   4.232   4.618  15.156  0.1655  0.5649  0.4306
  801MPD2     N11806   4.049   4.614  14.754 -0.1563  0.3369 -0.2422
  801MPD2    H511807   3.989   4.687  14.793 -1.5882  1.2573 -4.1126
  801MPD2    N111808   4.444   4.344  14.847 -0.2561  0.4262 -0.3041
  801MPD2    H711809   4.444   4.326  14.747  0.2792  0.4170 -0.3003
  802MPD2     C11810   4.458   0.588   0.441 -0.1099  0.3067 -0.1825
  802MPD2    C111811   4.326   0.617   0.419 -0.5943 -0.4636 -0.3933
  802MPD2    C211812   4.251   0.534   0.344 -0.7568  0.3869  0.4653
  802MPD2    C311813   4.301   0.415   0.290  0.0121  0.4640 -0.3579
  802MPD2    C411814   4.433   0.381   0.312 -0.2777 -0.6801 -0.2505
  802MPD2    C511815   4.504   0.474   0.388  0.1460  0.2628  0.2170
  802MPD2     H11816   4.147   0.557   0.324 -0.7838  0.0572  0.2161
  802MPD2    H111817   4.482   0.293   0.271 -2.7156 -2.7120  1.1542
  802MPD2    H211818   4.523   0.644   0.508 -0.7187  0.8364 -0.0333
  802MPD2    H311819   4.612   0.463   0.396  0.3019  0.1700 -2.2804
  802MPD2     N11820   4.221   0.324   0.215  0.0633  0.0769 -0.1075
  802MPD2    H511821   4.127   0.361   0.203 -0.2413 -0.5165  0.4170
  802MPD2    N111822   4.260   0.728   0.479  0.0954 -0.5426 -0.1821
  802MPD2    H711823   4.160   0.743   0.471 -0.2322 -1.7785  1.5797
  803MPD2     C11824   0.382   3.122  11.639 -0.0317  0.3003  0.2410
  803MPD2    C111825   0.426   3.106  11.774  0.3537  0.2240  0.5630
  803MPD2    C211826   0.358   3.025  11.864 -0.3581  0.0051  0.1196
  803MPD2    C311827   0.253   2.942  11.824  0.6400 -0.1826  0.4444
  803MPD2    C411828   0.205   2.960  11.690  0.0161 -0.1866 -0.3054
  803MPD2    C511829   0.262   3.060  11.603 -0.2370  0.3911  0.3417
  803MPD2     H11830   0.389   3.022  11.968 -1.1716 -2.6090  0.2782
  803MPD2    H111831   0.116   2.904  11.664  0.4108 -1.0278  0.1546
  803MPD2    H211832   0.439   3.189  11.577  0.6419  0.6566  1.2390
  803MPD2    H311833   0.224   3.079  11.503 -2.4121 -2.4944  0.5999
  803MPD2     N11834   0.201   2.836  11.906 -0.3175  0.0971  0.2708
  803MPD2    H511835   0.139   2.766  11.866 -3.0357  1.8179  1.4408
  803MPD2    N111836   0.551   3.165  11.811 -0.5165 -0.5850  0.1969
  803MPD2    H711837   0.570   3.154  11.910 -0.3433 -0.4882  0.1737
  804MPD2     C11838   4.408   0.004  17.416  0.0042 -0.4611 -0.1330
  804MPD2    C111839   4.490   4.683  17.515  0.3715  0.5716  0.4199
  804MPD2    C211840   4.553   0.053  17.596 -0.1181  0.2335 -0.4720
  804MPD2    C311841   4.518   0.189  17.592  0.2834  0.3502 -0.5102
  804MPD2    C411842   4.419   0.226  17.500  0.8326 -0.0147 -0.5354
  804MPD2    C511843   4.377   0.136  17.409  0.0094  0.4441 -0.3128
  804MPD2     H11844   4.625   0.021  17.671 -0.4653 -0.8125 -0.5852
  804MPD2    H111845   4.376   0.324  17.486 -0.8752 -0.7009 -0.0861
  804MPD2    H211846   4.378   4.663  17.334  2.0261 -2.4438  0.6454
  804MPD2    H311847   4.304   0.160  17.333 -1.9452 -0.7162  1.2190
  804MPD2     N11848   4.602   0.284  17.657 -0.4429  0.0980 -0.0919
  804MPD2    H511849   4.686   0.247   0.011 -1.6890 -1.5917  0.8885
  804MPD2    N111850   4.505   4.544  17.538  0.3793  0.0349  0.1173
  804MPD2    H711851   4.550   4.518  17.625  0.7417  1.5704  0.3851
  805MPD2     C11852   3.886   3.336  15.547  0.3401 -0.5575  0.8786
  805MPD2    C111853   3.990   3.300  15.469  0.2855  0.3639 -0.2444
  805MPD2    C211854   4.119   3.306  15.521  0.2513 -0.8242 -0.2273
  805MPD2    C311855   4.149   3.338  15.653 -0.2126  0.4572 -0.4701
  805MPD2    C411856   4.042   3.382  15.732 -0.2925  0.6183 -0.1087
  805MPD2    C511857   3.915   3.385  15.675 -0.3933  0.0961  0.0779
  805MPD2     H11858   4.206   3.278  15.463  1.3051  0.5197  0.7080
  805MPD2    H111859   4.059   3.406  15.836 -0.1614  0.3727 -0.0729
  805MPD2    H211860   3.780   3.324  15.527  0.5018  0.7067 -0.7209
  805MPD2    H311861   3.830   3.432  15.724  0.1911  1.3346 -0.0973
  805MPD2     N11862   4.277   3.295  15.701 -0.5178  0.3288 -0.2582
  805MPD2    H511863   4.347   3.250  15.643 -1.0683 -1.9584  0.8339
  805MPD2    N111864   3.970   3.264  15.332  0.2487 -0.8383  0.1368
  805MPD2    H711865   4.054   3.259  15.276  0.2091 -1.4959  0.1338
  806MPD2     C11866   4.348   2.381   0.278 -0.1848 -0.3669  0.0561
  806MPD2    C111867   4.441   2.407   0.379  0.0081  0.1751  0.0818
  806MPD2    C211868   4.554   2.475   0.331 -0.1857  0.0043  0.7975
  806MPD2    C311869   4.561   2.547   0.212  0.6495  0.5211  0.4591
  806MPD2    C411870   4.459   2.530   0.126 -0.3965  0.4151 -0.0363
  806MPD2    C511871   4.364   2.437   0.156  0.3743  0.3180 -0.8371
  806MPD2     H11872   4.630   2.492   0.405  0.6155 -0.9751  0.2006
  806MPD2    H111873   4.452   2.581   0.031  2.7652  0.2878 -0.3408
  806MPD2    H211874   4.269   2.308   0.291 -0.5245 -0.1211 -0.6306
  806MPD2    H311875   4.288   2.416   0.081  1.2010 -1.6591 -1.1124
  806MPD2     N11876   4.672   2.634   0.195  0.0051  0.0896  0.3412
  806MPD2    H511877   0.018   2.639   0.270  0.3523 -0.4013  0.0599
  806MPD2    N111878   4.415   2.366   0.515 -0.8776 -0.2352  0.5288
  806MPD2    H711879   4.334   2.308   0.531  0.7166 -2.0440  2.1502
  807MPD2     C11880   4.480   1.772   0.967  0.7284 -0.2680  0.2905
  807MPD2    C111881   4.378   1.837   1.026 -0.1008 -0.2210 -0.5610
  807MPD2    C211882   4.295   1.763   1.100  0.7909  0.0239 -0.3882
  807MPD2    C311883   4.319   1.629   1.121  0.1020 -0.2935 -0.1346
  807MPD2    C411884   4.422   1.564   1.059  0.4578 -0.8067 -0.3676
  807MPD2    C511885   4.502   1.640   0.980 -0.2250 -0.5471 -0.5447
  807MPD2     H11886   4.203   1.808   1.135 -0.4549 -1.3438 -1.8873
  807MPD2    H111887   4.444   1.458   1.063  0.7484 -0.7494 -0.5091
  807MPD2    H211888   4.556   1.827   0.912  1.2347 -3.6723 -2.4050
  807MPD2    H311889   4.581   1.585   0.930  0.2258 -0.2728 -0.1358
  807MPD2     N11890   4.215   1.549   1.187 -0.3663 -0.1163  0.0349
  807MPD2    H511891   4.138   1.609   1.215 -1.6425 -1.8520  0.2103
  807MPD2    N111892   4.351   1.971   1.001  0.5435  0.5550  0.0821
  807MPD2    H711893   4.284   2.022   1.058  0.6157  0.4834  0.2308
  808MPD2     C11894   4.394   4.212   9.386  0.5565 -0.1093 -0.2273
  808MPD2    C111895   4.329   4.270   9.490 -0.3667  0.3272 -0.2683
  808MPD2    C211896   4.356   4.403   9.517  0.3375  0.3062 -0.1677
  808MPD2    C311897   4.439   4.471   9.434 -0.0828 -0.1739  0.1040
  808MPD2    C411898   4.503   4.413   9.326  0.0903  0.4179 -0.5362
  808MPD2    C511899   4.474   4.279   9.309 -0.3400 -0.0612 -0.4249
  808MPD2     H11900   4.326   4.455   9.607  1.4481 -1.6043  1.3187
  808MPD2    H111901   4.579   4.464   9.268  1.5231  0.2173  1.1680
  808MPD2    H211902   4.379   4.108   9.361  1.1807 -0.5323  1.2007
  808MPD2    H311903   4.515   4.222   9.226 -0.0496 -1.1150  0.4345
  808MPD2     N11904   4.428   4.608   9.460  0.3185 -0.8796  0.3463
  808MPD2    H511905   4.387   4.642   9.547 -0.5710  1.0631 -0.8275
  808MPD2    N111906   4.231   4.207   9.567  0.9242  0.0408 -0.4322
  808MPD2    H711907   4.172   4.264   9.627  0.2109  0.1527 -1.2297
  809MPD2     C11908   0.300   0.589   9.445  0.3481  0.0815 -0.7883
  809MPD2    C111909   0.267   0.467   9.390 -0.3155  0.4877 -0.0428
  809MPD2    C211910   0.134   0.444   9.383  0.1399  0.5131  0.6759
  809MPD2    C311911   0.037   0.533   9.431 -0.1294 -0.6276  0.4197
  809MPD2    C411912   0.081   0.639   9.508 -0.4850 -0.0117 -0.2167
  809MPD2    C511913   0.211   0.664   9.510  0.0565 -0.1212 -0.5816
  809MPD2     H11914   0.106   0.351   9.337  1.0967  1.2028 -1.2862
  809MPD2    H111915   0.007   0.709   9.546 -0.1616  1.4030 -2.2336
  809MPD2    H211916   0.397   0.633   9.466 -1.2482  2.6620  1.2333
  809MPD2    H311917   0.250   0.752   9.560 -2.4463  0.7403 -0.1951
  809MPD2     N11918   4.621   0.505   9.415 -0.0582  0.2841  0.9950
  809MPD2    H511919   4.559   0.558   9.476 -0.8255  1.8258 -1.0910
  809MPD2    N111920   0.357   0.375   9.328  0.5007  0.3483  0.6588
  809MPD2    H711921   0.318   0.301   9.270 -1.0658  1.2100  0.6087
  810MPD2     C11922   4.344   3.726   9.889  0.2727  0.4822 -0.0710
  810MPD2    C111923   4.255   3.771   9.986  0.0758  0.1765  0.4297
  810MPD2    C211924   4.235   3.910   9.995 -0.8547  0.0269 -0.1198
  810MPD2    C311925   4.313   3.999   9.930 -0.4526 -0.0499  0.4525
  810MPD2    C411926   4.403   3.952   9.836 -0.5266  0.1670  0.4269
  810MPD2    C511927   4.418   3.814   9.819  0.6277 -0.2188  0.2728
  810MPD2     H11928   4.165   3.943  10.071 -2.1913  0.2039 -1.4378
  810MPD2    H111929   4.456   4.019   9.770 -0.2691 -0.9572 -0.5185
  810MPD2    H211930   4.351   3.621   9.862 -1.1609  0.1077  1.0229
  810MPD2    H311931   4.484   3.786   9.737  0.0223 -0.0701 -0.2646
  810MPD2     N11932   4.286   4.140   9.931  0.1789 -0.2402 -0.0050
  810MPD2    H511933   4.341   4.187   9.859 -0.0588  2.9623  1.8881
  810MPD2    N111934   4.180   3.669  10.064  0.3998  0.2352 -0.2759
  810MPD2    H711935   4.193   3.572  10.035 -0.4023 -0.4498  1.6326
  811MPD2     C11936   3.355   3.690   9.821 -1.1152  0.5851  0.6197
  811MPD2    C111937   3.470   3.751   9.870 -0.2030 -0.1847 -0.9331
  811MPD2    C211938   3.482   3.883   9.847  0.4819  0.0559 -0.2217
  811MPD2    C311939   3.393   3.967   9.790  0.5073  0.5102  0.6843
  811MPD2    C411940   3.273   3.904   9.756  0.3145 -0.2239  0.2144
  811MPD2    C511941   3.256   3.770   9.778 -0.3792  0.3095  0.6501
  811MPD2     H11942   3.567   3.936   9.889  0.2186 -0.3284  0.7930
  811MPD2    H111943   3.186   3.958   9.721  1.1016  0.9590  0.1191
  811MPD2    H211944   3.340   3.584   9.834  2.1103  0.0918  0.4778
  811MPD2    H311945   3.161   3.725   9.755  0.6088 -1.5954  0.2959
  811MPD2     N11946   3.422   4.101   9.777 -0.7015  0.5605  0.2774
  811MPD2    H511947   3.515   4.141   9.789 -0.4290  0.3334 -0.9939
  811MPD2    N111948   3.564   3.669   9.939  0.2124 -0.6265  0.2513
  811MPD2    H711949   3.548   3.569   9.939  0.4085 -0.6552 -0.5568
  812MPD2     C11950   3.110   3.311  12.214 -0.5269 -0.4788  0.2125
  812MPD2    C111951   3.059   3.344  12.335  0.4502 -0.0998 -0.3233
  812MPD2    C211952   3.033   3.248  12.424  0.5945  0.6069  0.6911
  812MPD2    C311953   3.058   3.112  12.390  0.9255 -0.7006  0.3535
  812MPD2    C411954   3.116   3.080  12.265  0.2199  0.4195  0.2068
  812MPD2    C511955   3.147   3.186  12.180 -0.0044  0.1625  0.1958
  812MPD2     H11956   2.999   3.268  12.525  0.9229  1.1060  0.7011
  812MPD2    H111957   3.139   2.979  12.234  2.9603  0.5492  1.8075
  812MPD2    H211958   3.130   3.386  12.138  1.1704 -0.7127  0.4432
  812MPD2    H311959   3.189   3.162  12.083 -0.9570 -0.6791 -0.0129
  812MPD2     N11960   3.028   3.004  12.481 -0.1170 -1.1183 -0.7371
  812MPD2    H511961   3.013   3.031  12.577 -0.0189  0.0042 -1.0380
  812MPD2    N111962   3.030   3.478  12.363 -0.1476  0.4166 -0.4178
  812MPD2    H711963   3.077   3.543  12.301 -0.2575  0.8443 -0.0559
  813MPD2     C11964   1.811   0.514  12.681 -0.3184  0.7381  0.0250
  813MPD2    C111965   1.860   0.639  12.715 -0.6876 -0.0844  0.0770
  813MPD2    C211966   1.782   0.729  12.796 -0.1798  0.3817 -0.3518
  813MPD2    C311967   1.664   0.687  12.846 -0.7273 -0.0779  0.4737
  813MPD2    C411968   1.614   0.564  12.809  0.1891 -0.0369 -0.8051
  813MPD2    C511969   1.680   0.482  12.720 -0.1691 -0.2470  0.8873
  813MPD2     H11970   1.812   0.830  12.825 -0.0059 -0.1426  1.3327
  813MPD2    H111971   1.512   0.535  12.830 -0.0240  0.5745 -0.9739
  813MPD2    H211972   1.861   0.437  12.622 -0.3882  0.8637 -0.1983
  813MPD2    H311973   1.629   0.393  12.685 -0.5157  0.6449 -0.9167
  813MPD2     N11974   1.606   0.770  12.939 -0.1598 -0.1608  0.0692
  813MPD2    H511975   1.653   0.858  12.958 -0.6324 -0.1104  0.9912
  813MPD2    N111976   1.985   0.695  12.665 -0.2042  0.3148 -0.3945
  813MPD2    H711977   1.991   0.792  12.693 -1.4392  0.4445 -0.5503
  814MPD2     C11978   3.149   1.672  11.732  0.0027  0.6081 -0.4113
  814MPD2    C111979   3.130   1.631  11.862 -0.1819  0.3847 -0.6542
  814MPD2    C211980   3.111   1.725  11.961  0.3594 -0.1971 -0.1612
  814MPD2    C311981   3.109   1.857  11.925 -0.8851  0.2201 -0.0620
  814MPD2    C411982   3.126   1.898  11.794  0.0304 -0.0149 -0.3993
  814MPD2    C511983   3.136   1.804  11.699  0.0285  0.0283 -0.3579
  814MPD2     H11984   3.096   1.692  12.063  1.8356 -1.6804 -0.4179
  814MPD2    H111985   3.123   2.004  11.773 -0.8043 -0.3876 -2.2139
  814MPD2    H211986   3.157   1.612  11.642 -2.4580  1.7691 -1.4229
  814MPD2    H311987   3.152   1.828  11.595  0.0636  0.1122 -0.3332
  814MPD2     N11988   3.089   1.962  12.013  0.0831 -0.2844  0.9985
  814MPD2    H511989   3.085   2.057  11.977  0.1729 -0.5437  0.3164
  814MPD2    N111990   3.142   1.492  11.899 -0.5348  0.2065 -0.1939
  814MPD2    H711991   3.110   1.470  11.992  0.5959  0.4067  0.2408
  815MPD2     C11992   3.140   0.331  12.119  0.3338  0.0763  0.1901
  815MPD2    C111993   3.102   0.208  12.166 -0.2715  0.1834 -0.3588
  815MPD2    C211994   2.966   0.192  12.193  0.6139 -1.1440  0.4040
  815MPD2    C311995   2.869   0.294  12.198 -1.0995 -0.8432  0.0723
  815MPD2    C411996   2.916   0.415  12.161  0.4542 -0.4833 -0.0854
  815MPD2    C511997   3.050   0.431  12.128 -0.0176  0.2351 -0.1050
  815MPD2     H11998   2.916   0.101  12.227  0.4471 -1.3451 -0.3733
  815MPD2    H111999   2.849   0.500  12.156 -0.8819 -1.4085  1.9656
  815MPD2    H212000   3.244   0.347  12.096  0.9556 -1.5222  1.9011
  815MPD2    H312001   3.088   0.531  12.109  0.3090  0.2512  0.6414
  815MPD2     N12002   2.735   0.259  12.229  0.8644 -0.5431  0.2353
  815MPD2    H512003   2.723   0.166  12.269  2.4054 -0.5766  0.6300
  815MPD2    N112004   3.197   0.104  12.148 -0.1476  0.0647  0.4085
  815MPD2    H712005   3.285   0.119  12.100 -1.0978  2.8835 -0.4658
  816MPD2     C12006   2.878   4.137  17.631  0.0156  0.7869 -0.0842
  816MPD2    C112007   2.938   4.254  17.603 -0.7073 -0.1412  0.3639
  816MPD2    C212008   3.044   4.257  17.515  0.1801 -0.6781 -0.4879
  816MPD2    C312009   3.095   4.140  17.466 -0.5215 -0.0471  0.1552
  816MPD2    C412010   3.039   4.019  17.503 -0.5385  0.0291  0.3253
  816MPD2    C512011   2.930   4.016  17.586  0.7050  0.4108  0.2063
  816MPD2     H12012   3.091   4.352  17.490  1.2505 -0.8202  0.9361
  816MPD2    H112013   3.088   3.930  17.466  0.5968  0.9254 -0.3047
  816MPD2    H212014   2.801   4.137   0.017  1.0468 -0.1745  0.9536
  816MPD2    H312015   2.896   3.914  17.604  2.2164 -0.5008 -2.1621
  816MPD2     N12016   3.213   4.146  17.387 -0.3338 -0.1651  0.1312
  816MPD2    H512017   3.237   4.235  17.346  2.2254  0.2753  2.5448
  816MPD2    N112018   2.902   4.373  17.669  0.4594  0.1702 -0.2908
  816MPD2    H712019   2.813   4.371   0.028  0.2457 -2.6397 -0.7837
  817MPD2     C12020   2.736   1.066  10.101 -0.5148  0.2842 -0.3327
  817MPD2    C112021   2.846   1.122  10.053  0.4919  0.0727  0.3006
  817MPD2    C212022   2.849   1.253  10.009 -0.2530  0.2044  0.0763
  817MPD2    C312023   2.743   1.340  10.026 -1.1457  0.3274 -0.0475
  817MPD2    C412024   2.634   1.285  10.089  0.5092  0.6894  0.7317
  817MPD2    C512025   2.622   1.150  10.108 -0.0792 -0.1563  0.0058
  817MPD2     H12026   2.939   1.290   9.960 -1.8069  0.3812 -2.6142
  817MPD2    H112027   2.546   1.347  10.099 -0.6994 -0.5801 -2.0258
  817MPD2    H212028   2.723   0.961  10.120 -1.9258  0.7403  1.2292
  817MPD2    H312029   2.530   1.110  10.151  0.8851 -1.6637  0.6538
  817MPD2     N12030   2.757   1.474   9.985 -0.1290 -0.4009  0.6701
  817MPD2    H512031   2.842   1.498   9.935 -0.2746  0.5637  0.8799
  817MPD2    N112032   2.972   1.049  10.047  0.8758 -0.1795  0.5965
  817MPD2    H712033   3.056   1.098  10.018 -0.0001  1.4295  0.7941
  818MPD2     C12034   2.515   0.746  10.297 -0.7699 -0.0944 -0.5317
  818MPD2    C112035   2.392   0.686  10.301 -0.1693  0.1880 -0.1731
  818MPD2    C212036   2.380   0.556  10.329 -0.4554  0.0688  0.1997
  818MPD2    C312037   2.485   0.479  10.362 -0.2368  0.0563 -0.2859
  818MPD2    C412038   2.613   0.542  10.364 -0.9152  0.0603 -0.0361
  818MPD2    C512039   2.628   0.673  10.322  0.4416 -0.3864 -0.3696
  818MPD2     H12040   2.278   0.520  10.338 -0.1997 -0.3415  1.3872
  818MPD2    H112041   2.701   0.481  10.382 -0.1945  0.4202 -2.3765
  818MPD2    H212042   2.520   0.850  10.266 -2.5828 -0.6794 -2.7615
  818MPD2    H312043   2.727   0.715  10.309  0.3676  0.1695  0.8469
  818MPD2     N12044   2.476   0.343  10.395  0.0653 -0.3919  0.6225
  818MPD2    H512045   2.547   0.296  10.452  0.6607 -0.3462 -0.0795
  818MPD2    N112046   2.267   0.757  10.287  0.1526 -0.2181  0.3302
  818MPD2    H712047   2.189   0.692  10.295  2.0566 -2.5300  0.4429
  819MPD2     C12048   4.150   2.853  15.709 -0.1161  0.2703 -0.7565
  819MPD2    C112049   4.193   2.722  15.703 -0.0241 -0.1382  0.1814
  819MPD2    C212050   4.320   2.696  15.733 -0.5544 -0.5572  0.9368
  819MPD2    C312051   4.407   2.786  15.788 -0.4917  0.0938 -0.1275
  819MPD2    C412052   4.362   2.917  15.800  0.2691 -0.1084  0.8083
  819MPD2    C512053   4.229   2.949  15.766 -0.0992  0.3437  0.3019
  819MPD2     H12054   4.367   2.600  15.711  0.3830  0.1370 -0.1341
  819MPD2    H112055   4.431   2.995  15.828  1.2343 -0.9543  0.8155
  819MPD2    H212056   4.053   2.890  15.679  0.6302  2.7289 -0.0907
  819MPD2    H312057   4.187   3.049  15.762 -0.3493  0.2280  0.0436
  819MPD2     N12058   4.534   2.748  15.830  0.8372 -0.1962  0.6228
  819MPD2    H512059   4.544   2.647  15.827  0.3491 -0.2602  0.9482
  819MPD2    N112060   4.115   2.628  15.635  0.1091  0.1502 -0.2995
  819MPD2    H712061   4.033   2.654  15.582 -0.3061 -0.7541 -0.1070
  820MPD2     C12062   4.230   2.787  14.829  0.0677  0.6482 -0.0084
  820MPD2    C112063   4.142   2.812  14.924  0.9967 -0.6411  0.0552
  820MPD2    C212064   4.106   2.709  15.011  0.5745  0.1342 -0.5833
  820MPD2    C312065   4.173   2.587  15.003  0.4322 -0.6372  0.0761
  820MPD2    C412066   4.275   2.567  14.913 -0.0539 -0.1312 -0.3937
  820MPD2    C512067   4.294   2.664  14.825  0.0607 -0.3529 -0.0632
  820MPD2     H12068   4.043   2.734  15.095  1.3017 -0.1415  0.0467
  820MPD2    H112069   4.335   2.478  14.897  0.2588 -0.3221  1.8920
  820MPD2    H212070   4.262   2.867  14.763  2.2592  0.5211  0.8859
  820MPD2    H312071   4.378   2.661  14.757 -1.4735 -0.5344 -1.9529
  820MPD2     N12072   4.145   2.495  15.106  0.2149  1.1232  0.0174
  820MPD2    H512073   4.212   2.420  15.121  1.7126  2.6236  0.7877
  820MPD2    N112074   4.067   2.932  14.918  1.1803  0.1974  0.0857
  820MPD2    H712075   4.110   3.012  14.872  1.2228 -1.9192 -3.5595
  821MPD2     C12076   0.038   3.743  13.226 -0.7680  0.0563  0.0279
  821MPD2    C112077   0.121   3.796  13.325  0.4576 -0.2097 -0.7175
  821MPD2    C212078   0.244   3.847  13.287  0.1988 -0.2139 -0.1748
  821MPD2    C312079   0.284   3.849  13.151  0.1370 -0.3583  0.2772
  821MPD2    C412080   0.196   3.793  13.062 -0.9391 -0.0543 -0.1492
  821MPD2    C512081   0.070   3.745  13.096  0.0851 -0.8308  0.2979
  821MPD2     H12082   0.299   3.897  13.366  1.0138 -0.5895 -0.5029
  821MPD2    H112083   0.229   3.778  12.960 -0.3958 -0.9904  0.1637
  821MPD2    H212084   4.668   3.690  13.249 -0.4593 -0.0676  0.9762
  821MPD2    H312085   0.005   3.704  13.019  0.2918 -2.4561  0.9801
  821MPD2     N12086   0.413   3.900  13.115  0.0512 -0.4946  0.3004
  821MPD2    H512087   0.426   3.924  13.018 -0.0584  0.5801  0.5522
  821MPD2    N112088   0.101   3.786  13.463 -0.7337 -0.2877  0.0020
  821MPD2    H712089   0.178   3.822  13.518 -1.6492 -0.3819  1.3647
  822MPD2     C12090   0.580   4.089  16.079 -0.1715  0.3556 -0.0885
  822MPD2    C112091   0.644   4.109  16.202 -0.2834  0.3923 -0.5858
  822MPD2    C212092   0.577   4.195  16.287  0.3959 -0.6059  0.4103
  822MPD2    C312093   0.454   4.252  16.256 -0.4904  0.6508 -0.5034
  822MPD2    C412094   0.395   4.236  16.132 -0.2551  0.1703 -0.2166
  822MPD2    C512095   0.467   4.155  16.049 -0.1449 -0.3017  0.8458
  822MPD2     H12096   0.609   4.193  16.390 -0.6134  4.8119  0.8060
  822MPD2    H112097   0.311   4.280  16.079  0.8829  1.5424 -0.8868
  822MPD2    H212098   0.618   4.022  16.003  0.7048  0.1052  0.5697
  822MPD2    H312099   0.431   4.130  15.950 -1.3748 -0.4123  1.3202
  822MPD2     N12100   0.395   4.338  16.353  0.9200 -0.1603 -0.1964
  822MPD2    H512101   0.456   4.356  16.432  0.2019  0.3641  0.2391
  822MPD2    N112102   0.762   4.041  16.254  0.3239 -0.5435  0.7766
  822MPD2    H712103   0.802   4.086  16.335  0.3860 -0.2697  0.5959
  823MPD2     C12104   0.138   4.461  17.163 -0.1826 -0.6479 -0.4538
  823MPD2    C112105   0.186   4.382  17.062 -0.5514 -0.0937  0.0719
  823MPD2    C212106   0.249   4.261  17.089  0.4116 -0.1833 -0.4109
  823MPD2    C312107   0.241   4.218  17.223 -1.3361  0.4675 -0.4498
  823MPD2    C412108   0.183   4.298  17.325 -0.5184  0.7493  0.5464
  823MPD2    C512109   0.129   4.421  17.287 -0.1583 -0.4938 -0.0748
  823MPD2     H12110   0.304   4.213  17.009  0.3526  0.7776 -1.0235
  823MPD2    H112111   0.189   4.260  17.426  0.3680 -0.8074 -0.0884
  823MPD2    H212112   0.106   4.563  17.146  0.7391 -0.3441 -0.4051
  823MPD2    H312113   0.086   4.490  17.358  0.3922 -1.7320  1.4565
  823MPD2     N12114   0.301   4.100  17.268 -0.1802  0.4256  0.8208
  823MPD2    H512115   0.296   4.081  17.367 -0.4046  1.7431  1.0666
  823MPD2    N112116   0.192   4.444  16.934 -0.0787 -0.4015  0.0688
  823MPD2    H712117   0.159   4.538  16.918  1.6653  0.1499 -0.3312
  824MPD2     C12118   1.344   3.333  16.437 -0.1414  0.4650  0.4259
  824MPD2    C112119   1.277   3.383  16.327  0.5201  0.3176  0.3231
  824MPD2    C212120   1.281   3.300  16.213  0.6797  0.5893  0.9369
  824MPD2    C312121   1.352   3.180  16.206 -0.2126 -1.1982  0.2063
  824MPD2    C412122   1.419   3.137  16.322 -0.1352 -0.3223 -0.2310
  824MPD2    C512123   1.413   3.213  16.435 -0.0866  0.6565  0.4042
  824MPD2     H12124   1.238   3.342  16.123  1.8081 -0.0077  0.1200
  824MPD2    H112125   1.473   3.043  16.327  0.3270  0.1283  2.8788
  824MPD2    H212126   1.342   3.380  16.535 -0.8314  1.2619  0.0162
  824MPD2    H312127   1.468   3.183  16.524 -0.5065 -0.8758  0.1450
  824MPD2     N12128   1.343   3.103  16.082 -0.4029  0.3250  0.4128
  824MPD2    H512129   1.293   3.142  16.003 -0.4867 -0.1656  0.2216
  824MPD2    N112130   1.203   3.504  16.343  0.8374 -0.1364 -0.5636
  824MPD2    H712131   1.208   3.545  16.436  3.2912  1.4909 -1.4040
  825MPD2     C12132   1.524   2.953  15.226  0.6072  0.1705  0.2602
  825MPD2    C112133   1.498   3.041  15.332  0.1934  0.2601  0.1733
  825MPD2    C212134   1.534   3.171  15.310  0.5376 -1.0269  0.0521
  825MPD2    C312135   1.590   3.216  15.195 -0.4062  1.0590 -0.0816
  825MPD2    C412136   1.599   3.131  15.087  0.1209  0.1296 -0.0733
  825MPD2    C512137   1.577   2.998  15.108 -0.0451 -0.2307 -0.1487
  825MPD2     H12138   1.516   3.242  15.390 -0.2657 -1.3228  0.1267
  825MPD2    H112139   1.641   3.174  14.997  0.5884 -2.0957 -0.9209
  825MPD2    H212140   1.521   2.846  15.239 -0.0761  0.2855  1.0590
  825MPD2    H312141   1.597   2.932  15.025 -1.6107 -0.8281 -0.0470
  825MPD2     N12142   1.622   3.351  15.169  0.0414  0.5404  0.5003
  825MPD2    H512143   1.640   3.380  15.073 -0.7461  0.0268  0.2002
  825MPD2    N112144   1.455   2.997  15.462 -0.4864 -0.4018 -0.5086
  825MPD2    H712145   1.444   2.897  15.471  2.4825 -0.6342  0.5887
  826MPD2     C12146   1.250   3.003  13.878  0.3179 -0.2034  0.3099
  826MPD2    C112147   1.187   3.068  13.770 -0.1135  0.3639 -0.0079
  826MPD2    C212148   1.082   3.159  13.803  0.7129  0.0060 -0.1882
  826MPD2    C312149   1.048   3.192  13.933  0.2334  0.0561  0.7488
  826MPD2    C412150   1.128   3.140  14.032  0.1763 -0.0220 -0.2598
  826MPD2    C512151   1.221   3.044  14.006 -0.1340 -0.6310  0.6155
  826MPD2     H12152   1.030   3.210  13.723 -0.9748 -0.0866  0.8392
  826MPD2    H112153   1.106   3.149  14.138 -1.8295  1.0707 -0.7798
  826MPD2    H212154   1.316   2.919  13.859 -0.9101 -1.0186 -0.3975
  826MPD2    H312155   1.257   2.986  14.089  2.8424 -1.1297 -1.0280
  826MPD2     N12156   0.945   3.284  13.966  0.2428 -0.9157  0.0693
  826MPD2    H512157   0.959   3.339  14.050  0.0065 -1.4717  0.4739
  826MPD2    N112158   1.235   3.031  13.638  0.0957 -0.3827 -0.3788
  826MPD2    H712159   1.318   2.973  13.628 -0.7187 -1.3689 -1.3507
  827MPD2     C12160   1.786   4.387  10.618 -0.6873 -0.0169 -0.4371
  827MPD2    C112161   1.789   4.259  10.669  0.2909 -0.3602 -0.4448
  827MPD2    C212162   1.721   4.163  10.600 -0.2718  0.3169 -0.2338
  827MPD2    C312163   1.649   4.185  10.483 -0.0204  0.2834 -0.8700
  827MPD2    C412164   1.652   4.311  10.437 -0.3106 -0.2775 -0.2421
  827MPD2    C512165   1.721   4.411  10.499 -0.5190 -0.4910 -0.2102
  827MPD2     H12166   1.724   4.062  10.639  0.3463 -0.5756 -2.6411
  827MPD2    H112167   1.609   4.339  10.341 -0.6937  1.8614  0.5752
  827MPD2    H212168   1.841   4.468  10.665  2.3624 -1.2440 -1.8898
  827MPD2    H312169   1.716   4.515  10.470  0.8372 -0.8826 -1.9140
  827MPD2     N12170   1.595   4.080  10.412 -0.7332  0.2559  0.1547
  827MPD2    H512171   1.597   3.986  10.448  1.6450  0.2120 -0.0856
  827MPD2    N112172   1.853   4.232  10.789  0.0684  0.3640 -1.0119
  827MPD2    H712173   1.898   4.311  10.834  0.0152  0.1017 -0.4948
  828MPD2     C12174   0.592   3.911  12.187  0.2747  0.0654 -0.4129
  828MPD2    C112175   0.522   3.877  12.072  0.1922 -0.4466  0.1728
  828MPD2    C212176   0.594   3.836  11.960  0.7721 -0.7849  0.2707
  828MPD2    C312177   0.730   3.820  11.967  0.3125  0.4691  0.4477
  828MPD2    C412178   0.795   3.856  12.081  0.0014 -0.6853 -0.2627
  828MPD2    C512179   0.724   3.904  12.185  0.0842  0.3375 -0.4232
  828MPD2     H12180   0.536   3.809  11.873  2.7316  2.2107 -1.9548
  828MPD2    H112181   0.903   3.846  12.085  0.3662  3.2284 -0.0196
  828MPD2    H212182   0.544   3.960  12.271 -0.6458  0.3355 -1.0969
  828MPD2    H312183   0.783   3.940  12.268  1.3558 -0.9285 -0.7850
  828MPD2     N12184   0.806   3.786  11.855 -0.0598 -0.9396 -0.3449
  828MPD2    H512185   0.903   3.813  11.852 -0.3751  0.6836  3.4660
  828MPD2    N112186   0.389   3.897  12.048  0.2390  0.6347 -0.4254
  828MPD2    H712187   0.359   3.839  11.969  2.8641  1.3778 -1.9892
  829MPD2     C12188   0.289   4.180  11.259 -0.1987  0.5448 -0.1911
  829MPD2    C112189   0.196   4.083  11.280  0.2912  0.0983 -0.3585
  829MPD2    C212190   0.170   4.040  11.401 -0.3052 -0.5470  0.9572
  829MPD2    C312191   0.214   4.107  11.516  0.3960 -0.0545 -0.0452
  829MPD2    C412192   0.296   4.218  11.496 -0.0636  0.9042  0.0288
  829MPD2    C512193   0.337   4.244  11.369 -0.4538  0.4256  0.3213
  829MPD2     H12194   0.117   3.948  11.420 -0.9706 -0.7702 -1.9848
  829MPD2    H112195   0.344   4.272  11.576 -0.9943  0.7422  0.7020
  829MPD2    H212196   0.320   4.209  11.159  0.3374  2.2189  0.4771
  829MPD2    H312197   0.398   4.333  11.362  1.0331 -0.6172  0.1830
  829MPD2     N12198   0.183   4.069  11.651  0.2572 -0.0461 -0.6637
  829MPD2    H512199   0.221   4.119  11.730 -1.3805  2.5937 -1.5640
  829MPD2    N112200   0.141   4.022  11.167 -0.4784 -0.6141  0.1874
  829MPD2    H712201   0.187   4.048  11.081 -0.1163  0.9790  0.8454
  830MPD2     C12202   0.009   2.410  15.403 -0.1091  0.0021  0.1721
  830MPD2    C112203   0.115   2.501  15.407  0.2589 -0.4144  0.3333
  830MPD2    C212204   0.189   2.530  15.296  0.5321 -0.2181 -0.0064
  830MPD2    C312205   0.166   2.451  15.183  0.1572 -0.2615 -0.1874
  830MPD2    C412206   0.058   2.366  15.177 -0.1017  1.1544 -0.1618
  830MPD2    C512207   4.701   2.346  15.286  0.3235 -0.1535  0.9984
  830MPD2     H12208   0.264   2.607  15.291  0.2233 -0.0696 -2.2158
  830MPD2    H112209   0.033   2.306  15.090 -1.7232  1.9043 -0.2177
  830MPD2    H212210   4.667   2.404  15.489  1.5660 -3.1127  1.1937
  830MPD2    H312211   4.624   2.270  15.281  0.4847 -0.2888  0.5676
  830MPD2     N12212   0.243   2.460  15.061 -0.0005 -0.5622  0.3260
  830MPD2    H512213   0.209   2.421  14.974 -0.5339  2.2235 -0.7270
  830MPD2    N112214   0.133   2.569  15.534  0.2008  0.1689  0.0929
  830MPD2    H712215   0.074   2.540  15.612  0.8633 -1.7378 -0.1175
  831MPD2     C12216   0.733   4.464  16.901 -0.1113  0.0976  0.2631
  831MPD2    C112217   0.693   4.440  16.767 -0.7293  0.3836  0.7138
  831MPD2    C212218   0.613   4.332  16.735  0.7195  0.5244 -0.3910
  831MPD2    C312219   0.574   4.236  16.833  0.1723  0.5325  0.7853
  831MPD2    C412220   0.602   4.282  16.965  0.1234 -0.1424 -0.2767
  831MPD2    C512221   0.686   4.384  16.990  0.0516  0.1321  0.0798
  831MPD2     H12222   0.588   4.321  16.631 -0.9061  0.2884  0.0214
  831MPD2    H112223   0.557   4.242  17.055 -1.6429  0.2886 -0.9788
  831MPD2    H212224   0.791   4.551  16.930  0.3410  0.0403 -0.4431
  831MPD2    H312225   0.688   4.418  17.092  1.8618  0.7524 -0.1750
  831MPD2     N12226   0.486   4.125  16.810  0.9345  0.0976 -0.2249
  831MPD2    H512227   0.436   4.077  16.884  3.1182 -2.4206 -0.3819
  831MPD2    N112228   0.753   4.515  16.662 -0.3532  0.3006 -0.4632
  831MPD2    H712229   0.842   4.561  16.675 -0.6263  0.3641  1.1433
  832MPD2     C12230   3.683   0.468  17.494  0.3282  0.0130  0.5697
  832MPD2    C112231   3.663   0.599  17.473  0.1693  0.7860 -0.8029
  832MPD2    C212232   3.554   0.631  17.398  0.1941 -0.2549 -0.4624
  832MPD2    C312233   3.452   0.540  17.370  0.4543  0.0609 -0.0740
  832MPD2    C412234   3.472   0.410  17.396 -1.4823  0.1763 -0.6130
  832MPD2    C512235   3.595   0.376  17.450  0.4058 -0.5168  0.3294
  832MPD2     H12236   3.531   0.737  17.395 -0.5445 -0.4357 -0.9886
  832MPD2    H112237   3.399   0.333  17.375 -1.2469 -0.5687  1.2357
  832MPD2    H212238   3.769   0.431  17.548  0.3691 -0.0402  0.4675
  832MPD2    H312239   3.620   0.273  17.473  0.6045 -0.5476 -0.0217
  832MPD2     N12240   3.327   0.569  17.311  0.3859  0.6564 -0.5223
  832MPD2    H512241   3.259   0.494  17.304  1.7034 -0.6823  1.1966
  832MPD2    N112242   3.756   0.691  17.531 -0.0451  0.0532 -0.6006
  832MPD2    H712243   3.833   0.653  17.585  0.8495  1.2059 -1.0735
  833MPD2     C12244   1.043   1.403  12.077 -0.2117  0.3068 -0.1481
  833MPD2    C112245   1.096   1.504  12.148  0.0824 -0.5270 -0.4855
  833MPD2    C212246   1.189   1.592  12.089  0.3540 -0.4097 -0.5568
  833MPD2    C312247   1.238   1.572  11.963 -0.5064 -0.4151  0.2170
  833MPD2    C412248   1.191   1.464  11.891  1.0308 -0.9952  1.2076
  833MPD2    C512249   1.097   1.386  11.953 -0.3616 -0.4326  0.3520
  833MPD2     H12250   1.219   1.677  12.149  1.1357 -0.5523 -0.7450
  833MPD2    H112251   1.243   1.415  11.810  1.6612  0.3498  0.8073
  833MPD2    H212252   0.971   1.334  12.119 -1.0449  0.8934 -0.6114
  833MPD2    H312253   1.066   1.295  11.902 -1.0208 -0.2488  0.4163
  833MPD2     N12254   1.351   1.642  11.904  0.3293 -0.3883 -0.3438
  833MPD2    H512255   1.380   1.619  11.810  0.3668 -1.0300 -0.1718
  833MPD2    N112256   1.043   1.515  12.278  0.3846 -0.7320 -0.1600
  833MPD2    H712257   0.970   1.448  12.303 -0.7910  0.4926 -0.3462
  834MPD2     C12258   1.574   1.903  11.150  0.5502  0.3646  0.2538
  834MPD2    C112259   1.491   1.818  11.220 -0.0009  0.6057  0.7579
  834MPD2    C212260   1.476   1.831  11.354 -0.3620  0.4122  0.1766
  834MPD2    C312261   1.554   1.921  11.421 -0.6689 -0.4462  0.8410
  834MPD2    C412262   1.656   1.990  11.356  0.3290 -0.0213 -0.7921
  834MPD2    C512263   1.656   1.987  11.219  0.1941 -0.0634 -0.3915
  834MPD2     H12264   1.406   1.767  11.406 -1.0086  1.3963  0.5261
  834MPD2    H112265   1.715   2.067  11.403 -0.5552  0.6898 -0.8321
  834MPD2    H212266   1.592   1.907  11.043 -1.3103  2.6928  0.0178
  834MPD2    H312267   1.726   2.050  11.165  1.0897 -0.7626 -0.0356
  834MPD2     N12268   1.524   1.934  11.560 -0.4804 -0.2478 -0.3478
  834MPD2    H512269   1.460   1.871  11.607 -0.8192 -0.2230 -0.7782
  834MPD2    N112270   1.418   1.725  11.140  0.9186 -0.0214  0.9829
  834MPD2    H712271   1.434   1.725  11.040 -0.8997  1.2257  0.6946
  835MPD2     C12272   1.363   3.505  11.131 -0.1839  0.3115 -0.4785
  835MPD2    C112273   1.340   3.639  11.119  0.0049 -0.9317  0.2852
  835MPD2    C212274   1.406   3.727  11.202  0.1339  0.2107 -0.4946
  835MPD2    C312275   1.490   3.682  11.304  0.3947  0.0673  0.2155
  835MPD2    C412276   1.498   3.546  11.321 -0.4336  0.8207 -0.0427
  835MPD2    C512277   1.443   3.459  11.232 -0.4264  0.2154  0.0174
  835MPD2     H12278   1.386   3.833  11.195 -0.7562  0.1443  0.9560
  835MPD2    H112279   1.559   3.510  11.403  0.7841 -0.5175 -1.5351
  835MPD2    H212280   1.313   3.427  11.074 -0.8558  0.9829 -0.8145
  835MPD2    H312281   1.451   3.354  11.258 -2.1591  0.5171  1.8214
  835MPD2     N12282   1.562   3.768  11.390  0.7346 -0.0153 -0.0027
  835MPD2    H512283   1.578   3.739  11.486 -1.0069  0.8696  0.5560
  835MPD2    N112284   1.256   3.704  11.022 -0.0839  0.0268  0.3444
  835MPD2    H712285   1.266   3.804  11.009 -0.1407  0.3198  2.5019
  836MPD2     C12286   1.042   4.245  11.438  0.1978  0.4798  0.3100
  836MPD2    C112287   1.115   4.232  11.555  0.0902  0.3643  0.0478
  836MPD2    C212288   1.046   4.279  11.666 -0.5212 -0.0699  0.2326
  836MPD2    C312289   0.910   4.330  11.664 -0.3662  0.2504  0.0094
  836MPD2    C412290   0.855   4.344  11.538 -0.2968 -0.1406 -0.5621
  836MPD2    C512291   0.922   4.311  11.424  0.0071 -0.9121  0.1465
  836MPD2     H12292   1.094   4.279  11.763 -0.4673  1.6859  0.2112
  836MPD2    H112293   0.759   4.390  11.517  0.6129  1.6872 -0.7835
  836MPD2    H212294   1.082   4.215  11.342  0.8351  0.3973  0.6019
  836MPD2    H312295   0.876   4.317  11.326  0.6946 -1.3039 -0.2008
  836MPD2     N12296   0.824   4.349  11.771 -0.5195  0.0678  0.4602
  836MPD2    H512297   0.731   4.383  11.747 -1.2850 -2.4578 -0.0797
  836MPD2    N112298   1.248   4.174  11.547  0.1236  0.0162  0.0066
  836MPD2    H712299   1.280   4.147  11.455 -2.0821 -0.7873 -0.5317
  837MPD2     C12300   3.743   4.552   9.215 -0.4821 -0.0179  0.2879
  837MPD2    C112301   3.709   4.625   9.325 -0.5025 -1.0749 -0.6100
  837MPD2    C212302   3.743   0.038   9.317  0.2201 -0.1212  0.2356
  837MPD2    C312303   3.785   0.101   9.201  0.1276 -0.3604 -0.3173
  837MPD2    C412304   3.806   0.029   9.089 -0.1745  0.6394 -0.2480
  837MPD2    C512305   3.784   4.619   9.105  0.6511  0.3613 -0.3848
  837MPD2     H12306   3.745   0.101   9.406  1.6265 -0.2153  0.2781
  837MPD2    H112307   3.826   0.079   8.994 -0.7991 -0.1231 -0.7826
  837MPD2    H212308   3.734   4.444   9.223 -0.9515 -0.0673 -0.8542
  837MPD2    H312309   3.794   4.563   9.013 -0.1341 -0.6370  0.1333
  837MPD2     N12310   3.794   0.245   9.213 -0.0653 -0.2353  0.1452
  837MPD2    H512311   3.773   0.276   9.307 -2.3656  0.4458 -0.5778
  837MPD2    N112312   3.660   4.584   9.447 -0.4181 -0.4448  0.0750
  837MPD2    H712313   3.645   4.657   9.516 -0.5583 -1.2657  0.9161
  838MPD2     C12314   3.102   2.657  11.321  0.4520 -0.1599  0.0254
  838MPD2    C112315   3.133   2.526  11.359  0.2176 -1.4529  0.4893
  838MPD2    C212316   3.070   2.467  11.466  1.2266 -0.0373 -0.4027
  838MPD2    C312317   2.966   2.539  11.533 -0.2753  0.1801 -0.1881
  838MPD2    C412318   2.943   2.674  11.503 -0.2295  0.4053 -0.1192
  838MPD2    C512319   3.012   2.728  11.399 -0.3762 -0.2021  0.2799
  838MPD2     H12320   3.088   2.361  11.480  0.1269  0.1211  2.0907
  838MPD2    H112321   2.876   2.744  11.552 -0.5392  0.8385 -1.1529
  838MPD2    H212322   3.142   2.705  11.233 -0.8386  0.4716 -0.2165
  838MPD2    H312323   2.981   2.829  11.373  3.0947  1.0461  1.0294
  838MPD2     N12324   2.884   2.467  11.625 -0.4208  0.0847 -0.3640
  838MPD2    H512325   2.887   2.366  11.616 -0.0612 -0.0323  0.9840
  838MPD2    N112326   3.197   2.443  11.267 -0.0897 -0.4096  0.1106
  838MPD2    H712327   3.212   2.348  11.299 -1.5353  1.0747  5.1895
  839MPD2     C12328   2.597   2.238  11.411  0.2925  0.3589 -0.4175
  839MPD2    C112329   2.637   2.112  11.367 -0.7799  0.4955 -0.9837
  839MPD2    C212330   2.742   2.106  11.276 -0.8327 -0.5906 -0.6804
  839MPD2    C312331   2.803   2.221  11.232  0.2192  1.2166  0.1817
  839MPD2    C412332   2.765   2.343  11.283  0.2149 -0.8263  0.2775
  839MPD2    C512333   2.655   2.352  11.364 -0.5317  0.2924  0.1592
  839MPD2     H12334   2.778   2.009  11.243  0.5915  0.1435 -1.2474
  839MPD2    H112335   2.812   2.438  11.262  1.4522 -0.9187  2.6045
  839MPD2    H212336   2.510   2.245  11.476  2.3350  2.9645  2.0416
  839MPD2    H312337   2.629   2.445  11.412  2.4862  0.1452  2.1081
  839MPD2     N12338   2.905   2.219  11.129  0.2843  0.1598  0.3540
  839MPD2    H512339   2.938   2.307  11.091  0.0251 -0.0014 -0.2469
  839MPD2    N112340   2.573   1.988  11.397  0.9478  0.2684  0.4637
  839MPD2    H712341   2.588   1.903  11.345 -1.3465  0.2419 -0.1415
  840MPD2     C12342   2.453   4.298  10.707 -0.0119 -0.2507  0.6894
  840MPD2    C112343   2.412   4.353  10.832 -0.2210 -0.4935  0.6277
  840MPD2    C212344   2.499   4.438  10.897 -0.4490 -0.4938 -0.0567
  840MPD2    C312345   2.622   4.478  10.840 -0.1147  0.6952 -0.5577
  840MPD2    C412346   2.657   4.427  10.719 -0.0720  0.6497  0.1041
  840MPD2    C512347   2.569   4.343  10.657  0.1066 -0.4813 -0.1803
  840MPD2     H12348   2.476   4.477  10.995  4.6572  0.2686  0.8489
  840MPD2    H112349   2.747   4.456  10.666  0.3303 -0.0199  0.4157
  840MPD2    H212350   2.403   4.217  10.655  1.4400 -1.0482  0.5471
  840MPD2    H312351   2.600   4.301  10.562  0.6178  2.2828 -1.2444
  840MPD2     N12352   2.709   4.581  10.892 -0.0351 -0.6018  0.3863
  840MPD2    H512353   2.786   4.608  10.831  0.4524 -0.9738  0.8466
  840MPD2    N112354   2.288   4.311  10.891  0.2376 -0.0148  0.0978
  840MPD2    H712355   2.239   4.252  10.824  1.1695  1.8567 -2.2238
  841MPD2     C12356   1.895   4.184  14.813 -0.8403 -0.7016  0.1285
  841MPD2    C112357   1.893   4.246  14.685 -0.3479  0.3302 -0.4380
  841MPD2    C212358   1.884   4.383  14.687 -0.1610 -0.2101 -0.1262
  841MPD2    C312359   1.869   4.465  14.802  0.2250  0.3095  0.3820
  841MPD2    C412360   1.861   4.404  14.925 -0.0507 -0.1776 -0.0213
  841MPD2    C512361   1.876   4.265  14.929  0.3869 -0.0375  0.9617
  841MPD2     H12362   1.894   4.430  14.590  0.5289  0.6713  0.3634
  841MPD2    H112363   1.848   4.455  15.020  1.3335 -0.7360  0.4751
  841MPD2    H212364   1.900   4.078  14.831 -1.0328 -1.0431 -1.8954
  841MPD2    H312365   1.877   4.219  15.028 -0.8846 -2.6630 -0.2339
  841MPD2     N12366   1.863   4.605  14.794  0.1823 -0.5297  0.3614
  841MPD2    H512367   1.838   4.646  14.705 -1.4626  1.2753  1.6465
  841MPD2    N112368   1.916   4.177  14.560  0.3557 -0.6300  0.6043
  841MPD2    H712369   1.897   4.230  14.476 -0.7841 -0.9825  0.6375
  842MPD2     C12370   2.613   1.335  16.550  0.0158 -0.2538 -0.0567
  842MPD2    C112371   2.546   1.215  16.517  0.0179  0.1281 -0.1987
  842MPD2    C212372   2.516   1.124  16.620 -0.1404 -0.2672 -0.0671
  842MPD2    C312373   2.569   1.143  16.745 -0.1049 -0.3529 -0.6664
  842MPD2    C412374   2.629   1.261  16.777  0.1356  0.4023  0.6091
  842MPD2    C512375   2.649   1.357  16.679 -0.2926  0.6423 -0.3044
  842MPD2     H12376   2.456   1.038  16.596  0.5206 -0.8404  0.3516
  842MPD2    H112377   2.663   1.275  16.879  0.9852 -0.0748  0.3958
  842MPD2    H212378   2.627   1.411  16.474 -1.6176 -0.8740 -0.9679
  842MPD2    H312379   2.693   1.450  16.713  0.5871  0.3438 -0.6085
  842MPD2     N12380   2.549   1.053  16.855 -0.1546  0.1300 -0.2065
  842MPD2    H512381   2.595   1.082  16.941 -0.0809 -1.5450  0.3245
  842MPD2    N112382   2.502   1.218  16.382 -0.3250 -0.4081 -0.0294
  842MPD2    H712383   2.532   1.300  16.330  3.6818 -0.6689  1.8964
  843MPD2     C12384   0.261   0.970   0.606 -0.1628 -0.2045 -0.6039
  843MPD2    C112385   0.391   0.914   0.586 -0.3388  0.4267  0.0774
  843MPD2    C212386   0.486   1.005   0.540 -0.0373  0.3325 -0.0102
  843MPD2    C312387   0.455   1.136   0.504 -0.4251 -0.1348  0.4683
  843MPD2    C412388   0.325   1.180   0.524 -0.2400 -0.1025  0.6730
  843MPD2    C512389   0.228   1.098   0.568 -0.1940 -0.3541 -0.0942
  843MPD2     H12390   0.590   0.973   0.530 -0.5702 -1.2940 -0.3153
  843MPD2    H112391   0.289   1.280   0.500 -0.9130 -1.1575 -2.7596
  843MPD2    H212392   0.176   0.909   0.633 -0.1463  0.6871  1.4048
  843MPD2    H312393   0.126   1.136   0.564 -0.1584 -0.2649 -0.1544
  843MPD2     N12394   0.541   1.238   0.463  0.4432 -0.5253 -0.0508
  843MPD2    H512395   0.505   1.332   0.457  1.1776 -0.1268  1.6812
  843MPD2    N112396   0.422   0.774   0.605 -0.0378  0.2566  0.4975
  843MPD2    H712397   0.349   0.712   0.638 -0.1647 -0.5190 -1.2789
  844MPD2     C12398   2.909   0.126  16.643  0.0657  0.0000  0.3208
  844MPD2    C112399   3.034   0.120  16.590 -0.2177 -0.2817  0.6787
  844MPD2    C212400   3.137   0.206  16.622  0.0442 -0.8182 -0.2919
  844MPD2    C312401   3.127   0.274  16.739  0.1016  0.8879 -0.1277
  844MPD2    C412402   3.004   0.280  16.809  0.6087  0.0512 -0.8412
  844MPD2    C512403   2.895   0.211  16.750 -0.1584  0.7578  0.0921
  844MPD2     H12404   3.228   0.217  16.564  0.5655 -1.8227  0.3235
  844MPD2    H112405   2.984   0.339  16.897  3.1801 -0.4065  0.0667
  844MPD2    H212406   2.825   0.066  16.611  0.7976  0.7940 -3.0920
  844MPD2    H312407   2.795   0.220  16.791 -0.7052  1.4370 -1.4045
  844MPD2     N12408   3.227   0.361  16.794 -0.2117 -0.1557 -0.0212
  844MPD2    H512409   3.206   0.412  16.879 -0.3779  0.6794 -0.5561
  844MPD2    N112410   3.066   0.034  16.485  0.2903 -0.1949 -0.2055
  844MPD2    H712411   3.151   0.057  16.434  0.5674 -1.4454 -0.3086
  845MPD2     C12412   3.320   1.314  17.024  0.2920  0.6823 -0.2123
  845MPD2    C112413   3.416   1.245  17.102  0.6143  0.0077  0.5315
  845MPD2    C212414   3.452   1.110  17.072  0.5694  0.2052 -0.8176
  845MPD2    C312415   3.398   1.044  16.962  0.1121  0.3872 -0.1330
  845MPD2    C412416   3.311   1.113  16.882 -0.6127  0.2309 -0.1056
  845MPD2    C512417   3.281   1.248  16.911  0.2517  0.6266  0.0519
  845MPD2     H12418   3.531   1.063  17.129  1.4168  1.4739 -0.9354
  845MPD2    H112419   3.264   1.060  16.800 -0.7004  0.3655 -0.1419
  845MPD2    H212420   3.274   1.408  17.053 -3.1330 -0.9369 -0.4077
  845MPD2    H312421   3.220   1.305  16.841  0.1163 -0.2825 -0.5734
  845MPD2     N12422   3.446   0.906  16.946  0.5763 -0.2169  0.3605
  845MPD2    H512423   3.510   0.870  17.016 -0.8050 -0.6520  1.3955
  845MPD2    N112424   3.470   1.308  17.220 -0.2480  0.0967  0.0015
  845MPD2    H712425   3.434   1.399  17.245 -1.2561 -0.8472  1.9890
  846MPD2     C12426   0.457   1.402  13.648 -0.4466  0.6043 -0.1747
  846MPD2    C112427   0.429   1.533  13.663  0.2824 -0.9663  0.1135
  846MPD2    C212428   0.405   1.586  13.792  0.3911  0.4005 -0.4647
  846MPD2    C312429   0.423   1.514  13.910  0.3251  0.1848 -0.3475
  846MPD2    C412430   0.464   1.382  13.892 -0.3489 -0.6013  0.3807
  846MPD2    C512431   0.480   1.329  13.766  0.4238  0.3702 -0.2512
  846MPD2     H12432   0.386   1.692  13.809 -1.2458  0.5176 -2.9799
  846MPD2    H112433   0.502   1.322  13.974 -1.2981  0.2956  1.4890
  846MPD2    H212434   0.478   1.355  13.553 -0.3948  0.1268  0.0714
  846MPD2    H312435   0.525   1.231  13.756 -0.6668  0.1524 -2.9897
  846MPD2     N12436   0.396   1.577  14.034  0.8573  0.3964  0.3783
  846MPD2    H512437   0.361   1.672  14.033 -2.2865 -0.7382  2.6278
  846MPD2    N112438   0.426   1.619  13.560 -0.1068 -0.2127 -0.1807
  846MPD2    H712439   0.405   1.717  13.577 -0.3374  0.2545 -3.1227
  847MPD2     C12440   0.530   2.465  14.351  0.5109 -0.1282  0.0444
  847MPD2    C112441   0.636   2.503  14.425  0.0417  0.8846 -0.8543
  847MPD2    C212442   0.658   2.449  14.549  0.2609 -0.0706 -0.6815
  847MPD2    C312443   0.570   2.356  14.599 -0.2812  0.0114 -0.3271
  847MPD2    C412444   0.457   2.319  14.529 -0.2070  0.2632  0.0408
  847MPD2    C512445   0.433   2.374  14.406  0.4692  0.1975 -0.2405
  847MPD2     H12446   0.741   2.473  14.614  0.3065  0.4589 -0.9332
  847MPD2    H112447   0.381   2.250  14.565  0.7992 -1.0636 -0.3914
  847MPD2    H212448   0.500   2.504  14.255 -1.1278  1.5835  1.2312
  847MPD2    H312449   0.341   2.348  14.355 -1.2853 -0.6220  3.3516
  847MPD2     N12450   0.613   2.291  14.713  0.4250  0.2123  0.7030
  847MPD2    H512451   0.709   2.305  14.742  0.4532  1.0988  0.1859
  847MPD2    N112452   0.735   2.610  14.395  0.3389 -0.3092  0.6729
  847MPD2    H712453   0.781   2.643  14.479  1.4782  2.3471 -1.0177
  848MPD2     C12454   2.924   0.988  16.668  0.7268 -0.0944  0.0771
  848MPD2    C112455   2.968   1.049  16.788  0.1515 -0.0523 -0.7437
  848MPD2    C212456   2.979   1.188  16.782 -0.1276  0.4123  0.1102
  848MPD2    C312457   2.961   1.263  16.664 -0.3885 -0.3606  0.0258
  848MPD2    C412458   2.916   1.198  16.544 -0.4816  0.4869 -0.2979
  848MPD2    C512459   2.899   1.062  16.557 -0.2383  0.2031 -0.5759
  848MPD2     H12460   2.998   1.243  16.873 -1.5951 -1.7596  1.7279
  848MPD2    H112461   2.897   1.245  16.448 -1.8774  1.8887  0.6554
  848MPD2    H212462   2.904   0.882  16.655 -0.9465  0.2469 -0.1121
  848MPD2    H312463   2.858   1.008  16.473 -0.0135 -1.6516  0.5171
  848MPD2     N12464   2.965   1.403  16.652  0.2694  0.1354 -0.5629
  848MPD2    H512465   2.954   1.438  16.557 -1.2629  0.2024 -0.3660
  848MPD2    N112466   3.017   0.974  16.898 -0.0005 -0.1454 -0.3493
  848MPD2    H712467   3.053   1.020  16.981 -0.8535  0.6154 -0.3968
  849MPD2     C12468   2.351   0.624  13.653  0.1201 -0.3850 -0.1570
  849MPD2    C112469   2.406   0.509  13.701  0.1105 -0.4539 -0.0064
  849MPD2    C212470   2.385   0.464  13.826  0.2836 -1.0131 -0.0823
  849MPD2    C312471   2.291   0.526  13.902  0.2545 -0.4950 -0.0704
  849MPD2    C412472   2.220   0.629  13.851 -0.2727 -0.1937 -0.1302
  849MPD2    C512473   2.248   0.680  13.722 -0.1350 -0.0776 -0.6297
  849MPD2     H12474   2.439   0.380  13.868 -0.2947 -0.4443  1.7988
  849MPD2    H112475   2.130   0.664  13.900 -0.0183 -0.6180  0.6380
  849MPD2    H212476   2.368   0.657  13.551  0.7987 -0.8605 -0.1967
  849MPD2    H312477   2.189   0.761  13.681  0.6790  0.8265 -0.0066
  849MPD2     N12478   2.249   0.445  14.008  0.8760  0.1813  0.0760
  849MPD2    H512479   2.292   0.353  14.016 -1.6774 -0.9474  0.9931
  849MPD2    N112480   2.508   0.455  13.624  0.0504 -0.5501 -0.5363
  849MPD2    H712481   2.518   0.496  13.531 -0.7608 -1.0194 -0.8318
  850MPD2     C12482   0.362   3.727  15.733 -0.6464 -0.5409 -0.2748
  850MPD2    C112483   0.446   3.667  15.644 -0.1218  0.7743 -0.2435
  850MPD2    C212484   0.579   3.636  15.682 -0.0204 -0.1031  0.0764
  850MPD2    C312485   0.629   3.689  15.807 -0.4717  0.4427 -0.0253
  850MPD2    C412486   0.542   3.752  15.892 -0.6141  0.2612 -0.3856
  850MPD2    C512487   0.412   3.768  15.854 -0.1057  0.2181 -0.0225
  850MPD2     H12488   0.648   3.591  15.612 -0.3023 -0.8016  0.2488
  850MPD2    H112489   0.565   3.806  15.984 -0.9959  0.4902 -0.4256
  850MPD2    H212490   0.259   3.744  15.703 -0.6456 -0.4161 -0.2027
  850MPD2    H312491   0.360   3.823  15.932 -0.2741 -0.8897  0.6552
  850MPD2     N12492   0.763   3.687  15.842  0.3875  0.1074 -0.7165
  850MPD2    H512493   0.788   3.744  15.922 -0.4793 -0.4697 -0.0418
  850MPD2    N112494   0.398   3.633  15.516 -0.1961 -0.4122  0.1707
  850MPD2    H712495   0.299   3.649  15.501 -0.4802 -1.3416  1.0915
  851MPD2     C12496   0.693   3.254  14.844  0.4368  0.4922 -0.1981
  851MPD2    C112497   0.609   3.196  14.945 -0.1492 -0.3239 -0.5091
  851MPD2    C212498   0.594   3.059  14.950  0.0782 -0.5089 -0.4101
  851MPD2    C312499   0.646   2.982  14.853  0.4109  0.1587  0.1758
  851MPD2    C412500   0.730   3.037  14.758 -0.0053 -0.0644 -0.0579
  851MPD2    C512501   0.759   3.173  14.758  0.7046  0.2569 -0.7303
  851MPD2     H12502   0.530   3.009  15.022  1.4060  0.1138  1.2022
  851MPD2    H112503   0.784   2.976  14.687 -0.3941 -1.6653  1.0379
  851MPD2    H212504   0.718   3.359  14.844  0.6845  0.4348  0.0589
  851MPD2    H312505   0.839   3.214  14.697  2.4145 -0.8136  0.8045
  851MPD2     N12506   0.600   2.848  14.849  0.3152  0.4811  0.3887
  851MPD2    H512507   0.549   2.813  14.930  0.3409  2.5578  1.2962
  851MPD2    N112508   0.532   3.282  15.019  0.4443 -0.0327  0.0074
  851MPD2    H712509   0.566   3.377  15.012 -0.4860  0.4165  1.6627
  852MPD2     C12510   0.777   0.876   9.957  0.2019  1.0076 -0.2021
  852MPD2    C112511   0.790   0.938  10.081  0.1113  0.1765 -0.8917
  852MPD2    C212512   0.889   1.022  10.098  0.9781 -0.4488 -0.1192
  852MPD2    C312513   0.991   1.044  10.007  0.0474 -0.5180 -0.0264
  852MPD2    C412514   0.981   0.972   9.885  0.0770  0.3774 -0.8973
  852MPD2    C512515   0.872   0.893   9.853  0.5665  0.0008 -0.2582
  852MPD2     H12516   0.898   1.082  10.188  0.7090  0.3281 -0.6090
  852MPD2    H112517   1.059   0.956   9.813  1.8603  0.0772  1.1083
  852MPD2    H212518   0.698   0.804   9.942  0.2299  0.8703  0.2951
  852MPD2    H312519   0.870   0.839   9.760  3.4429  2.7448 -1.9076
  852MPD2     N12520   1.105   1.128  10.029 -0.4116  0.0434  0.5627
  852MPD2    H512521   1.122   1.177  10.116  0.0947 -1.0972  1.0928
  852MPD2    N112522   0.693   0.928  10.189  0.1675  0.2254 -0.2116
  852MPD2    H712523   0.714   0.964  10.281 -1.1340  1.5523 -0.4332
  853MPD2     C12524   2.334   1.009  12.330 -0.2204 -0.1089 -0.0766
  853MPD2    C112525   2.281   1.132  12.300 -0.1885 -0.1184  0.1147
  853MPD2    C212526   2.284   1.170  12.167 -0.0676 -0.1910  0.4426
  853MPD2    C312527   2.334   1.096  12.069 -0.1697  0.2185  0.2779
  853MPD2    C412528   2.388   0.973  12.102  0.8157 -0.4755 -0.6524
  853MPD2    C512529   2.387   0.929  12.233 -0.3828 -0.1489  0.5376
  853MPD2     H12530   2.259   1.273  12.142 -3.5894 -1.0545  0.4837
  853MPD2    H112531   2.429   0.914  12.021  1.2824  0.2940 -0.9726
  853MPD2    H212532   2.356   0.980  12.432  1.3292  0.1506 -0.3460
  853MPD2    H312533   2.432   0.833  12.253 -0.4823 -0.7052 -1.9086
  853MPD2     N12534   2.338   1.125  11.927  0.3797 -0.3424  0.6290
  853MPD2    H512535   2.393   1.058  11.873  0.5957  2.0276 -2.1296
  853MPD2    N112536   2.227   1.201  12.407  0.3235  0.1324 -0.2577
  853MPD2    H712537   2.250   1.170  12.501 -0.7047  1.7278  0.5320
  854MPD2     C12538   3.859   0.964  12.213 -0.3913  0.2767  0.4799
  854MPD2    C112539   3.863   1.077  12.290 -1.2148 -0.2362  0.0332
  854MPD2    C212540   3.767   1.093  12.393  0.1655  0.0197 -0.2724
  854MPD2    C312541   3.671   0.994  12.410 -0.7434 -0.7691  0.0143
  854MPD2    C412542   3.667   0.890  12.314  0.0204  0.0432 -0.6580
  854MPD2    C512543   3.757   0.875  12.219 -0.0593 -0.3968 -1.7407
  854MPD2     H12544   3.760   1.187  12.446 -0.6294  2.2502 -4.3402
  854MPD2    H112545   3.593   0.814  12.337  0.2110  1.4581  4.6142
  854MPD2    H212546   3.932   0.940  12.137 -0.4943 -0.7914  0.7144
  854MPD2    H312547   3.740   0.788  12.158  0.2463 -2.6642  1.4243
  854MPD2     N12548   3.574   0.990  12.513  0.1185  0.3160  0.5378
  854MPD2    H512549   3.532   0.899  12.526 -1.0727  1.1323  2.4556
  854MPD2    N112550   3.971   1.167  12.253  0.2241 -0.4295 -0.0963
  854MPD2    H712551   4.018   1.144  12.166  4.3346 -0.4694  2.1005
  855MPD2     C12552   3.310   0.897  13.535 -0.1377  0.6231  0.0411
  855MPD2    C112553   3.411   0.858  13.461  0.3610  0.1386  1.0034
  855MPD2    C212554   3.420   0.895  13.326  0.4127 -0.1443 -0.2726
  855MPD2    C312555   3.311   0.962  13.268  0.2765  0.2287 -0.4015
  855MPD2    C412556   3.203   0.995  13.344 -0.9615 -0.2775  0.1197
  855MPD2    C512557   3.205   0.969  13.478 -0.1355  0.2016  0.1781
  855MPD2     H12558   3.499   0.855  13.264 -0.1300 -0.8135 -0.5416
  855MPD2    H112559   3.118   1.051  13.306 -0.2569  0.8221  0.1550
  855MPD2    H212560   3.295   0.869  13.639 -0.1737  0.4749 -0.0044
  855MPD2    H312561   3.117   1.000  13.532 -0.7057  2.3307 -1.9775
  855MPD2     N12562   3.298   0.996  13.129 -0.7548  0.2469  0.1564
  855MPD2    H512563   3.212   1.039  13.098  0.3192  1.2014 -1.4647
  855MPD2    N112564   3.526   0.801  13.520  0.1109  0.0444  0.3955
  855MPD2    H712565   3.600   0.775  13.456 -0.0321 -1.9827  1.0674
  856MPD2     C12566   1.172   1.776  14.527  0.4347  0.2660  0.0311
  856MPD2    C112567   1.240   1.889  14.499 -0.1064 -0.2291  0.0624
  856MPD2    C212568   1.186   1.977  14.405  0.8515 -0.1740  0.0504
  856MPD2    C312569   1.071   1.950  14.337 -0.1992  0.2342 -0.4401
  856MPD2    C412570   1.005   1.830  14.351 -0.0117  0.0518  0.3128
  856MPD2    C512571   1.061   1.748  14.450  0.0211  0.1241  0.3438
  856MPD2     H12572   1.245   2.067  14.392  2.2046 -0.8107  1.8145
  856MPD2    H112573   0.912   1.807  14.300 -0.1090  0.3402  0.3618
  856MPD2    H212574   1.215   1.705  14.597  1.7909  0.5707 -0.4917
  856MPD2    H312575   1.009   1.658  14.481 -0.3134  0.2274  0.0810
  856MPD2     N12576   1.030   2.043  14.244  0.3840 -0.2358  0.1141
  856MPD2    H512577   1.082   2.130  14.240  0.6077 -0.2986  1.6642
  856MPD2    N112578   1.354   1.931  14.580 -0.9045 -0.0913 -0.3148
  856MPD2    H712579   1.388   2.024  14.556  0.2093 -0.7769 -1.3820
  857MPD2     C12580   2.955   3.828  13.145  0.2078 -0.4724  0.3730
  857MPD2    C112581   3.034   3.841  13.040 -0.1171  0.1480 -0.3115
  857MPD2    C212582   3.086   3.969  13.013  0.0548  0.2663 -0.3494
  857MPD2    C312583   3.077   4.076  13.100 -0.5896 -0.7343 -0.1481
  857MPD2    C412584   2.990   4.060  13.205  0.2264  0.3963  0.6978
  857MPD2    C512585   2.930   3.940  13.220 -0.3401 -0.7853 -0.2371
  857MPD2     H12586   3.156   3.980  12.932 -0.3925 -0.7621 -0.8693
  857MPD2    H112587   2.968   4.144  13.270 -1.7408 -0.8356  1.6126
  857MPD2    H212588   2.903   3.733  13.161 -1.3495 -0.0156 -1.9850
  857MPD2    H312589   2.873   3.925  13.312 -1.0774 -1.3198 -0.7828
  857MPD2     N12590   3.150   4.196  13.072 -0.3734  0.0744 -0.2517
  857MPD2    H512591   3.202   4.207  12.985  1.1605  1.1189  0.8099
  857MPD2    N112592   3.066   3.721  12.971 -0.2517 -0.8261  0.1323
  857MPD2    H712593   3.014   3.638  13.000  0.1715 -2.1672 -2.9538
  858MPD2     C12594   3.408   3.294  16.971  0.0352 -0.4525  0.7505
  858MPD2    C112595   3.545   3.281  16.949 -0.2089 -0.7296  0.3114
  858MPD2    C212596   3.635   3.361  17.021  0.1184  0.2216 -0.0355
  858MPD2    C312597   3.589   3.451  17.116  0.2150  0.2580 -0.0819
  858MPD2    C412598   3.456   3.459  17.136  0.0918 -0.1528 -0.0022
  858MPD2    C512599   3.367   3.392  17.064  0.0127  0.3782 -0.1424
  858MPD2     H12600   3.738   3.353  16.988  0.5262  0.9252  1.0919
  858MPD2    H112601   3.415   3.527  17.210  1.2282 -1.4268  1.8051
  858MPD2    H212602   3.329   3.241  16.919  1.6425  1.3927 -3.5246
  858MPD2    H312603   3.262   3.420  17.073 -0.1687 -0.0271 -1.0401
  858MPD2     N12604   3.666   3.509  17.220  0.7419  0.1910  0.0711
  858MPD2    H512605   3.610   3.558  17.289 -0.1450  0.7302 -1.0121
  858MPD2    N112606   3.600   3.202  16.852  0.3953  0.2667 -0.1904
  858MPD2    H712607   3.699   3.219  16.834 -0.1632  1.5101 -2.1651
  859MPD2     C12608   1.997   0.472  15.459  0.2481 -0.4982 -0.0159
  859MPD2    C112609   2.128   0.494  15.407 -0.0907  0.4527 -0.5377
  859MPD2    C212610   2.196   0.393  15.345  0.0775  0.7060  0.2714
  859MPD2    C312611   2.137   0.266  15.326 -0.1557 -0.3604  0.4281
  859MPD2    C412612   2.010   0.247  15.372 -0.4165 -0.8550 -0.1599
  859MPD2    C512613   1.942   0.344  15.438  0.2694  0.4779 -0.5801
  859MPD2     H12614   2.298   0.408  15.312 -0.2781 -0.7251 -1.4721
  859MPD2    H112615   1.962   0.151  15.353 -2.1853  0.3294 -1.6567
  859MPD2    H212616   1.939   0.552  15.503 -1.4297 -0.5368 -2.1704
  859MPD2    H312617   1.839   0.327  15.464  0.5568  1.7228  1.3683
  859MPD2     N12618   2.208   0.159  15.264  0.1106 -0.0081  0.9977
  859MPD2    H512619   2.149   0.079  15.243  0.1854 -0.2507  1.7272
  859MPD2    N112620   2.180   0.619  15.435  0.2863  0.2989 -0.2369
  859MPD2    H712621   2.114   0.692  15.463  0.8173  0.5472  0.3705
  860MPD2     C12622   4.473   0.071  11.931 -0.2241  0.0408 -0.1033
  860MPD2    C112623   4.492   0.160  12.035  0.3679 -0.2458  0.3394
  860MPD2    C212624   4.386   0.175  12.125 -0.5341  0.0591  0.3873
  860MPD2    C312625   4.262   0.118  12.097 -0.4742 -0.9353 -0.2092
  860MPD2    C412626   4.248   0.039  11.986 -0.2862 -0.3204  0.1276
  860MPD2    C512627   4.350   0.019  11.899 -0.1474  0.3111  0.2914
  860MPD2     H12628   4.398   0.248  12.205  0.2693  1.0018 -0.5947
  860MPD2    H112629   4.156   4.715  11.951 -0.1549  1.3857 -2.4584
  860MPD2    H212630   4.555   0.047  11.864  1.0983  0.6173  1.3279
  860MPD2    H312631   4.333   4.692  11.804  0.6578  2.2352 -0.8483
  860MPD2     N12632   4.158   0.151  12.187  0.4924  0.3714 -0.1275
  860MPD2    H512633   4.183   0.215  12.261 -0.1236  0.6763 -0.1816
  860MPD2    N112634   4.620   0.194  12.086 -0.3096  0.4552 -0.3523
  860MPD2    H712635   4.624   0.246  12.173  0.1475 -1.6086  0.8373
  861MPD2     C12636   2.835   3.551  11.352 -0.5266  0.7143 -1.1090
  861MPD2    C112637   2.946   3.621  11.389 -0.6036  0.2057  0.6854
  861MPD2    C212638   2.987   3.731  11.310  0.0434  0.2461  1.3070
  861MPD2    C312639   2.914   3.768  11.192 -0.8792  0.0235 -0.4438
  861MPD2    C412640   2.792   3.702  11.170 -0.0757  0.1621  0.6053
  861MPD2    C512641   2.757   3.593  11.244  0.5845 -0.2987  0.2525
  861MPD2     H12642   3.076   3.782  11.345 -0.0057  1.3733 -0.1967
  861MPD2    H112643   2.732   3.716  11.080  1.0485  2.4318  0.2307
  861MPD2    H212644   2.800   3.462  11.403 -3.6694  2.2567 -0.5695
  861MPD2    H312645   2.669   3.537  11.218  1.5064 -1.3870 -0.5030
  861MPD2     N12646   2.941   3.876  11.103  0.0223  0.1217 -0.0890
  861MPD2    H512647   2.883   3.876  11.020  0.6694  2.9275 -0.5243
  861MPD2    N112648   3.032   3.578  11.495  0.5548 -0.2287  0.6072
  861MPD2    H712649   3.113   3.638  11.507  0.8806 -0.1127 -2.1247
  862MPD2     C12650   2.837   4.164  10.450  0.3267  0.1823 -0.2768
  862MPD2    C112651   2.845   4.075  10.557 -0.1170 -0.0064  0.0730
  862MPD2    C212652   2.798   3.946  10.542 -0.5130 -0.5700  0.4598
  862MPD2    C312653   2.770   3.896  10.413 -0.0753  0.5167  0.7225
  862MPD2    C412654   2.765   3.984  10.311  1.0708  0.0855  0.3338
  862MPD2    C512655   2.792   4.121  10.324  0.4239  0.2339 -0.3928
  862MPD2     H12656   2.798   3.880  10.628 -1.6676  0.8200  1.5165
  862MPD2    H112657   2.733   3.950  10.214  0.3027  1.7593  0.0030
  862MPD2    H212658   2.861   4.270  10.450  1.2408 -0.0256  1.2248
  862MPD2    H312659   2.787   4.188  10.239 -1.1518  0.5997 -0.0129
  862MPD2     N12660   2.757   3.751  10.389 -0.2902 -0.2535  0.4065
  862MPD2    H512661   2.737   3.717  10.295 -0.1609  0.8818 -0.0280
  862MPD2    N112662   2.885   4.113  10.689 -0.2027 -0.6601 -0.3152
  862MPD2    H712663   2.866   4.049  10.765  1.9210 -0.9286  0.0024
  863MPD2     C12664   1.644   2.355  17.302  0.1217 -0.6285  0.3637
  863MPD2    C112665   1.729   2.350  17.191 -0.5671  0.0436 -0.2134
  863MPD2    C212666   1.866   2.332  17.212 -0.0399 -0.0121 -0.2840
  863MPD2    C312667   1.917   2.318  17.341  0.3517  0.0774  0.6652
  863MPD2    C412668   1.829   2.317  17.447 -0.1139  0.3047  0.3243
  863MPD2    C512669   1.694   2.333  17.429  0.4010 -0.6664 -0.2726
  863MPD2     H12670   1.937   2.323  17.131  2.5450  2.7138  1.6791
  863MPD2    H112671   1.870   2.314  17.547 -0.4507 -3.7841  0.3574
  863MPD2    H212672   1.542   2.388  17.287  0.4574  0.4324  0.4402
  863MPD2    H312673   1.631   2.340  17.517 -0.7168  0.2495 -1.1508
  863MPD2     N12674   2.051   2.312  17.376 -0.6847 -0.1396 -0.1337
  863MPD2    H512675   2.077   2.281  17.469  0.7219  0.3965 -0.3342
  863MPD2    N112676   1.678   2.375  17.060  0.6970 -0.3790  0.8586
  863MPD2    H712677   1.578   2.384  17.050  1.1116  2.2481 -1.0013
  864MPD2     C12678   2.564   3.590  17.471 -0.5409 -0.3285 -0.7175
  864MPD2    C112679   2.566   3.498  17.371  0.1516  0.1173 -0.5216
  864MPD2    C212680   2.668   3.506  17.281  0.1406 -0.1486  0.4114
  864MPD2    C312681   2.777   3.586  17.298  0.0094  0.3112 -0.0827
  864MPD2    C412682   2.783   3.669  17.404  0.4541 -0.0614 -0.5278
  864MPD2    C512683   2.675   3.674  17.484  0.6644 -0.4310  0.8257
  864MPD2     H12684   2.671   3.450  17.188  2.3143 -0.2937  0.5535
  864MPD2    H112685   2.859   3.743  17.428  1.6080 -2.0789  2.0443
  864MPD2    H212686   2.496   3.602  17.555 -0.7200 -3.3909 -0.4278
  864MPD2    H312687   2.673   3.748  17.563 -0.8651 -1.4386  1.7373
  864MPD2     N12688   2.864   3.590  17.192 -0.1423  0.0971  0.0760
  864MPD2    H512689   2.815   3.558  17.109  1.4052  0.5743 -1.0136
  864MPD2    N112690   2.458   3.408  17.360 -0.3342 -0.0123 -0.0769
  864MPD2    H712691   2.414   3.391  17.449  1.2034 -0.4628  0.5841
  865MPD2     C12692   2.952   3.659  16.264  0.0291 -0.7667  0.3182
  865MPD2    C112693   2.931   3.573  16.372  0.3595  0.6662  0.1480
  865MPD2    C212694   2.923   3.628  16.496 -0.0518 -0.3505  0.2699
  865MPD2    C312695   2.958   3.761  16.515  0.4270  0.1791  0.5905
  865MPD2    C412696   2.986   3.843  16.414  0.6001 -0.4444  0.1995
  865MPD2    C512697   2.978   3.794  16.286  0.7554 -0.5539  0.2642
  865MPD2     H12698   2.889   3.559  16.572 -0.2937 -0.3467  0.1647
  865MPD2    H112699   3.008   3.949  16.422  0.4688 -0.3318 -0.9718
  865MPD2    H212700   2.950   3.623  16.161  0.8733  0.3209 -0.0725
  865MPD2    H312701   2.992   3.866  16.206  0.6377 -0.3694  0.4086
  865MPD2     N12702   2.976   3.811  16.647  0.1883 -0.0453  0.7312
  865MPD2    H512703   3.006   3.907  16.660  1.0281 -0.2553  0.3139
  865MPD2    N112704   2.918   3.436  16.349  0.1452  0.2693 -0.2281
  865MPD2    H712705   2.912   3.401  16.254  0.8542 -0.1189 -0.1321
  866MPD2     C12706   4.014   3.833  11.706 -0.1218  0.0425  1.2297
  866MPD2    C112707   3.954   3.749  11.610 -0.0369  0.0392  0.1061
  866MPD2    C212708   3.844   3.789  11.535  0.2581  0.1752  0.5328
  866MPD2    C312709   3.795   3.917  11.547  0.0417 -0.2354 -0.0843
  866MPD2    C412710   3.858   3.999  11.649 -0.5563 -0.1941 -0.3187
  866MPD2    C512711   3.967   3.960  11.723  0.8615 -1.5425  0.2919
  866MPD2     H12712   3.793   3.721  11.467  0.9889  0.0607  0.0987
  866MPD2    H112713   3.815   4.099  11.654  0.5452  0.3798 -2.2485
  866MPD2    H212714   4.082   3.795  11.782  1.7893 -2.1690 -1.6020
  866MPD2    H312715   4.023   4.033  11.781  1.7053 -2.6876  0.9301
  866MPD2     N12716   3.687   3.976  11.478  0.3474  0.2202 -0.1606
  866MPD2    H512717   3.672   4.076  11.487 -0.2468  0.2124 -1.1715
  866MPD2    N112718   4.011   3.622  11.593  0.3367 -0.9580 -0.5168
  866MPD2    H712719   4.087   3.603  11.658  0.2666  1.9193  0.4184
  867MPD2     C12720   2.001   3.721  16.804 -0.1494 -1.3373 -0.2631
  867MPD2    C112721   2.051   3.640  16.904  0.3863  0.0462  0.3305
  867MPD2    C212722   2.140   3.710  16.992  0.2640 -0.5877 -0.4190
  867MPD2    C312723   2.171   3.844  16.973  0.0330 -0.5083 -0.8886
  867MPD2    C412724   2.121   3.911  16.862  0.2731  0.3016 -0.4968
  867MPD2    C512725   2.031   3.850  16.782  0.1206 -0.1849  0.2698
  867MPD2     H12726   2.173   3.656  17.080  1.6680  1.3650  0.2394
  867MPD2    H112727   2.150   4.012  16.837 -0.1178 -0.0641 -2.3746
  867MPD2    H212728   1.923   3.698  16.732  0.1671  0.7061 -1.2656
  867MPD2    H312729   2.006   3.902  16.690  1.8884  0.2949  0.0646
  867MPD2     N12730   2.248   3.924  17.055 -0.2028 -0.0867  0.1235
  867MPD2    H512731   2.263   4.023  17.035 -0.7965 -0.5820 -2.6834
  867MPD2    N112732   2.010   3.509  16.923  0.2848  0.0983 -0.1837
  867MPD2    H712733   1.946   3.464  16.858 -1.1404  0.9910  0.6033
  868MPD2     C12734   3.063   2.414  13.226 -0.3555  0.0766 -0.0586
  868MPD2    C112735   3.079   2.334  13.339 -0.5944 -0.4854 -0.1133
  868MPD2    C212736   3.052   2.391  13.467  0.8122  0.0417 -0.0235
  868MPD2    C312737   2.997   2.518  13.473  0.1785  0.1899 -0.4168
  868MPD2    C412738   2.983   2.598  13.361  0.2153  0.1156 -1.0886
  868MPD2    C512739   3.014   2.546  13.238 -0.2086 -0.1407 -0.6360
  868MPD2     H12740   3.055   2.333  13.559  1.4368  1.5588  0.9061
  868MPD2    H112741   2.950   2.701  13.368  2.4013  0.7023  0.5773
  868MPD2    H212742   3.085   2.382  13.125  0.9784  0.3964  0.1328
  868MPD2    H312743   3.009   2.602  13.145  0.7638 -0.5759 -0.9445
  868MPD2     N12744   2.964   2.569  13.597 -0.1433  0.1199 -0.4426
  868MPD2    H512745   2.975   2.502  13.673  3.1116  0.8949 -0.2322
  868MPD2    N112746   3.118   2.201  13.310 -0.5515 -0.2139  1.0989
  868MPD2    H712747   3.144   2.178  13.215  1.1267 -2.1957  2.0276
  869MPD2     C12748   0.311   4.592   1.825 -0.0191 -0.1452  0.6153
  869MPD2    C112749   0.184   4.595   1.866 -0.0667 -0.6709  0.0979
  869MPD2    C212750   0.096   4.667   1.793 -0.0531  0.2967  0.1078
  869MPD2    C312751   0.136   4.719   1.669  0.2441  0.9557 -0.3412
  869MPD2    C412752   0.260   4.716   1.626 -0.1775  0.1414 -0.5670
  869MPD2    C512753   0.350   4.642   1.702 -0.4694  0.7287  0.4406
  869MPD2     H12754   4.711   4.660   1.806 -0.1306 -0.0712 -0.6911
  869MPD2    H112755   0.288   0.024   1.526  1.3355 -0.6540 -0.3875
  869MPD2    H212756   0.381   4.526   1.876 -0.8747 -0.0710  1.8893
  869MPD2    H312757   0.449   4.622   1.663 -1.6701  0.7453 -2.5776
  869MPD2     N12758   0.046   0.070   1.588 -0.3681  0.4064  0.7516
  869MPD2    H512759   0.088   0.112   1.506 -2.2500  1.9714  0.6053
  869MPD2    N112760   0.169   4.555   2.003 -0.5287 -0.4388 -0.5162
  869MPD2    H712761   0.251   4.518   2.051  0.7630 -0.0700 -2.4159
  870MPD2     C12762   3.980   4.119   2.503 -0.2001  0.3805  0.4582
  870MPD2    C112763   3.976   3.979   2.476  0.1636 -0.4134 -0.3339
  870MPD2    C212764   3.935   3.934   2.352 -0.9707 -0.2711 -0.9073
  870MPD2    C312765   3.908   4.038   2.257  0.4564  0.1684  0.2618
  870MPD2    C412766   3.920   4.173   2.284  0.4092  0.4600  0.6273
  870MPD2    C512767   3.957   4.208   2.406 -0.2029  0.0394 -0.3080
  870MPD2     H12768   3.916   3.832   2.322  0.9953 -0.7544 -0.4775
  870MPD2    H112769   3.895   4.259   2.222  1.2491  0.4502  0.2709
  870MPD2    H212770   4.009   4.139   2.605 -1.4266  1.6486  0.5608
  870MPD2    H312771   3.951   4.313   2.430 -1.4097  0.1058 -0.9209
  870MPD2     N12772   3.860   4.007   2.128  0.0645 -0.1588 -0.0729
  870MPD2    H512773   3.850   3.906   2.117  0.1125 -0.3195  1.3038
  870MPD2    N112774   4.010   3.890   2.573 -0.0497  0.8335  0.2299
  870MPD2    H712775   4.055   3.923   2.658 -0.9547 -0.9528  1.4101
  871MPD2     C12776   0.684   3.793  16.765 -0.3021 -0.9174  0.1206
  871MPD2    C112777   0.627   3.687  16.825  0.5260  0.4636 -0.0487
  871MPD2    C212778   0.633   3.570  16.758  0.5511  0.2423  0.4205
  871MPD2    C312779   0.699   3.551  16.640 -0.2594 -0.1385 -0.3905
  871MPD2    C412780   0.747   3.664  16.572  0.5282  0.3380  0.1023
  871MPD2    C512781   0.740   3.784  16.635  0.4198 -0.2821  0.5018
  871MPD2     H12782   0.594   3.479  16.802  0.5948 -0.7935 -1.7123
  871MPD2    H112783   0.797   3.662  16.475  0.4637 -0.8294  0.0913
  871MPD2    H212784   0.657   3.892  16.798 -1.0080 -1.3957  0.9708
  871MPD2    H312785   0.780   3.874  16.590  0.8794 -0.5695  0.3398
  871MPD2     N12786   0.718   3.424  16.592 -0.0764 -0.5136 -0.1796
  871MPD2    H512787   0.687   3.343  16.644 -2.6317 -0.5250 -1.7117
  871MPD2    N112788   0.584   3.712  16.958  0.4222  0.8335 -0.5529
  871MPD2    H712789   0.574   3.810  16.983  0.5332 -0.0970  3.1000
  872MPD2     C12790   1.304   1.290  14.368 -0.3868  0.2480  0.1176
  872MPD2    C112791   1.204   1.361  14.316  0.4513 -0.2112 -0.7550
  872MPD2    C212792   1.070   1.310  14.333 -0.3152 -0.9225  0.2424
  872MPD2    C312793   1.045   1.192  14.397  0.4180 -0.1897 -0.4701
  872MPD2    C412794   1.148   1.139  14.468 -0.1188 -1.0074  0.8319
  872MPD2    C512795   1.277   1.179  14.442 -0.7894 -0.0120  0.6266
  872MPD2     H12796   0.987   1.360  14.285 -1.0820 -0.8960  1.5905
  872MPD2    H112797   1.125   1.061  14.540  0.8710 -2.0832 -0.0240
  872MPD2    H212798   1.409   1.312  14.351 -0.2816 -0.7378 -0.5106
  872MPD2    H312799   1.350   1.115  14.489 -0.1228  1.6720  1.8816
  872MPD2     N12800   0.920   1.130  14.415  0.5809 -0.5926 -0.1725
  872MPD2    H512801   0.919   1.044  14.469 -0.9226  0.3496  1.3321
  872MPD2    N112802   1.225   1.482  14.247  0.3318  0.2354 -0.0505
  872MPD2    H712803   1.144   1.534  14.216  1.6864  2.0629 -0.5035
  873MPD2     C12804   2.677   1.344   0.880 -0.2165  0.0558 -0.2850
  873MPD2    C112805   2.732   1.273   0.981 -0.0949  0.7426 -0.4977
  873MPD2    C212806   2.779   1.150   0.954 -0.4116  0.0244 -0.2453
  873MPD2    C312807   2.767   1.093   0.828  0.2847  0.4055  0.0805
  873MPD2    C412808   2.720   1.171   0.727 -0.0375 -0.6066  0.2841
  873MPD2    C512809   2.678   1.296   0.753 -0.8175 -0.9755 -0.7448
  873MPD2     H12810   2.837   1.099   1.029 -3.8750 -1.0301  1.7233
  873MPD2    H112811   2.724   1.137   0.624  1.5934 -0.5167  0.3191
  873MPD2    H212812   2.632   1.442   0.890  0.1564  0.3543 -1.4827
  873MPD2    H312813   2.642   1.356   0.669 -2.7188 -1.4223 -0.2502
  873MPD2     N12814   2.796   0.963   0.793  0.0830  0.0765 -0.4756
  873MPD2    H512815   2.778   0.939   0.696 -0.8758  0.5089 -0.4004
  873MPD2    N112816   2.750   1.314   1.117 -0.4082  0.0558  0.2452
  873MPD2    H712817   2.787   1.238   1.174  0.7757 -1.0556 -2.0322
  874MPD2     C12818   2.662   1.759  15.988  0.4538 -0.2201 -0.1979
  874MPD2    C112819   2.611   1.676  16.089  0.1667  0.6770  0.6985
  874MPD2    C212820   2.658   1.692  16.221  0.9515 -0.1340 -0.5137
  874MPD2    C312821   2.759   1.784  16.248  0.3807  0.1282  0.0651
  874MPD2    C412822   2.810   1.867  16.148  0.3996  0.5171 -0.8055
  874MPD2    C512823   2.762   1.845  16.018 -0.5745 -0.1358  0.0033
  874MPD2     H12824   2.625   1.625  16.300 -0.9786 -0.2748 -1.4339
  874MPD2    H112825   2.884   1.945  16.159  1.2319 -0.7869  2.8399
  874MPD2    H212826   2.634   1.745  15.884 -0.5931 -1.4935  0.2538
  874MPD2    H312827   2.822   1.893  15.941  0.9494 -2.5232 -0.3137
  874MPD2     N12828   2.803   1.786  16.387  0.5072  0.4780  0.0590
  874MPD2    H512829   2.759   1.718  16.448  1.2637  0.5611  0.7027
  874MPD2    N112830   2.521   1.571  16.051  0.4044  0.9011 -0.6013
  874MPD2    H712831   2.503   1.558  15.952  0.0676  0.3318 -0.4636
  875MPD2     C12832   3.948   4.184  14.781 -0.1667 -0.4787  0.1463
  875MPD2    C112833   3.848   4.269  14.787  0.1836 -0.5594 -0.7069
  875MPD2    C212834   3.826   4.345  14.898  0.5866 -0.5151  0.0087
  875MPD2    C312835   3.923   4.352  14.998 -0.3989  0.3929  0.2542
  875MPD2    C412836   4.032   4.271  14.981  0.1883 -0.1181  0.0005
  875MPD2    C512837   4.055   4.209  14.865 -0.0681  0.6973 -0.4320
  875MPD2     H12838   3.741   4.410  14.914 -0.0226 -0.8063 -2.1479
  875MPD2    H112839   4.123   4.296  15.035  0.6377 -1.4225 -0.1627
  875MPD2    H212840   3.967   4.121  14.695  2.1382  1.2951 -0.6597
  875MPD2    H312841   4.145   4.151  14.848 -2.1352 -1.9863 -2.3403
  875MPD2     N12842   3.904   4.432  15.114 -0.4973 -0.5002 -0.3045
  875MPD2    H512843   3.969   4.413  15.190 -1.5367  1.1115  0.9862
  875MPD2    N112844   3.743   4.277  14.688  0.5005 -0.3396  0.0001
  875MPD2    H712845   3.668   4.343  14.706  1.3406  0.4853  0.4918
  876MPD2     C12846   2.630   0.818  16.380 -0.0324  0.5691 -0.3002
  876MPD2    C112847   2.592   0.771  16.257 -0.7461  0.1799  0.1363
  876MPD2    C212848   2.535   0.641  16.254 -0.6160  0.6466  0.0921
  876MPD2    C312849   2.516   0.573  16.376 -0.1318 -0.0334 -0.2931
  876MPD2    C412850   2.548   0.633  16.497  0.3395  0.3697  0.0150
  876MPD2    C512851   2.598   0.761  16.498  0.4777  0.5410  0.4128
  876MPD2     H12852   2.513   0.594  16.159 -1.6727  1.3739 -0.0203
  876MPD2    H112853   2.527   0.586  16.592  0.3640  3.0084  1.3409
  876MPD2    H212854   2.681   0.913  16.389 -0.8219  0.7963  1.6474
  876MPD2    H312855   2.646   0.806  16.585 -2.2879  1.3826  1.4983
  876MPD2     N12856   2.483   0.433  16.366 -0.5734 -0.2567  0.8609
  876MPD2    H512857   2.498   0.390  16.276  2.3740 -1.1456  1.7568
  876MPD2    N112858   2.612   0.852  16.142  0.1450 -0.2416  0.6162
  876MPD2    H712859   2.674   0.932  16.149  0.4102 -0.3297 -0.8705
  877MPD2     C12860   2.333   1.344  15.466  0.5433 -0.5946 -0.1887
  877MPD2    C112861   2.467   1.302  15.466  0.4012 -0.1060 -0.1424
  877MPD2    C212862   2.531   1.315  15.347  0.9368  0.0377 -0.5485
  877MPD2    C312863   2.472   1.372  15.232  0.3158  0.1493 -0.1011
  877MPD2    C412864   2.346   1.431  15.238 -0.1842 -0.3514  0.0502
  877MPD2    C512865   2.272   1.410  15.356 -0.5362 -0.1875 -0.2070
  877MPD2     H12866   2.633   1.279  15.338  1.0789 -0.2771  2.3374
  877MPD2    H112867   2.293   1.473  15.153 -0.7624  2.7555  1.9462
  877MPD2    H212868   2.265   1.335  15.550  1.2338 -1.0990  0.3129
  877MPD2    H312869   2.172   1.452  15.360 -0.8889 -1.1744  1.6847
  877MPD2     N12870   2.532   1.348  15.103  0.3388  0.0735  0.0387
  877MPD2    H512871   2.483   1.381  15.020  1.7949 -1.6269 -1.4817
  877MPD2    N112872   2.534   1.240  15.577 -0.2311 -0.6243 -0.3805
  877MPD2    H712873   2.630   1.212  15.559 -0.4579 -1.3968 -0.3720
  878MPD2     C12874   2.444   0.169  12.807 -0.3140  0.2469 -0.3965
  878MPD2    C112875   2.450   0.293  12.866 -0.0804 -0.0665  0.5041
  878MPD2    C212876   2.504   0.303  12.992  0.2951 -0.2449  0.7062
  878MPD2    C312877   2.524   0.190  13.065  0.2043 -0.2896  0.3739
  878MPD2    C412878   2.508   0.068  13.002 -0.2422  0.0575  0.0651
  878MPD2    C512879   2.480   0.056  12.871  0.1911  0.2819 -0.1148
  878MPD2     H12880   2.524   0.401  13.034  4.0714 -1.7049  2.3163
  878MPD2    H112881   2.530   4.693  13.045  1.8683  0.7564  0.5610
  878MPD2    H212882   2.420   0.167  12.701  1.4249  0.3073 -0.7893
  878MPD2    H312883   2.486   4.687  12.813 -0.7905 -0.9241  1.6936
  878MPD2     N12884   2.573   0.208  13.198 -0.1547 -0.5356  0.3393
  878MPD2    H512885   2.578   0.303  13.234  1.9491 -1.3383  2.1818
  878MPD2    N112886   2.427   0.402  12.778  0.3188 -0.4533  0.1665
  878MPD2    H712887   2.386   0.373  12.690  2.0673  0.2901 -0.9060
  879MPD2     C12888   3.124   2.436  17.441  0.3219  0.3425 -0.2142
  879MPD2    C112889   3.189   2.319  17.449  0.1803  0.5365  0.2473
  879MPD2    C212890   3.130   2.200  17.397 -0.2054 -0.3575  0.2934
  879MPD2    C312891   3.012   2.216  17.328  0.6866  0.2920 -0.6060
  879MPD2    C412892   2.949   2.341  17.323 -0.5690  0.4653  0.5846
  879MPD2    C512893   3.004   2.450  17.374  0.5877 -0.1957  0.3248
  879MPD2     H12894   3.171   2.101  17.411 -1.6385 -0.6246  2.5184
  879MPD2    H112895   2.859   2.345  17.264  0.2278 -0.2503 -0.6880
  879MPD2    H212896   3.164   2.527  17.485  1.0661 -0.4482  0.7459
  879MPD2    H312897   2.962   2.549  17.365  0.1081 -0.3264  1.1384
  879MPD2     N12898   2.943   2.107  17.264 -0.5432  0.6361 -0.3451
  879MPD2    H512899   2.868   2.127  17.198 -0.8178  2.0704  0.4122
  879MPD2    N112900   3.302   2.317  17.528  0.6324 -0.0895  0.1975
  879MPD2    H712901   3.325   2.408  17.566  2.7220  0.0381 -1.3782
  880MPD2     C12902   0.158   3.972   0.722  0.9017 -1.3500  0.7321
  880MPD2    C112903   0.082   3.922   0.817  0.1553 -0.2714 -0.0679
  880MPD2    C212904   0.125   3.802   0.879  0.5739 -0.0885 -0.1547
  880MPD2    C312905   0.246   3.739   0.854 -0.5062  0.8266 -0.4075
  880MPD2    C412906   0.325   3.804   0.764  0.2743 -0.0199 -0.8566
  880MPD2    C512907   0.283   3.922   0.697  0.0763 -0.4087  0.6425
  880MPD2     H12908   0.058   3.745   0.942  1.4614 -1.7925 -0.7488
  880MPD2    H112909   0.424   3.771   0.733  1.1676  2.9042 -1.1170
  880MPD2    H212910   0.137   4.056   0.656 -0.9548 -0.1390  2.9028
  880MPD2    H312911   0.348   3.971   0.626 -1.2768  1.0984  0.4365
  880MPD2     N12912   0.271   3.616   0.912 -0.7186 -0.1233  0.2583
  880MPD2    H512913   0.207   3.594   0.987  0.2046 -2.1642  0.4586
  880MPD2    N112914   4.676   3.981   0.837  0.4497 -0.5723 -0.1373
  880MPD2    H712915   4.635   4.052   0.778  1.1039  1.2939  1.6585
  881MPD2     C12916   4.073   4.424   0.279 -0.0077  0.4844  1.1101
  881MPD2    C112917   4.140   4.305   0.265  0.1051  0.8733 -0.0930
  881MPD2    C212918   4.182   4.240   0.378 -0.2501  0.6033 -0.6248
  881MPD2    C312919   4.140   4.279   0.508  0.7151  0.5636 -0.3221
  881MPD2    C412920   4.060   4.390   0.518 -0.1665 -0.3388  0.5468
  881MPD2    C512921   4.034   4.462   0.406 -1.0110  0.0804  0.2174
  881MPD2     H12922   4.245   4.152   0.370 -1.7840 -0.5876  0.4292
  881MPD2    H112923   4.026   4.418   0.617  0.0467  0.1221  0.4894
  881MPD2    H212924   4.051   4.487   0.193  0.5000 -2.1250 -0.9087
  881MPD2    H312925   3.978   4.554   0.417 -4.7207 -1.8270 -2.5855
  881MPD2     N12926   4.180   4.216   0.637  0.2943 -0.0259  1.0414
  881MPD2    H512927   4.151   4.256   0.726 -1.1507  1.0792  0.0821
  881MPD2    N112928   4.210   4.293   0.142  0.0762  0.2058 -0.0397
  881MPD2    H712929   4.199   4.371   0.077 -0.9954  0.9823  1.0761
  882MPD2     C12930   2.497   1.299  14.254  0.2110 -0.2357  0.3924
  882MPD2    C112931   2.455   1.358  14.368  0.4616  0.0241  0.1874
  882MPD2    C212932   2.352   1.445  14.367  0.8401 -0.7684  0.2523
  882MPD2    C312933   2.297   1.487  14.247  0.3048 -0.0630 -0.9260
  882MPD2    C412934   2.347   1.436  14.128  0.2027  0.8218  0.2673
  882MPD2    C512935   2.441   1.339  14.127 -0.1833  0.7579  0.1632
  882MPD2     H12936   2.316   1.487  14.460  1.0810  1.2510 -0.5702
  882MPD2    H112937   2.300   1.467  14.036  0.3352 -0.7462 -0.3302
  882MPD2    H212938   2.579   1.228  14.260  0.3428 -0.3498 -2.8216
  882MPD2    H312939   2.477   1.296  14.035  2.3982  0.5697  1.2517
  882MPD2     N12940   2.183   1.569  14.227 -0.2653 -0.4683 -0.0533
  882MPD2    H512941   2.158   1.592  14.131  1.4376 -2.0056 -0.8708
  882MPD2    N112942   2.499   1.303  14.486  0.9678 -0.3936  0.8921
  882MPD2    H712943   2.554   1.218  14.471  0.8774 -0.3016  0.0799
  883MPD2     C12944   4.459   1.679  16.502  0.2417 -0.9344  0.6886
  883MPD2    C112945   4.523   1.600  16.411  0.5439  0.4317 -0.4423
  883MPD2    C212946   4.651   1.634  16.374  0.6266 -0.5037 -0.0792
  883MPD2    C312947   4.713   1.751  16.427 -0.0096 -0.0932  0.6227
  883MPD2    C412948   4.650   1.834  16.515  0.2535  0.3024 -0.3817
  883MPD2    C512949   4.525   1.783  16.555  0.0036  0.6003 -0.3685
  883MPD2     H12950   4.707   1.586  16.295  2.3608  1.0317  0.2017
  883MPD2    H112951   4.683   1.924  16.565  0.7008 -0.0066 -0.1188
  883MPD2    H212952   4.361   1.655  16.543  0.5999 -0.7258  1.6795
  883MPD2    H312953   4.473   1.845  16.627  0.9093  0.2499  0.5949
  883MPD2     N12954   0.130   1.779  16.392  0.0201 -0.2974  0.2021
  883MPD2    H512955   0.178   1.722  16.323 -0.0900  0.5160 -0.5510
  883MPD2    N112956   4.472   1.487  16.346 -0.5627 -0.5509 -0.2012
  883MPD2    H712957   4.539   1.431  16.294  0.7010  2.1036 -1.4488
  884MPD2     C12958   1.919   1.657  15.355  0.2027 -1.0126 -0.4852
  884MPD2    C112959   1.933   1.790  15.359  0.5310 -0.2538  0.2164
  884MPD2    C212960   1.828   1.863  15.406 -0.1800  0.5548  0.5907
  884MPD2    C312961   1.709   1.805  15.446 -0.9968 -0.4581  0.6705
  884MPD2    C412962   1.700   1.667  15.428  0.5997 -0.3669 -0.2848
  884MPD2    C512963   1.804   1.594  15.389  0.2893  0.0893 -0.4048
  884MPD2     H12964   1.857   1.966  15.424 -1.4952  1.1869 -0.8324
  884MPD2    H112965   1.607   1.615  15.450 -0.3354  2.1891  1.8319
  884MPD2    H212966   2.000   1.594  15.321  0.2006 -1.1320 -0.2764
  884MPD2    H312967   1.792   1.486  15.384  0.9614  0.0108 -0.2586
  884MPD2     N12968   1.596   1.877  15.490  0.2990  1.0446 -0.1996
  884MPD2    H512969   1.516   1.819  15.512  1.6183 -0.5703  0.3744
  884MPD2    N112970   2.052   1.863  15.328  0.2882 -0.3169  0.4536
  884MPD2    H712971   2.042   1.963  15.341 -0.0362 -0.1317 -1.1918
  885MPD2     C12972   4.716   2.098   0.292  0.5030  0.2764  0.8544
  885MPD2    C112973   0.110   2.163   0.261 -0.2523 -0.3964  0.5374
  885MPD2    C212974   0.118   2.251   0.154 -0.7695 -0.3500  0.3745
  885MPD2    C312975   0.012   2.248   0.064  0.4542  0.8664  0.1927
  885MPD2    C412976   4.619   2.174   0.090  0.1585  0.6817  0.3906
  885MPD2    C512977   4.610   2.100   0.205 -0.5499 -0.4642  0.0259
  885MPD2     H12978   0.215   2.292   0.130 -0.3707 -0.1797  2.2647
  885MPD2    H112979   4.539   2.181   0.018  0.0027  0.0949  0.5072
  885MPD2    H212980   4.699   2.031   0.375  0.5663 -1.5297 -0.5899
  885MPD2    H312981   4.515   2.056   0.231 -2.2527  3.9938  1.3176
  885MPD2     N12982   0.027   2.330  17.643 -0.1081  0.9956  0.2537
  885MPD2    H512983   0.112   2.385  17.633  0.9865 -1.0595 -1.6637
  885MPD2    N112984   0.218   2.132   0.350  0.4759  0.2172  0.2864
  885MPD2    H712985   0.201   2.057   0.417 -0.6975 -1.0658 -1.4220
  886MPD2     C12986   1.035   0.511  15.616 -0.1047  0.6899 -0.5550
  886MPD2    C112987   1.173   0.526  15.599  0.3031  0.1264 -0.0166
  886MPD2    C212988   1.222   0.658  15.619  0.0874  0.0797 -0.2087
  886MPD2    C312989   1.141   0.771  15.635  0.1795 -0.6349 -0.2462
  886MPD2    C412990   1.009   0.747  15.650 -0.6037  0.3008  0.6692
  886MPD2    C512991   0.959   0.623  15.639 -0.5342 -0.6398 -0.5411
  886MPD2     H12992   1.328   0.668  15.599  0.0540  0.3564 -0.2408
  886MPD2    H112993   0.945   0.833  15.668 -1.1639 -0.3393  1.7488
  886MPD2    H212994   0.991   0.420  15.576 -0.7663  0.1812  1.3165
  886MPD2    H312995   0.852   0.605  15.639 -0.8237  0.9708  4.4831
  886MPD2     N12996   1.187   0.904  15.618  0.7488  0.9037 -0.1516
  886MPD2    H512997   1.114   0.974  15.625  0.8033  0.9762 -0.3171
  886MPD2    N112998   1.268   0.423  15.566 -0.3368 -0.4533 -0.2266
  886MPD2    H712999   1.364   0.455  15.563  0.3249 -2.4422 -0.5589
  887MPD2     C13000   1.822   0.616  15.222 -0.3269 -0.0461 -0.8449
  887MPD2    C113001   1.724   0.598  15.318 -0.4511  0.2389  0.8713
  887MPD2    C213002   1.716   0.695  15.416 -0.1551  0.0936  0.5402
  887MPD2    C313003   1.812   0.799  15.432  0.9749 -0.5467  0.7646
  887MPD2    C413004   1.905   0.815  15.327 -0.0590 -0.3062 -0.6305
  887MPD2    C513005   1.911   0.725  15.224  0.3136  0.7653  0.1264
  887MPD2     H13006   1.651   0.672  15.499  1.1746  1.5043  1.9651
  887MPD2    H113007   1.966   0.904  15.317 -1.0631  0.2124 -2.0682
  887MPD2    H213008   1.839   0.533  15.153  0.6571 -1.4474  1.0767
  887MPD2    H313009   1.992   0.706  15.155  0.2255 -0.5111  0.3796
  887MPD2     N13010   1.824   0.867  15.549  0.6201 -0.2120  0.9433
  887MPD2    H513011   1.752   0.837  15.613 -0.4791 -0.5253 -0.4306
  887MPD2    N113012   1.646   0.483  15.340  0.7023  0.0699  0.5062
  887MPD2    H713013   1.589   0.493  15.423  0.9198 -0.7967  0.7619
  888MPD2     C13014   3.560   0.999  14.681  0.3973 -0.6111  0.0163
  888MPD2    C113015   3.587   1.037  14.809 -0.1590  0.4945  0.0135
  888MPD2    C213016   3.670   1.145  14.833  0.0842 -0.5052  0.3729
  888MPD2    C313017   3.710   1.227  14.731  0.4128  0.2893  0.6128
  888MPD2    C413018   3.677   1.191  14.601  0.1179  0.4755  0.0532
  888MPD2    C513019   3.600   1.082  14.579  0.2245  0.0053  0.2046
  888MPD2     H13020   3.702   1.169  14.934  1.3472  1.1732 -0.4344
  888MPD2    H113021   3.718   1.241  14.514 -1.3456  2.2220  0.3797
  888MPD2    H213022   3.507   0.907  14.656  0.6909 -0.2220 -2.0450
  888MPD2    H313023   3.580   1.047  14.479  1.0119 -0.0679  0.0674
  888MPD2     N13024   3.785   1.342  14.759  0.8529 -0.7200 -0.1936
  888MPD2    H513025   3.809   1.358  14.857  1.4269  2.0743 -0.7873
  888MPD2    N113026   3.536   0.958  14.912  0.1920 -0.1623 -0.4178
  888MPD2    H713027   3.585   0.951  15.000 -1.0305 -0.9537  0.2129
  889MPD2     C13028   2.880   0.283  13.100  0.1773 -0.3113  0.1012
  889MPD2    C113029   2.950   0.239  13.207  0.6620 -0.2368 -0.2474
  889MPD2    C213030   2.979   0.338  13.298  0.4577 -0.0914 -0.4015
  889MPD2    C313031   2.902   0.451  13.314  1.0254 -0.9194  0.1338
  889MPD2    C413032   2.825   0.486  13.212  0.4685 -0.4775 -0.0718
  889MPD2    C513033   2.815   0.405  13.098 -0.0486  0.1378 -0.0137
  889MPD2     H13034   3.029   0.299  13.386  2.8239  2.0649 -0.7974
  889MPD2    H113035   2.779   0.584  13.208  0.5781 -0.3975  0.6179
  889MPD2    H213036   2.850   0.231  13.010 -1.9656  0.1008  0.5684
  889MPD2    H313037   2.766   0.435  13.006 -0.7017  0.0520  0.3099
  889MPD2     N13038   2.916   0.523  13.439  0.0116  0.3649 -0.7031
  889MPD2    H513039   2.996   0.496  13.495 -0.3038  1.1429  0.1205
  889MPD2    N113040   3.026   0.122  13.206  0.0450  0.0800  0.5118
  889MPD2    H713041   3.088   0.101  13.283  0.5311 -1.1205 -0.2029
  890MPD2     C13042   2.822   1.992  14.893  0.1375 -0.4739  0.3524
  890MPD2    C113043   2.836   2.062  15.011 -0.1080  0.2080  0.5374
  890MPD2    C213044   2.856   1.994  15.128  0.0482 -0.4188 -1.0737
  890MPD2    C313045   2.846   1.855  15.137  0.9643 -0.2484  0.6356
  890MPD2    C413046   2.832   1.784  15.021 -0.2781 -0.6915  0.4039
  890MPD2    C513047   2.815   1.852  14.903 -0.3767 -0.0610 -0.0042
  890MPD2     H13048   2.864   2.048  15.222 -0.8131 -1.4856 -0.3849
  890MPD2    H113049   2.825   1.675  15.018 -1.0537 -0.7092  3.4048
  890MPD2    H213050   2.820   2.034  14.793 -2.7259  3.8637  2.2536
  890MPD2    H313051   2.804   1.791  14.814  0.1814  2.3032 -1.6725
  890MPD2     N13052   2.859   1.789  15.264  0.0436 -0.1583  0.5657
  890MPD2    H513053   2.891   1.842  15.344  3.7699 -0.5607 -0.6482
  890MPD2    N113054   2.831   2.204  15.002  0.4842  0.1530  0.3017
  890MPD2    H713055   2.822   2.240  14.907 -2.8617  0.5649  0.7793
  891MPD2     C13056   4.718   0.229  17.323 -0.0866  0.2143  0.4917
  891MPD2    C113057   0.038   0.137  17.226  0.0354  0.3235 -0.2346
  891MPD2    C213058   0.171   0.124  17.195  0.0794 -0.0356 -0.7299
  891MPD2    C313059   0.260   0.205  17.258  0.1879  0.4984  0.0411
  891MPD2    C413060   0.217   0.290  17.357  0.5935  0.1172 -0.4063
  891MPD2    C513061   0.087   0.296  17.391 -0.7450  0.5050 -0.1267
  891MPD2     H13062   0.203   0.064  17.111 -1.6123 -0.7621 -0.8547
  891MPD2    H113063   0.275   0.367  17.406 -0.8618  2.8703 -2.9708
  891MPD2    H213064   4.613   0.255  17.334 -0.5935 -1.6590  0.0981
  891MPD2    H313065   0.072   0.365  17.473 -1.3516  0.8485 -0.5236
  891MPD2     N13066   0.395   0.216  17.206  0.4584  0.0525  0.1464
  891MPD2    H513067   0.411   0.149  17.133  3.4657  0.8609  0.0872
  891MPD2    N113068   4.649   0.080  17.151  0.0809 -0.7317 -0.2273
  891MPD2    H713069   4.556   0.081  17.193  0.0143 -1.2013 -0.3696
  892MPD2     C13070   1.694   1.601  15.062  1.0522  0.1803 -0.8804
  892MPD2    C113071   1.586   1.609  14.969  0.4227 -0.3488  0.2301
  892MPD2    C213072   1.630   1.615  14.837  0.1660 -0.1379 -0.1762
  892MPD2    C313073   1.763   1.615  14.792  0.3425 -0.4081  0.6172
  892MPD2    C413074   1.857   1.627  14.886  0.1569 -0.5282 -0.0401
  892MPD2    C513075   1.821   1.617  15.021  0.2947  0.0041  0.0620
  892MPD2     H13076   1.551   1.632  14.765  0.6219 -1.1024 -0.8939
  892MPD2    H113077   1.959   1.648  14.856 -0.1676  1.1001 -0.0283
  892MPD2    H213078   1.684   1.593  15.169  0.2463  1.2711 -0.8714
  892MPD2    H313079   1.895   1.625  15.099  0.7378  2.0988 -0.5642
  892MPD2     N13080   1.798   1.620  14.651  0.4131 -1.0319  0.6431
  892MPD2    H513081   1.891   1.654  14.630  0.1540 -1.0390 -0.4787
  892MPD2    N113082   1.450   1.609  14.999  0.8187  0.3458  0.6402
  892MPD2    H713083   1.380   1.612  14.925  0.6704  0.3446  0.7820
  893MPD2     C13084   3.389   4.557   2.534 -0.3548  0.2949  0.1556
  893MPD2    C113085   3.385   4.597   2.400  0.4412 -0.1690  0.0961
  893MPD2    C213086   3.285   4.680   2.355  0.7109 -0.5303 -0.5485
  893MPD2    C313087   3.185   4.718   2.441  0.2932  0.3655  0.0544
  893MPD2    C413088   3.189   4.679   2.577 -0.3727  0.7125 -0.2434
  893MPD2    C513089   3.294   4.599   2.623  0.8184  0.6780  0.3974
  893MPD2     H13090   3.284   4.713   2.252  0.2115  1.0217 -0.0450
  893MPD2    H113091   3.112   4.708   2.648 -0.1293 -0.1908  0.3973
  893MPD2    H213092   3.481   4.515   2.573 -1.4792 -1.2294  1.1345
  893MPD2    H313093   3.299   4.585   2.731 -1.2698 -0.4950  0.3297
  893MPD2     N13094   3.070   0.072   2.403 -0.4984  0.3186  0.6618
  893MPD2    H513095   3.006   0.081   2.481  1.0116 -0.0177  1.9214
  893MPD2    N113096   3.479   4.542   2.311 -0.0711  0.5724  0.1626
  893MPD2    H713097   3.561   4.499   2.351 -0.3939  0.4962  0.7429
  894MPD2     C13098   1.644   2.206   1.490 -0.0030  0.0330 -0.5381
  894MPD2    C113099   1.681   2.262   1.607  0.1907  0.3563 -0.2750
  894MPD2    C213100   1.736   2.388   1.601 -0.0104 -0.3770 -1.1482
  894MPD2    C313101   1.741   2.462   1.484 -0.0878  0.2921 -0.4773
  894MPD2    C413102   1.703   2.403   1.370 -0.4091 -0.0062 -0.7360
  894MPD2    C513103   1.661   2.274   1.372  0.1360 -0.2895 -0.6829
  894MPD2     H13104   1.776   2.435   1.690 -0.2132  0.7996 -1.6719
  894MPD2    H113105   1.708   2.463   1.280  2.5640 -1.3780 -1.4782
  894MPD2    H213106   1.605   2.104   1.484  1.1852 -0.5463  1.6506
  894MPD2    H313107   1.634   2.222   1.281 -0.9346 -1.2261  0.1752
  894MPD2     N13108   1.794   2.600   1.485 -0.5732  0.5269 -0.2481
  894MPD2    H513109   1.828   2.625   1.578  1.1226 -0.7599 -0.5184
  894MPD2    N113110   1.669   2.202   1.738  0.2811 -0.2751  0.5665
  894MPD2    H713111   1.691   2.257   1.821  1.9641 -2.2574  1.4171
  895MPD2     C13112   0.785   1.094  14.010 -0.5619 -0.4112 -0.4806
  895MPD2    C113113   0.740   1.003  13.921  0.1736  0.5888  0.0757
  895MPD2    C213114   0.833   0.920  13.855 -0.2680 -0.6062 -0.3834
  895MPD2    C313115   0.969   0.919  13.887 -0.5439 -0.0580 -0.1710
  895MPD2    C413116   1.014   1.023  13.962  0.4486 -0.2087  0.5102
  895MPD2    C513117   0.919   1.099  14.031 -0.0678 -0.2939 -0.3169
  895MPD2     H13118   0.797   0.829  13.807  1.9683  0.2930 -3.7186
  895MPD2    H113119   1.122   1.026  13.970  0.4744 -0.5238  0.2807
  895MPD2    H213120   0.717   1.166  14.055  0.7247  0.3446  0.2531
  895MPD2    H313121   0.958   1.174  14.098  1.2504 -1.2872  0.0122
  895MPD2     N13122   1.056   0.820  13.826 -0.0069  0.7488 -0.2704
  895MPD2    H513123   1.021   0.768  13.746 -0.8575 -0.3344  0.7896
  895MPD2    N113124   0.601   0.981  13.894 -0.3846 -0.0723 -0.0002
  895MPD2    H713125   0.587   0.899  13.835 -0.9661  2.8985 -3.9458
  896MPD2     C13126   3.406   2.781   2.325 -0.0222 -0.4208  0.7623
  896MPD2    C113127   3.426   2.812   2.193  0.1652 -0.2234  0.5567
  896MPD2    C213128   3.317   2.831   2.108  0.3769  0.1123  0.4808
  896MPD2    C313129   3.186   2.826   2.155  0.1477 -0.7126 -0.2526
  896MPD2    C413130   3.173   2.795   2.288 -0.2564  0.2011 -0.7866
  896MPD2    C513131   3.275   2.781   2.371 -0.7886  0.1935  0.0947
  896MPD2     H13132   3.335   2.850   2.003 -0.8084  1.7145  0.5721
  896MPD2    H113133   3.078   2.792   2.340  1.9062 -1.3807  3.1187
  896MPD2    H213134   3.495   2.769   2.386 -0.2972  2.9584  1.8539
  896MPD2    H313135   3.260   2.772   2.478  1.3852 -0.6517  0.3246
  896MPD2     N13136   3.075   2.852   2.075 -0.2421 -0.3002 -0.1294
  896MPD2    H513137   3.083   2.849   1.974 -0.8411 -0.3077 -0.1740
  896MPD2    N113138   3.557   2.824   2.139 -0.1783  0.1284  0.5816
  896MPD2    H713139   3.627   2.828   2.212 -0.9489  0.2529  1.3000
  897MPD2     C13140   4.305   4.506  10.217  0.3368  0.2298 -0.7046
  897MPD2    C113141   4.240   4.616  10.271  0.2782  0.0253 -0.0044
  897MPD2    C213142   4.134   4.591  10.353  0.1549 -0.1585  0.2837
  897MPD2    C313143   4.096   4.458  10.378 -0.6687 -0.0545 -0.2719
  897MPD2    C413144   4.175   4.354  10.339 -0.4180 -0.1520 -0.3972
  897MPD2    C513145   4.269   4.376  10.248  0.0166 -0.4729 -0.2523
  897MPD2     H13146   4.064   4.667  10.385 -0.3562 -0.4152 -0.2237
  897MPD2    H113147   4.162   4.250  10.368  1.4457 -0.0195  0.9378
  897MPD2    H213148   4.399   4.517  10.164  0.1722  1.9377 -0.6353
  897MPD2    H313149   4.320   4.294  10.199  2.9393  0.2454  1.6009
  897MPD2     N13150   3.996   4.439  10.474 -0.0003 -0.6417 -0.8716
  897MPD2    H513151   3.953   4.515  10.526  2.2836  0.8823 -1.2510
  897MPD2    N113152   4.272   0.017  10.209 -0.1543  0.4828  0.2572
  897MPD2    H713153   4.329   0.016  10.125  0.9590  0.8904  1.0049
  898MPD2     C13154   1.460   0.810  17.258  0.2852  0.3881  0.0267
  898MPD2    C113155   1.571   0.888  17.219  0.1529  0.0542 -0.2214
  898MPD2    C213156   1.548   1.009  17.155 -0.0742 -0.9126 -0.2439
  898MPD2    C313157   1.425   1.066  17.145 -0.4047 -0.5819  1.0250
  898MPD2    C413158   1.317   0.995  17.200  0.3812  0.6216  0.2252
  898MPD2    C513159   1.332   0.869  17.252  0.3441  0.1475  0.1139
  898MPD2     H13160   1.627   1.076  17.123  0.7171 -1.2895  0.9328
  898MPD2    H113161   1.212   1.021  17.194 -0.1261 -2.2866 -3.6813
  898MPD2    H213162   1.461   0.715  17.309  0.9790  0.5954  0.3969
  898MPD2    H313163   1.243   0.821  17.292 -0.6157 -0.0261 -2.2170
  898MPD2     N13164   1.412   1.195  17.089  0.0052 -0.2251 -0.3008
  898MPD2    H513165   1.489   1.248  17.049  0.2372  0.1420  0.6346
  898MPD2    N113166   1.705   0.865  17.241 -0.4629  0.1767  0.7843
  898MPD2    H713167   1.770   0.936  17.207 -0.7875 -0.7270 -1.6538
  899MPD2     C13168   2.438   1.778  17.265  0.0745 -0.2346  0.2439
  899MPD2    C113169   2.476   1.840  17.378 -0.3296 -0.0456  0.4100
  899MPD2    C213170   2.488   1.774  17.495  0.6293  0.4940 -0.1922
  899MPD2    C313171   2.436   1.643  17.505 -0.4061  0.0088 -0.6366
  899MPD2    C413172   2.405   1.574  17.394  0.6459 -0.6800 -0.3208
  899MPD2    C513173   2.412   1.644  17.273 -0.4891  0.3927  0.1305
  899MPD2     H13174   2.515   1.823  17.588  1.5184  2.6686 -1.5885
  899MPD2    H113175   2.388   1.467  17.399  0.0700 -0.4667  2.5684
  899MPD2    H213176   2.422   1.828  17.170  1.7157 -0.4690 -0.1628
  899MPD2    H313177   2.388   1.599  17.177  2.3289 -1.2078  0.1655
  899MPD2     N13178   2.408   1.576  17.624 -0.0003  0.3724  0.0722
  899MPD2    H513179   2.352   1.495  17.599 -3.1604  1.6802  2.9906
  899MPD2    N113180   2.491   1.976  17.357 -0.5478 -0.0211  0.1895
  899MPD2    H713181   2.484   2.000  17.259  1.2218 -1.7313 -0.3348
  900MPD2     C13182   2.026   3.361  12.464 -0.2320  0.8079  0.0625
  900MPD2    C113183   1.999   3.224  12.443  0.3761  0.2685 -0.8872
  900MPD2    C213184   1.881   3.188  12.377  0.2220 -0.4151 -0.2958
  900MPD2    C313185   1.791   3.286  12.341  0.9775 -0.3723 -0.3076
  900MPD2    C413186   1.827   3.415  12.351 -0.4369  0.0216 -0.0363
  900MPD2    C513187   1.946   3.462  12.407  0.8698 -0.0857  0.1376
  900MPD2     H13188   1.854   3.086  12.355  1.2073 -0.8151  0.3272
  900MPD2    H113189   1.772   3.491  12.296  1.9493  0.1036 -2.3024
  900MPD2    H213190   2.110   3.398  12.523  0.1094  0.9349 -0.5053
  900MPD2    H313191   1.971   3.568  12.405  1.9681 -0.3336  0.9667
  900MPD2     N13192   1.667   3.245  12.277 -0.4566  0.2143 -0.2142
  900MPD2    H513193   1.659   3.145  12.259 -1.5430  0.6467 -2.0790
  900MPD2    N113194   2.084   3.130  12.496  0.3420  0.2708 -0.1841
  900MPD2    H713195   2.172   3.158  12.540 -0.7108  1.0344  1.4329
  901MPD2     C13196   2.169   2.219  13.062  0.1623  0.0975 -0.0907
  901MPD2    C113197   2.222   2.214  12.943 -0.1522  0.3782 -0.1158
  901MPD2    C213198   2.194   2.315  12.846 -0.1122  0.4846  0.6176
  901MPD2    C313199   2.142   2.433  12.892 -0.1883  0.1069 -0.4743
  901MPD2    C413200   2.097   2.445  13.020 -0.2366  0.5041 -0.0004
  901MPD2    C513201   2.120   2.341  13.105 -0.3120 -0.2377  0.1091
  901MPD2     H13202   2.229   2.312  12.744 -0.8323 -2.6418  0.4594
  901MPD2    H113203   2.055   2.536  13.062 -1.6121  0.9044 -2.2483
  901MPD2    H213204   2.184   2.136  13.130  2.2847  1.4874  1.1383
  901MPD2    H313205   2.087   2.370  13.204  0.0158 -0.0768  0.1706
  901MPD2     N13206   2.147   2.535  12.794  0.4508  0.2597  0.1236
  901MPD2    H513207   2.174   2.519  12.697 -0.9217 -0.0331 -0.2007
  901MPD2    N113208   2.284   2.094  12.906 -0.0852 -0.8066 -0.1421
  901MPD2    H713209   2.286   2.034  12.988 -0.4793 -1.5806 -0.7026
  902MPD2     C13210   0.093   0.999  12.963  0.4828  0.2744  0.3404
  902MPD2    C113211   0.195   1.067  13.027 -0.8210 -0.9816 -0.2323
  902MPD2    C213212   0.321   1.008  13.033  0.6230 -0.1075  1.0037
  902MPD2    C313213   0.349   0.887  12.965 -0.0945 -1.0992  0.0732
  902MPD2    C413214   0.247   0.821  12.908 -0.0683  0.0261  0.5013
  902MPD2    C513215   0.119   0.875  12.898  0.3629  0.0484 -0.2660
  902MPD2     H13216   0.405   1.060  13.078 -0.4427  2.1481  0.3981
  902MPD2    H113217   0.248   0.722  12.863 -0.5977 -1.1392  3.0545
  902MPD2    H213218   4.717   1.045  12.956 -0.6220 -2.0815  0.4690
  902MPD2    H313219   0.046   0.820  12.840 -0.1396  0.6672 -0.2247
  902MPD2     N13220   0.483   0.838  12.942  0.0038 -0.4047 -0.4521
  902MPD2    H513221   0.493   0.765  12.873  0.8885 -0.5236 -0.1981
  902MPD2    N113222   0.173   1.197  13.062  0.3747 -0.1824 -0.2318
  902MPD2    H713223   0.073   1.213  13.067  0.8162  2.7764 -0.5081
  903MPD2     C13224   0.786   0.697  12.227 -0.5503  0.2126  0.0423
  903MPD2    C113225   0.732   0.654  12.347  0.0195 -0.7192 -0.8873
  903MPD2    C213226   0.630   0.561  12.342 -0.2963  0.6403 -0.0976
  903MPD2    C313227   0.595   0.509  12.221 -0.0319 -0.0379 -0.4453
  903MPD2    C413228   0.655   0.550  12.100 -0.0187 -0.6758  0.4729
  903MPD2    C513229   0.744   0.654  12.106 -0.9474  0.5598  0.2102
  903MPD2     H13230   0.589   0.524  12.435 -0.3405 -1.2405 -0.8843
  903MPD2    H113231   0.626   0.519  12.001 -0.8582 -0.2369  0.5888
  903MPD2    H213232   0.863   0.774  12.230 -0.1956 -0.0746 -1.5739
  903MPD2    H313233   0.789   0.708  12.023  1.1093 -0.9333  0.3461
  903MPD2     N13234   0.489   0.427  12.233  0.4637 -0.2242 -0.0948
  903MPD2    H513235   0.459   0.411  12.328 -0.6341  1.6409 -0.1105
  903MPD2    N113236   0.786   0.711  12.468  0.4552 -0.8130 -0.0470
  903MPD2    H713237   0.844   0.793  12.453  0.1021 -0.7074 -0.8517
  904MPD2     C13238   0.799   0.287  13.795 -0.0964 -0.2256 -0.6915
  904MPD2    C113239   0.808   0.189  13.894  0.1285  0.0935 -1.0301
  904MPD2    C213240   0.914   0.197  13.983  0.5090  0.0869  0.4380
  904MPD2    C313241   0.998   0.307  13.985  0.2462  0.1804  0.2522
  904MPD2    C413242   0.981   0.399  13.886 -0.2388 -0.8390  0.0165
  904MPD2    C513243   0.890   0.390  13.788 -0.4039 -0.3519  0.2618
  904MPD2     H13244   0.932   0.112  14.048  0.2034 -0.2815  0.0475
  904MPD2    H113245   1.058   0.474  13.871 -0.7082 -0.3771 -0.0830
  904MPD2    H213246   0.723   0.282  13.718 -0.2389 -0.6466 -0.5235
  904MPD2    H313247   0.889   0.462  13.707  0.0024  2.0015  2.3477
  904MPD2     N13248   1.108   0.313  14.072 -0.0048 -0.0182 -0.0717
  904MPD2    H513249   1.148   0.226  14.105 -0.5190 -0.0782  0.3839
  904MPD2    N113250   0.720   0.074  13.898  0.1334  0.5071 -0.0539
  904MPD2    H713251   0.766   4.721  13.948 -2.3306 -0.7807  0.2955
  905MPD2     C13252   0.747   0.253  13.274 -0.1539  0.0163  0.9308
  905MPD2    C113253   0.720   0.342  13.375 -0.5280  0.1534  0.0321
  905MPD2    C213254   0.815   0.433  13.420 -0.5221  0.9907  0.3864
  905MPD2    C313255   0.944   0.435  13.358  0.6228  0.0999 -0.0369
  905MPD2    C413256   0.973   0.343  13.261  0.1597 -0.1043 -0.3179
  905MPD2    C513257   0.868   0.268  13.215  0.6500  0.6192 -0.7195
  905MPD2     H13258   0.786   0.503  13.498  1.0280  0.4364  1.4449
  905MPD2    H113259   1.065   0.348  13.205  0.4225 -0.3383  0.0864
  905MPD2    H213260   0.678   0.179  13.234 -0.4186  0.2104  1.0297
  905MPD2    H313261   0.897   0.206  13.131 -0.4808 -1.7775  0.6774
  905MPD2     N13262   1.049   0.518  13.396  0.0505  0.0706  0.5338
  905MPD2    H513263   1.139   0.500  13.352 -0.0318 -2.5859  1.4538
  905MPD2    N113264   0.594   0.322  13.439  0.4373  0.0978  0.4145
  905MPD2    H713265   0.533   0.251  13.401  1.4971 -0.1573 -0.7985
  906MPD2     C13266   2.959   0.130  11.649  0.6701  0.0890  0.2131
  906MPD2    C113267   2.852   0.083  11.579 -0.2746  0.0750  0.4772
  906MPD2    C213268   2.735   0.058  11.643 -0.1239 -0.1297 -0.0364
  906MPD2    C313269   2.727   0.049  11.784 -0.0447  0.5989 -0.2894
  906MPD2    C413270   2.837   0.091  11.851  0.3353 -0.4334  0.5293
  906MPD2    C513271   2.953   0.134  11.785 -0.1418 -0.0591  0.3924
  906MPD2     H13272   2.654   0.031  11.577 -0.0633  1.4964 -0.7582
  906MPD2    H113273   2.842   0.090  11.959 -1.7997 -1.2016  0.6157
  906MPD2    H213274   3.050   0.157  11.597  0.7842  0.2094  0.4746
  906MPD2    H313275   3.032   0.175  11.846 -1.0267  0.3095  1.2826
  906MPD2     N13276   2.618   4.712  11.852  0.4033 -0.2957  0.2833
  906MPD2    H513277   2.545   4.678  11.790  1.5671  1.9614 -2.3159
  906MPD2    N113278   2.852   0.077  11.438 -0.0964  0.2082  0.0217
  906MPD2    H713279   2.773   0.022  11.407  0.4215 -1.1617  1.1507
  907MPD2     C13280   1.886   4.009  15.617 -0.3989  0.3355 -0.3596
  907MPD2    C113281   1.901   3.871  15.605  0.2733  0.2604  0.9757
  907MPD2    C213282   1.931   3.794  15.715  0.2933  0.8477  0.3503
  907MPD2    C313283   1.959   3.847  15.839  0.3107 -0.0941  0.2071
  907MPD2    C413284   1.952   3.988  15.848 -0.1621 -0.0760  0.8098
  907MPD2    C513285   1.908   4.064  15.743  0.3867  0.0688  0.1718
  907MPD2     H13286   1.937   3.687  15.696 -0.9044  1.0000 -0.8603
  907MPD2    H113287   1.987   4.030  15.942  0.8310 -0.7878  0.7589
  907MPD2    H213288   1.862   4.071  15.532  0.7994 -0.3224 -1.1768
  907MPD2    H313289   1.888   4.170  15.755 -0.7399 -0.2073  0.7155
  907MPD2     N13290   1.994   3.759  15.946  0.4476  0.1859  0.0407
  907MPD2    H513291   2.002   3.661  15.922 -0.8538 -0.3239  1.7049
  907MPD2    N113292   1.874   3.807  15.479  0.8241  0.1222 -0.5976
  907MPD2    H713293   1.860   3.706  15.479 -0.9020  0.3550 -2.2881
  908MPD2     C13294   4.077   0.191   9.373 -0.1950 -0.3056 -0.0143
  908MPD2    C113295   4.092   0.077   9.453  0.0939 -0.0651  0.6875
  908MPD2    C213296   4.123   0.098   9.585 -0.1516 -0.0935  0.6844
  908MPD2    C313297   4.124   0.225   9.640  0.4301  0.5607 -0.3989
  908MPD2    C413298   4.087   0.331   9.560  0.7381  0.5007  0.4976
  908MPD2    C513299   4.064   0.316   9.428  0.2933  0.3037 -0.2891
  908MPD2     H13300   4.152   0.024   9.660  1.9328 -1.6237 -1.6631
  908MPD2    H113301   4.077   0.429   9.605 -1.2801  0.9510 -0.9331
  908MPD2    H213302   4.062   0.177   9.266 -1.0922 -0.2576  0.1028
  908MPD2    H313303   4.042   0.407   9.375 -0.0671  0.4452  0.1020
  908MPD2     N13304   4.173   0.245   9.775 -0.3900 -0.7470  0.3109
  908MPD2    H513305   4.225   0.169   9.817  0.1502 -0.7907 -0.4302
  908MPD2    N113306   4.083   4.673   9.389 -0.1244 -0.2236  0.4332
  908MPD2    H713307   4.069   4.677   9.288 -2.3638  1.4971  0.8207
  909MPD2     C13308   4.624   2.338  12.026  0.8355  0.5948 -0.0147
  909MPD2    C113309   4.592   2.416  11.916 -0.7928  0.6664 -0.3397
  909MPD2    C213310   4.494   2.506  11.927 -0.1850 -0.4266  0.0275
  909MPD2    C313311   4.421   2.518  12.041 -0.2596 -0.2608 -0.2542
  909MPD2    C413312   4.449   2.432  12.150  0.3377  0.5538 -0.0011
  909MPD2    C513313   4.549   2.343  12.139  0.1382 -0.2087  0.0552
  909MPD2     H13314   4.474   2.569  11.841 -0.6104 -0.3988  0.1469
  909MPD2    H113315   4.405   2.443  12.248 -0.7046 -0.4439 -0.3526
  909MPD2    H213316   4.711   2.274  12.032  0.1865 -0.1999  0.9450
  909MPD2    H313317   4.577   2.281  12.223  0.1475 -1.0722 -0.5854
  909MPD2     N13318   4.320   2.618  12.044 -0.6643  0.6686 -0.3583
  909MPD2    H513319   4.313   2.680  11.964  0.8388  0.0231 -0.9904
  909MPD2    N113320   4.662   2.409  11.791  0.7478  0.2472 -0.8112
  909MPD2    H713321   4.637   2.480  11.723  1.9356  1.3164 -0.1368
  910MPD2     C13322   1.111   4.532  15.798  0.3026  0.3105 -0.6270
  910MPD2    C113323   1.223   4.482  15.722 -0.1167  0.4264 -0.4293
  910MPD2    C213324   1.213   4.511  15.584 -0.4715 -0.2323 -0.0930
  910MPD2    C313325   1.103   4.581  15.535  0.3941  0.4348  0.0897
  910MPD2    C413326   0.997   4.624  15.610 -0.0323  0.0852 -0.1324
  910MPD2    C513327   1.010   4.600  15.738 -0.7224 -0.0201  0.1045
  910MPD2     H13328   1.292   4.470  15.522  0.2248  0.6990  0.1712
  910MPD2    H113329   0.914   4.681  15.569 -0.2028  1.0247  1.5355
  910MPD2    H213330   1.087   4.506  15.900 -0.9388  1.8363 -0.5295
  910MPD2    H313331   0.936   4.640  15.806  1.3502 -1.0212  2.9176
  910MPD2     N13332   1.084   4.603  15.397 -0.1955 -0.6406 -0.5603
  910MPD2    H513333   0.997   4.644  15.364  0.1191  0.5008  0.0164
  910MPD2    N113334   1.329   4.412  15.777  0.2273 -0.0144 -0.0114
  910MPD2    H713335   1.394   4.370  15.711  0.2748 -0.8448  0.5746
  911MPD2     C13336   3.327   0.805  16.393  0.2695  0.5256 -0.6540
  911MPD2    C113337   3.427   0.829  16.297 -0.0193 -0.0665  0.6327
  911MPD2    C213338   3.395   0.892  16.173 -0.1206 -0.4521 -0.1526
  911MPD2    C313339   3.266   0.927  16.140  0.0848 -0.3892 -0.9575
  911MPD2    C413340   3.168   0.900  16.232 -0.0495 -0.0399 -0.0804
  911MPD2    C513341   3.197   0.840  16.351 -1.1192 -0.7157  0.1378
  911MPD2     H13342   3.475   0.922  16.107 -0.2891 -0.2481 -0.2664
  911MPD2    H113343   3.066   0.924  16.207 -0.0186 -1.7307 -1.8670
  911MPD2    H213344   3.353   0.769  16.492  2.2297 -0.1340 -1.4119
  911MPD2    H313345   3.109   0.821  16.411 -0.3077 -4.5681  0.0857
  911MPD2     N13346   3.215   0.988  16.014 -0.7502  0.4175  0.4218
  911MPD2    H513347   3.128   1.039  16.016  0.1585  1.9094  2.1951
  911MPD2    N113348   3.553   0.786  16.333 -0.3416 -0.3251  0.0222
  911MPD2    H713349   3.563   0.751  16.428  1.2627  0.4280  0.1287
  912MPD2     C13350   3.627   0.309  16.088 -0.1365 -0.6662 -0.2954
  912MPD2    C113351   3.501   0.353  16.058 -0.1076 -0.0223 -0.4868
  912MPD2    C213352   3.399   0.255  16.078  0.6679 -0.7699  0.2880
  912MPD2    C313353   3.429   0.127  16.115  0.0396 -0.1246  0.7397
  912MPD2    C413354   3.557   0.088  16.146 -0.1520  0.0552 -0.1922
  912MPD2    C513355   3.652   0.178  16.123  0.1598 -0.2322  0.1439
  912MPD2     H13356   3.295   0.277  16.062  0.8356  0.3208  0.7202
  912MPD2    H113357   3.592   4.713  16.180  1.2913  1.1005  1.2562
  912MPD2    H213358   3.718   0.368  16.077  0.1717 -1.1151 -0.1709
  912MPD2    H313359   3.757   0.153  16.136 -0.0049 -1.2931 -0.5266
  912MPD2     N13360   3.310   0.042  16.119  0.5984 -0.5282 -0.7725
  912MPD2    H513361   3.216   0.079  16.126  0.9554  0.2622 -0.0878
  912MPD2    N113362   3.498   0.476  15.996  0.2835  0.1297  0.1064
  912MPD2    H713363   3.586   0.515  15.965  0.7721  1.1116  2.7507
  913MPD2     C13364   4.177   1.510  10.053  0.7943 -0.0928 -0.3686
  913MPD2    C113365   4.250   1.589  10.137 -0.0464 -0.5007 -0.2611
  913MPD2    C213366   4.251   1.720  10.114  0.0465 -0.8875  0.4463
  913MPD2    C313367   4.183   1.778  10.008 -0.4754 -0.1005 -0.1989
  913MPD2    C413368   4.098   1.698   9.932 -0.5099  0.1255 -0.3396
  913MPD2    C513369   4.106   1.569   9.956  0.2439  0.5974 -0.5615
  913MPD2     H13370   4.305   1.786  10.180  0.8890  0.1503 -1.2793
  913MPD2    H113371   4.031   1.743   9.860 -0.9003 -0.1154 -0.1266
  913MPD2    H213372   4.180   1.401  10.058 -2.5937 -0.2262 -1.6184
  913MPD2    H313373   4.036   1.508   9.900 -1.6921  1.6353  0.7162
  913MPD2     N13374   4.174   1.918   9.985 -0.4884 -0.0373 -0.3325
  913MPD2    H513375   4.122   1.959   9.909  0.2291 -0.8789 -1.2652
  913MPD2    N113376   4.315   1.539  10.258 -0.0596 -0.2152  0.2765
  913MPD2    H713377   4.303   1.440  10.274 -0.8015  0.0500  1.2869
  914MPD2     C13378   2.774   1.848  12.070 -0.5070  0.8084  0.7167
  914MPD2    C113379   2.705   1.956  12.128  0.5559 -0.1294 -0.8625
  914MPD2    C213380   2.655   1.953  12.253 -0.4322  0.6641  0.6702
  914MPD2    C313381   2.680   1.844  12.336  0.2393 -0.6636  0.8305
  914MPD2    C413382   2.743   1.734  12.286 -0.5973 -0.3352  0.4436
  914MPD2    C513383   2.792   1.736  12.155 -0.1151 -0.7236 -0.6774
  914MPD2     H13384   2.619   2.048  12.293 -0.8127  0.3106  1.1822
  914MPD2    H113385   2.763   1.642  12.339 -0.4867  1.6445  3.7790
  914MPD2    H213386   2.829   1.845  11.977  1.3609 -1.2247  1.8778
  914MPD2    H313387   2.849   1.649  12.122 -0.4738 -1.0902 -0.3346
  914MPD2     N13388   2.641   1.862  12.466 -0.1210 -0.3147 -0.0465
  914MPD2    H513389   2.590   1.949  12.479  1.0681  0.3992 -0.1880
  914MPD2    N113390   2.669   2.066  12.047 -0.6171 -0.1030 -0.3555
  914MPD2    H713391   2.614   2.141  12.088  0.6153  0.4707  0.2277
  915MPD2     C13392   4.566   1.630  15.867 -0.5281 -0.2953  0.2783
  915MPD2    C113393   4.545   1.746  15.795  0.1727  0.3032  0.2361
  915MPD2    C213394   4.529   1.865  15.858 -0.3150  0.5754  0.7030
  915MPD2    C313395   4.540   1.859  16.002  0.1628  0.1303  0.0744
  915MPD2    C413396   4.567   1.745  16.073 -0.0324  0.1149  0.0248
  915MPD2    C513397   4.585   1.626  16.004  0.1309 -0.2193  0.1306
  915MPD2     H13398   4.503   1.962  15.817  0.2431  0.9514  1.2352
  915MPD2    H113399   4.567   1.746  16.181 -2.3903  1.1180  0.0257
  915MPD2    H213400   4.598   1.540  15.816  2.0518  2.4233 -2.8841
  915MPD2    H313401   4.624   1.536  16.051 -0.4616  0.3025  1.6458
  915MPD2     N13402   4.511   1.976  16.085 -0.6794  0.2809 -0.3792
  915MPD2    H513403   4.512   1.966  16.186 -0.6414  0.7994 -0.3293
  915MPD2    N113404   4.514   1.730  15.658 -0.1452 -0.0974  0.1869
  915MPD2    H713405   4.512   1.636  15.620  0.2582  0.6615 -1.7360
  916MPD2     C13406   2.954   0.207  16.020 -0.4815 -0.2471  1.0130
  916MPD2    C113407   2.888   0.092  16.067  0.3169 -0.4710 -0.5077
  916MPD2    C213408   2.918   4.694  16.004  0.4119  0.4235  0.2878
  916MPD2    C313409   3.007   4.679  15.899  0.2667 -0.4364 -0.4121
  916MPD2    C413410   3.068   0.077  15.860 -0.0964 -0.0024  0.0581
  916MPD2    C513411   3.041   0.197  15.917  0.3272 -0.0481  0.8094
  916MPD2     H13412   2.861   4.607  16.035 -0.7375  0.7051 -1.0653
  916MPD2    H113413   3.147   0.083  15.786 -1.6721 -0.3291 -1.6370
  916MPD2    H213414   2.922   0.305  16.051 -1.7171 -0.8403  1.6127
  916MPD2    H313415   3.080   0.288  15.874  0.1183 -0.8841 -1.1373
  916MPD2     N13416   3.031   4.559  15.833 -0.1670 -0.3171 -0.2884
  916MPD2    H513417   2.973   4.477  15.850 -1.7605  0.6471 -1.1649
  916MPD2    N113418   2.795   0.108  16.170  0.2935 -0.1719  0.5646
  916MPD2    H713419   2.786   0.203  16.205  1.5936  0.2541 -0.2563
  917MPD2     C13420   3.360   1.967  10.696  0.2601  0.5565 -0.6000
  917MPD2    C113421   3.427   2.037  10.791 -0.0187  0.1009  1.2098
  917MPD2    C213422   3.458   2.169  10.766 -0.7569  0.4108 -0.0589
  917MPD2    C313423   3.430   2.228  10.647  0.5559  0.0975  0.4253
  917MPD2    C413424   3.375   2.156  10.548  0.3517 -0.1463  0.3078
  917MPD2    C513425   3.340   2.031  10.573 -0.0486  0.3818 -0.0678
  917MPD2     H13426   3.511   2.232  10.837 -1.3901  0.5990  0.2483
  917MPD2    H113427   3.363   2.184  10.444  0.7649 -1.8086 -0.1820
  917MPD2    H213428   3.322   1.867  10.714 -0.8768  0.5991 -2.7446
  917MPD2    H313429   3.284   1.976  10.498  1.4057  0.1825 -0.9966
  917MPD2     N13430   3.449   2.363  10.623 -0.5978  0.3107 -0.6303
  917MPD2    H513431   3.411   2.402  10.537  0.7116  1.7852 -0.5435
  917MPD2    N113432   3.426   1.988  10.922  0.6761 -0.2563  0.0652
  917MPD2    H713433   3.379   1.899  10.939  2.1216 -1.4211 -1.9957
  918MPD2     C13434   3.259   2.258  11.940 -0.0195 -0.1530  0.4677
  918MPD2    C113435   3.356   2.159  11.956 -0.2060 -0.0359  1.0593
  918MPD2    C213436   3.397   2.097  11.839  0.4034  1.3548 -0.1440
  918MPD2    C313437   3.347   2.137  11.714 -0.8019 -0.1977 -0.5946
  918MPD2    C413438   3.254   2.237  11.706 -0.2590  0.1887 -0.8899
  918MPD2    C513439   3.208   2.287  11.820  0.0263  0.8935 -0.1848
  918MPD2     H13440   3.476   2.023  11.845 -0.7618  0.2741  1.8589
  918MPD2    H113441   3.215   2.270  11.610 -2.0654 -1.8392 -0.8628
  918MPD2    H213442   3.239   2.328  12.020 -2.9242  0.2827 -0.6367
  918MPD2    H313443   3.136   2.368  11.820 -1.2938 -0.2799  2.1323
  918MPD2     N13444   3.403   2.072  11.599  0.2194  0.1770 -0.2110
  918MPD2    H513445   3.478   2.005  11.611  0.6932  1.1238  2.2070
  918MPD2    N113446   3.426   2.136  12.073  0.2692  0.5056  0.3661
  918MPD2    H713447   3.499   2.066  12.070  0.6673  0.9845 -1.1776
  919MPD2     C13448   4.703   0.913  11.483 -0.5412  0.3694 -0.0429
  919MPD2    C113449   4.581   0.920  11.547 -0.3085  0.5955 -0.6963
  919MPD2    C213450   4.472   0.952  11.468  0.3490  0.3380  0.5393
  919MPD2    C313451   4.485   0.983  11.332  0.2935  0.4973  0.2874
  919MPD2    C413452   4.617   0.981  11.279  0.2519 -0.3823  0.3281
  919MPD2    C513453   4.717   0.934  11.357 -0.5665 -0.3357 -0.4008
  919MPD2     H13454   4.375   0.970  11.513 -0.4835  2.3735 -2.0654
  919MPD2    H113455   4.649   1.014  11.181  1.0379  0.9912  1.0530
  919MPD2    H213456   0.072   0.877  11.531 -0.1280  0.0303 -1.0889
  919MPD2    H313457   0.098   0.944  11.325 -0.2333 -0.8602  0.5150
  919MPD2     N13458   4.373   1.028  11.254 -0.3616 -0.1085  0.0469
  919MPD2    H513459   4.396   1.059  11.160 -1.1351  0.6666  0.1164
  919MPD2    N113460   4.555   0.877  11.675  0.0947 -0.2295 -0.5211
  919MPD2    H713461   4.457   0.877  11.703 -0.2803 -0.1275 -1.8377
  920MPD2     C13462   4.133   1.767  10.639  0.2307  0.0901  0.0673
  920MPD2    C113463   4.054   1.662  10.595 -0.3400 -0.1058  0.5452
  920MPD2    C213464   4.046   1.549  10.673 -0.5210 -0.0180 -0.0575
  920MPD2    C313465   4.108   1.537  10.797  0.0147 -0.0336  0.4800
  920MPD2    C413466   4.201   1.640  10.830  0.7804  0.2670 -0.2832
  920MPD2    C513467   4.210   1.753  10.751  0.0339 -0.3570 -0.5060
  920MPD2     H13468   3.972   1.475  10.643  1.1218 -1.4853 -0.5110
  920MPD2    H113469   4.254   1.646  10.924 -0.2306  1.5268  0.2115
  920MPD2    H213470   4.140   1.862  10.588  1.2071  0.8267  1.5743
  920MPD2    H313471   4.288   1.821  10.783  2.4706 -1.9790 -2.9643
  920MPD2     N13472   4.085   1.418  10.874 -0.5906  1.1908 -0.6855
  920MPD2    H513473   4.020   1.349  10.837  1.4156  1.1573 -4.2118
  920MPD2    N113474   3.960   1.683  10.487  0.0989 -0.6886 -0.2323
  920MPD2    H713475   3.888   1.613  10.471  1.3035 -2.3922  1.7569
  921MPD2     C13476   4.181   0.430  17.030  0.3554 -0.6688  0.0202
  921MPD2    C113477   4.158   0.331  16.936 -0.1881  0.9323  0.5575
  921MPD2    C213478   4.083   0.361  16.822  0.3573 -0.0285 -0.2644
  921MPD2    C313479   4.045   0.491  16.800 -0.1490  0.0917 -0.4981
  921MPD2    C413480   4.083   0.599  16.885  0.3192  0.1332  0.0217
  921MPD2    C513481   4.149   0.561  17.003 -0.3349 -0.7010  0.2218
  921MPD2     H13482   4.057   0.282  16.753 -2.2618  0.6798 -0.0894
  921MPD2    H113483   4.075   0.705  16.867  1.1458  0.0683 -0.7375
  921MPD2    H213484   4.233   0.408  17.122 -1.1876 -1.5971  0.6582
  921MPD2    H313485   4.184   0.636  17.073  0.8664 -1.6040  0.5909
  921MPD2     N13486   3.976   0.520  16.678 -0.0055  0.0144 -0.2927
  921MPD2    H513487   3.964   0.442  16.614 -0.5611  0.3885 -0.6444
  921MPD2    N113488   4.217   0.204  16.965  0.3589 -0.0627 -0.1574
  921MPD2    H713489   4.271   0.208  17.050 -1.2415  3.3993  0.7051
  922MPD2     C13490   0.694   2.899  17.675  0.3257  0.3798 -0.3710
  922MPD2    C113491   0.720   2.931  17.545 -0.3989  0.5409 -0.0876
  922MPD2    C213492   0.647   2.890  17.437  0.0691 -0.0857 -0.0073
  922MPD2    C313493   0.532   2.816  17.457 -0.0299  0.9058  0.2195
  922MPD2    C413494   0.502   2.781  17.591  0.1705  0.1631  0.6557
  922MPD2    C513495   0.587   2.821   0.000  1.1003  0.6928  0.1220
  922MPD2     H13496   0.687   2.933  17.346 -1.7020  1.7761  0.0881
  922MPD2    H113497   0.405   2.744  17.622 -0.0815 -0.0363 -0.3636
  922MPD2    H213498   0.750   2.932   0.071  1.0623 -0.3418 -0.5662
  922MPD2    H313499   0.551   2.797   0.100 -0.6931 -1.4883 -1.0280
  922MPD2     N13500   0.451   2.776  17.347  0.2309  0.2857 -0.3450
  922MPD2    H513501   0.486   2.810  17.258 -0.9717  0.0738 -0.8947
  922MPD2    N113502   0.843   3.004  17.520  0.0161 -0.2034 -0.0125
  922MPD2    H713503   0.859   3.033  17.424 -0.0641  1.1826  0.4020
  923MPD2     C13504   2.106   4.195   9.340  0.4722 -0.4009  0.7011
  923MPD2    C113505   2.053   4.298   9.408  0.7419  0.1299  0.5117
  923MPD2    C213506   2.055   4.292   9.541 -0.0454  0.7125  0.9631
  923MPD2    C313507   2.127   4.197   9.613  1.3218  0.0416 -0.4355
  923MPD2    C413508   2.173   4.089   9.539 -0.7095 -0.0048 -0.7547
  923MPD2    C513509   2.156   4.088   9.406 -0.5311 -0.4470  0.4811
  923MPD2     H13510   2.012   4.373   9.598  1.3266  1.7783  0.4953
  923MPD2    H113511   2.240   4.016   9.584 -1.0389 -0.0358 -0.3133
  923MPD2    H213512   2.091   4.181   9.233  0.6613 -2.7493  0.9815
  923MPD2    H313513   2.181   3.999   9.350 -2.0614 -1.5469  1.5198
  923MPD2     N13514   2.166   4.197   9.745 -0.1649  0.6860 -0.4317
  923MPD2    H513515   2.213   4.113   9.777  1.7172  0.5667 -3.6067
  923MPD2    N113516   1.976   4.390   9.338 -0.5053  0.2777 -0.6871
  923MPD2    H713517   1.972   4.373   9.238  0.8875 -2.9587 -0.1781
  924MPD2     C13518   2.123   2.953  15.825 -0.5411  0.1527 -0.7134
  924MPD2    C113519   2.062   2.975  15.945 -0.1119 -0.4050 -0.5019
  924MPD2    C213520   2.104   3.092  16.018  0.1736  0.2716 -0.8761
  924MPD2    C313521   2.177   3.194  15.957  0.2434 -1.1759 -0.5172
  924MPD2    C413522   2.245   3.163  15.841 -0.3676  0.0891 -0.1855
  924MPD2    C513523   2.219   3.045  15.778  0.2195 -0.2326 -0.0537
  924MPD2     H13524   2.071   3.112  16.120  2.4691 -0.0458 -0.0691
  924MPD2    H113525   2.314   3.234  15.797  0.0553  0.9570  1.9150
  924MPD2    H213526   2.106   2.868  15.760  0.8903  0.3329 -1.3310
  924MPD2    H313527   2.269   3.024  15.684  2.3606  0.2086  0.9874
  924MPD2     N13528   2.209   3.316  16.020  0.1312  0.4438  0.1996
  924MPD2    H513529   2.254   3.385  15.960  0.6170 -0.2056 -0.1846
  924MPD2    N113530   1.971   2.879  15.993 -0.2661 -0.7010 -0.0066
  924MPD2    H713531   1.960   2.806  15.924 -2.6849 -0.2619 -0.0889
  925MPD2     C13532   0.650   0.664  14.887 -0.7263 -0.3797 -0.4098
  925MPD2    C113533   0.541   0.748  14.879 -0.1381 -0.0940 -0.0545
  925MPD2    C213534   0.432   0.736  14.968 -0.4140  0.3206 -1.0554
  925MPD2    C313535   0.440   0.655  15.080  0.2926  0.0363  0.0849
  925MPD2    C413536   0.544   0.565  15.089 -0.1030  1.2916  0.5977
  925MPD2    C513537   0.642   0.578  14.995 -0.6028  0.4083 -0.3678
  925MPD2     H13538   0.352   0.807  14.951 -0.9601 -0.8617 -3.5059
  925MPD2    H113539   0.558   0.494  15.170  1.5651  0.3091 -0.5601
  925MPD2    H213540   0.737   0.659  14.822  0.3933 -1.7509  1.1754
  925MPD2    H313541   0.719   0.501  15.001  2.5192  3.5089 -0.8952
  925MPD2     N13542   0.351   0.657  15.191  0.8356 -0.2188  0.6837
  925MPD2    H513543   0.355   0.587  15.264 -0.4570 -0.6253  0.3502
  925MPD2    N113544   0.525   0.842  14.779  0.4303  0.5646 -0.2982
  925MPD2    H713545   0.442   0.899  14.767 -1.5195 -2.4766 -1.4224
  926MPD2     C13546   4.291   4.086  12.997  0.0351 -0.2505 -0.1405
  926MPD2    C113547   4.361   4.171  13.087 -0.0758 -0.0771  0.0118
  926MPD2    C213548   4.490   4.197  13.066 -0.9250 -0.3941  0.1953
  926MPD2    C313549   4.552   4.153  12.952 -0.0015  0.0451  0.7328
  926MPD2    C413550   4.483   4.076  12.860 -0.1442 -0.3824  0.3868
  926MPD2    C513551   4.355   4.034  12.889 -0.2450 -0.3117 -0.9677
  926MPD2     H13552   4.548   4.253  13.137 -1.6112 -0.6755  0.9756
  926MPD2    H113553   4.536   4.051  12.769 -0.5104  0.8797 -0.1854
  926MPD2    H213554   4.184   4.069  13.003  0.1237 -0.5566  0.5828
  926MPD2    H313555   4.302   3.969  12.819  0.7407 -0.2828 -1.7408
  926MPD2     N13556   4.687   4.179  12.922  0.0012 -0.1329  0.1119
  926MPD2    H513557   4.712   4.141  12.831  0.8078  0.4879  0.0779
  926MPD2    N113558   4.296   4.240  13.195 -0.2002 -0.0411  0.1571
  926MPD2    H713559   4.358   4.294  13.254  1.0574 -0.4501 -0.7893
  927MPD2     C13560   3.844   2.138   0.402  0.4330 -0.4047 -0.0701
  927MPD2    C113561   3.879   2.004   0.382  0.1664  0.1230 -0.5231
  927MPD2    C213562   3.956   1.964   0.274 -0.4771 -0.1387  0.5398
  927MPD2    C313563   4.005   2.058   0.184  0.6098 -0.2183  0.4758
  927MPD2    C413564   3.980   2.192   0.212  0.7320  0.1358  0.2882
  927MPD2    C513565   3.893   2.225   0.312 -0.3288  0.0993 -0.1265
  927MPD2     H13566   3.987   1.865   0.243  2.9589  0.8107  0.9395
  927MPD2    H113567   4.017   2.275   0.153 -1.5013  0.4090 -0.7351
  927MPD2    H213568   3.794   2.168   0.494  3.0252  0.9397  0.8873
  927MPD2    H313569   3.886   2.330   0.340 -2.9620  0.2901 -1.5260
  927MPD2     N13570   4.091   2.023   0.077  0.3906  0.0685  0.5050
  927MPD2    H513571   4.107   1.924   0.061 -1.7159 -0.2317  0.1817
  927MPD2    N113572   3.822   1.915   0.475  0.1856 -0.6714 -0.1838
  927MPD2    H713573   3.766   1.951   0.552 -1.3515 -1.4102 -0.9642
  928MPD2     C13574   1.635   0.288   0.895 -0.1595  0.6263 -0.3593
  928MPD2    C113575   1.715   0.398   0.895  1.2118 -0.2280 -1.1509
  928MPD2    C213576   1.820   0.399   0.812 -0.2279  0.5770 -0.0659
  928MPD2    C313577   1.856   0.301   0.721  0.1045 -0.1555 -0.0816
  928MPD2    C413578   1.779   0.188   0.719 -0.3703 -1.0614 -0.1227
  928MPD2    C513579   1.670   0.183   0.800  0.1091 -0.0270 -0.4388
  928MPD2     H13580   1.888   0.482   0.822  2.2056 -1.3617 -0.5411
  928MPD2    H113581   1.799   0.101   0.657 -2.7519 -0.8139 -1.2316
  928MPD2    H213582   1.547   0.276   0.957  1.5219  0.7363  2.0647
  928MPD2    H313583   1.606   0.097   0.785  0.7390 -0.2818 -1.7004
  928MPD2     N13584   1.977   0.303   0.641 -0.6102  0.0048  0.6403
  928MPD2    H513585   1.990   0.234   0.567 -1.9328  1.0319 -0.5511
  928MPD2    N113586   1.701   0.498   0.998 -0.2879 -0.4449  0.7621
  928MPD2    H713587   1.631   0.482   1.070 -1.6727 -0.3317 -0.5721
  929MPD2     C13588   2.100   4.708  11.167 -1.1930  0.1196 -0.1712
  929MPD2    C113589   2.031   4.647  11.060 -0.2122  0.3806  0.5390
  929MPD2    C213590   2.089   4.632  10.936 -0.1447 -0.2935  1.0353
  929MPD2    C313591   2.213   4.691  10.919  0.5984 -1.0769 -1.0494
  929MPD2    C413592   2.278   0.023  11.032  0.2086  0.7647  0.2548
  929MPD2    C513593   2.223   0.025  11.154 -0.2711 -0.3946 -0.1149
  929MPD2     H13594   2.036   4.597  10.848  0.6848  1.6675 -0.2425
  929MPD2    H113595   2.372   0.073  11.011 -0.0242  1.6267  1.3013
  929MPD2    H213596   2.061   4.717  11.268 -1.1261  0.9051 -0.2135
  929MPD2    H313597   2.279   0.072  11.234  0.2163  1.0494 -1.3153
  929MPD2     N13598   2.269   4.695  10.788  0.8042  0.0772 -0.6200
  929MPD2    H513599   2.208   4.657  10.716 -1.0073  1.6041  0.0921
  929MPD2    N113600   1.901   4.610  11.088 -0.1063 -0.8940 -0.0808
  929MPD2    H713601   1.866   4.640  11.178  1.2585 -2.2335  0.8797
  930MPD2     C13602   3.802   2.540  14.230 -0.1887  0.2614 -0.5562
  930MPD2    C113603   3.724   2.572  14.118  0.2602 -0.2896  0.3403
  930MPD2    C213604   3.647   2.476  14.065 -0.3804  0.0368 -0.1049
  930MPD2    C313605   3.648   2.349  14.109  0.6527 -0.5220 -0.0085
  930MPD2    C413606   3.725   2.317  14.218 -0.5652  0.1779 -0.3525
  930MPD2    C513607   3.805   2.414  14.276  0.2876 -0.3750  0.3710
  930MPD2     H13608   3.597   2.499  13.972 -0.0695  0.4717 -0.1637
  930MPD2    H113609   3.735   2.216  14.256  0.0426 -0.5482 -2.4634
  930MPD2    H213610   3.871   2.606  14.281 -0.7703  0.1821  0.3477
  930MPD2    H313611   3.881   2.386  14.348  0.4579 -0.3214  0.2091
  930MPD2     N13612   3.594   2.248  14.026  0.0278 -0.4491  0.6183
  930MPD2    H513613   3.600   2.149  14.048  0.4635 -0.7965 -1.0658
  930MPD2    N113614   3.742   2.705  14.077  0.2420 -0.7203  0.0278
  930MPD2    H713615   3.812   2.768  14.114 -0.1042 -1.1587  1.3973
  931MPD2     C13616   4.065   1.309   0.927 -0.3066 -0.5246 -0.1023
  931MPD2    C113617   3.930   1.318   0.913  0.2220  0.4883  1.3345
  931MPD2    C213618   3.851   1.220   0.976 -0.1353 -0.1783  0.1762
  931MPD2    C313619   3.903   1.114   1.044  0.4682  0.2771 -0.1986
  931MPD2    C413620   4.040   1.099   1.032 -0.0100 -0.0041 -0.3310
  931MPD2    C513621   4.125   1.198   0.982 -0.0916 -0.3572 -0.2374
  931MPD2     H13622   3.744   1.223   0.957 -0.1799 -0.8119  0.3212
  931MPD2    H113623   4.090   1.017   1.083 -0.3322  0.1583  0.2504
  931MPD2    H213624   4.125   1.386   0.880  0.5404 -1.2882 -0.2770
  931MPD2    H313625   4.230   1.195   1.008 -0.7907 -2.3473  2.3877
  931MPD2     N13626   3.823   1.018   1.119  0.1506  0.0551  0.0859
  931MPD2    H513627   3.874   0.937   1.151 -1.7009 -1.6105 -1.2280
  931MPD2    N113628   3.887   1.432   0.846  0.9182  0.2900  0.3370
  931MPD2    H713629   3.954   1.499   0.812  0.1491 -0.5314 -2.7294
  932MPD2     C13630   1.117   1.021  11.370  0.7116 -0.3306 -0.0824
  932MPD2    C113631   1.192   1.138  11.374  0.3494  0.2673 -0.5582
  932MPD2    C213632   1.243   1.188  11.496 -0.6257  0.1409  0.4240
  932MPD2    C313633   1.222   1.106  11.609 -0.1196  0.1096  0.4057
  932MPD2    C413634   1.138   0.992  11.609 -0.3779  0.4877  0.3931
  932MPD2    C513635   1.088   0.956  11.491 -0.6110  0.4223 -0.0142
  932MPD2     H13636   1.310   1.274  11.503  1.7314 -1.6419 -0.3157
  932MPD2    H113637   1.114   0.927  11.693 -2.7032  2.0145  0.9080
  932MPD2    H213638   1.072   0.987  11.277 -0.8161 -0.8339  0.8394
  932MPD2    H313639   1.027   0.866  11.487 -1.6065  1.1022 -0.0770
  932MPD2     N13640   1.297   1.133  11.727 -0.0804 -0.1246 -0.1431
  932MPD2    H513641   1.286   1.059  11.796 -1.5088 -0.8576 -1.1517
  932MPD2    N113642   1.217   1.224  11.260  0.3914 -0.3455  0.2260
  932MPD2    H713643   1.264   1.312  11.277  2.2601 -1.4059  0.5818
  933MPD2     C13644   1.679   1.153   1.617  0.5026 -0.2525  0.1495
  933MPD2    C113645   1.706   1.156   1.481 -0.8167 -0.9021  0.3241
  933MPD2    C213646   1.681   1.273   1.414 -0.0165  0.4949 -0.3935
  933MPD2    C313647   1.649   1.391   1.486 -0.4307  0.2116  0.0953
  933MPD2    C413648   1.629   1.385   1.623 -0.0525  0.3323 -0.0202
  933MPD2    C513649   1.639   1.264   1.690 -0.6428 -0.6109 -0.6238
  933MPD2     H13650   1.701   1.287   1.309 -0.1726  0.4798 -0.4244
  933MPD2    H113651   1.615   1.473   1.685 -0.9045  0.7618 -0.8308
  933MPD2    H213652   1.710   1.067   1.675  0.7470 -1.1899 -1.3634
  933MPD2    H313653   1.630   1.268   1.798  1.0421 -0.2501 -0.4852
  933MPD2     N13654   1.645   1.518   1.420 -0.0800  0.1723  0.0201
  933MPD2    H513655   1.675   1.523   1.323 -3.7077  2.5519 -0.9839
  933MPD2    N113656   1.740   1.033   1.421  0.2987  0.8178  0.1650
  933MPD2    H713657   1.763   0.956   1.482 -1.7866 -1.0362 -1.4111
  934MPD2     C13658   2.435   1.918   2.634 -0.1292  0.4494 -0.4006
  934MPD2    C113659   2.548   1.916   2.555  0.0803 -0.6111  0.6429
  934MPD2    C213660   2.547   1.950   2.421  0.3072 -0.0235  0.0094
  934MPD2    C313661   2.428   1.984   2.360 -0.1468  0.3935  1.0549
  934MPD2    C413662   2.317   1.997   2.445 -0.1120 -0.5402  0.0727
  934MPD2    C513663   2.321   1.960   2.577  0.5669  0.3640  0.8603
  934MPD2     H13664   2.640   1.944   2.366 -0.0091  0.4668 -0.5806
  934MPD2    H113665   2.225   2.027   2.395  1.2214  0.9856 -1.4762
  934MPD2    H213666   2.431   1.889   2.738  0.8687 -2.1171 -1.0864
  934MPD2    H313667   2.233   1.966   2.640 -0.8375 -0.4450 -1.0389
  934MPD2     N13668   2.422   2.000   2.221  0.3831 -0.2453 -0.1380
  934MPD2    H513669   2.333   2.041   2.192 -1.0089 -2.7293  0.6162
  934MPD2    N113670   2.671   1.866   2.600  0.7192 -0.0081  0.4566
  934MPD2    H713671   2.752   1.873   2.539  1.6764 -1.6468  1.5462
  935MPD2     C13672   2.998   1.533   1.562  0.3688 -0.7017 -0.4418
  935MPD2    C113673   2.937   1.629   1.475  0.3496  0.3914 -0.5038
  935MPD2    C213674   2.842   1.719   1.534  0.4511 -0.5632  0.0915
  935MPD2    C313675   2.816   1.719   1.669 -0.2086 -0.1483 -0.0503
  935MPD2    C413676   2.877   1.618   1.747  0.5919  0.5661  0.4097
  935MPD2    C513677   2.964   1.528   1.696 -0.2456  0.3769 -0.3115
  935MPD2     H13678   2.799   1.790   1.464  1.6295 -0.0467 -0.1116
  935MPD2    H113679   2.862   1.607   1.854 -1.7097  2.7745  0.3008
  935MPD2    H213680   3.080   1.476   1.520  0.6298  0.1140 -1.0572
  935MPD2    H313681   3.024   1.460   1.755 -0.7542 -0.3519 -0.6340
  935MPD2     N13682   2.735   1.815   1.739  0.0898  0.5270 -0.3745
  935MPD2    H513683   2.739   1.814   1.841  0.2527 -1.7528 -0.3954
  935MPD2    N113684   2.956   1.629   1.332 -0.2286  0.4294 -0.1125
  935MPD2    H713685   2.932   1.712   1.280 -2.7789 -1.0416 -1.2764
  936MPD2     C13686   1.664   3.868  12.844  0.9079 -0.0427  0.5125
  936MPD2    C113687   1.667   3.959  12.945 -0.3300 -0.6933 -0.9179
  936MPD2    C213688   1.594   4.079  12.941 -0.6157  0.2868 -0.3225
  936MPD2    C313689   1.536   4.113  12.813 -0.5681 -0.2638  0.7893
  936MPD2    C413690   1.526   4.025  12.714  0.3805  0.2235  0.0521
  936MPD2    C513691   1.587   3.904  12.733  0.5671  0.1624 -0.2600
  936MPD2     H13692   1.586   4.150  13.022 -1.7618  1.1232 -1.1719
  936MPD2    H113693   1.480   4.036  12.617 -0.0286 -1.9634 -0.0218
  936MPD2    H213694   1.726   3.779  12.843 -0.7768 -1.1784 -0.5390
  936MPD2    H313695   1.579   3.832  12.652  0.4397 -1.1957  0.9769
  936MPD2     N13696   1.476   4.249  12.801  0.4610  0.0937  0.7605
  936MPD2    H513697   1.463   4.286  12.894 -0.1172  1.3292  0.1937
  936MPD2    N113698   1.734   3.915  13.058 -1.3565  0.4421 -0.2399
  936MPD2    H713699   1.761   3.818  13.061  0.3497  0.9407  0.4389
  937MPD2     C13700   4.495   0.325  11.605 -0.3047  0.1785  0.3812
  937MPD2    C113701   4.526   0.453  11.619 -0.5430  0.1014 -0.6332
  937MPD2    C213702   4.593   0.510  11.512 -0.0503  0.4029  0.5115
  937MPD2    C313703   4.592   0.448  11.387  0.1836  0.1530 -0.3746
  937MPD2    C413704   4.539   0.325  11.374  0.8500  0.1343  0.4997
  937MPD2    C513705   4.493   0.264  11.487 -0.1070  0.1737  0.3756
  937MPD2     H13706   4.659   0.594  11.525  0.7028 -0.1128  0.0647
  937MPD2    H113707   4.542   0.264  11.284  1.2521  0.5473  0.2352
  937MPD2    H213708   4.478   0.258  11.689 -0.9226 -0.7244 -0.4689
  937MPD2    H313709   4.454   0.163  11.481 -1.5056  0.8582 -2.1056
  937MPD2     N13710   4.657   0.510  11.280 -0.5209 -0.4221  0.5714
  937MPD2    H513711   4.699   0.598  11.306  2.4056 -1.3288 -1.0286
  937MPD2    N113712   4.540   0.514  11.746 -1.1466  0.2227  0.7866
  937MPD2    H713713   4.597   0.598  11.754  3.1299 -2.4113 -1.4267
  938MPD2     C13714   1.970   1.957   1.140  0.5524 -0.1418 -0.9578
  938MPD2    C113715   1.964   2.038   1.253 -0.9534  0.4689  0.2515
  938MPD2    C213716   1.943   1.978   1.379  0.2617 -0.2100 -0.9934
  938MPD2    C313717   1.960   1.839   1.393 -0.0587 -0.4853 -0.5060
  938MPD2    C413718   1.987   1.764   1.278  0.1270  0.4783  0.6239
  938MPD2    C513719   1.988   1.822   1.154 -0.8154 -0.9796  0.4901
  938MPD2     H13720   1.943   2.048   1.462  0.3467 -0.4960 -0.7525
  938MPD2    H113721   2.009   1.659   1.291  0.9417  0.5815  0.0367
  938MPD2    H213722   1.971   1.983   1.035  1.9649 -1.8046 -1.3361
  938MPD2    H313723   1.998   1.766   1.062  0.3754  0.0013  0.0304
  938MPD2     N13724   1.950   1.783   1.521 -0.6466  0.3252  0.8475
  938MPD2    H513725   1.969   1.684   1.529 -0.8802  0.2880  0.9442
  938MPD2    N113726   1.969   2.184   1.247 -0.5373  0.0369 -0.4345
  938MPD2    H713727   1.968   2.238   1.333  1.1416  1.1012 -1.0793
  939MPD2     C13728   3.368   3.446   1.273  0.0891  0.0722  0.1219
  939MPD2    C113729   3.486   3.419   1.343 -0.6135 -0.1635  0.0468
  939MPD2    C213730   3.608   3.437   1.274  0.6123  0.0089 -0.2464
  939MPD2    C313731   3.607   3.480   1.140 -0.0438  0.7560  0.4088
  939MPD2    C413732   3.488   3.502   1.078 -0.5723  0.9009 -0.8571
  939MPD2    C513733   3.373   3.475   1.138 -0.3960  0.5447  0.3512
  939MPD2     H13734   3.702   3.419   1.325  0.5181  0.6824  0.1646
  939MPD2    H113735   3.479   3.531   0.974 -2.6682 -1.1016 -1.2362
  939MPD2    H213736   3.270   3.435   1.318 -1.0726 -0.2675 -2.4692
  939MPD2    H313737   3.281   3.485   1.081 -1.0315  0.3555  1.3261
  939MPD2     N13738   3.730   3.512   1.081  0.0476 -0.4303  0.5599
  939MPD2    H513739   3.811   3.507   1.142  0.5845  0.7658 -0.0616
  939MPD2    N113740   3.476   3.378   1.480 -0.7745  0.1706 -0.3469
  939MPD2    H713741   3.383   3.371   1.518 -0.1739  1.1724  1.2943
  940MPD2     C13742   1.892   4.204  12.842  0.3190  0.3792 -0.6130
  940MPD2    C113743   2.008   4.216  12.926  0.8126 -0.1375  0.2465
  940MPD2    C213744   2.109   4.114  12.919  0.6324  0.2335  0.3940
  940MPD2    C313745   2.097   4.014  12.821 -0.1326 -0.2798  0.5294
  940MPD2    C413746   1.993   4.014  12.731 -0.2073  0.0208 -0.8951
  940MPD2    C513747   1.890   4.107  12.746  0.4815  0.2032  0.4514
  940MPD2     H13748   2.196   4.134  12.981  0.9454  2.4599 -0.7661
  940MPD2    H113749   1.984   3.934  12.658  0.0121 -1.4095  0.6532
  940MPD2    H213750   1.802   4.263  12.854 -0.9301 -1.6243 -0.0859
  940MPD2    H313751   1.816   4.099  12.668 -1.3198  1.2384  2.0506
  940MPD2     N13752   2.194   3.911  12.807 -0.4574  0.8588 -0.0129
  940MPD2    H513753   2.173   3.849  12.730 -0.2557  1.7486 -0.7927
  940MPD2    N113754   2.026   4.319  13.022  0.6313 -0.6407  0.1519
  940MPD2    H713755   2.104   4.300  13.084  2.2223  0.9890 -1.3525
  941MPD2     C13756   0.682   3.285   9.983 -0.0782  0.4171  0.9655
  941MPD2    C113757   0.816   3.262  10.016 -0.3205 -0.1123 -0.2023
  941MPD2    C213758   0.853   3.146  10.085  0.1836 -0.6295  0.4776
  941MPD2    C313759   0.754   3.056  10.126  0.1551  0.2420  0.3441
  941MPD2    C413760   0.620   3.083  10.098  0.1314 -0.0482  0.3108
  941MPD2    C513761   0.585   3.195  10.025 -0.5824 -0.3565 -0.1886
  941MPD2     H13762   0.959   3.136  10.105  0.4885  1.1617 -0.1856
  941MPD2    H113763   0.536   3.027  10.138  0.4728 -0.7960 -0.0436
  941MPD2    H213764   0.655   3.365   9.915 -1.0807  0.4719  1.4260
  941MPD2    H313765   0.480   3.214  10.004 -0.5069  0.0955 -0.1489
  941MPD2     N13766   0.789   2.936  10.190  0.3179 -0.3807 -0.5995
  941MPD2    H513767   0.723   2.864  10.218 -2.0753  1.9568 -0.2269
  941MPD2    N113768   0.922   3.355   9.994 -0.4117  0.3502 -0.2424
  941MPD2    H713769   1.008   3.321  10.035 -0.5851 -1.0425 -1.0378
  942MPD2     C13770   0.166   0.937   9.272  0.0457 -0.5060  0.6102
  942MPD2    C113771   0.148   0.824   9.198  0.1478  0.6643  0.4047
  942MPD2    C213772   0.261   0.752   9.167  0.1495  0.7994  0.1062
  942MPD2    C313773   0.385   0.801   9.204 -0.2732 -0.2739  0.5568
  942MPD2    C413774   0.395   0.913   9.287  0.0858 -0.1594  0.0318
  942MPD2    C513775   0.282   0.988   9.311  0.1419 -0.1514 -0.3170
  942MPD2     H13776   0.256   0.664   9.105 -0.5430  1.3505 -0.6198
  942MPD2    H113777   0.491   0.947   9.323  0.5072 -0.3983 -0.8826
  942MPD2    H213778   0.082   0.996   9.306  1.4605  2.1520 -0.4746
  942MPD2    H313779   0.280   1.074   9.376  0.7666  0.9553 -1.7621
  942MPD2     N13780   0.509   0.744   9.167  0.2749  0.0879  0.1899
  942MPD2    H513781   0.597   0.768   9.212  1.0626  0.2938 -1.4793
  942MPD2    N113782   0.027   0.761   9.173 -0.3349  0.4402  0.2014
  942MPD2    H713783   0.040   0.671   9.127  0.4622  0.1598  0.9897
  943MPD2     C13784   0.178   3.555  10.315  0.2122 -0.3374 -0.0133
  943MPD2    C113785   0.184   3.423  10.280  0.1939  1.1398 -0.2270
  943MPD2    C213786   0.213   3.389  10.144  0.2462  0.3206  0.8997
  943MPD2    C313787   0.266   3.478  10.052  0.2701 -0.7953 -0.2760
  943MPD2    C413788   0.268   3.609  10.097  0.1344  0.6530 -0.9506
  943MPD2    C513789   0.222   3.646  10.221 -0.1707 -0.9085  0.0703
  943MPD2     H13790   0.225   3.284  10.121  2.4845  0.5733  0.8770
  943MPD2    H113791   0.308   3.684  10.030  1.9811 -1.0739 -1.7787
  943MPD2    H213792   0.153   3.589  10.415  2.1765 -1.2037  0.7721
  943MPD2    H313793   0.205   3.750  10.243  1.8561 -1.1425  2.7315
  943MPD2     N13794   0.300   3.460   9.918  0.3047  0.4871 -0.5519
  943MPD2    H513795   0.331   3.540   9.863  2.8135  1.9293  2.9859
  943MPD2    N113796   0.165   3.316  10.377 -0.3223  0.1602  0.5689
  943MPD2    H713797   0.151   3.342  10.474 -2.9550 -0.7102  0.4269
  944MPD2     C13798   4.671   1.457  11.408 -0.1699  0.3865 -0.6582
  944MPD2    C113799   0.046   1.545  11.366  0.3070  0.0731  0.1647
  944MPD2    C213800   0.058   1.669  11.430  0.1662 -0.1264 -0.3527
  944MPD2    C313801   4.678   1.709  11.512 -0.2047  0.5518 -0.8579
  944MPD2    C413802   4.591   1.611  11.567  0.4102  0.4267 -0.1865
  944MPD2    C513803   4.589   1.483  11.511 -0.2876  0.1951  0.3164
  944MPD2     H13804   0.119   1.750  11.392 -0.2962  0.1199 -0.5655
  944MPD2    H113805   4.518   1.625  11.645 -0.4458 -3.7146 -0.2355
  944MPD2    H213806   4.663   1.357  11.365  0.4816  0.0324  0.0501
  944MPD2    H313807   4.533   1.398  11.550 -1.3353 -0.1909 -2.0434
  944MPD2     N13808   4.658   1.844  11.547  0.6245  0.7747  0.4591
  944MPD2    H513809   4.717   1.913  11.502  1.3495  0.5485  1.0598
  944MPD2    N113810   0.120   1.513  11.249 -0.5469  0.2192  0.1648
  944MPD2    H713811   0.088   1.432  11.198  0.3090 -0.4255  0.6485
    1TCq1    O113812   2.559   3.195  14.491  0.0521  0.5797 -0.3581
    1TCq1    C113813   2.467   3.285  14.542  0.5462  0.5680  0.4598
    1TCq1    O213814   2.432   3.293  14.659 -0.3129  0.1443 -0.3485
    1TCq1    C213815   2.413   3.371  14.436  0.0474 -0.4338 -0.6368
    1TCq1    C313816   2.365   3.332  14.314  0.0141  0.1653  0.6131
    1TCq1    C413817   2.305   3.420  14.231  0.0847 -0.3445 -0.3387
    1TCq1    C513818   2.293   3.550  14.262 -0.3749  0.0676  0.2056
    1TCq1    C613819   2.351   3.589  14.379 -0.1348  0.2673 -0.2043
    1TCq1    C713820   2.401   3.500  14.470  1.6693 -0.1351  0.3136
    1TCq1    C813821   2.310   3.716  14.442  0.2227 -0.0978  0.4200
    1TCq1    O413822   2.260   3.710  14.557  0.2913 -0.1002  0.2770
    1TCq1    C913823   2.254   3.382  14.101  0.8035 -0.2818 -0.3933
    1TCq1    O513824   2.174   3.454  14.037  0.0242  0.1702 -0.2216
    1TCq1    O613825   2.277   3.265  14.057  0.2846  0.1089  0.5596
    1TCq1    H113826   2.572   3.196  14.394  1.0083 -0.4050 -0.2486
    1TCq1    H213827   2.371   3.229  14.283 -0.5112 -0.3265  2.1291
    1TCq1    H313828   2.228   3.620  14.211  1.3279  2.5217  1.3786
    1TCq1    H413829   2.439   3.532  14.567  0.7423  1.0932  0.2672
    2MPD2     C13830   2.339   4.225  14.524 -0.6216 -0.2190  0.8736
    2MPD2    C113831   2.356   4.199  14.391  0.1492 -0.8522 -0.1736
    2MPD2    C213832   2.356   4.068  14.336  0.3039  0.8666  0.4539
    2MPD2    C313833   2.345   3.961  14.421 -0.0768  0.3082 -0.4072
    2MPD2    C413834   2.344   3.991  14.562 -0.0032  0.6147  0.4965
    2MPD2    C513835   2.344   4.118  14.610  0.2009 -1.2030 -0.0012
    2MPD2     H13836   2.365   4.044  14.231  1.2402  1.5936  0.3750
    2MPD2    H113837   2.352   3.913  14.637  0.7646  1.2903  1.1115
    2MPD2    H213838   2.324   4.327  14.559  1.8209  0.8030 -1.0735
    2MPD2    H313839   2.328   4.149  14.713  3.3398  1.7076 -0.3788
    2MPD2     N13840   2.344   3.825  14.374  0.2286  0.1863 -0.3531
    2MPD2    H513841   2.364   3.808  14.276 -0.6628  0.2550 -0.5545
    2MPD2    N113842   2.375   4.312  14.308  0.0654  0.6490  0.7242
    2MPD2    H713843   2.339   4.402  14.335  1.0500  1.0388  0.7577
    3TMC2    C113844   2.353   4.400  14.091  0.0895 -0.0793  0.1447
    3TMC2    C213845   2.233   4.450  14.131  0.6192 -0.0553  0.7373
    3TMC2    C313846   2.177   4.550  14.055 -0.4633 -0.5673  0.0840
    3TMC2    C413847   2.419   4.443  13.976 -0.1297  0.3774 -0.0067
    3TMC2    C513848   2.355   4.542  13.904 -0.0433  0.6288 -0.2457
    3TMC2    C613849   2.240   4.603  13.944  0.1556 -0.8567 -0.4548
    3TMC2     C13850   2.410   4.298  14.172  0.1792  0.2248  0.5313
    3TMC2     O13851   2.485   4.224  14.111  0.9094  0.6951  0.1496
    3TMC2     H13852   2.180   4.419  14.221 -1.4819  1.9574  0.2118
    3TMC2    H113853   2.516   4.418  13.937  0.3872  1.0044  0.8691
    3TMC2    H213854   2.176   4.674  13.892  0.8412  0.3606  0.3731
    3TMC2    C713855   2.412   4.583  13.780 -0.1211  0.2628  0.8870
    3TMC2    C813856   2.038   4.582  14.091 -0.7412  0.4145  0.5430
    3TMC2    O113857   2.491   4.508  13.724 -0.0041  0.1878  0.0938
    3TMC2    O213858   2.009   4.704  14.087 -0.5119  0.2098  0.3584
    3TMC2    O513859   1.955   4.479  14.127 -1.0391 -0.5105  0.1456
    3TMC2    H513860   1.988   4.387  14.115  1.0077  0.0779  1.3192
    4MPD2     C13861   1.256   0.116  13.212 -0.3327 -0.1693 -0.0434
    4MPD2    C113862   1.348   0.164  13.118  1.0844 -0.0874  0.5227
    4MPD2    C213863   1.455   0.234  13.176 -0.2162  0.4682 -0.6800
    4MPD2    C313864   1.477   0.229  13.310  0.3744  0.7291  0.6396
    4MPD2    C413865   1.396   0.164  13.399 -0.2444 -0.9569  0.3917
    4MPD2    C513866   1.280   0.109  13.347 -0.2110 -0.1118  0.1339
    4MPD2     H13867   1.514   0.305  13.119  1.0629 -1.0817 -1.2865
    4MPD2    H113868   1.423   0.148  13.503 -1.9526 -3.3260  0.4629
    4MPD2    H213869   1.158   0.084  13.179 -1.1901  1.0367  1.3804
    4MPD2    H313870   1.207   0.058  13.408 -0.4859 -0.1927 -0.2676
    4MPD2     N13871   1.587   0.313  13.354 -0.2954 -0.4775 -1.0256
    4MPD2    H513872   1.635   0.358  13.277 -1.3037 -0.3441 -1.5741
    4MPD2    N113873   1.314   0.182  12.986 -0.0679 -0.7387  0.0526
    4MPD2    H713874   1.222   0.155  12.954  0.2475 -0.4962 -1.0527
    5TCq2    C113875   1.630   0.335  13.482  0.8344  0.9386  0.1014
    5TCq2    O213876   1.579   0.311  13.591  0.4219  0.5004 -0.4872
    5TCq2    C213877   1.751   0.408  13.488 -0.1088 -0.4320  0.8877
    5TCq2    C313878   1.790   0.481  13.379 -0.3523  0.0500 -0.2918
    5TCq2    C413879   1.906   0.541  13.381  0.2745 -0.4247  0.4434
    5TCq2    C513880   1.987   0.530  13.490 -0.0118 -0.5537  0.2811
    5TCq2    C613881   1.950   0.448  13.594  0.4866  0.4383 -0.1842
    5TCq2    C713882   1.829   0.387  13.597 -0.2616 -0.2817 -0.3064
    5TCq2    C813883   2.058   0.364  13.627  0.0224  0.1781  0.1386
    5TCq2    O413884   2.056   0.320  13.742  0.1825 -0.3126  0.6108
    5TCq2    C913885   1.940   0.631  13.268  0.1458  0.3651  0.2904
    5TCq2    O513886   2.043   0.704  13.283 -0.2410  1.1145  0.4458
    5TCq2    O613887   1.870   0.619  13.164 -0.2978 -0.0674  0.4620
    5TCq2    H213888   1.722   0.507  13.299 -2.6115  0.4875  1.7556
    5TCq2    H313889   2.078   0.586  13.504 -0.6909  1.0367 -1.6138
    5TCq2    H413890   1.800   0.303  13.660  0.2865 -0.3632 -0.1611
    6MPD1     C13891   1.870   1.882  12.292  0.1208  0.1734  0.1020
    6MPD1    C113892   1.810   1.863  12.412  0.1965 -0.0787 -0.4287
    6MPD1    C213893   1.776   1.731  12.450  0.2626  0.3284  0.0407
    6MPD1    C313894   1.814   1.621  12.366  0.5463 -0.7014 -0.4559
    6MPD1    C413895   1.878   1.645  12.249 -0.5104  0.4411  0.5479
    6MPD1    C513896   1.906   1.775  12.212 -0.2880  0.2225 -0.1919
    6MPD1     H13897   1.722   1.709  12.541 -0.2778  1.1637 -0.0861
    6MPD1    H113898   1.903   1.565  12.181 -1.4125  2.5906 -2.3287
    6MPD1    H213899   1.908   1.980  12.266  0.8942  0.1091  0.9953
    6MPD1    H313900   1.954   1.793  12.116  1.9918 -3.6946  0.2153
    6MPD1     N13901   1.793   1.483  12.405 -0.3024 -0.2104 -0.5599
    6MPD1    H513902   1.816   1.416  12.332  2.3947 -0.9379  0.9572
    6MPD1    N113903   1.770   1.977  12.484  0.3514  0.3243  0.0268
    6MPD1    H613904   1.759   1.952  12.581 -0.5537 -0.6048 -0.3171
    6MPD1    H713905   1.833   2.056  12.473 -0.6414  1.2319  0.9620
    7MPD2     C13906   1.298   0.998  12.947  0.4867 -0.2165  0.2521
    7MPD2    C113907   1.355   0.947  12.833  0.1526  0.2751 -0.3015
    7MPD2    C213908   1.304   0.830  12.780 -0.2190  0.3514  0.7978
    7MPD2    C313909   1.211   0.753  12.846  0.3147 -0.7148  0.0220
    7MPD2    C413910   1.159   0.806  12.962 -0.2529 -0.5246 -0.2187
    7MPD2    C513911   1.199   0.931  13.005 -0.0505 -0.3512 -0.2642
    7MPD2     H13912   1.352   0.794  12.690 -0.8723 -1.1020  1.0298
    7MPD2    H113913   1.086   0.752  13.021  0.0618 -1.4564 -0.6809
    7MPD2    H213914   1.342   1.085  12.995 -1.6642  0.6025  0.7316
    7MPD2    H313915   1.160   0.969  13.099  2.2926 -0.2747  0.6750
    7MPD2     N13916   1.167   0.628  12.799 -0.7633  0.5972 -0.0086
    7MPD2    H513917   1.113   0.565  12.857 -0.1848 -0.2988 -0.4375
    7MPD2    N113918   1.454   1.008  12.753  0.1597  0.4679 -0.2657
    7MPD2    H713919   1.472   0.962  12.664  0.9490  1.2000 -0.4858
    8TMC3    C113920   1.202   0.425  12.671 -0.4070  0.0872 -0.2311
    8TMC3    C213921   1.232   0.355  12.783  1.3450  0.9192  0.2927
    8TMC3    C313922   1.319   0.248  12.767  0.0032  0.1343  0.0572
    8TMC3    C413923   1.244   0.392  12.546 -0.2866 -0.4215  0.0878
    8TMC3    C513924   1.339   0.291  12.542 -0.5383 -0.4112 -0.1618
    8TMC3    C613925   1.377   0.213  12.651  0.1060  0.6225 -0.3804
    8TMC3     C13926   1.222   0.568  12.681 -0.5042  0.0133 -0.4645
    8TMC3     O13927   1.282   0.621  12.590 -0.0118  0.1321  0.1957
    8TMC3     H13928   1.205   0.384  12.884  0.6044  1.3700 -0.0314
    8TMC3    H113929   1.215   0.442  12.455  0.9463 -1.4674 -0.8703
    8TMC3    H213930   1.461   0.145  12.655  0.2047  0.7742  0.0634
    8TMC3    C713931   1.455   0.324  12.457  0.3307 -0.6520  0.6575
    8TMC3    C813932   1.400   0.220  12.889  0.7251  0.0870  0.5795
    8TMC3    O113933   1.545   0.239  12.453  0.5761 -0.8825 -0.1338
    8TMC3    O213934   1.523   0.219  12.882  0.0841 -0.1900 -0.3746
    9TMC3    C113935   1.722   1.301  12.545  0.3639  0.1242  0.9215
    9TMC3    C213936   1.770   1.201  12.470  0.6187 -0.2363 -0.2091
    9TMC3    C313937   1.732   1.075  12.493  0.6008 -0.4453 -0.0510
    9TMC3    C413938   1.658   1.267  12.658  0.0766 -0.3963 -0.1521
    9TMC3    C513939   1.638   1.136  12.693 -0.3787  0.1768  0.2173
    9TMC3    C613940   1.673   1.037  12.609 -0.0360 -0.3207  0.4858
    9TMC3     C13941   1.755   1.447  12.529  0.4172 -0.4824 -0.2550
    9TMC3     O13942   1.737   1.515  12.634  0.3803 -0.1180  0.5386
    9TMC3     H13943   1.808   1.224  12.371 -0.5283 -1.2080 -0.8843
    9TMC3    H113944   1.593   1.337  12.709  0.4872 -0.1821  0.0718
    9TMC3    H213945   1.680   0.936  12.645  1.1150  0.5090  2.5855
    9TMC3    C713946   1.532   1.117  12.789 -0.5094  0.1252  1.1768
    9TMC3    C813947   1.761   0.971  12.393  0.1437  0.4384  0.4870
    9TMC3    O113948   1.519   1.192  12.883  0.3557 -0.2758  0.0819
    9TMC3    O213949   1.854   0.980  12.312  0.0068 -0.2955 -0.3742
   10MPD2     C13950   1.657   0.475  12.309 -0.1938  0.6721 -0.5480
   10MPD2    C113951   1.558   0.528  12.382  0.3350 -0.9933 -0.3881
   10MPD2    C213952   1.568   0.659  12.411  1.1907 -0.7223  0.3775
   10MPD2    C313953   1.678   0.736  12.376  0.3738  0.5574  0.1212
   10MPD2    C413954   1.782   0.684  12.306 -0.3935  0.4433 -0.8354
   10MPD2    C513955   1.770   0.553  12.272 -0.0783 -0.4616 -0.6047
   10MPD2     H13956   1.502   0.710  12.480 -2.0548 -2.6508 -1.2977
   10MPD2    H113957   1.871   0.738  12.275 -0.2651  0.5306 -0.3265
   10MPD2    H213958   1.663   0.368  12.290 -0.2331  0.4968  0.4456
   10MPD2    H313959   1.854   0.512  12.217  0.9190  0.3781  0.3208
   10MPD2     N13960   1.673   0.865  12.424  0.3653  0.0551  0.2305
   10MPD2    H513961   1.591   0.896  12.476 -0.7996 -1.7678 -0.5325
   10MPD2    N113962   1.454   0.457  12.435  0.1608 -0.6872 -0.0265
   10MPD2    H713963   1.376   0.509  12.474  0.7752 -0.7622  1.2941
   11MPD2     C13964   2.372   4.696  13.518 -0.8449 -0.3790  0.2781
   11MPD2    C113965   2.337   0.041  13.630  0.7327 -0.7331 -0.0701
   11MPD2    C213966   2.275   0.164  13.632  0.8511  0.1729 -0.0923
   11MPD2    C313967   2.237   0.225  13.515 -0.2671 -0.2318  0.5240
   11MPD2    C413968   2.266   0.155  13.395  0.1659  0.0707  0.0680
   11MPD2    C513969   2.325   0.028  13.400  0.2796 -0.6651 -0.5670
   11MPD2     H13970   2.255   0.211  13.727  1.8918 -1.0793  0.7486
   11MPD2    H113971   2.228   0.195  13.302 -0.0840 -0.6105 -0.1204
   11MPD2    H213972   2.423   4.601  13.518  1.5085  0.8785  0.7425
   11MPD2    H313973   2.350   4.698  13.308  2.4371  0.4512 -0.6130
   11MPD2     N13974   2.141   0.331  13.517 -0.2175 -0.1827  0.2084
   11MPD2    H513975   2.110   0.373  13.431 -1.7973 -1.6037  0.0905
   11MPD2    N113976   2.363   4.706  13.754  0.8331  0.0082 -0.0673
   11MPD2    H713977   2.319   0.025  13.836 -1.2934 -1.3263 -0.5528
    1MPD1     C13978   4.246   1.669   0.209  0.2152 -0.0268  0.2045
    1MPD1    C113979   4.327   1.737   0.117  0.0088 -0.2265 -0.6353
    1MPD1    C213980   4.355   1.675  17.690  0.0598 -0.3147 -0.6801
    1MPD1    C313981   4.321   1.543  17.668 -0.1921 -0.4407 -0.5472
    1MPD1    C413982   4.263   1.472   0.078 -0.0844  0.1325  0.9835
    1MPD1    C513983   4.216   1.536   0.182  0.3436  0.4474  0.2388
    1MPD1     H13984   4.387   1.732  17.603 -1.5370 -0.2287 -1.2065
    1MPD1    H113985   4.240   1.368   0.060 -3.0087  0.6906  1.4682
    1MPD1    H213986   4.213   1.717   0.300  1.2514 -0.3279  0.7457
    1MPD1    H313987   4.162   1.475   0.254  1.4791  0.6848  1.2791
    1MPD1     N13988   4.344   1.475  17.549  0.4366 -0.1700  0.2152
    1MPD1    H513989   4.315   1.378  17.538 -1.9323  0.4758  0.6537
    1MPD1    N113990   4.350   1.876   0.131  0.3469 -0.0523 -1.0688
    1MPD1    H613991   4.363   1.910   0.226 -2.2499  2.0852 -1.4557
    1MPD1    H713992   4.437   1.907   0.088  0.8578  0.1600  0.1311
    2MPD1     C13993   0.134   1.669  16.731  0.5148 -0.0975 -0.2785
    2MPD1    C113994   0.123   1.719  16.860 -0.5004 -0.5854 -0.3610
    2MPD1    C213995   0.032   1.667  16.942  0.5269 -0.3009 -0.3551
    2MPD1    C313996   4.663   1.568  16.904 -0.5433  0.3711 -0.1962
    2MPD1    C413997   4.685   1.513  16.777  0.2358 -0.0160  0.4900
    2MPD1    C513998   0.061   1.560  16.692  0.2689  0.6417 -0.5399
    2MPD1     H13999   0.026   1.701  17.044  0.4827 -0.0293 -0.4503
    2MPD1    H114000   4.625   1.425  16.755 -0.2928  0.1357  1.3255
    2MPD1    H214001   0.211   1.704  16.664  0.4287 -2.1851 -1.4493
    2MPD1    H314002   0.076   1.512  16.596  3.6837  1.1622 -0.2691
    2MPD1     N14003   4.577   1.518  17.005  0.0867 -0.4374  0.6378
    2MPD1    H514004   4.569   1.571  17.091 -0.0500 -2.1103  1.6639
    2MPD1    N114005   0.212   1.818  16.895  0.1311  0.5095  0.5725
    2MPD1    H614006   0.238   1.889  16.827  0.4554 -0.0591  0.1002
    2MPD1    H714007   0.180   1.877  16.972 -1.7512  0.6522 -0.3105
    3TMC3    C114008   4.408   1.389  17.106  0.1828 -0.3926 -0.2724
    3TMC3    C214009   4.395   1.256  17.134 -0.9615  0.1622  0.6673
    3TMC3    C314010   4.381   1.210  17.263  0.3619 -0.5067  0.2749
    3TMC3    C414011   4.426   1.474  17.211  0.2534  0.1304 -0.1993
    3TMC3    C514012   4.420   1.432  17.337 -0.1847 -0.3002  0.3263
    3TMC3    C614013   4.393   1.301  17.366 -0.0755  0.1628  0.3503
    3TMC3     C14014   4.486   1.420  16.984 -0.0204 -0.3291  0.8066
    3TMC3     O14015   4.456   1.360  16.883  0.0620  0.5185  0.6701
    3TMC3     H14016   4.385   1.193  17.046  2.2846 -0.4849  0.7723
    3TMC3    H114017   4.440   1.580  17.195  0.2611  0.2694  0.7146
    3TMC3    H214018   4.416   1.265  17.466 -1.4690  0.6862  0.8556
    3TMC3    C714019   4.408   1.531  17.440 -0.6386 -0.3302  0.1245
    3TMC3    C814020   4.367   1.066  17.291 -0.1706  0.6029 -0.2460
    3TMC3    O114021   4.434   1.646  17.410 -1.2424  0.8643  0.0439
    3TMC3    O214022   4.293   1.043  17.388  0.4312 -0.3652 -0.2925
    4MPD1     C14023   4.531   0.583  17.243 -1.2418 -0.6306 -0.5285
    4MPD1    C114024   4.592   0.657  17.146  0.2452 -0.3420 -0.8827
    4MPD1    C214025   4.546   0.788  17.131 -0.9356  0.1154  0.2729
    4MPD1    C314026   4.456   0.842  17.221 -0.0730 -0.0425 -0.9412
    4MPD1    C414027   4.395   0.769  17.316 -0.4327  0.3219  0.5181
    4MPD1    C514028   4.436   0.641  17.324 -0.6241 -0.6449 -0.4962
    4MPD1     H14029   4.580   0.863  17.060 -2.3340 -0.6048 -1.1482
    4MPD1    H114030   4.327   0.799  17.394  0.6801 -0.3034  1.7362
    4MPD1    H214031   4.553   0.479  17.264  1.3377 -0.3066 -1.6524
    4MPD1    H314032   4.388   0.582  17.401 -1.9861  0.8546 -0.2092
    4MPD1     N14033   4.428   0.980  17.201 -0.3939  0.0913  0.3181
    4MPD1    H514034   4.473   1.021  17.120 -0.8237  0.8556  0.4601
    4MPD1    N114035   4.670   0.601  17.038 -0.3766 -0.0081  0.3620
    4MPD1    H614036   0.010   0.668  16.994 -0.0740 -1.7053 -1.7959
    4MPD1    H714037   0.009   0.522  17.060 -3.3490 -2.8713 -1.6524
    1TCq1    O114038   1.568   0.962  11.186  0.3763  0.0039 -0.7484
    1TCq1    C114039   1.540   1.018  11.066  0.0112  0.0775 -0.4734
    1TCq1    O214040   1.618   1.076  10.997  0.4454  0.1067 -0.3270
    1TCq1    C214041   1.421   0.946  11.011  0.2496 -0.1260  0.5910
    1TCq1    C314042   1.412   0.946  10.870  0.2087  0.2127 -1.2275
    1TCq1    C414043   1.320   0.873  10.806 -0.6477 -0.4383 -0.3274
    1TCq1    C514044   1.220   0.811  10.875 -0.6640 -0.3668  0.0784
    1TCq1    C614045   1.228   0.813  11.013  0.5902  0.0870 -0.1945
    1TCq1    C714046   1.329   0.875  11.086 -0.0352 -0.0165 -0.0024
    1TCq1    C814047   1.135   0.727  11.090 -0.4455  0.3528  0.3752
    1TCq1    O414048   1.144   0.728  11.211 -0.3265  0.0087  0.2718
    1TCq1    C914049   1.284   0.912  10.673  0.1880 -0.0014 -0.1774
    1TCq1    O514050   1.169   0.891  10.624 -0.2242 -0.0630  0.2127
    1TCq1    O614051   1.376   0.964  10.606  0.1875  0.1795 -0.0348
    1TCq1    H114052   1.487   0.914  11.214 -0.4272  1.2691 -0.9129
    1TCq1    H214053   1.469   1.017  10.813  1.7844 -1.3424 -1.6087
    1TCq1    H314054   1.145   0.760  10.817  1.4423 -0.2163 -2.7668
    1TCq1    H414055   1.311   0.878  11.193 -1.8762 -1.4286 -0.2667
    2MPD1     C14056   0.673   0.506  11.126 -0.5071  0.5791 -0.1463
    2MPD1    C114057   0.717   0.500  10.996 -1.0393  0.2836 -0.1760
    2MPD1    C214058   0.829   0.576  10.960  0.2778 -0.2943  0.2694
    2MPD1    C314059   0.911   0.624  11.055 -0.5178 -0.8134 -0.2971
    2MPD1    C414060   0.868   0.631  11.183  0.1331 -0.3248 -0.6228
    2MPD1    C514061   0.747   0.572  11.220  0.3588 -0.0209  0.0536
    2MPD1     H14062   0.863   0.596  10.859  1.4194 -0.2029  0.6703
    2MPD1    H114063   0.917   0.692  11.258 -0.5756  0.4294 -0.7824
    2MPD1    H214064   0.578   0.460  11.149  0.4069 -0.0235  2.3626
    2MPD1    H314065   0.710   0.578  11.322  1.6103 -0.6252  0.5458
    2MPD1     N14066   1.033   0.680  11.010 -0.0247  0.2241  0.4189
    2MPD1    H514067   1.042   0.690  10.909  2.4359  2.1074  0.8231
    2MPD1    N114068   0.628   0.460  10.901  0.2790 -0.1737  0.3439
    2MPD1    H614069   0.570   0.386  10.940 -0.7533  0.3640 -0.1509
    2MPD1    H714070   0.670   0.429  10.814 -1.9762 -3.7031  0.5198
    1TCq1    O114071   2.808   4.431   0.997 -0.6273 -0.3058 -0.9672
    1TCq1    C114072   2.708   4.365   1.057 -0.5008  0.3858  0.1238
    1TCq1    O214073   2.593   4.369   1.010  0.4941  0.0017  0.0483
    1TCq1    C214074   2.770   4.246   1.104  0.3844 -0.1802 -0.3854
    1TCq1    C314075   2.709   4.131   1.075 -0.2672  0.8715  0.4673
    1TCq1    C414076   2.776   4.021   1.101  0.3090  0.8430 -0.2761
    1TCq1    C514077   2.891   4.018   1.181  0.1935 -0.2317 -0.1700
    1TCq1    C614078   2.953   4.141   1.190 -0.0480  0.1197 -0.0581
    1TCq1    C714079   2.902   4.256   1.141  0.0805  0.2604 -0.0699
    1TCq1    C814080   3.088   4.141   1.240 -0.4407 -0.2408 -0.2239
    1TCq1    O414081   3.118   4.046   1.307 -0.0913 -0.3268 -0.2815
    1TCq1    C914082   2.693   3.904   1.113 -0.1041 -0.4856 -0.3293
    1TCq1    O514083   2.736   3.800   1.164 -0.4244 -0.2624  0.3114
    1TCq1    O614084   2.600   3.905   1.025 -0.2957 -0.0274 -0.2663
    1TCq1    H114085   2.896   4.389   1.005 -1.5287 -1.3958  3.0817
    1TCq1    H214086   2.601   4.137   1.067 -0.1928 -1.2639 -1.9904
    1TCq1    H314087   2.929   3.921   1.212  2.2359  0.3760 -0.7766
    1TCq1    H414088   2.940   4.351   1.174 -1.2118 -0.8162  4.4543
    2MPD1     C14089   3.560   4.326   1.297 -0.1621 -0.4901  0.1480
    2MPD1    C114090   3.497   4.411   1.211 -0.4509 -0.5561  0.0883
    2MPD1    C214091   3.368   4.382   1.172 -0.2423 -0.6336  0.1466
    2MPD1    C314092   3.302   4.268   1.225  0.0620  0.2728 -0.0836
    2MPD1    C414093   3.373   4.188   1.318  0.7742 -0.0739 -0.7642
    2MPD1    C514094   3.500   4.216   1.346  1.1135  0.9819  0.7405
    2MPD1     H14095   3.312   4.443   1.102 -0.0428 -0.0730  0.4740
    2MPD1    H114096   3.320   4.114   1.377 -0.3553  0.1754 -1.4472
    2MPD1    H214097   3.658   4.350   1.337 -1.3849  0.0769  2.8007
    2MPD1    H314098   3.555   4.151   1.414  0.1830  1.8768  2.3401
    2MPD1     N14099   3.164   4.247   1.194  0.3075 -0.3315  0.6493
    2MPD1    H514100   3.114   4.319   1.144 -1.4610 -0.8617  1.6714
    2MPD1    N114101   3.576   4.507   1.140 -0.4181  0.5251  0.1078
    2MPD1    H614102   3.530   4.584   1.092  0.4075  1.6713  1.1361
    2MPD1    H714103   3.638   4.542   1.213 -1.5542  0.5503  1.0613
    1MPD1     C14104   3.864   4.682  10.958 -0.0235 -0.4252 -0.6343
    1MPD1    C114105   3.819   4.577  11.038 -0.3100  0.3604 -0.2266
    1MPD1    C214106   3.890   4.455  11.037 -1.3021 -0.2226 -0.0332
    1MPD1    C314107   4.013   4.442  10.977 -0.1995  0.1381  0.9819
    1MPD1    C414108   4.042   4.536  10.882 -0.4582  0.3027 -0.6814
    1MPD1    C514109   3.970   4.655  10.872 -0.3717  0.8491 -0.0695
    1MPD1     H14110   3.845   4.368  11.084 -2.1317  0.2255 -0.0112
    1MPD1    H114111   4.133   4.527  10.823 -0.4777 -0.7407 -0.5515
    1MPD1    H214112   3.805   0.051  10.959 -0.5819 -0.7982  0.3527
    1MPD1    H314113   4.010   0.002  10.799 -0.1280 -1.2650 -1.9217
    1MPD1     N14114   4.095   4.328  10.981 -0.0133 -0.0887 -0.1724
    1MPD1    H514115   4.179   4.325  10.925  0.8831  0.7170  1.1415
    1MPD1    N114116   3.714   4.593  11.124 -0.2436 -0.5085 -0.4860
    1MPD1    H614117   3.644   4.655  11.084  1.6199  0.4240 -2.3090
    1MPD1    H714118   3.679   4.500  11.140 -0.6673 -0.3132 -0.2892
    2MPD1     C14119   2.942   1.346  10.741 -0.2053 -0.1440  0.2520
    2MPD1    C114120   3.057   1.278  10.726 -0.4055 -0.0166  0.8846
    2MPD1    C214121   3.072   1.151  10.785 -0.4883  0.0148  0.3362
    2MPD1    C314122   2.977   1.104  10.872 -0.3160  0.0759  0.3243
    2MPD1    C414123   2.862   1.183  10.889  0.0474  0.0743 -0.1982
    2MPD1    C514124   2.834   1.295  10.808 -0.4409  0.0650  0.5317
    2MPD1     H14125   3.166   1.099  10.768  0.0305  0.4652  1.8234
    2MPD1    H114126   2.789   1.148  10.961  1.8376 -0.5823  1.3018
    2MPD1    H214127   2.926   1.442  10.692  1.3171  0.5161  1.0533
    2MPD1    H314128   2.744   1.356  10.815 -0.3135  0.4576 -1.1244
    2MPD1     N14129   3.001   0.989  10.951  0.1598 -0.0259  0.2649
    2MPD1    H514130   2.927   0.951  11.010  0.6764 -0.0374  0.9003
    2MPD1    N114131   3.146   1.311  10.626  0.7156 -0.5224 -0.4422
    2MPD1    H614132   3.131   1.408  10.599 -1.7893 -0.9165 -0.4897
    2MPD1    H714133   3.243   1.306  10.657  0.8314 -0.4442 -0.7968
    3MPD1     C14134   2.510   0.289  11.397 -0.0536  0.2391  0.4076
    3MPD1    C114135   2.576   0.355  11.493  0.2549 -0.0051 -0.8276
    3MPD1    C214136   2.687   0.432  11.445 -0.4047 -0.5423 -0.3122
    3MPD1    C314137   2.718   0.435  11.310  0.1845 -0.0644 -0.8953
    3MPD1    C414138   2.635   0.366  11.218 -0.0375  0.1036 -0.1017
    3MPD1    C514139   2.539   0.288  11.261 -0.3255  0.0425 -0.0341
    3MPD1     H14140   2.728   0.510  11.509 -0.4955 -1.4439  0.8440
    3MPD1    H114141   2.655   0.375  11.112 -1.4927 -2.9717 -0.6508
    3MPD1    H214142   2.415   0.242  11.417 -0.1601  0.2830  0.0062
    3MPD1    H314143   2.463   0.245  11.197  0.4595  0.5113 -1.2632
    3MPD1     N14144   2.832   0.515  11.275  0.3441 -0.2839  0.2889
    3MPD1    H514145   2.882   0.561  11.350  1.0337 -2.0067  0.8861
    3MPD1    N114146   2.521   0.369  11.624 -0.1900  0.4843  0.3027
    3MPD1    H614147   2.596   0.392  11.689 -0.4507 -0.3076  0.8919
    3MPD1    H714148   2.469   0.285  11.649 -0.7196  0.3905 -1.1147
    4MPD2     C14149   4.176   4.488  11.588  0.2803 -0.1436 -0.2945
    4MPD2    C114150   4.227   4.503  11.461  0.3086  0.5522  0.3469
    4MPD2    C214151   4.243   4.629  11.417  0.6440  0.0646 -0.0604
    4MPD2    C314152   4.181   0.020  11.474 -0.0972  0.3313 -0.2526
    4MPD2    C414153   4.133   4.721  11.600 -0.3809  0.3660  0.7405
    4MPD2    C514154   4.130   4.596  11.657  0.1794  0.7473 -0.2593
    4MPD2     H14155   4.301   4.637  11.326  1.1995 -0.8218  0.2099
    4MPD2    H114156   4.087   0.078  11.659  0.0801  1.7528 -0.7477
    4MPD2    H214157   4.172   4.394  11.640  0.1464 -1.2860 -2.3867
    4MPD2    H314158   4.096   4.570  11.757 -0.9649 -1.3513 -1.2042
    4MPD2     N14159   4.189   0.151  11.422  0.0917  0.3542 -0.3645
    4MPD2    H514160   4.154   0.226  11.481 -1.1097 -0.7481  0.3287
    4MPD2    N114161   4.269   4.393  11.380 -0.7657  0.3957 -0.3195
    4MPD2    H714162   4.320   4.412  11.293  0.9151 -0.6589  0.4323
    5TMC3    C114163   4.307   4.193  11.296  0.3298 -0.3614 -0.0488
    5TMC3    C214164   4.213   4.125  11.232  0.1061 -0.2161  0.4308
    5TMC3    C314165   4.206   4.145  11.098  0.2354  0.4086  0.1639
    5TMC3    C414166   4.417   4.250  11.241 -0.1465 -0.3359 -0.1664
    5TMC3    C514167   4.420   4.262  11.099  0.5230  0.3627 -0.3353
    5TMC3    C614168   4.314   4.196  11.026  0.5569 -0.0435 -0.0320
    5TMC3     C14169   4.247   4.259  11.406 -0.1634 -0.3103  0.0514
    5TMC3     O14170   4.174   4.204  11.488 -0.2706 -0.1091 -0.8025
    5TMC3     H14171   4.127   4.083  11.284 -0.5830 -0.1166 -0.6302
    5TMC3    H114172   4.491   4.302  11.301  0.6017 -1.3933 -0.1703
    5TMC3    H214173   4.314   4.194  10.918  2.0104 -1.0965 -0.0187
    5TMC3    C714174   4.432   4.401  11.059 -0.4917  0.8390  0.6963
    5TMC3    C814175   4.086   4.236  11.088 -0.2899 -0.4160  0.1401
    5TMC3    O114176   4.420   4.483  11.148  0.8899  0.1992 -0.4152
    5TMC3    O214177   4.002   4.242  11.178  0.0231 -0.0181 -0.6094
    6TMC3    C114178   3.104   0.789  11.018  0.0757 -0.0820  0.2579
    6TMC3    C214179   2.988   0.733  11.054 -0.0262  0.0317  0.1999
    6TMC3    C314180   2.982   0.627  11.139  1.3549  0.2965 -0.5470
    6TMC3    C414181   3.224   0.738  11.065 -0.3885 -0.2601  0.5055
    6TMC3    C514182   3.216   0.634  11.157  0.6672  0.4126 -0.2711
    6TMC3    C614183   3.098   0.578  11.195 -0.5576  0.1843 -0.3647
    6TMC3     C14184   3.120   0.920  10.964 -0.0358  0.3609 -0.0581
    6TMC3     O14185   3.225   0.942  10.917  0.1860  0.2147 -0.7024
    6TMC3     H14186   2.896   0.751  11.000 -0.1793  0.1001  0.4849
    6TMC3    H114187   3.320   0.778  11.032 -0.4132 -0.5790  0.0432
    6TMC3    H214188   3.097   0.487  11.254  1.2681 -0.6811 -1.6922
    6TMC3    C714189   3.338   0.554  11.170 -0.0460  0.7671 -0.5971
    6TMC3    C814190   2.865   0.546  11.143  0.2072 -0.4776 -0.0525
    6TMC3    O114191   3.421   0.595  11.084 -0.8307  0.0042 -0.3157
    6TMC3    O214192   2.799   0.547  11.041 -0.2964 -0.8189 -0.5670
    7MPD2     C14193   4.334   0.056  10.716 -0.1510  0.0742 -0.4076
    7MPD2    C114194   4.340   0.056  10.855  0.4313 -0.1779  0.2210
    7MPD2    C214195   4.374   4.662  10.919 -0.0123  0.3932  0.5120
    7MPD2    C314196   4.400   4.543  10.855  0.1598  0.2776 -0.0779
    7MPD2    C414197   4.416   4.554  10.718 -0.9239 -0.3323  0.0053
    7MPD2    C514198   4.372   4.665  10.649  0.0096 -0.0919 -0.0459
    7MPD2     H14199   4.377   4.665  11.027  1.3624  2.0672  0.4272
    7MPD2    H114200   4.434   4.465  10.658 -0.9356 -0.4496  0.1768
    7MPD2    H214201   4.311   0.141  10.653  1.0418  1.4995  1.0752
    7MPD2    H314202   4.365   4.667  10.541 -0.0116 -2.0734 -0.0782
    7MPD2     N14203   4.431   4.419  10.925  0.1165 -0.0166 -0.0804
    7MPD2    H514204   4.451   4.338  10.868 -0.6396  0.2734 -0.7539
    7MPD2    N114205   4.295   0.162  10.941 -0.0137  0.3526 -0.7948
    7MPD2    H714206   4.298   0.149  11.041 -1.4129  0.5338 -0.7355
    8TMC3    C114207   4.194   0.366  11.008 -0.0053 -0.0942 -0.0350
    8TMC3    C214208   4.052   0.366  11.004  0.2058 -0.4529 -0.1042
    8TMC3    C314209   3.985   0.334  11.117  0.6299 -0.5188  0.3548
    8TMC3    C414210   4.258   0.339  11.129  0.7180 -0.5658 -0.2578
    8TMC3    C514211   4.189   0.308  11.241 -0.8825 -0.5921 -0.5985
    8TMC3    C614212   4.050   0.308  11.238  0.3312 -0.1770 -0.1432
    8TMC3     C14213   4.244   0.281  10.894  0.1984 -0.5468 -0.2412
    8TMC3     O14214   4.217   0.313  10.780 -0.1303  0.4519 -0.1440
    8TMC3     H14215   4.004   0.371  10.907 -0.1495  1.1580  0.1552
    8TMC3    H114216   4.366   0.334  11.134  0.8662  0.5839 -2.3142
    8TMC3    H214217   3.998   0.289  11.332 -1.8674  0.8523 -1.1321
    8TMC3    C714218   4.236   0.183  11.298  0.7979  0.0811  0.1926
    8TMC3    C814219   3.850   0.369  11.116 -0.7202  0.5854 -0.1153
    8TMC3    O114220   4.291   0.113  11.214  0.4681 -0.1160 -0.5001
    8TMC3    O214221   3.809   0.454  11.038 -0.4802  0.6374  0.2830
    9MPD2     C14222   3.653   0.217  11.390  0.4277  0.1160  0.0183
    9MPD2    C114223   3.675   0.308  11.286 -0.5433 -0.4163  0.1633
    9MPD2    C214224   3.586   0.405  11.251 -0.0367  1.0997  0.2674
    9MPD2    C314225   3.464   0.407  11.319 -0.2069 -0.3922 -0.0094
    9MPD2    C414226   3.452   0.332  11.438 -0.0899 -0.4385  0.4925
    9MPD2    C514227   3.539   0.223  11.460 -0.1150  0.7801  0.5443
    9MPD2     H14228   3.605   0.461  11.160 -1.2017  0.8104 -0.1490
    9MPD2    H114229   3.359   0.327  11.493  0.7769 -0.4810  1.9344
    9MPD2    H214230   3.724   0.144  11.427 -0.7002 -0.9930  0.0069
    9MPD2    H314231   3.527   0.167  11.552 -1.7302 -1.0484 -0.7914
    9MPD2     N14232   3.348   0.485  11.282 -0.1797  0.1356 -0.2354
    9MPD2    H514233   3.270   0.476  11.346  0.9790 -2.0462  0.8683
    9MPD2    N114234   3.796   0.297  11.215  0.3162  0.0417  0.1687
    9MPD2    H714235   3.861   0.233  11.260  0.4498 -1.2349 -1.8258
    1MPD1     C14236   3.601   4.550  16.411 -0.2684  0.8462 -1.0079
    1MPD1    C114237   3.503   4.451  16.423 -0.4859  0.2016  0.3074
    1MPD1    C214238   3.406   4.465  16.518  0.2950 -0.6210 -0.1969
    1MPD1    C314239   3.397   4.583  16.593 -0.2320 -0.2682  0.1014
    1MPD1    C414240   3.497   4.681  16.576 -0.1488 -0.4743  0.7695
    1MPD1    C514241   3.595   4.658  16.487  0.4771  0.1662  0.6558
    1MPD1     H14242   3.343   4.380  16.542  0.0086 -1.3762 -3.5544
    1MPD1    H114243   3.493   0.046  16.641  3.2945  0.6622 -0.5443
    1MPD1    H214244   3.689   4.536  16.349  0.3085 -0.9443  0.2047
    1MPD1    H314245   3.678   0.005  16.477  0.4145  0.2814  0.9282
    1MPD1     N14246   3.294   4.594  16.697  0.3724 -0.1887 -0.4887
    1MPD1    H514247   3.302   4.671  16.762 -1.2890  0.2469 -0.7997
    1MPD1    N114248   3.508   4.330  16.353  0.2720 -0.1486  0.4721
    1MPD1    H614249   3.427   4.276  16.383 -1.3142  1.8813 -0.1367
    1MPD1    H714250   3.488   4.347  16.255 -1.5524 -0.0185  0.8733
    2MPD1     C14251   2.698   3.925  17.156  0.2276  0.3874  0.8449
    2MPD1    C114252   2.695   3.955  17.021 -0.1008 -0.4245 -0.3958
    2MPD1    C214253   2.759   4.073  16.977  0.6489 -0.6694  0.2006
    2MPD1    C314254   2.826   4.151  17.067  0.1843  0.4792  0.1109
    2MPD1    C414255   2.831   4.112  17.197  0.3619  0.0343 -0.0253
    2MPD1    C514256   2.772   3.997  17.240  0.0017  0.5588 -0.5318
    2MPD1     H14257   2.754   4.106  16.874 -0.8467 -0.3454  0.3870
    2MPD1    H114258   2.875   4.169  17.278  1.9259  0.2554 -1.0372
    2MPD1    H214259   2.650   3.837  17.199  1.1212 -1.8588 -2.7825
    2MPD1    H314260   2.785   3.956  17.339 -0.9237  0.0481 -0.6205
    2MPD1     N14261   2.879   4.272  17.013 -0.8910  0.2954 -0.6884
    2MPD1    H514262   2.864   4.293  16.915  0.0298 -0.7148 -1.0395
    2MPD1    N114263   2.614   3.883  16.930 -0.0413 -0.0113 -0.4759
    2MPD1    H614264   2.561   3.803  16.964 -0.1204  0.1533 -0.2162
    2MPD1    H714265   2.648   3.872  16.835 -1.6055 -1.3041 -0.8891
    3TCq2    C114266   2.939   4.370  17.096 -0.0752  0.0702 -0.5648
    3TCq2    O214267   2.941   4.378  17.220  0.0577 -0.0666  0.3376
    3TCq2    C214268   2.991   4.487  17.017 -0.1374  0.1552  0.4980
    3TCq2    C314269   3.018   4.605  17.083 -0.3029 -0.0982 -0.4319
    3TCq2    C414270   3.099   4.696  17.026  0.1376  1.1362 -0.6286
    3TCq2    C514271   3.158   4.671  16.909 -0.0511  0.1312  0.9354
    3TCq2    C614272   3.117   4.558  16.842 -0.3386  0.3136  0.4793
    3TCq2    C714273   3.036   4.465  16.890  0.0647 -0.1949  0.5350
    3TCq2    C814274   3.182   4.520  16.711  0.2438  0.1344 -0.1448
    3TCq2    O414275   3.141   4.422  16.645  0.4190 -0.4029 -0.2536
    3TCq2    C914276   3.140   0.092  17.096 -0.3089  0.2887 -0.7437
    3TCq2    O514277   3.073   0.110  17.198  0.6738 -0.2469 -0.5536
    3TCq2    O614278   3.253   0.143  17.069  0.9939  0.2619  0.0623
    3TCq2    H214279   2.974   4.624  17.180  1.7958 -1.7270  0.8480
    3TCq2    H314280   3.232   0.020  16.873  1.2389 -1.9861 -0.5641
    3TCq2    H414281   3.033   4.367  16.843 -0.5611 -1.9002  4.1274
    1TCq1    O114282   0.909   3.615  12.746  0.0605  0.0038  0.2479
    1TCq1    C114283   0.930   3.716  12.837  0.1393 -0.6386  0.3861
    1TCq1    O214284   0.995   3.815  12.811 -0.3284  1.0278 -0.2339
    1TCq1    C214285   0.940   3.649  12.966  0.3747 -0.2246  0.2982
    1TCq1    C314286   0.824   3.612  13.026  0.0068  0.1563 -0.0299
    1TCq1    C414287   0.833   3.563  13.153 -0.5070 -0.1530  0.0903
    1TCq1    C514288   0.951   3.562  13.220  0.3766 -0.1248 -0.4705
    1TCq1    C614289   1.068   3.604  13.158  0.2999 -0.8272 -0.3470
    1TCq1    C714290   1.064   3.646  13.030 -0.4762  0.1111  0.2532
    1TCq1    C814291   1.193   3.612  13.229  0.6012  0.1523  0.3775
    1TCq1    O414292   1.285   3.665  13.167 -0.2697 -0.5873  0.7227
    1TCq1    C914293   0.709   3.516  13.211  0.1234  0.9714  0.4221
    1TCq1    O514294   0.604   3.528  13.142  0.5626  0.3498  0.0757
    1TCq1    O614295   0.702   3.484  13.327 -0.2262  0.1083  0.1420
    1TCq1    H114296   0.860   3.540  12.787 -0.6371 -0.0123 -0.6113
    1TCq1    H214297   0.727   3.610  12.978  0.4206 -1.4329 -0.7887
    1TCq1    H314298   0.943   3.506  13.313 -1.2906  2.5352  0.9858
    1TCq1    H414299   1.151   3.683  12.977 -0.4448 -0.6283 -0.2200
    2MPD2     C14300   1.449   3.549  13.382 -0.0300  0.2099  0.0135
    2MPD2    C114301   1.319   3.533  13.424 -0.4831 -0.8150 -1.0420
    2MPD2    C214302   1.304   3.488  13.553  0.4854  0.2135 -0.3627
    2MPD2    C314303   1.410   3.477  13.642 -0.1325  0.1226  0.9446
    2MPD2    C414304   1.536   3.484  13.583  0.4340 -0.3031 -0.4625
    2MPD2    C514305   1.558   3.528  13.457 -0.1636  0.2296  0.8884
    2MPD2     H14306   1.205   3.487  13.597  0.3313 -0.8141 -0.7336
    2MPD2    H114307   1.625   3.450  13.635  0.7584 -0.8687 -1.3813
    2MPD2    H214308   1.467   3.575  13.278  1.6277  0.9977  0.5046
    2MPD2    H314309   1.657   3.542  13.416 -0.1304  1.6569  1.4407
    2MPD2     N14310   1.393   3.427  13.776  0.6974  0.6058  0.2478
    2MPD2    H514311   1.301   3.401  13.808  1.2788 -0.1080  1.3592
    2MPD2    N114312   1.196   3.551  13.349  0.5768  0.1162 -0.6269
    2MPD2    H714313   1.109   3.523  13.393  1.2783  0.2562  0.8417
    3TCq1    O114314   1.110   3.366  14.268  0.7138 -0.4297  0.2537
    3TCq1    C114315   1.161   3.477  14.208  0.0615 -0.1272  0.9601
    3TCq1    O214316   1.095   3.543  14.129 -0.1951 -0.5443 -0.2627
    3TCq1    C214317   1.301   3.450  14.178  0.3839 -0.7155 -0.2273
    3TCq1    C314318   1.400   3.432  14.270  0.3360 -0.1102 -0.1791
    3TCq1    C414319   1.529   3.400  14.229  0.0055 -0.0333  0.5335
    3TCq1    C514320   1.557   3.371  14.098 -0.4439 -0.5241  0.5046
    3TCq1    C614321   1.458   3.402  14.009 -0.2624 -0.3726 -0.0330
    3TCq1    C714322   1.334   3.443  14.049  0.4653  0.6405 -0.6760
    3TCq1    C814323   1.499   3.418  13.866  0.8343 -0.3292 -0.3219
    3TCq1    O414324   1.613   3.460  13.858 -0.5805 -0.1259  0.1252
    3TCq1    C914325   1.639   3.392  14.326 -0.2487  0.7123 -0.0128
    3TCq1    O514326   1.615   3.417  14.448  0.2283  0.5649 -0.5092
    3TCq1    O614327   1.760   3.388  14.287 -0.0381 -0.2131 -0.1249
    3TCq1    H114328   1.175   3.296  14.292  1.8255 -0.7933 -3.8598
    3TCq1    H214329   1.390   3.454  14.376  1.7282  2.2472 -0.5555
    3TCq1    H314330   1.660   3.346  14.078 -0.0891 -0.6739  2.5071
    3TCq1    H414331   1.255   3.457  13.976 -0.0438  2.1024  0.1639
    1MPD2     C14332   0.569   4.082  15.693  0.3843  0.5247 -0.3326
    1MPD2    C114333   0.493   4.055  15.580  0.2080 -0.0510  0.4069
    1MPD2    C214334   0.558   3.996  15.472 -0.5458 -0.8083  0.2021
    1MPD2    C314335   0.693   3.965  15.477  0.9859 -0.1571 -0.3790
    1MPD2    C414336   0.769   3.985  15.592 -0.2532 -0.3372  0.6026
    1MPD2    C514337   0.704   4.050  15.697  0.8445 -0.5209  0.3539
    1MPD2     H14338   0.513   3.993  15.373  2.1203  1.7892 -1.0866
    1MPD2    H114339   0.876   3.971  15.593 -0.3616 -1.2791 -0.2431
    1MPD2    H214340   0.523   4.134  15.776  1.4207  2.2828 -0.8507
    1MPD2    H314341   0.767   4.077  15.781  0.5607 -1.1526  0.7732
    1MPD2     N14342   0.754   3.918  15.357  0.0974 -0.3220 -0.0552
    1MPD2    H514343   0.691   3.907  15.278 -0.3508 -1.5072  0.4546
    1MPD2    N114344   0.351   4.082  15.583  1.1383 -0.1438  0.0768
    1MPD2    H714345   0.310   4.136  15.659  1.0415 -2.5547  1.7637
    2TMC3    C114346   0.121   4.044  15.516 -0.1731 -0.5764  0.4570
    2TMC3    C214347   0.059   3.965  15.417  0.1521 -0.2472  0.4612
    2TMC3    C314348   4.699   4.034  15.329  0.0180 -0.8760 -0.1775
    2TMC3    C414349   0.089   4.177  15.544 -0.1457 -0.8455  0.6226
    2TMC3    C514350   0.016   4.241  15.447 -0.2319 -0.1485 -0.1919
    2TMC3    C614351   4.682   4.169  15.343 -0.2942 -0.2923  0.3104
    2TMC3     C14352   0.263   4.005  15.509  0.3454 -0.4326 -1.0534
    2TMC3     O14353   0.289   3.923  15.421 -0.5333 -0.5333 -0.2844
    2TMC3     H14354   0.061   3.857  15.431 -0.0607 -0.3464 -0.2603
    2TMC3    H114355   0.152   4.235  15.610 -0.3635  0.5835 -0.4259
    2TMC3    H214356   4.644   4.217  15.254 -1.3459 -0.7364  0.5238
    2TMC3    C714357   4.687   4.365  15.491 -0.1756 -0.3777  0.2768
    2TMC3    C814358   4.710   3.968  15.200 -0.2762 -0.4051 -0.0440
    2TMC3    O114359   4.699   4.392  15.611  0.3480 -0.1817  0.0793
    2TMC3    O214360   4.629   3.987  15.118  0.3332 -0.6154  0.0018
    3TCq1    O114361   4.279   0.389  14.560 -0.7413  0.5010  0.4497
    3TCq1    C114362   4.236   0.338  14.678 -0.2400 -0.3319  0.1103
    3TCq1    O214363   4.121   0.299  14.700 -0.4934 -0.2176 -0.0662
    3TCq1    C214364   4.349   0.303  14.766 -0.2753 -0.9194  0.2184
    3TCq1    C314365   4.481   0.306  14.736  0.3934 -0.0718 -0.2353
    3TCq1    C414366   4.577   0.271  14.829  0.3296  0.2502  0.4880
    3TCq1    C514367   4.544   0.240  14.957 -0.1442  0.5767  0.0617
    3TCq1    C614368   4.409   0.227  14.983  0.1264  1.0127  0.0102
    3TCq1    C714369   4.312   0.264  14.891 -0.0627 -0.5213 -0.7642
    3TCq1    C814370   4.376   0.187  15.121 -0.5302 -1.2613 -0.4315
    3TCq1    O414371   4.272   0.225  15.174 -0.3537  0.2372 -0.1117
    3TCq1    C914372   4.716   0.272  14.793 -0.0432 -0.1422 -0.0728
    3TCq1    O514373   0.083   0.253  14.885  0.0114  0.0495  0.6304
    3TCq1    O614374   0.019   0.291  14.675 -0.0545 -0.0357 -0.0840
    3TCq1    H114375   4.367   0.431  14.558 -1.1755  1.4127  0.4087
    3TCq1    H214376   4.505   0.334  14.634 -2.5359 -0.6176 -1.0493
    3TCq1    H314377   4.620   0.212  15.028 -1.2291 -2.8624 -0.1352
    3TCq1    H414378   4.208   0.274  14.920 -0.8944 -1.8515 -3.3086
    4MPD2     C14379   4.371   0.032  15.386 -0.0678  0.6049 -0.3629
    4MPD2    C114380   4.459   0.019  15.280 -0.5092  0.2658 -0.1469
    4MPD2    C214381   4.544   4.633  15.283 -0.1930  0.1000 -0.3960
    4MPD2    C314382   4.560   4.553  15.391  0.1751 -0.5745  0.0678
    4MPD2    C414383   4.473   4.572  15.500 -0.9731 -0.1917  0.1750
    4MPD2    C514384   4.384   4.672  15.492  0.4073 -0.3732  0.6907
    4MPD2     H14385   4.607   4.617  15.196 -0.6499 -1.0255 -0.5193
    4MPD2    H114386   4.473   4.514  15.591 -0.6748  0.6400  0.7081
    4MPD2    H214387   4.302   0.116  15.395  1.5296  1.6300  2.3324
    4MPD2    H314388   4.317   4.673  15.577  0.7373 -1.5579  0.9721
    4MPD2     N14389   4.638   4.438  15.382  0.6354  0.3089  0.9607
    4MPD2    H514390   4.665   4.411  15.288 -0.5146 -0.1625  0.7559
    4MPD2    N114391   4.472   0.102  15.169  0.7598 -0.3191  0.2956
    4MPD2    H714392   4.549   0.082  15.106  0.3841  1.9651 -0.9002
    5TMC2    C114393   0.747   3.782  15.023 -0.3963  0.7915  0.2496
    5TMC2    C214394   0.779   3.652  15.011 -0.0129 -0.6018  0.0048
    5TMC2    C314395   0.869   3.608  15.104 -0.9715 -0.0965 -0.1888
    5TMC2    C414396   0.809   3.866  15.117 -0.5531  0.2386 -0.1134
    5TMC2    C514397   0.888   3.814  15.209 -0.1131  0.2317  0.5247
    5TMC2    C614398   0.930   3.682  15.204 -0.2561 -0.4025 -0.3040
    5TMC2     C14399   0.607   3.811  15.043 -0.2579 -0.0851  0.5399
    5TMC2     O14400   0.584   3.885  15.137  0.5324 -0.5054 -0.3064
    5TMC2     H14401   0.722   3.581  14.952  0.4186 -1.5525  0.7332
    5TMC2    H114402   0.786   3.971  15.128 -0.6887  0.1122  0.8097
    5TMC2    H214403   1.010   3.645  15.267 -1.1199 -0.9440  0.4822
    5TMC2    C714404   0.878   3.872  15.338 -0.6478 -1.0517 -0.1322
    5TMC2    C814405   0.921   3.474  15.069  0.5227 -0.3933 -0.1009
    5TMC2    O114406   0.965   3.867  15.424 -0.8440 -0.1480  0.1051
    5TMC2    O214407   0.913   3.423  14.960 -1.2792  0.2442  0.1940
    5TMC2    O514408   0.936   3.413  15.187 -0.3574  0.0527  0.2682
    5TMC2    H514409   0.921   3.455  15.274 -2.2243  0.1928 -0.1123
    6MPD2     C14410   0.108   3.849  14.955  0.3058 -0.6064  0.4388
    6MPD2    C114411   0.180   3.873  15.069 -0.3564 -0.6865 -0.4417
    6MPD2    C214412   0.312   3.837  15.069  0.0796  0.4520  0.1035
    6MPD2    C314413   0.379   3.787  14.954 -0.6778 -0.0101 -0.2605
    6MPD2    C414414   0.305   3.767  14.844  0.1494 -0.3929  0.1585
    6MPD2    C514415   0.172   3.798  14.844  0.0099 -0.9098 -0.0018
    6MPD2     H14416   0.373   3.842  15.159 -0.4295 -0.6335  0.5186
    6MPD2    H114417   0.352   3.726  14.756  1.2660  1.5432 -0.1460
    6MPD2    H214418   0.001   3.863  14.950  0.4928  0.7254  0.1801
    6MPD2    H314419   0.116   3.785  14.751 -3.3499  0.0042  1.9023
    6MPD2     N14420   0.512   3.756  14.958  0.7784 -0.0969 -0.0024
    6MPD2    H514421   0.551   3.711  14.876 -2.4133 -1.6097 -0.7102
    6MPD2    N114422   0.117   3.923  15.188  0.4214 -0.9290  0.3558
    6MPD2    H714423   0.174   3.918  15.272  0.6160  0.0611  0.2832
  945NH4     N114424   0.472   4.621  15.165  0.6091 -0.3196 -0.1596
  945NH4     H214425   0.457   4.721  15.141 -0.1006  0.2095  2.4558
  945NH4     H314426   0.437   4.568  15.082  2.4898  0.2677 -1.3162
  945NH4     H414427   0.431   4.609  15.260 -0.5557 -1.5024 -0.8027
  945NH4     H514428   0.575   4.613  15.169  0.6798  1.6105  1.7626
  946SOD     NA14429   4.552   2.029  10.059 -0.5302 -0.1269 -0.4487
  947SOD     NA14430   4.323   0.558   7.865  0.2495  0.2165  0.0977
  948SOD     NA14431   1.137   2.437  10.781  0.0576  0.0327 -0.1564
  949SOD     NA14432   1.820   1.298   6.702  0.2290  0.0030  0.0464
  950SOD     NA14433   4.391   0.105   2.303  0.1124 -0.1060  0.1298
  951SOD     NA14434   0.860   2.029  11.411 -0.0089 -0.3332  0.0160
  952SOD     NA14435   0.348   2.556  10.591  0.1879 -0.2668  0.1044
  953SOD     NA14436   1.284   2.842  11.812 -0.3503 -0.1129  0.0949
  954SOD     NA14437   1.931   3.431  14.171 -0.3110 -0.2020 -0.8718
  955SOD     NA14438   0.812   4.709   1.577 -0.5756  0.2657  0.2004
  956SOD     NA14439   3.971   2.820  10.854 -0.1438  0.3546 -0.0711
  957SOD     NA14440   3.426   3.245   2.842  0.1198  0.2277 -0.0043
  958SOD     NA14441   3.444   4.061   4.335 -1.0329 -0.0542  0.0347
  959SOD     NA14442   3.727   4.054  10.061 -0.3393  0.4827 -0.2151
  960SOD     NA14443   3.357   1.887  12.643 -0.1117 -0.0923 -0.3842
  961SOD     NA14444   2.003   1.306  12.056 -0.4027  0.2524 -0.3704
  962SOD     NA14445   3.916   3.847  13.448  0.3878  0.1013 -0.2539
  963SOD     NA14446   2.522   2.761   2.373 -0.5737 -0.4283 -0.0248
  964SOD     NA14447   1.345   1.166  10.523  0.2860 -0.4107 -0.2446
  965SOD     NA14448   0.464   3.514  12.975 -0.3630 -0.1151  0.8227
  966SOD     NA14449   3.394   1.122   0.297  0.5749  0.0634  0.2623
  967SOD     NA14450   1.540   2.762  12.005  0.2362  0.3093  0.0488
  968SOD     NA14451   0.561   4.325   2.247 -0.1580 -0.2079 -0.3078
  969SOD     NA14452   2.150   4.460   0.916  0.1080 -0.2152 -0.0761
  970SOD     NA14453   0.943   1.768   9.732 -0.3664 -0.4697  0.2022
  971SOD     NA14454   1.185   3.139  11.613 -0.1759 -0.3560 -0.4236
  972SOD     NA14455   2.286   0.915   2.316 -1.0369 -0.1213 -0.2212
  973SOD     NA14456   1.238   0.553   3.383  0.5108  0.5163  0.1303
  974SOD     NA14457   2.813   3.953   2.816 -0.2363 -0.1501  0.3317
  975SOD     NA14458   0.766   1.611  11.171 -0.4000 -0.0409  0.3592
  976SOD     NA14459   2.087   3.630  13.951  0.0636  0.0607  0.0519
  977SOD     NA14460   1.009   0.561   0.585 -0.1955 -0.3721  0.3825
  978SOD     NA14461   2.678   0.605  14.198 -0.3894 -0.3481 -0.4134
  979SOD     NA14462   4.329   3.678   1.345  0.3230 -0.0768  0.2640
  980SOD     NA14463   2.663   4.168  15.107 -0.4748  0.2712 -0.7741
  981SOD     NA14464   1.803   1.300  16.795  0.0360  1.0826  0.6020
  982SOD     NA14465   4.162   2.575  13.608  0.3074 -0.1753 -0.3121
  983SOD     NA14466   1.159   1.134   0.725  0.2482  0.0531 -0.4724
  984SOD     NA14467   2.464   2.868   0.960 -0.1939 -0.2143  0.4127
  985SOD     NA14468   0.540   1.897  11.623 -0.3303 -0.1590 -0.0646
  986SOD     NA14469   2.320   1.575  14.786  0.0493 -0.2041 -0.4084
  987SOD     NA14470   1.467   1.527  13.117  0.1957  0.1829  0.3771
  988SOD     NA14471   1.129   4.037  15.451  0.0728  0.3298  0.2835
  989SOD     NA14472   0.249   0.256  14.745  0.0030  0.4146 -0.6606
  990SOD     NA14473   3.329   2.080   0.495  0.5254  0.4714 -0.8440
  991SOD     NA14474   4.089   4.091  16.040 -0.3559  0.5284  0.2852
  992SOD     NA14475   2.160   3.333  13.868 -0.1138 -0.2245  0.1019
  993SOD     NA14476   1.816   3.507  14.492  0.1750  0.1581 -0.3136
  994SOD     NA14477   3.616   1.944  16.234 -0.0960 -0.2358  0.0270
  995SOD     NA14478   1.660   2.928  11.796  0.0663  0.1562  0.1988
  996SOD     NA14479   0.471   3.440  13.297 -0.0790  0.1731 -0.0148
  997SOD     NA14480   3.532   1.357   1.078  0.3078 -0.4480  0.0892
  998SOD     NA14481   1.180   3.875  12.693 -0.0037 -0.2633 -0.2447
  999SOD     NA14482   3.585   3.639  11.192  0.0358  0.0006  0.0398
 1000SOD     NA14483   0.466   2.775  10.399  0.1604  0.0401  0.1248
 1001SOD     NA14484   3.151   4.356  13.489  0.1886 -0.2918 -0.1578
 1002SOD     NA14485   0.533   1.628   3.075  0.1338  0.1148  0.1910
 1003SOD     NA14486   2.777   2.809   9.334 -0.0777 -0.1653  0.2776
 1004SOD     NA14487   3.049   4.535  15.262  0.1775  0.3827  0.2050
 1005SOD     NA14488   2.097   2.441  16.963 -0.2300  0.8431 -0.7057
 1006SOD     NA14489   1.005   3.541  12.347 -0.4315 -0.2254 -0.4487
 1007SOD     NA14490   0.152   3.687   9.090  0.4692  0.2776 -0.4099
 1008SOD     NA14491   4.225   3.419  10.791  0.0660  0.5480  0.0985
 1009SOD     NA14492   2.347   4.393  11.344  0.4540  0.1775 -0.4614
 1010SOD     NA14493   1.563   0.865  10.527  0.6110  0.1212 -0.1294
 1011SOL     OW14494   4.399   4.347   2.129  0.2397  0.5689 -0.3904
 1011SOL    HW114495   4.438   4.315   2.048 -0.7527 -1.0615 -0.2212
 1011SOL    HW214496   4.320   4.293   2.127  0.7344 -0.1761  0.0620
 1012SOL     OW14497   0.213   1.344  16.130 -0.4886 -0.0120 -0.3307
 1012SOL    HW114498   0.203   1.273  16.066  2.2161 -0.0241 -0.7087
 1012SOL    HW214499   0.291   1.320  16.179 -0.7552 -1.1545 -0.4479
 1013SOL     OW14500   0.097   3.965  12.713  1.1818  0.2756  0.5062
 1013SOL    HW114501   0.122   3.997  12.626  0.3176 -1.1774 -0.2710
 1013SOL    HW214502   0.048   3.888  12.684  1.3983  0.6852 -0.9974
 1014SOL     OW14503   0.775   3.052   2.330  0.0932 -0.7830 -0.3558
 1014SOL    HW114504   0.775   3.132   2.278 -0.7205 -1.1934 -1.0030
 1014SOL    HW214505   0.692   3.077   2.371  0.5088  0.8169 -0.4936
 1015SOL     OW14506   0.900   3.726  14.021  0.3220  0.4225 -0.6682
 1015SOL    HW114507   0.948   3.659  14.070  0.5258 -0.7664 -2.4557
 1015SOL    HW214508   0.940   3.805  14.057  2.5465 -1.0632  0.1461
 1016SOL     OW14509   0.355   2.977   1.594  0.1975 -0.1772 -0.8290
 1016SOL    HW114510   0.442   2.976   1.555  0.1891  1.1609 -0.8925
 1016SOL    HW214511   0.362   2.894   1.642  1.0506 -0.1938 -0.9738
 1017SOL     OW14512   3.653   3.197  10.466  0.5204 -0.2721 -0.4072
 1017SOL    HW114513   3.649   3.128  10.533 -3.1347  1.3413  1.0484
 1017SOL    HW214514   3.606   3.156  10.394 -0.8804  1.1050 -0.2813
 1018SOL     OW14515   2.024   2.693   5.203  0.2751  0.2274 -0.0271
 1018SOL    HW114516   2.073   2.692   5.285  0.5268 -1.8794 -0.1991
 1018SOL    HW214517   1.972   2.613   5.210  0.0840  0.2347 -1.2198
 1019SOL     OW14518   4.499   3.116   7.136 -0.3214  0.4327 -0.6840
 1019SOL    HW114519   4.571   3.054   7.142 -1.0453 -0.1713  1.6511
 1019SOL    HW214520   4.534   3.180   7.199 -2.0614  1.3862 -0.6704
 1020SOL     OW14521   1.440   0.955   2.738  0.9129  0.2565 -0.7779
 1020SOL    HW114522   1.482   0.956   2.824  0.9356 -1.6702 -0.7719
 1020SOL    HW214523   1.511   0.920   2.685  0.4803 -1.6724 -0.0709
 1021SOL     OW14524   3.431   1.862  12.431  0.4788 -0.2170 -0.0054
 1021SOL    HW114525   3.524   1.855  12.413 -0.1928  0.3964 -3.6023
 1021SOL    HW214526   3.386   1.814  12.362  0.7445  0.0037 -0.3291
 1022SOL     OW14527   3.254   0.822  10.588  0.4253 -0.0865 -0.6961
 1022SOL    HW114528   3.293   0.799  10.672 -0.1068  0.6204 -0.2560
 1022SOL    HW214529   3.331   0.810  10.532  0.2727 -0.3153 -0.8582
 1023SOL     OW14530   3.350   3.793   7.429 -0.0150  0.5077  0.6583
 1023SOL    HW114531   3.269   3.797   7.378  0.4277 -1.4151 -0.1830
 1023SOL    HW214532   3.403   3.762   7.355 -0.1113  0.8969  0.4196
 1024SOL     OW14533   1.405   3.686  17.645  0.0544  0.1119 -0.2206
 1024SOL    HW114534   1.418   3.601  17.687  0.7706 -0.3309 -1.3400
 1024SOL    HW214535   1.419   3.744   0.030 -0.3399 -0.7305  0.5020
 1025SOL     OW14536   2.392   0.632  11.551 -0.3488 -0.4005  0.0754
 1025SOL    HW114537   2.450   0.558  11.567  1.1312  0.4336 -1.4947
 1025SOL    HW214538   2.456   0.700  11.531 -3.1230  2.6153  1.4333
 1026SOL     OW14539   3.016   0.329  17.613  0.5445 -0.1771  0.2091
 1026SOL    HW114540   3.109   0.309  17.606  0.2823 -1.7120  1.1959
 1026SOL    HW214541   3.028   0.418  17.647 -0.0945  0.2156 -0.5893
 1027SOL     OW14542   1.137   4.405   0.609  0.5690  0.0900 -0.3337
 1027SOL    HW114543   1.217   4.451   0.586  1.4374 -0.1659  2.1715
 1027SOL    HW214544   1.119   4.376   0.520  1.0667  1.4138 -0.8552
 1028SOL     OW14545   0.277   2.899   0.718  0.6279  0.3839 -1.4175
 1028SOL    HW114546   0.184   2.879   0.719  0.6123  0.5512  1.2586
 1028SOL    HW214547   0.301   2.869   0.806 -1.4610 -1.2997 -1.4396
 1029SOL     OW14548   2.943   3.593  12.063  0.5879 -0.2353 -0.4472
 1029SOL    HW114549   2.917   3.509  12.025 -1.2030 -0.6118  1.5981
 1029SOL    HW214550   2.897   3.650  12.001  0.9391  1.4735  0.8585
 1030SOL     OW14551   3.429   0.135   7.509  0.3901 -0.3812 -0.3423
 1030SOL    HW114552   3.482   0.215   7.518  0.5850 -0.6702  1.0327
 1030SOL    HW214553   3.489   0.081   7.457 -0.0156 -0.1262 -1.0730
 1031SOL     OW14554   2.687   2.417   7.780  0.4691 -0.2548  0.3808
 1031SOL    HW114555   2.780   2.439   7.784  0.2824  0.5708  0.2934
 1031SOL    HW214556   2.681   2.354   7.709  2.2691  0.0130 -0.0013
 1032SOL     OW14557   1.650   0.685   3.149  0.5001 -0.2714  0.3535
 1032SOL    HW114558   1.704   0.728   3.083  1.0103  0.6319  1.3643
 1032SOL    HW214559   1.687   0.740   3.218  0.1206  0.9100 -0.4012
 1033SOL     OW14560   3.852   1.788   5.723 -0.0457  0.0273  0.5397
 1033SOL    HW114561   3.885   1.706   5.759 -1.8991 -0.9292  0.0328
 1033SOL    HW214562   3.932   1.837   5.704 -0.9948  0.4150 -2.4382
 1034SOL     OW14563   0.360   4.427   4.044 -0.3108 -0.1068  0.0410
 1034SOL    HW114564   0.412   4.466   4.114  2.6495 -1.4004 -1.4500
 1034SOL    HW214565   0.276   4.406   4.084 -0.6031 -1.3601 -1.2602
 1035SOL     OW14566   2.813   3.698   2.368 -0.0277  1.0415 -0.4395
 1035SOL    HW114567   2.838   3.777   2.321 -0.8496 -0.0605 -2.7389
 1035SOL    HW214568   2.735   3.666   2.323 -0.1193  2.1475 -1.0587
 1036SOL     OW14569   2.021   0.440   2.588  0.1476  0.0274  0.0326
 1036SOL    HW114570   1.930   0.466   2.573 -0.5518 -3.3169 -1.6107
 1036SOL    HW214571   2.062   0.526   2.596  0.3749 -0.1181  0.4411
 1037SOL     OW14572   4.177   4.229   2.051 -0.3873  0.4253 -0.4068
 1037SOL    HW114573   4.081   4.226   2.053 -0.4011  2.3389  2.3736
 1037SOL    HW214574   4.201   4.145   2.011 -2.1091 -0.2390 -0.0728
 1038SOL     OW14575   0.667   4.437  14.664  0.2444  0.1230  0.7479
 1038SOL    HW114576   0.588   4.394  14.631  0.3066 -0.3137  1.1592
 1038SOL    HW214577   0.737   4.399  14.612  0.0918  1.6323 -0.5489
 1039SOL     OW14578   4.239   3.113   4.525 -0.0400  0.5618  0.2866
 1039SOL    HW114579   4.224   3.066   4.442  0.1459  0.7979  0.1182
 1039SOL    HW214580   4.151   3.139   4.551 -0.1966  0.0473  0.2789
 1040SOL     OW14581   1.142   3.812   7.462 -0.9182 -0.1280  0.0461
 1040SOL    HW114582   1.178   3.878   7.522 -0.1310 -1.1124  0.6579
 1040SOL    HW214583   1.139   3.743   7.529  0.2366 -0.3797 -0.1606
 1041SOL     OW14584   3.285   0.481   8.088 -0.5888  0.5777  0.4242
 1041SOL    HW114585   3.241   0.460   8.170 -0.4564  1.9488  0.8485
 1041SOL    HW214586   3.319   0.568   8.109 -1.4616  1.0790 -0.2425
 1042SOL     OW14587   2.274   0.197  10.034 -0.2229 -0.0167  0.3916
 1042SOL    HW114588   2.350   0.238   9.991  0.7619 -2.5761 -0.2813
 1042SOL    HW214589   2.278   0.229  10.124  0.4900  1.0289 -0.0077
 1043SOL     OW14590   2.205   4.144   2.011 -0.3559 -0.2214  0.1021
 1043SOL    HW114591   2.162   4.173   1.931  1.5790  1.7745 -0.2194
 1043SOL    HW214592   2.169   4.056   2.008  0.5420 -0.6243  1.0643
 1044SOL     OW14593   1.867   1.086  16.419  0.1418  0.1887 -0.6590
 1044SOL    HW114594   1.822   1.167  16.394  1.1148  1.2801  1.1255
 1044SOL    HW214595   1.908   1.072  16.334  0.6799  0.8404 -0.5147
 1045SOL     OW14596   0.599   4.071  10.760 -0.4352 -0.3738  0.0365
 1045SOL    HW114597   0.541   4.048  10.688  0.2545  1.0625 -0.9846
 1045SOL    HW214598   0.678   4.101  10.715  0.3246 -3.0357 -0.3900
 1046SOL     OW14599   1.946   3.497   3.785 -0.4399  0.0003  0.3706
 1046SOL    HW114600   1.950   3.401   3.791 -0.1336  0.1179  1.9153
 1046SOL    HW214601   1.966   3.516   3.876 -2.9224  0.9156  0.7008
 1047SOL     OW14602   4.668   0.171  10.942 -0.0952 -0.0668  0.6003
 1047SOL    HW114603   4.643   0.257  10.976  1.2149  0.6882 -0.3456
 1047SOL    HW214604   4.615   0.113  10.997  0.4905 -2.1275 -1.0281
 1048SOL     OW14605   0.115   0.473   7.497 -0.0381 -0.5033 -0.3128
 1048SOL    HW114606   0.059   0.434   7.565  0.7064 -0.0548  0.5493
 1048SOL    HW214607   0.194   0.504   7.541 -0.4477  0.6571 -0.3975
 1049SOL     OW14608   4.073   2.032   8.540  0.3725  0.0074 -0.4556
 1049SOL    HW114609   4.152   2.061   8.494  1.6704 -0.5503  1.4451
 1049SOL    HW214610   4.006   2.097   8.519 -1.2443 -1.3658  0.4625
 1050SOL     OW14611   3.051   4.679   5.026  0.2102  0.5049  0.3177
 1050SOL    HW114612   3.013   4.676   5.114 -1.7169  0.9354 -0.5092
 1050SOL    HW214613   3.135   4.639   5.050 -0.4845 -0.8230  0.5171
 1051SOL     OW14614   4.148   3.999  10.615  0.1800 -0.0866  0.0922
 1051SOL    HW114615   4.221   4.034  10.563 -0.6921 -0.3162 -1.2845
 1051SOL    HW214616   4.185   3.936  10.676  4.0236 -0.1734 -2.2975
 1052SOL     OW14617   3.090   3.461  16.816  0.1417  0.1705 -0.5716
 1052SOL    HW114618   3.057   3.455  16.726 -0.3980 -3.1271 -0.1383
 1052SOL    HW214619   3.079   3.375  16.855 -0.3352 -0.1523 -1.4200
 1053SOL     OW14620   4.508   1.247   4.128  0.2190 -0.6331  0.2910
 1053SOL    HW114621   4.415   1.224   4.127  0.2740 -0.6498 -2.4482
 1053SOL    HW214622   4.523   1.215   4.217  0.4470 -1.1624  0.0643
 1054SOL     OW14623   4.334   2.477   2.142  0.1666 -0.2368 -0.0345
 1054SOL    HW114624   4.414   2.455   2.094  1.4063  0.1282  1.8393
 1054SOL    HW214625   4.336   2.411   2.211  1.2563  0.6739  0.8164
 1055SOL     OW14626   1.975   4.583   0.588 -0.5416  0.4635  0.0726
 1055SOL    HW114627   1.879   4.581   0.581 -0.4500  0.7016 -1.2463
 1055SOL    HW214628   1.990   4.560   0.680  1.4385 -0.5454 -0.5105
 1056SOL     OW14629   1.191   2.702   4.568 -0.4138  0.6033 -0.6331
 1056SOL    HW114630   1.185   2.631   4.504  0.4186 -0.3491  0.3516
 1056SOL    HW214631   1.157   2.659   4.646  0.4347  0.5329 -0.3033
 1057SOL     OW14632   4.639   4.469   9.986 -0.1566 -0.3373  0.1115
 1057SOL    HW114633   0.001   4.514   9.977  0.9214 -1.7091  3.4665
 1057SOL    HW214634   4.583   4.512   9.921  2.4920  1.1600 -1.1547
 1058SOL     OW14635   0.830   0.123   4.518 -0.4406  0.1704 -0.1499
 1058SOL    HW114636   0.776   0.184   4.469  0.0752 -0.4629 -1.5117
 1058SOL    HW214637   0.785   0.116   4.602 -0.7088 -0.1630 -0.3208
 1059SOL     OW14638   3.554   3.372   9.086 -0.4181 -0.2444  0.2373
 1059SOL    HW114639   3.645   3.398   9.068  0.1287 -1.4215  1.2943
 1059SOL    HW214640   3.519   3.396   9.000 -0.4333 -0.3348  0.2186
 1060SOL     OW14641   4.179   0.504   4.201 -0.0468 -0.4774  0.0108
 1060SOL    HW114642   4.246   0.436   4.199  0.6210  0.2472 -1.5597
 1060SOL    HW214643   4.141   0.486   4.115 -0.2185  0.7513 -0.1734
 1061SOL     OW14644   0.835   2.231   3.633 -0.8096 -0.4218  0.1873
 1061SOL    HW114645   0.863   2.241   3.542  0.5945  1.1315  0.7973
 1061SOL    HW214646   0.809   2.322   3.645  0.5190 -0.4423  3.0397
 1062SOL     OW14647   3.595   0.360   2.281  0.2536 -0.0242 -0.1620
 1062SOL    HW114648   3.504   0.360   2.254  0.9389  1.7460 -2.4303
 1062SOL    HW214649   3.575   0.290   2.344  0.9810  0.0427  0.1497
 1063SOL     OW14650   2.641   3.860   6.413  0.1052 -0.1864  0.6107
 1063SOL    HW114651   2.633   3.767   6.434  1.3951 -0.1836  1.1061
 1063SOL    HW214652   2.719   3.853   6.357 -0.3720 -4.5084  0.4892
 1064SOL     OW14653   0.871   4.227   8.106 -0.2481 -0.2966  0.2343
 1064SOL    HW114654   0.880   4.152   8.047 -1.9085 -1.1421  1.0739
 1064SOL    HW214655   0.783   4.210   8.138 -0.0644 -0.7317  0.5054
 1065SOL     OW14656   2.453   4.430   2.488  0.4784  0.2094  0.3895
 1065SOL    HW114657   2.398   4.355   2.514  2.0814 -0.7657  0.9309
 1065SOL    HW214658   2.403   4.491   2.543  2.8577  1.2599  1.3587
 1066SOL     OW14659   3.522   3.465   2.273 -0.4407  0.7126 -0.3438
 1066SOL    HW114660   3.596   3.520   2.298 -0.4109  0.0624  0.9806
 1066SOL    HW214661   3.556   3.417   2.198 -1.4053  0.7933 -0.8454
 1067SOL     OW14662   0.060   4.559  15.023 -0.5240  0.2624  0.4414
 1067SOL    HW114663   4.716   4.601  14.968 -1.5418 -1.9786 -0.0389
 1067SOL    HW214664   0.090   4.645  15.054 -0.8006  0.8260 -0.8496
 1068SOL     OW14665   1.339   2.810  10.030 -0.2631 -0.7859 -0.4735
 1068SOL    HW114666   1.363   2.748   9.962  2.0149 -0.2911 -0.1135
 1068SOL    HW214667   1.428   2.824  10.061  0.1901 -0.1087 -2.0961
 1069SOL     OW14668   3.266   1.674  12.631 -0.3456 -0.2211  0.6410
 1069SOL    HW114669   3.171   1.663  12.628 -0.0757 -2.5732  0.6169
 1069SOL    HW214670   3.286   1.626  12.711  1.3406  0.3453  0.5536
 1070SOL     OW14671   4.098   1.665   0.819  0.8541 -0.5538  0.1798
 1070SOL    HW114672   4.109   1.683   0.725 -0.3394 -2.1279 -0.2701
 1070SOL    HW214673   4.181   1.629   0.851  0.2400 -4.2810 -2.3917
 1071SOL     OW14674   0.338   3.032   8.998 -0.2485  0.1054 -0.0202
 1071SOL    HW114675   0.285   3.105   9.030 -1.0067  0.9183 -3.1491
 1071SOL    HW214676   0.287   2.957   9.029  1.0694 -0.4201  0.9197
 1072SOL     OW14677   0.419   1.015   1.918 -0.1404 -0.2320 -0.0880
 1072SOL    HW114678   0.422   1.098   1.966 -3.1639 -0.0643 -0.1573
 1072SOL    HW214679   0.492   1.022   1.858 -0.7433  0.0942 -0.7806
 1073SOL     OW14680   3.381   0.948   6.372 -0.5258  0.1543 -0.4289
 1073SOL    HW114681   3.326   0.874   6.398 -0.6563  0.3917 -0.0445
 1073SOL    HW214682   3.444   0.952   6.444  0.1345  2.2868 -1.1264
 1074SOL     OW14683   2.900   3.586   7.163 -0.4458  0.4816  0.1882
 1074SOL    HW114684   2.985   3.545   7.179 -1.3700 -1.8363 -0.8814
 1074SOL    HW214685   2.917   3.679   7.143  1.1249  0.5100  1.6949
 1075SOL     OW14686   1.848   0.312   4.567 -0.2343 -0.0608 -0.0633
 1075SOL    HW114687   1.774   0.276   4.519 -1.0699 -1.1295  2.0475
 1075SOL    HW214688   1.828   0.406   4.562 -0.5524 -0.1768 -0.9550
 1076SOL     OW14689   1.199   2.056   6.213 -1.0320  0.6234 -0.2242
 1076SOL    HW114690   1.292   2.039   6.193 -0.8063  3.1597 -1.3256
 1076SOL    HW214691   1.192   2.146   6.180 -1.2694  0.1996 -1.3124
 1077SOL     OW14692   3.960   1.318  15.585 -0.2489 -0.4903  0.6549
 1077SOL    HW114693   4.006   1.290  15.664 -0.3425  0.1650  0.9390
 1077SOL    HW214694   3.887   1.362  15.630  0.5849 -1.1020  2.6180
 1078SOL     OW14695   0.857   4.473   4.889  0.4484 -0.4654 -0.4681
 1078SOL    HW114696   0.941   4.463   4.932  0.8035  1.6725 -0.6606
 1078SOL    HW214697   0.880   4.517   4.807 -2.9320  0.2072 -1.0762
 1079SOL     OW14698   0.227   3.491   2.097 -0.2899  0.3319  0.5014
 1079SOL    HW114699   0.272   3.452   2.022 -1.8227  1.7739 -1.1860
 1079SOL    HW214700   0.294   3.483   2.164 -0.6850 -1.4399  0.6934
 1080SOL     OW14701   0.115   3.131  12.423 -0.1544  0.2333  0.0077
 1080SOL    HW114702   0.025   3.130  12.454 -0.1801  0.1241 -0.0698
 1080SOL    HW214703   0.150   3.204  12.474  0.7658  0.6483 -1.2208
 1081SOL     OW14704   4.341   0.672  13.199  0.0438  0.0213  0.1278
 1081SOL    HW114705   4.376   0.621  13.125  0.5603  3.4060 -1.9435
 1081SOL    HW214706   4.262   0.717  13.172 -0.0137 -0.9607 -1.3372
 1082SOL     OW14707   4.073   0.745   6.326 -0.6230 -0.1910  0.0801
 1082SOL    HW114708   4.164   0.745   6.298 -0.1918  0.7712  1.5080
 1082SOL    HW214709   4.037   0.672   6.275  0.2453  0.3417 -1.3078
 1083SOL     OW14710   1.808   2.821  15.324 -0.3035 -0.1842 -0.0306
 1083SOL    HW114711   1.765   2.741  15.356  1.3718 -1.7926 -1.7399
 1083SOL    HW214712   1.818   2.803  15.231  0.2830 -3.6186  0.6752
 1084SOL     OW14713   0.375   0.079  16.323 -0.1495 -0.4665 -0.2490
 1084SOL    HW114714   0.423   0.131  16.259 -2.5048  2.1070  0.0396
 1084SOL    HW214715   0.427   0.094  16.402 -2.1677 -1.4448  1.2766
 1085SOL     OW14716   2.849   3.680   4.950 -0.3187  0.3666 -0.2562
 1085SOL    HW114717   2.944   3.671   4.954 -0.1581  2.1088 -0.1263
 1085SOL    HW214718   2.850   3.717   4.861 -0.7778 -0.3068 -0.5444
 1086SOL     OW14719   1.841   0.799  16.228 -0.0733  0.2394 -0.2243
 1086SOL    HW114720   1.796   0.758  16.302  0.0083  2.5331  1.1202
 1086SOL    HW214721   1.773   0.863  16.205 -1.4743 -0.9599  0.6100
 1087SOL     OW14722   2.668   4.236   6.418 -0.2377  0.2033 -0.1791
 1087SOL    HW114723   2.582   4.202   6.442  0.6258 -1.4603  0.5478
 1087SOL    HW214724   2.645   4.304   6.355  2.6609 -0.7945 -2.3422
 1088SOL     OW14725   4.111   4.089   6.397  0.4050 -0.4011 -0.2187
 1088SOL    HW114726   4.088   4.038   6.320  1.2176 -2.0938  0.6654
 1088SOL    HW214727   4.040   4.062   6.455  0.7522 -0.8879 -0.0197
 1089SOL     OW14728   2.057   1.012   7.292 -0.1814  0.0409 -0.8902
 1089SOL    HW114729   2.052   1.067   7.213 -1.0693  2.6719  0.9902
 1089SOL    HW214730   2.069   1.074   7.364 -0.2887  2.1154 -2.6369
 1090SOL     OW14731   3.875   1.395   3.215  0.3480 -0.1875  0.0668
 1090SOL    HW114732   3.838   1.467   3.266 -2.4450 -1.0853 -0.6868
 1090SOL    HW214733   3.886   1.437   3.130  0.3979  0.6074  0.4717
 1091SOL     OW14734   1.328   3.009  10.279 -0.6350 -0.4788 -0.1329
 1091SOL    HW114735   1.384   3.072  10.233 -1.0901 -0.2439 -0.3793
 1091SOL    HW214736   1.346   2.941  10.215  0.4200  0.1281 -0.4720
 1092SOL     OW14737   2.279   1.944   0.035 -0.6332 -0.3672  0.6300
 1092SOL    HW114738   2.199   1.912  17.683  0.9515 -2.8784 -0.4325
 1092SOL    HW214739   2.317   1.989  17.650 -0.8789 -0.2967  0.5484
 1093SOL     OW14740   1.151   3.901   0.093 -0.2991 -0.5215  0.0644
 1093SOL    HW114741   1.240   3.937   0.090 -0.8609  0.6613 -1.9741
 1093SOL    HW214742   1.141   3.896   0.188  1.1388  2.2567  0.3627
 1094SOL     OW14743   3.501   0.071  16.994 -0.1937 -0.6061 -0.7807
 1094SOL    HW114744   3.409   0.098  16.999  0.0481  0.0219  0.1841
 1094SOL    HW214745   3.525   0.113  17.076  0.2539  0.6966 -1.5625
 1095SOL     OW14746   0.704   1.501  15.211  0.3126 -0.3803 -0.1575
 1095SOL    HW114747   0.698   1.455  15.295 -0.3228 -2.0014 -1.0937
 1095SOL    HW214748   0.626   1.468  15.167 -0.1100  0.7511 -0.2529
 1096SOL     OW14749   4.408   2.433   6.921  0.0510  0.0878  0.2502
 1096SOL    HW114750   4.323   2.398   6.947 -0.0938 -0.5604 -1.0986
 1096SOL    HW214751   4.391   2.527   6.923  0.1417  0.1298 -0.8078
 1097SOL     OW14752   3.894   2.544   7.947 -0.2757  1.1181  0.0938
 1097SOL    HW114753   3.980   2.585   7.954  0.2966  0.2029 -1.6558
 1097SOL    HW214754   3.922   2.454   7.933 -2.1847  0.4687  0.3896
 1098SOL     OW14755   4.635   4.423   5.949 -0.2125  1.2711 -0.0230
 1098SOL    HW114756   4.627   4.419   5.854 -0.4842  0.6031  0.0308
 1098SOL    HW214757   4.543   4.430   5.974 -0.2365 -2.2112  0.8122
 1099SOL     OW14758   3.485   4.310   4.964  0.4797 -0.2825 -0.7293
 1099SOL    HW114759   3.399   4.307   4.920 -0.3888  1.1726  0.8944
 1099SOL    HW214760   3.506   4.403   4.955  0.4797 -0.3203 -1.1390
 1100SOL     OW14761   3.267   2.247   0.350 -1.0379  0.1004 -0.2185
 1100SOL    HW114762   3.329   2.293   0.293 -0.1622 -1.6478 -0.6899
 1100SOL    HW214763   3.199   2.311   0.372 -0.9128  0.4551 -0.8775
 1101SOL     OW14764   2.654   0.500   9.078 -0.1040  0.4166 -0.0943
 1101SOL    HW114765   2.746   0.525   9.071 -0.2529  1.9189  3.2582
 1101SOL    HW214766   2.656   0.405   9.065  0.8852  0.5915 -1.2021
 1102SOL     OW14767   3.589   2.680   4.169  0.0117  0.3425 -0.1098
 1102SOL    HW114768   3.627   2.718   4.090 -0.9654  0.1673 -0.6611
 1102SOL    HW214769   3.610   2.748   4.233  1.5114 -1.0863  0.9249
 1103SOL     OW14770   0.916   1.917   8.215  0.3208  0.3603 -0.5569
 1103SOL    HW114771   0.897   1.960   8.298  0.2207 -0.2061 -0.2833
 1103SOL    HW214772   1.002   1.877   8.226 -0.6132 -2.0036 -1.8618
 1104SOL     OW14773   0.204   0.553   2.762  0.2890  0.0053 -0.2211
 1104SOL    HW114774   0.269   0.612   2.723 -0.1545 -0.6314 -1.9535
 1104SOL    HW214775   0.121   0.574   2.718 -0.1822 -0.3880  0.4860
 1105SOL     OW14776   0.491   3.565   7.339 -0.4270 -0.1622  0.4748
 1105SOL    HW114777   0.447   3.481   7.327  0.6344 -0.1692 -3.1869
 1105SOL    HW214778   0.518   3.568   7.431 -0.2924  0.2327  0.4212
 1106SOL     OW14779   2.863   0.217   8.031  0.6600  0.1762 -0.1117
 1106SOL    HW114780   2.852   0.129   7.996  3.0631 -0.2886  0.2883
 1106SOL    HW214781   2.870   0.198   8.125  2.2751  1.9540  0.1306
 1107SOL     OW14782   0.683   2.651   3.444  0.0449  0.5235 -0.5382
 1107SOL    HW114783   0.604   2.703   3.430  0.3087  0.6628 -1.5286
 1107SOL    HW214784   0.752   2.717   3.449  2.3315 -2.0548  1.9496
 1108SOL     OW14785   1.650   0.035   8.301  0.6251  0.3966  0.7182
 1108SOL    HW114786   1.675   4.665   8.308 -1.8686 -0.4668 -1.4738
 1108SOL    HW214787   1.729   0.081   8.271  0.8162 -0.5159 -0.1577
 1109SOL     OW14788   0.154   2.210  10.146  0.2818 -0.2334  0.3854
 1109SOL    HW114789   0.160   2.294  10.101  1.8742 -1.0323 -0.8967
 1109SOL    HW214790   0.080   2.165  10.106 -0.5916  0.5862  1.0776
 1110SOL     OW14791   4.285   2.709   2.267 -0.5652  0.0835  0.0512
 1110SOL    HW114792   4.286   2.620   2.232  2.2850  0.0383  0.2683
 1110SOL    HW214793   4.355   2.703   2.331 -1.2764  0.1297  0.8333
 1111SOL     OW14794   2.168   4.235   0.895 -0.6766  0.2668  0.5439
 1111SOL    HW114795   2.119   4.189   0.827  0.6321 -0.2466 -0.0453
 1111SOL    HW214796   2.231   4.171   0.927 -0.9182  0.2304  0.9448
 1112SOL     OW14797   0.228   4.161   4.863 -0.2037 -0.0872  0.0441
 1112SOL    HW114798   0.251   4.251   4.886 -1.0201 -0.4904  2.3717
 1112SOL    HW214799   0.318   4.127   4.860 -0.5714 -1.1990  1.8223
 1113SOL     OW14800   3.114   3.096  13.769 -0.1046  0.0642  0.3520
 1113SOL    HW114801   3.023   3.070  13.752 -0.0557 -0.4448  0.8766
 1113SOL    HW214802   3.124   3.099  13.865  1.1122 -0.9689  0.2507
 1114SOL     OW14803   1.423   1.617  12.891 -0.0676  0.2498 -0.0322
 1114SOL    HW114804   1.473   1.565  12.828 -1.2672  0.1396 -0.8829
 1114SOL    HW214805   1.426   1.701  12.847  0.1463 -0.5815 -1.6007
 1115SOL     OW14806   4.580   2.155   7.495  0.4954  0.3973 -0.2444
 1115SOL    HW114807   4.668   2.134   7.463  0.6375  1.1018 -0.3198
 1115SOL    HW214808   4.539   2.069   7.489  2.0685 -0.2474 -1.6796
 1116SOL     OW14809   3.711   2.051   0.702  0.3986  0.4189 -0.6770
 1116SOL    HW114810   3.709   2.061   0.797 -0.0366  1.5288 -0.8011
 1116SOL    HW214811   3.631   2.098   0.679 -1.2003 -0.1327  3.8417
 1117SOL     OW14812   1.410   3.362   5.149 -0.2197 -0.2585  0.5899
 1117SOL    HW114813   1.322   3.331   5.172 -0.5040 -0.2400 -0.4691
 1117SOL    HW214814   1.419   3.312   5.068 -2.4425 -2.3605  1.6401
 1118SOL     OW14815   1.979   2.498  10.483 -0.4276 -0.2157  0.5741
 1118SOL    HW114816   1.946   2.524  10.396 -0.7415  0.7861  0.9873
 1118SOL    HW214817   2.029   2.577  10.503 -0.1137 -0.1400 -0.4751
 1119SOL     OW14818   4.100   2.064   2.420  0.3505  0.2756  0.0529
 1119SOL    HW114819   4.134   1.975   2.415  0.9464  0.5024  0.0949
 1119SOL    HW214820   4.009   2.049   2.393  0.1630  2.4862 -0.5174
 1120SOL     OW14821   1.717   0.645   4.928 -0.2595  0.3963 -0.3299
 1120SOL    HW114822   1.653   0.624   4.996  1.4025 -0.8686  0.8514
 1120SOL    HW214823   1.687   0.586   4.859  0.4838  1.9429 -1.9739
 1121SOL     OW14824   2.485   2.935   4.509 -0.2878 -0.1302  0.2079
 1121SOL    HW114825   2.413   2.891   4.554 -1.9404  3.8871  1.5343
 1121SOL    HW214826   2.548   2.863   4.513 -1.1486 -0.7394  2.9604
 1122SOL     OW14827   0.802   1.963   1.794  0.7221  0.2412  0.0442
 1122SOL    HW114828   0.771   2.026   1.729 -1.2037  1.0695  1.7585
 1122SOL    HW214829   0.795   2.021   1.870 -1.0293 -0.2745  0.2746
 1123SOL     OW14830   2.838   3.591  15.397  0.4894  0.4083  0.5548
 1123SOL    HW114831   2.838   3.498  15.422 -1.5262 -0.1463 -1.4818
 1123SOL    HW214832   2.833   3.590  15.301  0.3278 -1.0139  0.5750
 1124SOL     OW14833   1.040   0.099  14.308  0.6069  0.0985  0.3828
 1124SOL    HW114834   1.065   0.080  14.398 -0.5934 -0.6804  0.5450
 1124SOL    HW214835   1.042   0.011  14.271 -1.5010 -0.6619  2.0448
 1125SOL     OW14836   1.429   1.875   3.513  0.1957 -0.1070  0.3227
 1125SOL    HW114837   1.414   1.792   3.558 -0.0119  0.8409  2.0250
 1125SOL    HW214838   1.365   1.926   3.563  0.3940 -0.3597  0.8350
 1126SOL     OW14839   4.325   3.494   9.566 -0.1565  0.4089  0.2812
 1126SOL    HW114840   4.321   3.585   9.539  0.7058  0.6109  0.8328
 1126SOL    HW214841   4.284   3.461   9.485  0.6643  0.8576 -0.3182
 1127SOL     OW14842   3.336   1.781   5.292 -0.5937  0.1382  0.3281
 1127SOL    HW114843   3.342   1.744   5.380  2.2413  0.3541  0.2146
 1127SOL    HW214844   3.256   1.833   5.291 -1.7404 -1.5933  2.0592
 1128SOL     OW14845   1.007   3.309  16.804 -0.2946  0.0518  0.4709
 1128SOL    HW114846   1.011   3.309  16.900 -2.0649 -0.2676  0.5415
 1128SOL    HW214847   0.946   3.236  16.795 -0.3044  0.2429 -0.9756
 1129SOL     OW14848   0.843   1.507   1.645 -0.3838  0.2972 -0.0095
 1129SOL    HW114849   0.889   1.501   1.562  1.5211 -0.0254  1.0504
 1129SOL    HW214850   0.760   1.544   1.616 -0.1471 -0.5845 -1.7688
 1130SOL     OW14851   3.926   3.109   8.028 -0.2890 -0.0580 -0.0187
 1130SOL    HW114852   3.988   3.133   7.959 -1.9198  2.9748 -0.4461
 1130SOL    HW214853   3.979   3.127   8.106  0.2539  2.8514 -1.0476
 1131SOL     OW14854   3.001   4.574   9.274  0.4668  0.4958  0.1414
 1131SOL    HW114855   3.080   4.594   9.222  0.2710 -3.0680 -1.5264
 1131SOL    HW214856   3.040   4.571   9.361  1.2111  0.5112 -0.1885
 1132SOL     OW14857   2.273   3.380   6.458 -0.0297 -1.0227  0.7359
 1132SOL    HW114858   2.295   3.472   6.444  1.9613 -1.3625  1.6547
 1132SOL    HW214859   2.361   3.347   6.440  0.3102  0.0362  0.4593
 1133SOL     OW14860   3.383   0.363  15.313 -0.0580  0.0056  0.0543
 1133SOL    HW114861   3.358   0.334  15.401 -0.8740 -1.6079 -0.7100
 1133SOL    HW214862   3.479   0.358  15.315 -0.0580  0.2561  0.6835
 1134SOL     OW14863   4.363   1.527  13.417 -0.0967 -0.1249 -0.2113
 1134SOL    HW114864   4.319   1.442  13.429 -0.6937  0.2324  0.1477
 1134SOL    HW214865   4.325   1.551  13.333 -0.0860 -1.5939 -0.6398
 1135SOL     OW14866   3.468   1.879   2.889  0.1427 -0.3561 -0.3509
 1135SOL    HW114867   3.449   1.874   2.795  0.9348 -1.4810 -0.4552
 1135SOL    HW214868   3.382   1.854   2.921  0.9075 -1.3006  0.9530
 1136SOL     OW14869   1.779   0.545  16.797  0.8266  1.0705 -0.2249
 1136SOL    HW114870   1.764   0.488  16.872  1.2435 -0.6521 -1.4461
 1136SOL    HW214871   1.719   0.612  16.828 -1.1048 -0.0386 -1.6142
 1137SOL     OW14872   2.739   3.978   8.585  0.5538  0.1785  0.2187
 1137SOL    HW114873   2.779   3.891   8.581 -1.0120 -0.5699  0.7766
 1137SOL    HW214874   2.660   3.950   8.539  1.2454  0.6358 -1.2377
 1138SOL     OW14875   0.717   1.180   5.131  0.3891 -0.7818  0.1369
 1138SOL    HW114876   0.663   1.259   5.138  0.8026 -0.5309  0.4889
 1138SOL    HW214877   0.801   1.209   5.167  0.8158  0.9878 -2.2717
 1139SOL     OW14878   2.919   4.264   7.698 -0.3915  0.0225  0.2286
 1139SOL    HW114879   2.962   4.180   7.714 -0.9129 -0.1983  0.4946
 1139SOL    HW214880   2.833   4.239   7.663 -0.7860 -0.1742  1.3626
 1140SOL     OW14881   2.343   1.571   4.504  0.3128 -0.2931 -0.0605
 1140SOL    HW114882   2.371   1.528   4.584  0.9201  0.0219 -0.0975
 1140SOL    HW214883   2.425   1.571   4.453  0.3913 -0.2902  0.0652
 1141SOL     OW14884   1.256   2.028  11.963 -0.4795  0.4889 -0.5580
 1141SOL    HW114885   1.288   2.004  12.050 -0.6178 -2.3102 -1.2774
 1141SOL    HW214886   1.235   2.121  11.952  0.2165  0.8163  0.7962
 1142SOL     OW14887   0.363   0.935   7.496 -0.2784  0.1486  0.3289
 1142SOL    HW114888   0.433   0.929   7.432 -0.5984  0.8369 -0.0863
 1142SOL    HW214889   0.307   0.871   7.453 -0.3767  0.6054 -0.2140
 1143SOL     OW14890   1.574   1.169   9.620  0.3597  0.2377 -0.1156
 1143SOL    HW114891   1.506   1.102   9.623  0.3897  0.2419  0.7738
 1143SOL    HW214892   1.527   1.239   9.665 -0.5660 -0.4318 -0.0290
 1144SOL     OW14893   4.025   2.318   6.903  0.2653 -0.6278  0.2591
 1144SOL    HW114894   3.977   2.267   6.838 -1.9022  0.1063  1.2895
 1144SOL    HW214895   4.048   2.402   6.861 -1.3588  0.8994  2.4407
 1145SOL     OW14896   2.564   1.975   1.269  0.2213  0.1346  0.4939
 1145SOL    HW114897   2.570   1.950   1.361 -1.2636  0.0337  0.5660
 1145SOL    HW214898   2.471   1.999   1.266  0.0766 -0.1339  3.3338
 1146SOL     OW14899   1.569   4.329   0.453  0.2549 -0.6334  0.3986
 1146SOL    HW114900   1.651   4.372   0.479 -0.2965  1.1806 -0.8156
 1146SOL    HW214901   1.580   4.328   0.357 -2.6825 -0.8485  0.0627
 1147SOL     OW14902   2.216   1.686   3.872  1.0170 -0.1414  0.2714
 1147SOL    HW114903   2.261   1.770   3.878 -0.3510  0.7010 -1.3110
 1147SOL    HW214904   2.224   1.660   3.780  1.6196 -0.2537  0.3583
 1148SOL     OW14905   3.957   3.690   1.424 -0.1085  0.4207  0.4207
 1148SOL    HW114906   3.911   3.760   1.378 -1.4975  0.0628  1.2648
 1148SOL    HW214907   4.019   3.668   1.355  0.4342 -1.9591  1.6798
 1149SOL     OW14908   4.370   3.639  13.270  0.3157  0.4442 -0.0634
 1149SOL    HW114909   4.282   3.620  13.239 -0.5196 -0.3980  2.8071
 1149SOL    HW214910   4.390   3.566  13.329  0.2541 -0.3191 -1.0053
 1150SOL     OW14911   1.615   2.469   8.433  0.3829  0.0600 -0.2167
 1150SOL    HW114912   1.543   2.461   8.370  2.4896 -2.4245 -2.3011
 1150SOL    HW214913   1.587   2.387   8.474 -1.5307 -0.5996 -2.8864
 1151SOL     OW14914   1.732   0.543  16.109 -0.3290  0.4916  0.2638
 1151SOL    HW114915   1.815   0.590  16.099 -0.2856  0.4843  0.5629
 1151SOL    HW214916   1.673   0.616  16.094 -1.0590 -0.2249 -0.3403
 1152SOL     OW14917   0.694   2.806   2.519 -0.2078  0.0880 -0.0446
 1152SOL    HW114918   0.651   2.865   2.456 -1.6802 -1.4783 -0.5092
 1152SOL    HW214919   0.684   2.857   2.600 -0.1319 -0.7746  0.5114
 1153SOL     OW14920   1.928   2.732   7.593 -0.4409 -0.1654 -0.2515
 1153SOL    HW114921   2.016   2.708   7.566 -0.0629  1.9840 -0.8717
 1153SOL    HW214922   1.944   2.779   7.675  0.4572  1.3368 -1.3108
 1154SOL     OW14923   3.127   2.310   1.139 -0.3766  0.7156 -0.7973
 1154SOL    HW114924   3.075   2.316   1.219 -1.4673 -2.2292 -1.3069
 1154SOL    HW214925   3.215   2.287   1.171 -0.6957  1.4016  0.5946
 1155SOL     OW14926   0.283   0.708   4.715  0.5484 -0.3682  0.0722
 1155SOL    HW114927   0.278   0.686   4.622  1.2961 -0.6652  0.0993
 1155SOL    HW214928   0.283   0.802   4.698  1.2048 -0.4978 -0.6662
 1156SOL     OW14929   3.477   2.734   1.238  0.0350  0.0572 -0.1834
 1156SOL    HW114930   3.495   2.684   1.159 -1.1416  0.3818 -0.6629
 1156SOL    HW214931   3.523   2.818   1.230  0.0582  0.0046 -0.6202
 1157SOL     OW14932   4.203   2.807   1.560  0.1012  0.1347  0.5542
 1157SOL    HW114933   4.208   2.863   1.637 -0.4266  1.3550 -0.2953
 1157SOL    HW214934   4.108   2.809   1.551 -0.0452 -1.3045  1.8058
 1158SOL     OW14935   3.817   3.252   5.369 -0.1211  0.0393  0.3765
 1158SOL    HW114936   3.806   3.187   5.300 -0.1741 -0.0294  0.4497
 1158SOL    HW214937   3.747   3.229   5.431  0.5055 -0.0913  1.0363
 1159SOL     OW14938   2.824   1.048  13.667  0.2050  0.2683  0.6021
 1159SOL    HW114939   2.759   1.079  13.730 -1.0083 -1.8999  0.4339
 1159SOL    HW214940   2.762   1.023  13.598  2.6837 -2.0977 -0.7529
 1160SOL     OW14941   0.827   0.826   1.472  0.1864  0.6311  0.3721
 1160SOL    HW114942   0.803   0.809   1.381 -1.1509  2.9612  0.2874
 1160SOL    HW214943   0.906   0.774   1.486 -0.1186  0.6085  1.9934
 1161SOL     OW14944   4.104   3.517   4.391  0.2853  0.1575  0.3795
 1161SOL    HW114945   4.069   3.438   4.350 -3.1555  1.1251  1.5099
 1161SOL    HW214946   4.090   3.494   4.483  1.5731 -2.9230 -0.1765
 1162SOL     OW14947   2.203   3.294   5.119 -0.3930  0.2808  0.5293
 1162SOL    HW114948   2.258   3.324   5.046 -0.1007  1.7397  1.3479
 1162SOL    HW214949   2.122   3.343   5.101  0.8204  1.9752 -0.3486
 1163SOL     OW14950   3.736   3.833   8.754  0.8022 -0.4064 -0.0233
 1163SOL    HW114951   3.781   3.870   8.830  0.5161 -0.7628  0.3171
 1163SOL    HW214952   3.798   3.759   8.748  0.8635 -0.3602  0.0457
 1164SOL     OW14953   4.495   0.214   7.985  0.2882 -0.4281  0.2016
 1164SOL    HW114954   4.568   0.160   8.015 -0.6456 -1.4822  0.5564
 1164SOL    HW214955   4.441   0.210   8.064  0.2006  3.9262  0.3831
 1165SOL     OW14956   0.203   1.772   2.367  0.5144  0.4717 -0.6952
 1165SOL    HW114957   0.146   1.744   2.439  0.1495 -0.8476 -1.5029
 1165SOL    HW214958   0.248   1.692   2.342  0.9088  0.7206 -0.7798
 1166SOL     OW14959   1.218   0.328   8.054 -0.9627  0.2390  0.5264
 1166SOL    HW114960   1.253   0.388   8.120 -2.1184  0.1539  1.2121
 1166SOL    HW214961   1.268   0.249   8.071 -2.7422 -1.0910 -0.3789
 1167SOL     OW14962   2.519   2.387   8.859 -0.2598  0.0954 -0.6220
 1167SOL    HW114963   2.484   2.320   8.917  0.2455  0.7124  0.4083
 1167SOL    HW214964   2.573   2.441   8.918 -1.0397 -0.4785  0.5996
 1168SOL     OW14965   3.942   3.216  12.239  0.6652 -0.2664 -0.1514
 1168SOL    HW114966   4.024   3.181  12.206  1.2911 -0.9481  2.1288
 1168SOL    HW214967   3.901   3.234  12.154  1.6809 -2.0963 -1.0389
 1169SOL     OW14968   3.267   0.518  16.522  0.4492  0.0357 -0.1417
 1169SOL    HW114969   3.196   0.566  16.564 -1.7519 -2.4165 -1.0853
 1169SOL    HW214970   3.232   0.517  16.432 -1.1346  0.2341  0.4729
 1170SOL     OW14971   3.013   1.013  13.904  0.0618 -0.6288 -0.6249
 1170SOL    HW114972   2.945   1.056  13.852  0.6325  0.4916 -0.4591
 1170SOL    HW214973   3.087   1.067  13.874 -0.3297 -0.2970 -0.9947
 1171SOL     OW14974   3.177   1.332   4.897 -0.0642  0.4005 -0.2056
 1171SOL    HW114975   3.238   1.302   4.964 -1.9859  0.5162  1.5659
 1171SOL    HW214976   3.142   1.246   4.875 -2.9734  0.9790  2.1852
 1172SOL     OW14977   3.332   1.794  16.546 -0.1607 -0.0212  0.1551
 1172SOL    HW114978   3.384   1.842  16.611  0.5854  0.3856 -0.7445
 1172SOL    HW214979   3.324   1.712  16.595  0.2482  0.0775  0.3916
 1173SOL     OW14980   3.167   2.491   6.002  0.6356 -0.4012 -0.0551
 1173SOL    HW114981   3.115   2.413   6.022 -2.3156  2.3955  3.0583
 1173SOL    HW214982   3.235   2.454   5.945 -0.5368 -1.5815 -0.6895
 1174SOL     OW14983   0.664   3.332   8.908 -0.2359 -0.1862  0.1591
 1174SOL    HW114984   0.747   3.329   8.956 -0.2492 -0.5768  0.1637
 1174SOL    HW214985   0.604   3.370   8.972  0.9549 -1.5937  2.1384
 1175SOL     OW14986   2.844   2.823   3.441 -0.2674  0.0069  0.2425
 1175SOL    HW114987   2.750   2.808   3.442  0.0046 -1.6750  2.1849
 1175SOL    HW214988   2.859   2.902   3.493  1.3403 -0.9515  1.2612
 1176SOL     OW14989   4.479   3.687   1.552 -0.4767  0.5009 -0.2122
 1176SOL    HW114990   4.466   3.766   1.605  0.2339  0.9578 -0.7292
 1176SOL    HW214991   4.520   3.631   1.618  0.1529 -1.3254 -2.1383
 1177SOL     OW14992   2.818   1.399   7.367  0.2780  0.2616 -0.2236
 1177SOL    HW114993   2.803   1.352   7.284  0.7665  2.9332 -1.8202
 1177SOL    HW214994   2.912   1.391   7.377  0.1447 -0.0875  0.7466
 1178SOL     OW14995   2.947   1.141   4.072 -0.3338 -0.4201 -0.3589
 1178SOL    HW114996   3.025   1.142   4.018  0.4012 -0.3394  0.7084
 1178SOL    HW214997   2.985   1.158   4.158  0.0916  0.4765 -0.7238
 1179SOL     OW14998   1.897   0.880   2.625 -0.3683 -0.0897  0.1456
 1179SOL    HW114999   1.813   0.836   2.639 -1.5213  2.0520 -0.0043
 1179SOL    HW215000   1.868   0.967   2.653 -0.1123  0.4999 -1.4370
 1180SOL     OW15001   2.744   4.535  11.434  0.4329 -0.2035 -0.0965
 1180SOL    HW115002   2.825   4.495  11.401  0.1848  0.0390 -1.0115
 1180SOL    HW215003   2.742   4.489  11.518 -1.3249  1.7091  0.8955
 1181SOL     OW15004   1.807   2.282   7.393 -0.0649 -0.1430 -0.5923
 1181SOL    HW115005   1.778   2.338   7.464  0.7664 -0.7998  0.2705
 1181SOL    HW215006   1.792   2.345   7.322  1.9520  0.0554 -0.8638
 1182SOL     OW15007   3.261   4.015   1.954  0.5895 -0.7240 -0.4269
 1182SOL    HW115008   3.280   4.016   1.860 -1.0965 -1.2487 -0.7637
 1182SOL    HW215009   3.204   3.938   1.954 -0.3573 -0.0178 -2.2398
 1183SOL     OW15010   3.547   0.978   6.155  0.9792  0.3828 -0.8735
 1183SOL    HW115011   3.478   0.966   6.221  1.1749 -0.7362 -0.8761
 1183SOL    HW215012   3.627   0.942   6.193  1.3510  2.2209  0.0767
 1184SOL     OW15013   3.865   2.228   4.939 -0.2919  0.1134 -0.6007
 1184SOL    HW115014   3.839   2.148   4.894  1.7795 -0.3804 -0.8763
 1184SOL    HW215015   3.921   2.274   4.877 -2.0367  1.3641 -1.2550
 1185SOL     OW15016   1.319   0.874   2.008 -0.5687 -0.2330 -0.1708
 1185SOL    HW115017   1.293   0.786   1.983 -0.2257 -0.3902  0.0242
 1185SOL    HW215018   1.331   0.925   1.928  3.3561  0.8838  1.1342
 1186SOL     OW15019   4.618   1.458  13.000  0.1636  0.0573 -0.0072
 1186SOL    HW115020   4.603   1.534  12.944 -1.3537  0.9902  1.6775
 1186SOL    HW215021   4.642   1.396  12.930 -0.6211 -1.0287  0.6777
 1187SOL     OW15022   3.509   3.313  15.470 -0.0410 -0.6892  0.4426
 1187SOL    HW115023   3.445   3.313  15.399 -0.0873 -0.3407  0.4831
 1187SOL    HW215024   3.593   3.305  15.424  1.3130 -0.3915  2.8522
 1188SOL     OW15025   3.571   2.295   7.425  0.3737 -0.3380 -0.1822
 1188SOL    HW115026   3.662   2.312   7.448  0.3146  0.6420 -0.6833
 1188SOL    HW215027   3.532   2.377   7.394  2.4632  0.8379  0.3193
 1189SOL     OW15028   0.788   1.224  13.704  0.4612 -0.0363 -0.2145
 1189SOL    HW115029   0.808   1.314  13.732 -1.5148 -0.0679  1.2397
 1189SOL    HW215030   0.774   1.182  13.788 -0.9338 -2.8945 -1.8835
 1190SOL     OW15031   3.593   0.065   4.643  0.2065  0.2105 -0.4637
 1190SOL    HW115032   3.569   0.107   4.560 -2.4837 -1.2217 -0.4103
 1190SOL    HW215033   3.506   0.046   4.678 -0.1334 -0.3915 -1.6414
 1191SOL     OW15034   0.392   4.339   7.656  0.8988 -0.1063  0.0552
 1191SOL    HW115035   0.385   4.264   7.716 -0.1372 -0.8114 -0.9418
 1191SOL    HW215036   0.382   4.300   7.569  1.3564  0.6007 -0.3140
 1192SOL     OW15037   3.855   2.104   3.022 -0.3164 -0.5541 -0.0626
 1192SOL    HW115038   3.889   2.192   3.040  1.4517 -0.8219 -2.0607
 1192SOL    HW215039   3.762   2.118   3.039  0.3065  1.6782  1.4669
 1193SOL     OW15040   3.283   3.139  14.748  0.0359 -0.5208  0.1293
 1193SOL    HW115041   3.245   3.161  14.662 -0.8000 -1.6173  0.2117
 1193SOL    HW215042   3.371   3.116  14.720 -0.6218 -2.4415 -0.4016
 1194SOL     OW15043   3.613   0.776   2.809 -0.4076 -0.0501 -0.3790
 1194SOL    HW115044   3.699   0.753   2.774 -0.6886 -1.1165 -0.3819
 1194SOL    HW215045   3.568   0.714   2.753  1.5581  0.0973 -2.1230
 1195SOL     OW15046   0.742   4.251   3.846 -0.2459  0.2924 -0.3894
 1195SOL    HW115047   0.723   4.251   3.940 -1.6909  0.2073 -0.6821
 1195SOL    HW215048   0.747   4.345   3.831  0.4183  0.4958  1.0847
 1196SOL     OW15049   4.313   3.984   3.001  0.8419 -0.3471 -0.1673
 1196SOL    HW115050   4.302   3.942   3.086 -0.6768  2.1225  0.8667
 1196SOL    HW215051   4.337   4.071   3.032 -0.3923 -0.9059  2.3385
 1197SOL     OW15052   3.893   4.588  11.885 -0.4475  0.1104  0.5489
 1197SOL    HW115053   3.909   4.641  11.963  0.7337 -1.0101  1.0768
 1197SOL    HW215054   3.817   4.626  11.841 -1.3627 -0.9093  1.2189
 1198SOL     OW15055   4.248   3.187  10.821 -0.3185  0.7890  0.6415
 1198SOL    HW115056   4.177   3.144  10.774  0.1154  2.3617 -1.4735
 1198SOL    HW215057   4.272   3.118  10.883 -0.9267  0.4571  0.5022
 1199SOL     OW15058   3.602   4.399  12.933 -0.3250  0.1965  0.0231
 1199SOL    HW115059   3.682   4.354  12.904  0.5120  0.6816  1.5792
 1199SOL    HW215060   3.549   4.319  12.932 -1.0619  0.6705  2.0051
 1200SOL     OW15061   0.162   0.678   0.773 -0.2161  0.4918 -0.5164
 1200SOL    HW115062   0.084   0.659   0.826 -1.9243  3.0070 -2.0777
 1200SOL    HW215063   0.207   0.741   0.830  0.5191 -0.5872  0.0756
 1201SOL     OW15064   2.530   0.131   9.745  0.5764 -0.0978  0.1238
 1201SOL    HW115065   2.518   0.178   9.662 -1.0660  0.6333  0.7682
 1201SOL    HW215066   2.504   0.201   9.805 -0.4438 -0.1630 -0.2357
 1202SOL     OW15067   3.389   3.179  12.815 -0.1332  0.3368  0.1765
 1202SOL    HW115068   3.472   3.228  12.811  0.3096 -0.2953  1.6528
 1202SOL    HW215069   3.381   3.172  12.910 -0.2660  0.7641  0.1999
 1203SOL     OW15070   2.763   3.955  13.726  0.0336 -0.0556  0.3229
 1203SOL    HW115071   2.836   3.908  13.767  0.3606  1.3598  1.3456
 1203SOL    HW215072   2.694   3.974  13.789  0.5426  1.7028  0.3325
 1204SOL     OW15073   0.412   2.761   5.485  0.0846 -0.3696 -0.4973
 1204SOL    HW115074   0.434   2.831   5.424  1.6407 -2.8088 -2.7387
 1204SOL    HW215075   0.423   2.802   5.571 -0.8540 -1.2105  0.0192
 1205SOL     OW15076   4.604   2.246  10.059 -0.4657 -0.6406  0.2505
 1205SOL    HW115077   4.580   2.306   9.989 -0.6874 -0.4288  0.5094
 1205SOL    HW215078   4.636   2.306  10.126  0.3287  0.9511 -1.5498
 1206SOL     OW15079   3.888   2.930   5.198 -0.3605  0.4678 -0.3825
 1206SOL    HW115080   3.803   2.973   5.212  0.8801  2.6264  0.5860
 1206SOL    HW215081   3.892   2.886   5.283  1.0640  0.2390 -0.5664
 1207SOL     OW15082   1.329   1.434   1.795 -0.1633 -0.0237  0.0048
 1207SOL    HW115083   1.318   1.369   1.726 -1.7568 -0.2140  0.4365
 1207SOL    HW215084   1.377   1.505   1.752  1.8495 -1.9768 -0.9837
 1208SOL     OW15085   3.426   0.159   2.009  0.3865 -0.4260  0.1092
 1208SOL    HW115086   3.403   0.229   2.070  2.4161  1.8319 -1.7314
 1208SOL    HW215087   3.349   0.152   1.954 -0.2290 -1.3745  1.0879
 1209SOL     OW15088   3.190   2.516  13.940 -0.7743 -0.1111 -0.0676
 1209SOL    HW115089   3.272   2.466  13.944 -0.2526  0.8333  0.7912
 1209SOL    HW215090   3.200   2.586  14.004  0.8733 -1.7286  1.4497
 1210SOL     OW15091   3.013   4.174   2.270  0.6383 -0.3871  0.2274
 1210SOL    HW115092   3.056   4.250   2.230 -0.5401  1.6494  2.8273
 1210SOL    HW215093   3.070   4.168   2.348 -0.5751 -1.7650  1.0008
 1211SOL     OW15094   2.051   1.892  14.994  0.1148  0.3020 -0.2537
 1211SOL    HW115095   2.059   1.987  14.985 -1.9931  0.6004  1.2006
 1211SOL    HW215096   1.977   1.883  15.054  0.8624 -0.4464  0.5530
 1212SOL     OW15097   3.689   4.062   3.974  0.0103 -0.2048  0.1405
 1212SOL    HW115098   3.758   4.004   3.943 -1.2599 -0.3232 -2.4973
 1212SOL    HW215099   3.706   4.148   3.935 -1.3769 -0.9144 -2.0011
 1213SOL     OW15100   1.587   1.201   3.269  0.2824  0.5381  0.4918
 1213SOL    HW115101   1.507   1.198   3.322  0.4064  1.2523  0.7161
 1213SOL    HW215102   1.592   1.280   3.216 -0.4785  0.4891  0.3422
 1214SOL     OW15103   3.828   1.799   2.927  0.0259 -0.1197  0.5684
 1214SOL    HW115104   3.786   1.800   2.840  0.3522 -3.3522  0.3692
 1214SOL    HW215105   3.796   1.886   2.951  0.4097  0.8728 -2.4057
 1215SOL     OW15106   4.121   0.650  15.194 -0.2230 -0.0393 -0.9741
 1215SOL    HW115107   4.120   0.563  15.235 -0.5816  0.8736  0.9257
 1215SOL    HW215108   4.143   0.624  15.104 -1.9720  0.3140 -1.4972
 1216SOL     OW15109   2.270   0.573  12.022  0.2337 -0.3341  0.1269
 1216SOL    HW115110   2.343   0.602  11.968  0.3808 -2.2475 -0.7322
 1216SOL    HW215111   2.219   0.529  11.953 -1.5305  0.2212  1.0768
 1217SOL     OW15112   4.613   2.853   0.866 -0.5189 -0.5088  0.1647
 1217SOL    HW115113   4.670   2.923   0.897  0.1485 -0.2124 -1.7240
 1217SOL    HW215114   4.641   2.773   0.911  1.5981 -0.3184 -0.7986
 1218SOL     OW15115   0.074   1.574  10.140 -0.0736  0.1352  0.0614
 1218SOL    HW115116   0.011   1.504  10.156 -1.7159  0.9933 -2.5552
 1218SOL    HW215117   0.058   1.588  10.047 -1.9494 -1.0593  0.2005
 1219SOL     OW15118   3.070   2.088  13.786  0.2651 -0.6076  0.4803
 1219SOL    HW115119   3.103   2.102  13.697 -0.1707 -3.6637 -0.1629
 1219SOL    HW215120   3.129   2.034  13.838  0.9182 -0.6764 -0.3357
 1220SOL     OW15121   1.197   3.487   1.420  0.3165 -0.3263 -0.0767
 1220SOL    HW115122   1.166   3.432   1.347 -0.6751 -2.5920  2.0406
 1220SOL    HW215123   1.291   3.488   1.406  0.0924  1.5256 -1.4389
 1221SOL     OW15124   2.448   1.310   4.067  0.2717 -0.2522  0.3737
 1221SOL    HW115125   2.541   1.333   4.069  0.0992  0.6277 -1.2729
 1221SOL    HW215126   2.425   1.332   3.976  0.7994 -0.1667  0.2599
 1222SOL     OW15127   3.835   1.088   2.330  0.3599  0.6248  0.0711
 1222SOL    HW115128   3.867   1.167   2.373 -1.8798  0.6283  1.7685
 1222SOL    HW215129   3.794   1.048   2.408  0.3696 -1.2676 -0.8983
 1223SOL     OW15130   4.677   1.311   2.297  0.5411 -0.5071  0.6880
 1223SOL    HW115131   0.011   1.233   2.301 -1.4500 -1.9565 -0.0692
 1223SOL    HW215132   4.626   1.293   2.219  0.1350  0.2498  0.7865
 1224SOL     OW15133   4.003   3.197   5.731 -0.6828  1.2580 -0.0330
 1224SOL    HW115134   4.036   3.237   5.812  0.9662 -1.7958  0.8121
 1224SOL    HW215135   3.937   3.140   5.770  2.3300 -1.2989  1.3305
 1225SOL     OW15136   3.022   4.331   5.921  0.1857  0.8200  0.0823
 1225SOL    HW115137   2.951   4.385   5.956  1.1800  0.6176  2.3788
 1225SOL    HW215138   3.064   4.381   5.850  0.4419  1.0312  0.3821
 1226SOL     OW15139   1.774   4.241  17.419 -0.1504  0.1451  0.5759
 1226SOL    HW115140   1.795   4.320  17.370  2.4830 -0.4115  0.8053
 1226SOL    HW215141   1.846   4.182  17.397 -0.6422 -0.4228  0.4959
 1227SOL     OW15142   1.167   1.838   9.712  0.5108 -0.0827 -0.3048
 1227SOL    HW115143   1.235   1.806   9.772  1.2456 -0.7458 -1.5052
 1227SOL    HW215144   1.168   1.931   9.733  0.9580 -0.1146 -0.1790
 1228SOL     OW15145   2.301   3.001   4.274  0.7688 -0.4271 -0.0214
 1228SOL    HW115146   2.332   3.059   4.205  2.2141  0.4358  1.3609
 1228SOL    HW215147   2.364   3.021   4.342  0.9160  3.0783 -1.1837
 1229SOL     OW15148   0.502   0.255  11.226  0.3499 -0.0070  0.0185
 1229SOL    HW115149   0.465   0.339  11.256 -1.7560 -1.5701  1.7939
 1229SOL    HW215150   0.575   0.246  11.288 -1.5834  0.9725  2.4589
 1230SOL     OW15151   2.081   1.000   9.315 -0.4892  0.0122 -0.2343
 1230SOL    HW115152   2.076   1.076   9.257  2.0702 -0.4893 -1.1043
 1230SOL    HW215153   2.151   0.946   9.279  1.2708  2.5723 -0.6038
 1231SOL     OW15154   3.020   3.589   0.838 -0.5319  0.2118  0.3950
 1231SOL    HW115155   2.940   3.590   0.890  1.1037 -0.2158  2.9412
 1231SOL    HW215156   3.044   3.681   0.828 -0.5640  0.3504  1.5621
 1232SOL     OW15157   1.276   2.979   7.928  0.5771  0.2162 -0.1036
 1232SOL    HW115158   1.214   2.928   7.981  1.7327 -1.1527 -0.0470
 1232SOL    HW215159   1.339   2.998   7.998  1.5478 -1.5251 -0.5018
 1233SOL     OW15160   3.788   4.608   4.552  0.9718  0.0744  0.5518
 1233SOL    HW115161   3.715   4.648   4.600  0.8409  0.2302  0.2188
 1233SOL    HW215162   3.738   4.547   4.498 -0.4265  2.4625 -0.8238
 1234SOL     OW15163   2.875   4.441   2.032  0.2946  0.3227  0.1787
 1234SOL    HW115164   2.783   4.456   2.053 -0.3732 -1.5757 -1.4438
 1234SOL    HW215165   2.919   4.445   2.117 -0.0629  0.2944  0.3655
 1235SOL     OW15166   0.844   3.018   5.982 -0.3838 -0.2010  0.0873
 1235SOL    HW115167   0.904   3.059   6.045  0.4195 -1.8085  0.3771
 1235SOL    HW215168   0.783   2.977   6.043  3.4208 -0.5343  3.6907
 1236SOL     OW15169   1.988   0.998  11.605  0.7012  0.1578  0.1617
 1236SOL    HW115170   1.917   1.057  11.580 -1.3014 -0.8511  3.3916
 1236SOL    HW215171   2.034   0.989  11.521  0.3188  0.3079 -0.0640
 1237SOL     OW15172   0.717   0.173   8.446 -0.1441  0.4042 -0.1250
 1237SOL    HW115173   0.776   0.105   8.477 -1.0004 -0.6670 -0.8236
 1237SOL    HW215174   0.762   0.207   8.368  1.3567  0.2117  0.6613
 1238SOL     OW15175   4.617   2.837  15.418 -0.1679  0.2466  0.0225
 1238SOL    HW115176   4.586   2.791  15.340  1.8484  0.1603 -0.7391
 1238SOL    HW215177   4.551   2.789  15.468 -3.0435 -0.3697 -4.3535
 1239SOL     OW15178   0.788   0.272  12.006 -0.3885  0.8729  0.1373
 1239SOL    HW115179   0.738   0.195  11.977  0.0734  0.2137  1.0834
 1239SOL    HW215180   0.797   0.334  11.934  3.2216 -1.3624 -1.3132
 1240SOL     OW15181   0.846   2.011   8.478 -0.2341 -0.3825 -0.3374
 1240SOL    HW115182   0.841   2.024   8.573 -1.3410  0.1605 -0.4744
 1240SOL    HW215183   0.935   1.977   8.481 -0.1008 -0.1012 -1.0742
 1241SOL     OW15184   1.197   1.024   4.928 -0.3270 -0.2747 -0.9047
 1241SOL    HW115185   1.109   0.992   4.950 -0.0119  0.9960  2.3520
 1241SOL    HW215186   1.228   0.958   4.867  0.5516  1.4795 -2.3480
 1242SOL     OW15187   0.747   2.429  15.975 -0.0639  0.2032 -0.1029
 1242SOL    HW115188   0.659   2.424  16.011  0.7650 -0.6709  1.8052
 1242SOL    HW215189   0.750   2.342  15.935 -0.7529 -0.4905  1.3967
 1243SOL     OW15190   1.351   4.144   7.558 -0.3838 -0.5764 -0.2656
 1243SOL    HW115191   1.302   4.214   7.600  0.5796 -0.2716  0.3533
 1243SOL    HW215192   1.406   4.105   7.626  0.8050  1.9848  0.2276
 1244SOL     OW15193   0.513   1.136   3.478  0.2004  0.0199  0.3425
 1244SOL    HW115194   0.597   1.178   3.457  0.7486 -0.4754  1.5700
 1244SOL    HW215195   0.488   1.176   3.561 -1.1109  1.6708 -0.8340
 1245SOL     OW15196   2.043   2.936   5.438  0.3669 -0.3120 -0.5152
 1245SOL    HW115197   1.983   2.991   5.488  0.4815  0.7738 -1.5642
 1245SOL    HW215198   2.015   2.965   5.351 -0.1451  1.7024  0.3253
 1246SOL     OW15199   3.655   2.405   8.904 -0.1529 -0.0706  0.3601
 1246SOL    HW115200   3.669   2.353   8.824  0.7997 -0.7106  0.9484
 1246SOL    HW215201   3.733   2.382   8.954  1.2464  0.5500 -1.5288
 1247SOL     OW15202   0.089   0.334   3.571 -0.6203  0.0485 -0.5009
 1247SOL    HW115203   0.083   0.373   3.483  2.4563 -0.9254 -1.1453
 1247SOL    HW215204   0.094   0.240   3.557 -1.1938  0.4237 -3.2791
 1248SOL     OW15205   4.193   2.552   8.682 -0.2055  0.4050 -0.4531
 1248SOL    HW115206   4.103   2.521   8.678 -0.2996  0.5903  0.2033
 1248SOL    HW215207   4.236   2.470   8.705 -2.1509 -0.4277  0.1438
 1249SOL     OW15208   4.093   4.074  15.815 -0.1609  0.3475 -0.2774
 1249SOL    HW115209   4.036   4.101  15.744 -1.1758  2.2604  1.2553
 1249SOL    HW215210   4.157   4.018  15.771 -0.6766 -0.9902  0.6692
 1250SOL     OW15211   0.858   0.873  14.989  0.1769 -0.2747  0.1342
 1250SOL    HW115212   0.819   0.907  15.069  1.0968 -0.1029  0.5039
 1250SOL    HW215213   0.779   0.849  14.939  0.8735  0.6370 -1.4160
 1251SOL     OW15214   0.217   3.350  15.692  0.5789  0.2591 -0.7991
 1251SOL    HW115215   0.285   3.300  15.646  0.3751 -0.4030 -0.3773
 1251SOL    HW215216   0.171   3.286  15.747 -0.6456  1.2359 -0.7051
 1252SOL     OW15217   2.411   2.876  15.328  0.2229 -0.1219 -0.0074
 1252SOL    HW115218   2.488   2.859  15.273 -0.7549  1.3412 -1.7904
 1252SOL    HW215219   2.356   2.799  15.313  1.6155 -1.3429  1.0993
 1253SOL     OW15220   1.185   4.234   5.776  0.0449  0.2082  0.8349
 1253SOL    HW115221   1.102   4.200   5.743  0.5343 -1.7502  1.5726
 1253SOL    HW215222   1.230   4.150   5.788  1.0270  0.6659  0.3706
 1254SOL     OW15223   1.575   1.705   7.614  0.5541 -0.3215 -0.0646
 1254SOL    HW115224   1.669   1.698   7.602  0.7872  0.5503  1.3387
 1254SOL    HW215225   1.551   1.612   7.623 -0.0641 -0.1508  0.0998
 1255SOL     OW15226   1.829   3.327   8.601  0.1433 -0.0455 -0.2953
 1255SOL    HW115227   1.872   3.383   8.537  0.3012  0.3278  0.1343
 1255SOL    HW215228   1.896   3.342   8.669 -0.0363  0.2411 -0.1855
 1256SOL     OW15229   2.582   3.915   9.023 -0.2777 -0.0244  0.1575
 1256SOL    HW115230   2.644   3.850   9.057  1.1368  1.1739 -0.1110
 1256SOL    HW215231   2.623   3.998   9.046 -0.2641 -0.3625  1.3542
 1257SOL     OW15232   1.764   0.888   8.092 -0.3447 -0.3405  0.0407
 1257SOL    HW115233   1.749   0.796   8.116 -2.0125  0.1472  0.8577
 1257SOL    HW215234   1.859   0.895   8.099 -0.3761  0.2310 -0.1236
 1258SOL     OW15235   2.599   3.281   1.341  0.0871  0.0307 -0.0582
 1258SOL    HW115236   2.577   3.262   1.250  1.9465 -2.0623 -0.0829
 1258SOL    HW215237   2.512   3.296   1.378  0.2135 -1.0971  0.6882
 1259SOL     OW15238   3.822   2.155  17.482  0.2262 -0.4543  0.0236
 1259SOL    HW115239   3.747   2.176  17.426  1.2787 -0.0836 -1.2608
 1259SOL    HW215240   3.841   2.240  17.523  1.5844 -0.7305 -0.0333
 1260SOL     OW15241   4.171   3.636  10.729 -0.3392 -0.5005  0.1822
 1260SOL    HW115242   4.105   3.678  10.675 -0.4302 -0.4339  0.3453
 1260SOL    HW215243   4.213   3.705  10.780  0.8533 -1.6070  0.7038
 1261SOL     OW15244   4.598   4.203  12.541 -0.3714  0.0985 -0.5016
 1261SOL    HW115245   4.659   4.217  12.468 -0.2879 -0.5170 -0.5453
 1261SOL    HW215246   4.561   4.118  12.521  1.4830 -1.2632  1.9042
 1262SOL     OW15247   4.134   3.076   6.835 -1.1290  0.4269  0.0749
 1262SOL    HW115248   4.161   3.006   6.894 -0.2669 -0.7271 -1.6809
 1262SOL    HW215249   4.171   3.152   6.880 -1.7870 -0.2003  1.6768
 1263SOL     OW15250   1.708   0.904   4.742 -0.1281 -0.0084 -0.1808
 1263SOL    HW115251   1.654   0.982   4.754 -2.0933 -1.4858  0.3800
 1263SOL    HW215252   1.645   0.833   4.752 -1.8776  1.7021  0.9157
 1264SOL     OW15253   3.070   4.687   6.317  0.1550 -0.0088 -0.1006
 1264SOL    HW115254   2.994   4.660   6.266  0.2189 -1.0514  0.3483
 1264SOL    HW215255   3.032   0.020   6.386  1.8131 -1.2558  1.8447
 1265SOL     OW15256   4.229   1.228   1.974 -0.2429  0.1556 -0.0361
 1265SOL    HW115257   4.206   1.170   2.046  3.3447  0.9642  1.7172
 1265SOL    HW215258   4.294   1.288   2.011  0.3616 -0.8309  0.4997
 1266SOL     OW15259   0.601   1.131   7.496 -0.0810  0.5760 -0.1525
 1266SOL    HW115260   0.628   1.065   7.433  1.9892  0.3325  1.0039
 1266SOL    HW215261   0.672   1.119   7.559 -0.1298 -2.8279 -0.7978
 1267SOL     OW15262   3.408   1.805   3.976  0.4287  0.5533  0.0595
 1267SOL    HW115263   3.369   1.892   3.984  1.3229  0.9388  0.2194
 1267SOL    HW215264   3.335   1.769   3.925  0.4672 -0.2220  0.5469
 1268SOL     OW15265   1.671   0.615  14.498  0.3986 -0.1643 -0.5932
 1268SOL    HW115266   1.683   0.600  14.404  0.1654 -0.1548 -0.6226
 1268SOL    HW215267   1.706   0.536  14.540  1.0349  2.3809  3.5818
 1269SOL     OW15268   3.032   3.042   6.378  1.0310 -0.5106  0.6547
 1269SOL    HW115269   2.965   2.980   6.405  0.9759 -0.5524  0.4222
 1269SOL    HW215270   3.028   3.037   6.282  2.1203  0.5317  0.5544
 1270SOL     OW15271   3.132   4.326   7.520  0.4576  0.4038  0.6766
 1270SOL    HW115272   3.081   4.321   7.601  0.1408 -1.9753  0.3310
 1270SOL    HW215273   3.209   4.272   7.537 -0.1822  0.0589  2.4792
 1271SOL     OW15274   0.297   1.408   6.019  0.0508 -0.1468 -0.4859
 1271SOL    HW115275   0.220   1.351   6.012 -0.3759  0.5594 -1.5284
 1271SOL    HW215276   0.288   1.452   6.104 -0.4172 -2.8851  0.9046
 1272SOL     OW15277   0.377   1.664   3.687 -0.0964  0.6579  0.5529
 1272SOL    HW115278   0.446   1.730   3.681 -0.1315  0.7675  1.3985
 1272SOL    HW215279   0.401   1.623   3.770 -0.8324 -0.0783  0.4146
 1273SOL     OW15280   2.377   3.538   8.218  0.0744 -0.2014  0.2617
 1273SOL    HW115281   2.400   3.615   8.270 -0.6860 -0.2204  0.6277
 1273SOL    HW215282   2.464   3.499   8.214 -0.7231 -1.9479  0.0798
 1274SOL     OW15283   0.632   3.395   7.845  0.1255  0.3832 -0.0977
 1274SOL    HW115284   0.618   3.422   7.936 -3.8849 -0.0795 -0.5881
 1274SOL    HW215285   0.698   3.326   7.856 -1.9507 -1.7276 -0.8107
 1275SOL     OW15286   2.279   4.627  17.273 -0.0014 -0.3056  0.0040
 1275SOL    HW115287   2.275   4.664  17.185  0.2135 -0.8425 -0.2301
 1275SOL    HW215288   2.335   4.554  17.248  0.9375 -0.1938  1.7479
 1276SOL     OW15289   3.696   1.494   1.604 -0.0310  0.3446  0.2572
 1276SOL    HW115290   3.605   1.514   1.629 -0.9646 -4.1400  0.4719
 1276SOL    HW215291   3.685   1.441   1.525  0.6498 -0.8232  0.9420
 1277SOL     OW15292   0.152   2.507   6.661  0.9321 -0.0822  0.1974
 1277SOL    HW115293   0.178   2.540   6.575  1.4886 -1.4512 -0.1673
 1277SOL    HW215294   0.172   2.413   6.659 -0.2165 -0.3683  2.2240
 1278SOL     OW15295   1.142   3.713   1.963 -0.2483 -0.7484  0.3604
 1278SOL    HW115296   1.123   3.738   2.054  2.1210  1.5321  0.2333
 1278SOL    HW215297   1.236   3.700   1.972 -0.3457 -1.8455 -0.1373
 1279SOL     OW15298   1.119   2.441   5.141  0.2747 -0.3062  0.5390
 1279SOL    HW115299   1.059   2.488   5.199  1.8483 -1.9224  3.4879
 1279SOL    HW215300   1.198   2.494   5.150  0.1304 -0.0577  0.3399
 1280SOL     OW15301   2.126   2.408   7.429 -0.2402 -0.3267 -0.1807
 1280SOL    HW115302   2.107   2.471   7.360 -0.4415  1.4565  1.4899
 1280SOL    HW215303   2.098   2.466   7.500 -1.4316  1.5707 -2.2300
 1281SOL     OW15304   2.411   2.392   3.470 -0.1085  0.3839  0.0975
 1281SOL    HW115305   2.398   2.458   3.539 -0.3769  0.0274  0.3875
 1281SOL    HW215306   2.500   2.364   3.491 -0.6591 -1.3876  0.0322
 1282SOL     OW15307   2.367   1.362   3.802 -0.4400  0.1205  0.3262
 1282SOL    HW115308   2.299   1.404   3.749  0.5715 -0.6640 -1.5855
 1282SOL    HW215309   2.333   1.272   3.803 -0.7013  0.2129 -0.0726
 1283SOL     OW15310   3.790   3.484   6.895  0.0439 -0.0107 -0.2939
 1283SOL    HW115311   3.789   3.472   6.989 -0.1733 -1.2088 -0.4574
 1283SOL    HW215312   3.802   3.399   6.853  0.5223 -0.6868  1.2085
 1284SOL     OW15313   2.440   2.626   3.942 -0.4413  0.7152  0.1735
 1284SOL    HW115314   2.494   2.706   3.944 -1.2482  1.2920 -1.1406
 1284SOL    HW215315   2.461   2.585   4.026 -0.2862  1.4024  0.4704
 1285SOL     OW15316   4.694   3.545  16.281  0.1908  0.2345  0.0186
 1285SOL    HW115317   4.631   3.489  16.327  0.6711  1.6066  2.3207
 1285SOL    HW215318   0.022   3.566  16.359 -1.9900  2.1655  0.9003
 1286SOL     OW15319   0.595   3.057   8.951 -0.0596  0.2165  0.2021
 1286SOL    HW115320   0.586   3.142   8.907 -0.0417 -0.1442 -0.5038
 1286SOL    HW215321   0.506   3.022   8.952  0.9642 -2.3439  0.8893
 1287SOL     OW15322   1.079   3.198  15.037 -0.0875  0.1016  0.6348
 1287SOL    HW115323   1.090   3.197  14.942 -0.8915  0.3104  0.5395
 1287SOL    HW215324   1.086   3.292  15.049  1.0779  0.2147 -0.9911
 1288SOL     OW15325   0.604   3.069   8.309  0.0945 -0.1284 -0.1136
 1288SOL    HW115326   0.535   3.008   8.335 -0.2236 -0.6464 -2.1635
 1288SOL    HW215327   0.551   3.147   8.290  0.3612  0.0202 -0.2520
 1289SOL     OW15328   0.404   4.693  10.233  0.6214 -0.2033 -0.0137
 1289SOL    HW115329   0.474   4.675  10.296 -2.4312 -1.2629  3.0862
 1289SOL    HW215330   0.447   0.010  10.157  1.9103 -0.4174  0.6094
 1290SOL     OW15331   4.599   1.716   9.531  0.4338 -0.0700  0.1920
 1290SOL    HW115332   4.670   1.660   9.501 -0.5017 -0.1789 -1.8081
 1290SOL    HW215333   4.553   1.720   9.448  0.7461 -0.7892 -0.0098
 1291SOL     OW15334   1.563   4.570   6.988 -0.5602 -0.2325 -0.1077
 1291SOL    HW115335   1.509   4.504   7.033 -0.7269  0.5714  0.8510
 1291SOL    HW215336   1.563   4.538   6.897 -0.2977  0.7998 -0.4628
 1292SOL     OW15337   4.093   2.885   7.044 -0.6188 -0.2128  0.2953
 1292SOL    HW115338   4.172   2.853   7.087  1.0629  4.1238  0.4462
 1292SOL    HW215339   4.045   2.900   7.125  0.9648 -1.9376  1.5611
 1293SOL     OW15340   1.757   0.310  15.710  0.5744  0.1488 -0.9425
 1293SOL    HW115341   1.804   0.392  15.719 -1.4091  1.3433 -1.5021
 1293SOL    HW215342   1.783   0.261  15.788  2.5267  1.9394 -0.4791
 1294SOL     OW15343   0.117   1.310   9.210  0.0001  0.3194 -0.2249
 1294SOL    HW115344   0.053   1.251   9.171  0.2325 -1.1600  1.6397
 1294SOL    HW215345   0.204   1.281   9.180  1.1323  2.7639  0.6997
 1295SOL     OW15346   2.513   1.389   6.414  0.5162 -0.1219 -0.2945
 1295SOL    HW115347   2.503   1.370   6.321 -1.4254  2.1423 -0.5419
 1295SOL    HW215348   2.598   1.353   6.439  0.7960 -0.6660 -2.0242
 1296SOL     OW15349   1.687   1.220   7.187  0.4135  0.0327  0.0866
 1296SOL    HW115350   1.700   1.148   7.248  0.1943 -1.8954 -2.1515
 1296SOL    HW215351   1.668   1.277   7.262  1.8739  0.7058 -0.0699
 1297SOL     OW15352   3.329   2.943   6.122  0.1711 -0.0666  0.6939
 1297SOL    HW115353   3.282   2.936   6.038 -0.3509  2.1242  0.7861
 1297SOL    HW215354   3.284   2.876   6.173  1.5291 -0.9604  0.6842
 1298SOL     OW15355   2.721   0.449  17.015  0.1548  0.0318 -0.0554
 1298SOL    HW115356   2.669   0.402  16.949  1.6113 -1.0861 -0.4021
 1298SOL    HW215357   2.761   0.380  17.067  0.1684  2.2288  2.8008
 1299SOL     OW15358   4.343   0.360   2.871  0.1901  0.5394  0.0272
 1299SOL    HW115359   4.331   0.359   2.776  0.6871  1.6044 -0.0435
 1299SOL    HW215360   4.314   0.451   2.878 -0.4617  0.3147  0.2684
 1300SOL     OW15361   0.719   3.027   4.253 -0.0704  0.3346  0.4174
 1300SOL    HW115362   0.632   3.062   4.274 -0.5075 -1.6993  2.0683
 1300SOL    HW215363   0.758   3.104   4.211 -0.0133 -0.1158 -0.3404
 1301SOL     OW15364   1.285   4.262   0.183  0.0586 -0.0794 -0.3379
 1301SOL    HW115365   1.361   4.208   0.202  1.1331  1.1459 -1.1481
 1301SOL    HW215366   1.314   4.327   0.120  0.3268  1.8511  1.7867
 1302SOL     OW15367   2.793   2.336   1.887 -0.0488  0.6653  0.2444
 1302SOL    HW115368   2.842   2.272   1.836  1.0323  3.8131 -2.6012
 1302SOL    HW215369   2.826   2.415   1.846 -1.3659 -0.0228 -2.1316
 1303SOL     OW15370   3.365   3.257   8.253  0.7253 -0.1716 -0.0317
 1303SOL    HW115371   3.330   3.275   8.166 -0.8956 -0.9274  0.4540
 1303SOL    HW215372   3.377   3.344   8.291  1.5496 -0.8136  1.1733
 1304SOL     OW15373   2.943   0.549   9.050  0.6295 -0.2513 -0.2285
 1304SOL    HW115374   2.939   0.536   8.955  1.5775  0.3945 -0.3515
 1304SOL    HW215375   3.002   0.623   9.062 -0.8558  1.1155 -1.2559
 1305SOL     OW15376   1.149   2.227  15.105 -0.0820 -0.0488  0.0705
 1305SOL    HW115377   1.117   2.283  15.035  0.4436 -1.1377 -1.0285
 1305SOL    HW215378   1.101   2.248  15.186  1.8274 -0.4317  1.3162
 1306SOL     OW15379   2.747   1.236   7.617 -0.8201 -0.1009 -0.3698
 1306SOL    HW115380   2.745   1.306   7.551  2.3313  0.3276 -0.0273
 1306SOL    HW215381   2.786   1.166   7.564 -0.1849  0.7008 -0.9561
 1307SOL     OW15382   3.960   2.261   8.445 -0.1355  0.2600  0.6293
 1307SOL    HW115383   3.977   2.315   8.522 -1.0354 -1.0726  1.7761
 1307SOL    HW215384   3.937   2.327   8.380  1.4595  0.4090  0.2300
 1308SOL     OW15385   1.059   0.638   9.903  0.0433  0.6561 -0.1144
 1308SOL    HW115386   1.007   0.632   9.823  1.1470 -1.1815 -0.7121
 1308SOL    HW215387   1.016   0.590   9.973  1.1400  1.0283  0.8169
 1309SOL     OW15388   0.485   2.491  13.078 -0.0467 -0.5928  0.0063
 1309SOL    HW115389   0.436   2.478  13.160  0.5152 -0.8518  0.3039
 1309SOL    HW215390   0.423   2.515  13.010  0.4730  2.0610  0.4661
 1310SOL     OW15391   2.884   1.404   2.950  0.5720 -0.4364  0.1552
 1310SOL    HW115392   2.857   1.462   3.021  0.9004 -0.8000  0.5809
 1310SOL    HW215393   2.975   1.433   2.946  1.3811 -2.8744  0.2813
 1311SOL     OW15394   1.827   3.174   1.988 -0.2344 -0.1653 -0.2052
 1311SOL    HW115395   1.816   3.242   1.922 -0.6371 -1.3189 -1.3366
 1311SOL    HW215396   1.827   3.099   1.929 -1.4967 -0.3240 -0.0146
 1312SOL     OW15397   0.454   2.343  10.545  0.0279  0.1090 -0.8607
 1312SOL    HW115398   0.455   2.308  10.456 -0.2523  0.4344 -0.9913
 1312SOL    HW215399   0.540   2.385  10.554  0.7490 -1.6811  0.6333
 1313SOL     OW15400   4.177   2.748   0.310  0.3424  0.3667  0.0120
 1313SOL    HW115401   4.264   2.739   0.348 -0.6508 -1.2102  1.8939
 1313SOL    HW215402   4.157   2.838   0.336 -0.7708  0.1359 -0.0593
 1314SOL     OW15403   0.230   4.551   3.590  0.0386  0.0857 -1.0225
 1314SOL    HW115404   0.177   4.474   3.608  2.6470 -1.1666  1.2684
 1314SOL    HW215405   0.273   4.566   3.674  0.1666 -0.7792 -0.9375
 1315SOL     OW15406   3.501   0.498   6.206  0.0542 -0.4608 -0.2671
 1315SOL    HW115407   3.589   0.462   6.201  0.4381  0.1161  2.3765
 1315SOL    HW215408   3.515   0.577   6.258 -2.9346 -1.3466  1.9136
 1316SOL     OW15409   3.009   4.492   2.253 -0.0777  0.4623  0.0977
 1316SOL    HW115410   3.082   4.481   2.314 -2.4402  1.5078  3.0750
 1316SOL    HW215411   3.014   4.587   2.237  1.1730  0.2283 -0.9639
 1317SOL     OW15412   3.418   2.940   1.020  1.0439 -0.7921 -0.4259
 1317SOL    HW115413   3.501   2.926   1.066  0.5947 -0.8999  0.3353
 1317SOL    HW215414   3.366   2.987   1.085  2.7882  0.9483 -0.2599
 1318SOL     OW15415   4.110   4.378  15.312 -0.3632 -0.1198 -0.9334
 1318SOL    HW115416   4.173   4.337  15.254  2.6544 -0.0185  2.2523
 1318SOL    HW215417   4.140   4.355  15.400 -1.5025 -1.5266 -0.9110
 1319SOL     OW15418   3.332   2.800   4.765  0.4067 -0.4763  0.9698
 1319SOL    HW115419   3.418   2.836   4.741  0.0100  0.0609  0.3475
 1319SOL    HW215420   3.318   2.818   4.858  0.1251 -0.1049  0.8568
 1320SOL     OW15421   1.365   1.704   7.020  0.9949 -0.1511  0.4237
 1320SOL    HW115422   1.355   1.670   7.109 -0.7752  2.4035  1.1948
 1320SOL    HW215423   1.458   1.726   7.018  0.5368  1.5233 -2.0578
 1321SOL     OW15424   2.345   4.603   9.327 -0.3282  0.1229 -0.2420
 1321SOL    HW115425   2.423   4.659   9.330 -0.4797  0.3497 -0.5661
 1321SOL    HW215426   2.330   4.602   9.421 -0.4231 -0.8394 -0.2689
 1322SOL     OW15427   0.464   2.400   8.714  0.3994 -0.1616  0.4190
 1322SOL    HW115428   0.556   2.403   8.740  0.6006 -1.2188 -0.2031
 1322SOL    HW215429   0.431   2.467   8.774  0.6056  0.4610 -0.1606
 1323SOL     OW15430   2.636   0.513   8.581  0.6761  0.0214  0.0531
 1323SOL    HW115431   2.594   0.460   8.513 -2.3587  1.3905  0.8725
 1323SOL    HW215432   2.569   0.581   8.583  0.9439  0.2809  0.0454
 1324SOL     OW15433   3.737   1.298   8.145  0.7409  0.2818  0.1694
 1324SOL    HW115434   3.802   1.366   8.128  2.0740 -1.2766 -1.0544
 1324SOL    HW215435   3.704   1.283   8.056  2.0221 -0.7621 -0.1335
 1325SOL     OW15436   1.451   0.065   8.819  0.3751 -0.4063  0.3841
 1325SOL    HW115437   1.473   0.085   8.728 -1.1295 -2.0744 -0.3581
 1325SOL    HW215438   1.488   4.702   8.844  1.8101 -0.0835 -0.6702
 1326SOL     OW15439   3.405   1.843  17.603  0.5475  0.4278 -1.1495
 1326SOL    HW115440   3.383   1.933  17.580  0.9040  1.6953  3.3712
 1326SOL    HW215441   3.498   1.846  17.581  0.8383  3.0445  0.4142
 1327SOL     OW15442   1.660   0.350   6.453 -0.4241  0.0957  0.2364
 1327SOL    HW115443   1.645   0.373   6.544 -0.0560 -0.3043  0.3980
 1327SOL    HW215444   1.700   0.420   6.402 -2.0266  0.8631  0.0263
 1328SOL     OW15445   4.387   0.720  13.963  0.2491 -0.6619  0.5445
 1328SOL    HW115446   4.405   0.744  13.872  0.2413 -0.1960  0.6643
 1328SOL    HW215447   4.331   0.796  13.978  1.4012 -0.0064  1.5807
 1329SOL     OW15448   0.379   3.300   1.529 -0.2379  0.2679  0.2002
 1329SOL    HW115449   0.446   3.312   1.462 -0.0489 -0.4502  0.2646
 1329SOL    HW215450   0.431   3.283   1.607  0.4729 -2.1458 -0.8255
 1330SOL     OW15451   4.257   1.371   8.805 -0.4327  0.0137 -0.3251
 1330SOL    HW115452   4.342   1.408   8.825  0.2691 -1.5503 -0.3856
 1330SOL    HW215453   4.193   1.442   8.800  0.9571  1.2840 -0.0784
 1331SOL     OW15454   3.548   4.351   3.504 -0.1266 -0.4560 -0.1156
 1331SOL    HW115455   3.606   4.420   3.475  1.6669 -1.4554  1.0961
 1331SOL    HW215456   3.499   4.340   3.422 -0.5099 -0.2877  0.0901
 1332SOL     OW15457   0.286   1.028   1.509  0.4516 -0.1856  1.0483
 1332SOL    HW115458   0.269   0.963   1.577  1.0802 -0.6370  0.7713
 1332SOL    HW215459   0.197   1.047   1.479  1.7174  3.4651 -0.3887
 1333SOL     OW15460   0.638   0.821   7.655 -0.0961  0.4440 -0.1836
 1333SOL    HW115461   0.668   0.911   7.641  1.4485  0.1655  1.3874
 1333SOL    HW215462   0.702   0.788   7.717 -0.3740  0.5417  0.1540
 1334SOL     OW15463   1.496   2.531   4.899  0.4588 -0.1509 -0.3765
 1334SOL    HW115464   1.501   2.486   4.983 -2.6553  1.7379  0.8214
 1334SOL    HW215465   1.432   2.599   4.918 -0.8362 -1.8461  1.3005
 1335SOL     OW15466   2.287   2.310   4.687  0.7616 -0.0382 -0.0350
 1335SOL    HW115467   2.345   2.313   4.611  0.4335  0.0350 -0.2834
 1335SOL    HW215468   2.216   2.249   4.667  1.2943 -0.4356 -0.7115
 1336SOL     OW15469   2.165   0.599  12.269 -0.1337  0.3663  0.2043
 1336SOL    HW115470   2.120   0.681  12.246 -0.3776 -0.1891 -1.3044
 1336SOL    HW215471   2.206   0.586  12.183 -0.5548 -3.0817  0.5309
 1337SOL     OW15472   3.977   2.790   0.620 -0.0113  0.0792  0.8931
 1337SOL    HW115473   3.907   2.742   0.576  1.7636  1.1392 -3.0781
 1337SOL    HW215474   3.950   2.775   0.711  0.4666  0.4262  1.0909
 1338SOL     OW15475   3.151   2.462   3.094 -0.1400 -0.0279  0.4338
 1338SOL    HW115476   3.174   2.369   3.102 -1.5065 -0.5337 -1.4366
 1338SOL    HW215477   3.245   2.483   3.088 -0.2697  0.8018  1.4941
 1339SOL     OW15478   1.259   0.014   3.467  0.6356 -0.3010 -0.3705
 1339SOL    HW115479   1.329   0.060   3.513  0.4958  1.7179 -2.1784
 1339SOL    HW215480   1.281   0.047   3.380  0.0483  2.3162  0.4703
 1340SOL     OW15481   4.312   0.777   6.167 -0.0745  0.0767  0.0825
 1340SOL    HW115482   4.268   0.790   6.083 -0.0897  0.4563  0.1505
 1340SOL    HW215483   4.341   0.687   6.153 -0.7866 -0.3815  1.5567
 1341SOL     OW15484   3.560   2.407  11.062  0.6063 -1.1084  0.1017
 1341SOL    HW115485   3.562   2.312  11.051  1.4089 -0.9366 -1.2190
 1341SOL    HW215486   3.565   2.425  10.968  2.5942 -1.7174  0.0840
 1342SOL     OW15487   0.819   4.104   7.055 -0.4917 -0.3894 -0.0400
 1342SOL    HW115488   0.822   4.177   6.994  1.8542  0.7453  1.4337
 1342SOL    HW215489   0.780   4.144   7.133  1.2211  2.1750 -0.4768
 1343SOL     OW15490   1.331   3.032   6.483  0.2953  0.0087 -0.8130
 1343SOL    HW115491   1.284   2.949   6.487  0.3517  0.0536  0.8936
 1343SOL    HW215492   1.327   3.068   6.572 -0.6843  0.6501 -1.1131
 1344SOL     OW15493   2.124   2.183   0.814  0.0205  0.3664 -0.4711
 1344SOL    HW115494   2.060   2.168   0.884 -1.6228 -2.2220 -2.5408
 1344SOL    HW215495   2.200   2.223   0.857  1.0898 -1.1565 -0.9453
 1345SOL     OW15496   2.930   4.269   8.088 -0.2716 -0.1351  0.2680
 1345SOL    HW115497   3.008   4.309   8.050  0.5468 -3.7162 -1.8519
 1345SOL    HW215498   2.959   4.194   8.140  0.6876 -1.1405 -1.7541
 1346SOL     OW15499   4.570   2.558   4.025  0.2314  0.3830  0.6942
 1346SOL    HW115500   4.520   2.511   3.958  1.4124 -0.7597  0.6208
 1346SOL    HW215501   4.655   2.514   4.022 -0.9102 -1.9941  2.6361
 1347SOL     OW15502   1.796   1.137  10.826 -0.8240  0.5820 -0.1879
 1347SOL    HW115503   1.833   1.201  10.888 -0.0763  0.7433 -0.8017
 1347SOL    HW215504   1.710   1.135  10.869 -1.6987  1.1765 -1.9315
 1348SOL     OW15505   1.638   4.071   4.365 -0.7755 -0.1958 -0.0931
 1348SOL    HW115506   1.603   4.121   4.439  0.6201  1.2168 -0.3753
 1348SOL    HW215507   1.656   4.145   4.307  0.7534  0.5133  1.2618
 1349SOL     OW15508   0.312   3.124   8.462  0.4488 -0.3252 -0.4204
 1349SOL    HW115509   0.300   3.131   8.556  0.4408  0.9426 -0.5175
 1349SOL    HW215510   0.312   3.029   8.454 -0.1973 -0.2724 -1.0357
 1350SOL     OW15511   1.357   3.243   3.542 -0.2997 -0.4735 -0.3051
 1350SOL    HW115512   1.292   3.270   3.606 -0.4964 -1.2078 -0.1917
 1350SOL    HW215513   1.385   3.328   3.507  0.6631 -0.6045  0.1303
 1351SOL     OW15514   3.213   1.274   0.315  0.0759 -0.2999  0.0267
 1351SOL    HW115515   3.194   1.324   0.395  1.3039 -1.3069  0.9481
 1351SOL    HW215516   3.148   1.304   0.252 -0.2303 -1.1015 -0.0391
 1352SOL     OW15517   0.645   3.512   2.503  0.5448 -0.3000  0.3126
 1352SOL    HW115518   0.654   3.607   2.501  0.3527 -0.2534  1.4902
 1352SOL    HW215519   0.736   3.486   2.485  1.0284  0.5694  1.4866
 1353SOL     OW15520   4.574   3.764   4.143 -0.1671  0.3283  1.5946
 1353SOL    HW115521   4.502   3.763   4.205 -1.7931  1.4922 -0.2671
 1353SOL    HW215522   4.655   3.734   4.185 -0.9651 -1.5013  1.8335
 1354SOL     OW15523   1.460   0.432   7.672 -0.2896  0.4949 -0.1088
 1354SOL    HW115524   1.451   0.344   7.709 -0.0842  0.7738  0.5955
 1354SOL    HW215525   1.553   0.445   7.691  0.1985 -1.3303 -1.1607
 1355SOL     OW15526   0.664   3.523   1.579  0.1481  0.7815 -0.0491
 1355SOL    HW115527   0.575   3.530   1.613 -0.7355 -2.0845 -1.7857
 1355SOL    HW215528   0.701   3.603   1.618  0.2976  1.4496 -1.5704
 1356SOL     OW15529   3.595   1.849   5.356  0.8309  0.0141  0.0652
 1356SOL    HW115530   3.525   1.810   5.303  1.1877 -1.7991  0.9489
 1356SOL    HW215531   3.626   1.779   5.412  0.8581 -0.5357 -0.6383
 1357SOL     OW15532   2.862   2.284   0.839  0.3736 -0.3307  0.0733
 1357SOL    HW115533   2.955   2.304   0.826  0.6207 -0.7594  1.1991
 1357SOL    HW215534   2.845   2.204   0.789  1.2713 -0.6038  0.2039
 1358SOL     OW15535   0.070   2.072   7.348  0.0825 -0.3273  0.0326
 1358SOL    HW115536   0.074   2.104   7.258 -0.7622 -0.6288 -0.1197
 1358SOL    HW215537   0.163   2.086   7.364  0.1034 -1.4504  0.9324
 1359SOL     OW15538   3.349   1.394  12.435  0.7340 -0.0176  0.1040
 1359SOL    HW115539   3.300   1.474  12.419 -1.2714 -1.7568 -2.5032
 1359SOL    HW215540   3.347   1.376  12.529  0.4039  1.9540  0.4704
 1360SOL     OW15541   2.729   3.650  10.051 -0.1041 -0.2481  0.0801
 1360SOL    HW115542   2.786   3.727  10.042  0.2891 -0.4641  0.6970
 1360SOL    HW215543   2.742   3.611   9.965 -0.1883  1.5942 -0.7649
 1361SOL     OW15544   3.212   3.767   4.168 -0.2154 -0.2365 -0.1774
 1361SOL    HW115545   3.196   3.735   4.079 -0.2758 -0.0960 -0.2174
 1361SOL    HW215546   3.239   3.856   4.148 -0.8347 -0.3948 -1.6975
 1362SOL     OW15547   1.619   1.294   9.261 -0.1988  0.5147  0.2769
 1362SOL    HW115548   1.701   1.275   9.307 -0.3130  0.9255  0.6583
 1362SOL    HW215549   1.565   1.338   9.327 -1.2989  0.9882 -0.9286
 1363SOL     OW15550   3.143   0.269  16.275  0.1075  0.4583 -1.0909
 1363SOL    HW115551   3.189   0.352  16.257  3.2059 -1.1081 -0.4930
 1363SOL    HW215552   3.058   0.297  16.306 -0.1663 -0.0664 -1.3700
 1364SOL     OW15553   1.946   3.992   4.440  0.7568 -0.1950 -0.1671
 1364SOL    HW115554   1.899   4.063   4.396 -0.0343  0.6339  2.0368
 1364SOL    HW215555   1.954   4.027   4.528 -0.9425 -0.4848  0.0966
 1365SOL     OW15556   2.578   2.862   5.178 -0.0481  0.3292  0.1214
 1365SOL    HW115557   2.580   2.958   5.180  0.9869  0.3151 -0.3291
 1365SOL    HW215558   2.664   2.824   5.193 -0.9769 -1.8247 -0.0999
 1366SOL     OW15559   1.936   0.640  14.380  1.0842  0.2799  0.1280
 1366SOL    HW115560   1.931   0.577  14.452  0.1961 -0.3655 -0.4956
 1366SOL    HW215561   1.867   0.614  14.319  1.1811  0.5103 -0.0788
 1367SOL     OW15562   2.205   0.379   9.813 -0.1152  0.7349 -0.0820
 1367SOL    HW115563   2.192   0.317   9.884 -2.5611 -1.3626 -2.3575
 1367SOL    HW215564   2.132   0.357   9.755  1.7519  1.3521 -2.6996
 1368SOL     OW15565   3.236   2.471   2.295 -0.1212 -0.5238 -0.0857
 1368SOL    HW115566   3.263   2.560   2.318 -1.6234  0.6508 -2.8178
 1368SOL    HW215567   3.238   2.470   2.200 -0.8037 -0.2429 -0.1066
 1369SOL     OW15568   0.346   1.966  11.719  0.1228  0.0616 -0.4357
 1369SOL    HW115569   0.304   1.912  11.786 -0.5717 -0.9473 -1.6926
 1369SOL    HW215570   0.322   2.050  11.756  0.3722 -1.0661  2.2985
 1370SOL     OW15571   1.967   2.519   6.560 -0.1320 -0.5575 -0.4696
 1370SOL    HW115572   1.932   2.532   6.472 -1.4100  1.0125  0.2759
 1370SOL    HW215573   2.059   2.547   6.556 -0.2467  0.3936  3.1175
 1371SOL     OW15574   3.669   0.185   3.422 -0.0853 -0.8478  0.4349
 1371SOL    HW115575   3.660   0.276   3.394 -1.2166 -0.9555  0.4498
 1371SOL    HW215576   3.688   0.139   3.340  0.8507 -0.6785  0.5554
 1372SOL     OW15577   2.924   3.070   8.704  0.3507 -0.0492 -0.6442
 1372SOL    HW115578   2.898   3.144   8.649  0.8182  0.4681 -0.1668
 1372SOL    HW215579   3.019   3.069   8.692  0.3998  1.7449 -0.3284
 1373SOL     OW15580   1.369   1.598   8.267  0.2179 -0.6838  0.4327
 1373SOL    HW115581   1.421   1.518   8.267 -0.6122 -1.2260  1.2555
 1373SOL    HW215582   1.280   1.562   8.269  0.1288 -0.6813 -4.0580
 1374SOL     OW15583   1.651   4.625   2.713 -0.3127  0.6933  0.1084
 1374SOL    HW115584   1.674   4.533   2.702  0.9443  0.9584  0.4621
 1374SOL    HW215585   1.563   4.624   2.751  0.4492 -0.0711  1.8492
 1375SOL     OW15586   1.661   3.567   4.970  0.4432  0.2593  0.7521
 1375SOL    HW115587   1.730   3.527   5.022 -0.1004 -2.2257 -0.4633
 1375SOL    HW215588   1.629   3.497   4.913  1.2246 -1.6049  2.6300
 1376SOL     OW15589   2.888   1.876  11.496  0.2778 -0.5865 -0.0630
 1376SOL    HW115590   2.812   1.857  11.440 -1.2944 -2.6589  2.8151
 1376SOL    HW215591   2.858   1.845  11.581 -2.2907 -0.5422 -0.9541
 1377SOL     OW15592   1.298   4.476  12.331  0.5096 -0.4046  0.0878
 1377SOL    HW115593   1.233   4.406  12.320  0.7398 -0.4151 -1.2521
 1377SOL    HW215594   1.381   4.428  12.333 -0.0845 -1.4504 -0.4136
 1378SOL     OW15595   0.176   2.823  12.617 -0.2339  0.0111  0.0629
 1378SOL    HW115596   0.166   2.730  12.594  1.7698 -0.6525  1.8808
 1378SOL    HW215597   0.231   2.858  12.547  2.6009 -1.3365  1.6359
 1379SOL     OW15598   0.042   3.647   3.570  0.0263 -0.3245  0.0734
 1379SOL    HW115599   0.028   3.733   3.610 -0.4776 -0.1870 -0.3933
 1379SOL    HW215600   4.705   3.654   3.495  1.4151  0.2810 -0.9446
 1380SOL     OW15601   3.847   4.175   0.695 -0.1398  0.0094 -0.2369
 1380SOL    HW115602   3.793   4.243   0.735 -1.3911 -1.9250  1.3617
 1380SOL    HW215603   3.845   4.200   0.602  0.3660  1.0648  0.0314
 1381SOL     OW15604   3.990   2.684  13.443 -0.2103  0.1350 -0.4678
 1381SOL    HW115605   4.068   2.738  13.433  1.0969 -1.7168 -0.2793
 1381SOL    HW215606   3.926   2.754  13.454  0.6581  1.1235 -1.6523
 1382SOL     OW15607   3.536   0.895   5.214 -0.4297 -0.4453 -0.0413
 1382SOL    HW115608   3.458   0.874   5.266  0.2009 -2.3969  0.1024
 1382SOL    HW215609   3.569   0.806   5.221 -1.1531 -0.8503 -1.6078
 1383SOL     OW15610   2.873   4.469   4.396 -0.2066 -0.2079  0.6919
 1383SOL    HW115611   2.935   4.398   4.411 -0.6857 -0.5566  1.0147
 1383SOL    HW215612   2.931   4.544   4.379 -1.1388 -0.0988 -1.9654
 1384SOL     OW15613   3.431   2.119   0.887  0.1198 -0.5000 -0.6210
 1384SOL    HW115614   3.343   2.157   0.881  0.2856 -0.1726 -0.9138
 1384SOL    HW215615   3.408   2.040   0.838 -1.4373 -2.4276  3.1562
 1385SOL     OW15616   0.887   3.773   2.642  0.0049 -0.4041  0.1244
 1385SOL    HW115617   0.937   3.809   2.568  1.9824 -0.4280  1.4403
 1385SOL    HW215618   0.806   3.822   2.633 -0.0787 -0.8735 -1.7434
 1386SOL     OW15619   1.285   3.937  17.040 -0.1628 -0.0780  0.0503
 1386SOL    HW115620   1.238   3.900  17.115 -0.4543 -0.0067 -0.0986
 1386SOL    HW215621   1.315   3.852  17.007  3.5580  1.4748 -0.5225
 1387SOL     OW15622   4.444   4.400  13.653 -0.0391  0.3566 -0.6926
 1387SOL    HW115623   4.404   4.479  13.691  0.7289  2.1639 -3.6548
 1387SOL    HW215624   4.520   4.399  13.712 -0.9353  3.0725  0.5207
 1388SOL     OW15625   3.476   2.217   0.623  0.1649  0.6926  0.6551
 1388SOL    HW115626   3.473   2.313   0.618 -0.6925  0.6147 -0.3470
 1388SOL    HW215627   3.466   2.211   0.718 -0.8914  1.4039  0.5985
 1389SOL     OW15628   2.824   1.681  11.735 -0.7084 -0.0568  0.3838
 1389SOL    HW115629   2.838   1.588  11.719 -0.9870 -0.0492  0.0880
 1389SOL    HW215630   2.903   1.704  11.783 -0.7537  0.4609  0.2182
 1390SOL     OW15631   4.453   1.717   9.289  1.0889 -0.0336  0.1000
 1390SOL    HW115632   4.373   1.753   9.251  1.7157 -0.1239 -1.3181
 1390SOL    HW215633   4.411   1.634   9.309  1.1747  0.6142  3.0533
 1391SOL     OW15634   2.225   1.299   4.290 -0.5841  0.0321  0.0369
 1391SOL    HW115635   2.252   1.214   4.324  0.0108  0.6261  1.0462
 1391SOL    HW215636   2.299   1.323   4.234 -0.5455  1.4537  0.6829
 1392SOL     OW15637   0.782   3.695   0.127  0.6095 -0.1676  0.6255
 1392SOL    HW115638   0.743   3.722   0.209  0.6669  0.3417  0.4831
 1392SOL    HW215639   0.719   3.632   0.091  0.7389 -0.1182  0.3113
 1393SOL     OW15640   2.529   2.554   2.496 -0.3319 -0.1364 -0.8898
 1393SOL    HW115641   2.558   2.473   2.454 -1.0191 -0.6189 -0.4458
 1393SOL    HW215642   2.566   2.551   2.584 -2.5518  1.4309  0.1077
 1394SOL     OW15643   4.381   1.034  13.484 -0.0471  0.3206  0.4359
 1394SOL    HW115644   4.414   0.951  13.449 -0.8268 -1.2048  3.3075
 1394SOL    HW215645   4.446   1.059  13.550 -1.6574  1.3769  1.6074
 1395SOL     OW15646   1.410   0.741   1.167 -0.2245  0.1809 -0.6341
 1395SOL    HW115647   1.387   0.790   1.246  2.1576  0.1968  0.0446
 1395SOL    HW215648   1.355   0.772   1.095  1.0534 -0.1576 -1.7778
 1396SOL     OW15649   1.556   0.661   2.456  0.0814 -0.1966  0.6578
 1396SOL    HW115650   1.548   0.649   2.361  3.2179 -0.3735  0.4182
 1396SOL    HW215651   1.470   0.641   2.494 -0.2544 -1.8255 -0.9704
 1397SOL     OW15652   4.460   3.130  15.558  0.5492 -0.5632 -0.1406
 1397SOL    HW115653   4.543   3.139  15.512  0.5731  1.7750  0.3490
 1397SOL    HW215654   4.425   3.063  15.499 -1.5174  1.6568 -1.4391
 1398SOL     OW15655   1.319   2.101   8.677 -0.1529 -0.1114 -0.3322
 1398SOL    HW115656   1.409   2.133   8.685  0.3033 -1.3861 -0.4217
 1398SOL    HW215657   1.344   2.012   8.651 -2.5806 -0.6989 -0.6349
 1399SOL     OW15658   0.184   1.903   4.744  0.1345 -0.0539 -0.2614
 1399SOL    HW115659   0.153   1.975   4.689 -1.3170 -0.0739  0.4993
 1399SOL    HW215660   0.244   1.862   4.682 -0.9663 -4.0299  1.2809
 1400SOL     OW15661   1.653   1.502   5.729 -0.2098  0.4459 -0.1673
 1400SOL    HW115662   1.644   1.591   5.761 -0.8166  0.7355 -1.1424
 1400SOL    HW215663   1.747   1.488   5.740 -0.0809  2.3866  1.0864
 1401SOL     OW15664   1.992   4.710   2.341 -0.5496  0.2319  0.0604
 1401SOL    HW115665   1.999   4.704   2.436 -1.7588  0.3943  0.1529
 1401SOL    HW215666   2.012   0.081   2.333 -0.2559  0.2458  1.0668
 1402SOL     OW15667   0.541   1.275  16.032 -0.2596  0.2542  0.0434
 1402SOL    HW115668   0.488   1.216  15.978 -1.3229  1.3986 -0.1628
 1402SOL    HW215669   0.541   1.349  15.972  1.9947 -0.9934 -1.5150
 1403SOL     OW15670   2.121   3.229  14.590 -0.0868  0.3527 -0.1719
 1403SOL    HW115671   2.119   3.261  14.680 -1.3023 -0.9039  0.2632
 1403SOL    HW215672   2.185   3.288  14.551  1.2881 -1.1055 -0.1308
 1404SOL     OW15673   0.872   3.373   4.861  0.3683 -0.6746 -0.3320
 1404SOL    HW115674   0.887   3.462   4.831  1.5673 -0.3369  1.2642
 1404SOL    HW215675   0.953   3.324   4.848  0.4907 -1.1343  2.1855
 1405SOL     OW15676   0.498   3.250   4.227  0.7227 -0.4177  0.3130
 1405SOL    HW115677   0.567   3.314   4.244 -0.4078  1.1256 -0.9177
 1405SOL    HW215678   0.528   3.208   4.147  1.3505  0.0682  0.2933
 1406SOL     OW15679   3.293   0.363   6.549 -0.1368 -0.8143  0.4553
 1406SOL    HW115680   3.276   0.299   6.618 -0.6295 -0.5039  0.6195
 1406SOL    HW215681   3.277   0.313   6.469 -0.5148 -1.2966  0.8362
 1407SOL     OW15682   3.209   2.430   5.380  0.0302 -0.0304 -0.3245
 1407SOL    HW115683   3.250   2.383   5.307 -2.0329 -1.9570 -0.2548
 1407SOL    HW215684   3.137   2.371   5.401  0.8628 -1.0169 -0.2399
 1408SOL     OW15685   0.546   3.184  15.890  0.1669 -0.7493 -0.1006
 1408SOL    HW115686   0.615   3.226  15.839 -1.0943 -0.6954 -1.7730
 1408SOL    HW215687   0.498   3.261  15.920  1.0765  0.1293 -0.8888
 1409SOL     OW15688   2.548   2.300   6.692 -0.1770  0.5031  0.2158
 1409SOL    HW115689   2.489   2.331   6.761 -1.3308 -1.4716  0.1363
 1409SOL    HW215690   2.500   2.220   6.670  0.9499  0.8132 -3.2271
 1410SOL     OW15691   3.607   0.940   2.092 -0.5236 -0.0860 -0.2704
 1410SOL    HW115692   3.702   0.944   2.090 -0.5082 -0.7609 -1.4055
 1410SOL    HW215693   3.589   0.932   2.185  1.1943 -2.6632 -0.1665
 1411SOL     OW15694   3.466   3.155  10.796 -0.1658 -0.1716  0.4735
 1411SOL    HW115695   3.457   3.123  10.886 -2.1846  1.0865  0.7128
 1411SOL    HW215696   3.488   3.075  10.748  0.5089  0.4291 -0.2146
 1412SOL     OW15697   2.247   4.274   2.259 -0.1864 -0.0126 -0.0855
 1412SOL    HW115698   2.189   4.247   2.189 -0.6263 -0.3834  0.4247
 1412SOL    HW215699   2.200   4.356   2.279 -0.7018 -0.6867  1.4953
 1413SOL     OW15700   2.486   1.047   4.207 -0.3356 -0.1123 -0.6906
 1413SOL    HW115701   2.461   1.112   4.140  0.8310 -1.0515 -2.0332
 1413SOL    HW215702   2.565   1.011   4.168  0.7259 -0.1203  1.5176
 1414SOL     OW15703   2.055   4.576   3.285 -0.1947  0.2904 -0.7745
 1414SOL    HW115704   2.034   4.592   3.192  0.7048  2.2613 -0.6269
 1414SOL    HW215705   2.034   4.656   3.332  0.8289  0.3356 -0.4064
 1415SOL     OW15706   1.816   3.008  11.046 -0.0897  0.3595  0.2086
 1415SOL    HW115707   1.816   2.943  11.116 -2.8868  1.7431  1.5030
 1415SOL    HW215708   1.800   2.951  10.971 -0.6315  0.1477  0.4851
 1416SOL     OW15709   1.227   1.028  13.466 -0.4405  0.0428 -0.5967
 1416SOL    HW115710   1.217   1.115  13.427 -2.5156 -1.0870 -2.5739
 1416SOL    HW215711   1.314   0.999  13.438  0.1785  2.0561 -0.7411
 1417SOL     OW15712   0.892   4.322   1.559 -0.9857  0.1691  0.2093
 1417SOL    HW115713   0.878   4.410   1.595 -2.8179 -1.0738  2.4902
 1417SOL    HW215714   0.911   4.339   1.467 -0.0625 -0.7887  0.2144
 1418SOL     OW15715   0.213   1.831   8.734  0.3463  0.0659 -0.2488
 1418SOL    HW115716   0.131   1.872   8.760  1.5123  0.5440  2.6342
 1418SOL    HW215717   0.276   1.888   8.779  1.1336  0.9160 -2.4029
 1419SOL     OW15718   0.143   1.641   7.240  0.7645 -0.0325  0.3249
 1419SOL    HW115719   0.132   1.562   7.293  0.1766  0.4118  0.8674
 1419SOL    HW215720   0.094   1.700   7.298 -0.2987 -1.4607  0.9041
 1420SOL     OW15721   3.195   4.375  14.031  0.0815  0.6918 -0.1798
 1420SOL    HW115722   3.194   4.424  14.113  1.9079  1.5553 -0.6720
 1420SOL    HW215723   3.195   4.453  13.977  0.5616  0.0947 -1.0421
 1421SOL     OW15724   2.942   4.675   5.305  0.6166 -0.0658  0.1634
 1421SOL    HW115725   2.912   4.586   5.285  0.4204  0.4729 -1.8747
 1421SOL    HW215726   2.860   0.002   5.298  0.6482 -0.2713 -1.5220
 1422SOL     OW15727   0.382   3.315   7.214 -0.2271 -0.3151 -0.0267
 1422SOL    HW115728   0.369   3.240   7.156 -2.4812  1.5263 -1.9263
 1422SOL    HW215729   0.477   3.307   7.225 -0.2593 -1.2128 -0.4324
 1423SOL     OW15730   1.691   4.643  14.538  0.1993  0.2907  0.1975
 1423SOL    HW115731   1.674   4.717  14.480  0.0543  0.7797  0.8761
 1423SOL    HW215732   1.671   4.575  14.474  0.4013  0.4514 -0.0373
 1424SOL     OW15733   1.537   1.487   6.198 -0.3370  0.3861 -0.2308
 1424SOL    HW115734   1.601   1.431   6.153 -0.2620 -2.0351  2.9279
 1424SOL    HW215735   1.497   1.418   6.251 -0.8248  0.3224 -0.6842
 1425SOL     OW15736   3.470   0.848   4.800  0.3817 -1.0155 -0.2667
 1425SOL    HW115737   3.405   0.807   4.856  0.7841 -0.4693  0.6118
 1425SOL    HW215738   3.422   0.907   4.743 -1.7381 -2.2337  0.2701
 1426SOL     OW15739   0.647   1.617  16.653  0.0151  0.3868  0.1085
 1426SOL    HW115740   0.731   1.571  16.655 -0.0559  0.2722  0.4085
 1426SOL    HW215741   0.589   1.543  16.636 -1.5122  1.3325  1.2482
 1427SOL     OW15742   1.968   0.081   7.941  0.8876  0.1482 -0.1745
 1427SOL    HW115743   1.971   0.174   7.920 -2.8652  0.0816 -0.9569
 1427SOL    HW215744   1.880   0.061   7.908  1.0214 -1.6551  0.5751
 1428SOL     OW15745   4.431   2.837  13.249 -0.1323  0.7875 -0.2319
 1428SOL    HW115746   4.490   2.894  13.199  0.5024  1.9340  1.8151
 1428SOL    HW215747   4.469   2.845  13.337 -0.2181 -1.7102  0.0115
 1429SOL     OW15748   3.890   4.721   1.376  0.7381  0.6499 -0.0788
 1429SOL    HW115749   3.977   4.720   1.415 -0.5287 -0.3096  2.7369
 1429SOL    HW215750   3.844   0.066   1.426  0.5148 -0.3609  1.0717
 1430SOL     OW15751   2.420   4.181   7.281 -0.3345  0.1924 -0.4292
 1430SOL    HW115752   2.376   4.119   7.338 -1.6072 -1.1391 -2.8278
 1430SOL    HW215753   2.358   4.254   7.290 -1.1968 -0.4377 -1.1453
 1431SOL     OW15754   0.022   2.144  13.782  0.3180  0.1698 -0.0229
 1431SOL    HW115755   4.682   2.139  13.855 -1.1746  1.0421 -1.2338
 1431SOL    HW215756   4.696   2.087  13.723  1.9519  1.1768 -2.3420
 1432SOL     OW15757   3.661   3.872   7.437 -0.4077  0.3018 -0.1534
 1432SOL    HW115758   3.723   3.855   7.366  0.2192 -0.8323  0.6742
 1432SOL    HW215759   3.581   3.913   7.402  0.0068 -0.5475 -2.0646
 1433SOL     OW15760   3.016   1.319   2.025 -0.3947 -0.4488 -0.9486
 1433SOL    HW115761   3.097   1.268   2.032 -1.1714 -0.9813  4.0389
 1433SOL    HW215762   3.002   1.325   2.119  1.1680  0.5241 -0.7797
 1434SOL     OW15763   1.112   0.086   5.578 -1.0569  0.6579  0.3346
 1434SOL    HW115764   1.057   0.011   5.554 -1.1562  0.6317  0.6542
 1434SOL    HW215765   1.069   0.153   5.526 -0.9110 -1.1776 -2.1673
 1435SOL     OW15766   1.203   4.055  12.827  0.2858  0.3624  0.3253
 1435SOL    HW115767   1.256   4.013  12.894 -1.7780 -0.2982  1.5498
 1435SOL    HW215768   1.206   4.145  12.860  0.1295  0.3300  0.4294
 1436SOL     OW15769   2.161   3.322  14.838  0.3750 -0.2950 -0.2636
 1436SOL    HW115770   2.125   3.306  14.926  2.9840 -2.8838  0.3554
 1436SOL    HW215771   2.254   3.323  14.860 -0.2606 -1.8000  2.5152
 1437SOL     OW15772   4.598   4.374   8.506 -0.3787  0.0739 -0.3259
 1437SOL    HW115773   4.592   4.469   8.514 -1.0280  0.1889 -2.0888
 1437SOL    HW215774   4.677   4.348   8.554 -1.2719  0.4550  1.3553
 1438SOL     OW15775   2.204   4.577  15.782 -0.3520  0.2637 -0.0670
 1438SOL    HW115776   2.281   4.617  15.741 -0.7032  1.6488  0.6416
 1438SOL    HW215777   2.135   4.604  15.722  0.3107  1.1297 -0.4400
 1439SOL     OW15778   4.703   1.679   5.885 -0.5822 -0.1462  0.1360
 1439SOL    HW115779   4.680   1.587   5.875 -0.8584 -0.0248 -0.3375
 1439SOL    HW215780   4.628   1.722   5.926  2.0539  2.1882  2.5460
 1440SOL     OW15781   4.446   3.140   6.163  0.0926  0.5527  0.1262
 1440SOL    HW115782   4.461   3.141   6.069  1.3315 -1.6512  0.3199
 1440SOL    HW215783   4.370   3.198   6.172 -1.3147 -1.1084 -1.1865
 1441SOL     OW15784   3.979   1.713  12.818 -0.1146  0.5531 -0.4997
 1441SOL    HW115785   3.911   1.706  12.752 -0.4188  0.4640 -0.1780
 1441SOL    HW215786   3.923   1.732  12.893 -0.0523  0.4432 -0.4254
 1442SOL     OW15787   0.877   0.555  16.473  0.2307 -0.4651  0.2243
 1442SOL    HW115788   0.807   0.552  16.538  0.2580  1.4553  0.3595
 1442SOL    HW215789   0.940   0.607  16.523  0.5870 -0.3439 -0.3459
 1443SOL     OW15790   0.133   2.153  16.690 -0.0499  0.6784 -0.3339
 1443SOL    HW115791   0.205   2.110  16.735 -0.3944  0.4976  0.0426
 1443SOL    HW215792   0.125   2.107  16.606 -1.1367  1.3492 -0.6032
 1444SOL     OW15793   2.353   4.202  10.427  0.1125  0.2614 -0.0671
 1444SOL    HW115794   2.328   4.286  10.467  2.1150  1.9978 -2.4564
 1444SOL    HW215795   2.440   4.219  10.391  0.5060 -1.0212  0.2810
 1445SOL     OW15796   2.955   2.167   4.882  0.1693 -0.4328  0.2002
 1445SOL    HW115797   2.993   2.178   4.795 -0.2783  2.9345  0.4448
 1445SOL    HW215798   2.886   2.100   4.875 -0.5455  0.2087  1.1450
 1446SOL     OW15799   0.042   4.612   4.650 -0.4334 -0.3571  0.4031
 1446SOL    HW115800   0.003   4.698   4.662 -0.5790 -0.2008 -1.1821
 1446SOL    HW215801   0.086   4.606   4.735  1.5770  3.3842 -0.3672
 1447SOL     OW15802   2.758   4.270  15.438 -0.4747  0.0374  0.1808
 1447SOL    HW115803   2.773   4.316  15.520 -2.4948 -0.7034  0.9636
 1447SOL    HW215804   2.754   4.344  15.377 -0.2800  0.9393  1.2705
 1448SOL     OW15805   2.474   4.577  11.622 -0.4573 -0.0776  0.4795
 1448SOL    HW115806   2.400   4.526  11.656  0.2819  0.1445  2.4656
 1448SOL    HW215807   2.438   4.607  11.539  0.4047 -0.4752 -0.0402
 1449SOL     OW15808   0.239   2.908  12.863  0.2907  0.3672  0.3036
 1449SOL    HW115809   0.199   2.882  12.780  1.1543  0.5351 -0.1610
 1449SOL    HW215810   0.306   2.965  12.824 -0.2852  0.1733 -0.9581
 1450SOL     OW15811   1.945   0.791   3.255 -0.3279  0.4401 -0.3900
 1450SOL    HW115812   1.873   0.797   3.318  0.3475  0.5550  0.3635
 1450SOL    HW215813   1.906   0.833   3.178 -0.3241  0.0021 -0.6273
 1451SOL     OW15814   3.638   3.159   8.023 -0.2305 -0.2501 -0.2474
 1451SOL    HW115815   3.622   3.067   8.041  0.4195 -0.3028  0.0652
 1451SOL    HW215816   3.732   3.163   8.006 -0.3040 -0.0215 -0.6012
 1452SOL     OW15817   2.810   4.442   5.355 -0.1055  0.0659 -0.6145
 1452SOL    HW115818   2.864   4.364   5.360 -0.2013  0.0627  0.3396
 1452SOL    HW215819   2.732   4.399   5.320 -1.0709  0.5398  0.9535
 1453SOL     OW15820   3.163   4.289   5.536  0.0757  0.0223  0.4783
 1453SOL    HW115821   3.168   4.193   5.532 -1.6577  0.0304 -1.6321
 1453SOL    HW215822   3.256   4.313   5.538 -0.0173  0.3856  0.4133
 1454SOL     OW15823   0.613   3.782   8.207 -0.1086 -0.4776  0.5439
 1454SOL    HW115824   0.548   3.752   8.270 -0.2272  0.6959  0.9838
 1454SOL    HW215825   0.675   3.815   8.272 -0.1352  1.0240 -0.1890
 1455SOL     OW15826   3.614   4.100   5.514  0.3017 -0.2418  0.2982
 1455SOL    HW115827   3.552   4.044   5.561 -1.0754  1.2795  0.2851
 1455SOL    HW215828   3.603   4.177   5.568 -0.4135  0.7177 -1.2140
 1456SOL     OW15829   2.678   3.177   3.397  0.1308  0.1805 -0.3111
 1456SOL    HW115830   2.749   3.166   3.334  0.4000 -0.4089  0.0933
 1456SOL    HW215831   2.612   3.113   3.369  1.3494 -1.4177  0.4729
 1457SOL     OW15832   2.107   0.441   1.014 -0.1037  0.0053 -0.3103
 1457SOL    HW115833   2.076   0.442   0.924  0.9017 -0.8799 -0.6770
 1457SOL    HW215834   2.123   0.535   1.025  0.5197 -0.0894 -0.3615
 1458SOL     OW15835   1.035   2.338   6.518  0.0568  0.5161 -0.3628
 1458SOL    HW115836   1.073   2.371   6.599  1.0016 -2.2463  0.3185
 1458SOL    HW215837   0.968   2.406   6.513  0.5678  1.0077 -0.4783
 1459SOL     OW15838   4.333   2.719   3.072 -0.0145  0.6379  0.1124
 1459SOL    HW115839   4.393   2.769   3.018  0.2581 -0.1838 -0.3385
 1459SOL    HW215840   4.342   2.636   3.025  0.9506 -0.1391  1.6463
 1460SOL     OW15841   0.166   3.992   5.850  0.0207  0.1876 -0.2486
 1460SOL    HW115842   0.135   3.958   5.934 -0.3803  0.6489 -0.2138
 1460SOL    HW215843   0.130   4.081   5.853 -0.7291 -0.1192 -0.1570
 1461SOL     OW15844   2.970   1.471   8.846 -0.1062  0.8853 -0.2768
 1461SOL    HW115845   2.947   1.378   8.843  0.6736  0.6610  0.7141
 1461SOL    HW215846   2.960   1.511   8.760 -3.6211 -0.2981 -0.4036
 1462SOL     OW15847   4.573   0.436   3.284  0.0022  0.2369  0.3766
 1462SOL    HW115848   4.667   0.428   3.269  0.5148  0.7730  3.2572
 1462SOL    HW215849   4.566   0.528   3.256  1.1516  0.6458  1.4138
 1463SOL     OW15850   2.190   2.763   3.926 -0.0799  0.1770 -0.3398
 1463SOL    HW115851   2.274   2.718   3.922  0.6734  1.5506 -0.1105
 1463SOL    HW215852   2.140   2.722   3.996  2.5314 -0.9834  0.8337
 1464SOL     OW15853   3.663   3.099   5.553  0.2328  0.1413  0.2554
 1464SOL    HW115854   3.614   3.155   5.613 -2.0999  0.3634 -1.8688
 1464SOL    HW215855   3.643   3.007   5.570 -0.7829  0.0113 -1.7666
 1465SOL     OW15856   3.316   2.499   4.174 -0.1017  0.4575  0.0649
 1465SOL    HW115857   3.377   2.552   4.225 -1.4337  1.0900  1.0173
 1465SOL    HW215858   3.338   2.523   4.084  1.1363  2.4344  0.8944
 1466SOL     OW15859   4.356   1.964   1.916 -0.5929  0.2778 -0.0771
 1466SOL    HW115860   4.362   2.017   1.995  2.4051  1.6663 -1.2252
 1466SOL    HW215861   4.392   2.015   1.844  1.3319 -0.9921 -0.0210
 1467SOL     OW15862   1.200   4.018   1.185 -0.3045  0.2378 -0.2768
 1467SOL    HW115863   1.230   3.973   1.105  1.3896  2.8312 -1.1161
 1467SOL    HW215864   1.200   4.109   1.156  1.4328  0.6335  1.0103
 1468SOL     OW15865   3.451   0.301   5.261 -0.4819  0.2181  0.5717
 1468SOL    HW115866   3.473   0.390   5.233 -0.5939 -0.5519 -2.0162
 1468SOL    HW215867   3.520   0.267   5.318 -0.3193 -0.2551  0.0939
 1469SOL     OW15868   0.950   4.501  10.546  0.1655  0.1562  0.0421
 1469SOL    HW115869   0.962   4.408  10.530 -0.1396 -0.1952  1.8488
 1469SOL    HW215870   0.854   4.503  10.556 -0.0375  2.0851 -2.3935
 1470SOL     OW15871   0.673   2.964   7.496 -0.2225 -0.1025  0.2415
 1470SOL    HW115872   0.750   2.913   7.471  0.0290  1.2261 -1.7080
 1470SOL    HW215873   0.694   2.959   7.589 -2.1388 -2.1347  0.5786
 1471SOL     OW15874   3.290   0.602   3.560 -0.2006 -0.0481 -0.3285
 1471SOL    HW115875   3.383   0.605   3.536 -0.5896  2.1806 -1.5828
 1471SOL    HW215876   3.250   0.616   3.474  0.7640  2.0389 -0.4501
 1472SOL     OW15877   2.877   1.983   3.446  0.2116  0.2832 -0.5040
 1472SOL    HW115878   2.872   1.962   3.353 -0.1462 -0.7136 -0.2629
 1472SOL    HW215879   2.782   1.992   3.459  0.3226  0.4178  0.2193
 1473SOL     OW15880   1.361   3.681   8.091 -0.0972 -0.3545 -0.8596
 1473SOL    HW115881   1.455   3.683   8.109 -0.2399  3.1367 -0.4090
 1473SOL    HW215882   1.343   3.587   8.090  1.1010 -0.5679 -1.8321
 1474SOL     OW15883   1.213   4.310   1.623 -0.2937 -0.1863  0.5492
 1474SOL    HW115884   1.243   4.254   1.551  1.0944  2.0841 -0.6450
 1474SOL    HW215885   1.125   4.275   1.637  0.5509 -2.2941  0.5454
 1475SOL     OW15886   4.219   1.832   2.776 -0.0731 -0.2567  0.4142
 1475SOL    HW115887   4.156   1.778   2.729  0.5630 -1.5923  1.0731
 1475SOL    HW215888   4.175   1.846   2.860 -0.2164 -0.4058  0.3633
 1476SOL     OW15889   1.861   4.030   5.227 -0.4285 -0.4779 -0.0856
 1476SOL    HW115890   1.777   3.992   5.253 -1.0400  1.5424  0.8703
 1476SOL    HW215891   1.840   4.121   5.209  0.9013 -0.4821 -1.6119
 1477SOL     OW15892   2.019   1.479   1.523  0.5451  0.2798  0.1679
 1477SOL    HW115893   1.965   1.448   1.450 -0.1926  0.2994  0.6986
 1477SOL    HW215894   2.101   1.444   1.490  0.4027 -1.5700  1.7398
 1478SOL     OW15895   2.518   2.941   0.466 -0.1291 -0.5672  0.2501
 1478SOL    HW115896   2.479   2.860   0.433  0.8835  0.1235 -2.7097
 1478SOL    HW215897   2.590   2.952   0.404  0.1473  1.4022  0.9256
 1479SOL     OW15898   2.399   2.587  14.607  0.3451 -0.1895 -0.4510
 1479SOL    HW115899   2.358   2.513  14.652 -0.1753  0.7117  0.5412
 1479SOL    HW215900   2.486   2.586  14.648 -0.2625 -1.6932  0.8140
 1480SOL     OW15901   2.589   3.987  14.004 -0.5960  0.0782 -0.8294
 1480SOL    HW115902   2.556   4.063  14.052  0.1757  0.3579 -0.7461
 1480SOL    HW215903   2.599   3.932  14.081  1.6607 -1.1042 -1.9650
 1481SOL     OW15904   1.246   0.896   0.659  0.2331 -0.2028 -0.3835
 1481SOL    HW115905   1.330   0.906   0.615  0.9456 -0.2526  1.0003
 1481SOL    HW215906   1.210   0.811   0.634 -0.1021 -0.4408  0.9223
 1482SOL     OW15907   0.444   3.424   2.299 -0.5599 -0.1365 -0.0622
 1482SOL    HW115908   0.517   3.438   2.238  0.7755  0.7735  1.7557
 1482SOL    HW215909   0.498   3.412   2.377  1.4811  1.1619 -1.2679
 1483SOL     OW15910   2.250   0.679   7.621  0.0547 -0.4755 -0.8389
 1483SOL    HW115911   2.282   0.603   7.669  1.2672  0.9491  0.6275
 1483SOL    HW215912   2.160   0.693   7.652  0.1665  2.8102 -2.0044
 1484SOL     OW15913   0.164   1.040   5.404 -0.1192  0.2008 -0.1160
 1484SOL    HW115914   0.191   1.064   5.316  2.0944  0.1113  0.5501
 1484SOL    HW215915   0.251   1.049   5.441 -1.2062  1.0706  2.2062
 1485SOL     OW15916   2.919   2.700   0.485  0.1187  0.6130 -0.1318
 1485SOL    HW115917   2.986   2.692   0.553  1.5565 -2.1556 -1.8627
 1485SOL    HW215918   2.853   2.748   0.534 -2.1491 -1.3952 -1.2206
 1486SOL     OW15919   3.935   0.386   0.202  0.8888  0.3755 -0.4236
 1486SOL    HW115920   3.897   0.472   0.185  0.6485  0.2871 -0.3435
 1486SOL    HW215921   3.869   0.337   0.153 -0.3897 -0.5349  2.1852
 1487SOL     OW15922   0.687   3.576   7.137 -0.0064  0.4863  0.7167
 1487SOL    HW115923   0.630   3.564   7.213  2.9654  2.0057  3.2138
 1487SOL    HW215924   0.729   3.661   7.144 -0.7106  1.0759 -2.2634
 1488SOL     OW15925   2.711   4.348  13.733 -0.0617 -0.2220 -0.5216
 1488SOL    HW115926   2.685   4.368  13.643 -1.8061  2.6334  0.6113
 1488SOL    HW215927   2.646   4.401  13.780  0.3037  0.2509 -0.5428
 1489SOL     OW15928   0.774   0.156   7.083  0.5320  0.1827  0.5022
 1489SOL    HW115929   0.694   0.196   7.118 -0.3300  0.6086 -1.9915
 1489SOL    HW215930   0.836   0.176   7.152  0.0797 -1.1090  1.2979
 1490SOL     OW15931   3.750   2.832   7.582  0.3637  0.2312  0.7546
 1490SOL    HW115932   3.793   2.749   7.600 -0.8919  0.0343  2.7746
 1490SOL    HW215933   3.821   2.878   7.536  0.4306 -0.4319  0.1967
 1491SOL     OW15934   0.118   2.072   3.719 -0.4063 -0.0032  0.2763
 1491SOL    HW115935   0.091   2.014   3.648 -2.4184 -0.0455  1.0952
 1491SOL    HW215936   0.071   2.032   3.793 -0.0247 -1.3486 -0.2047
 1492SOL     OW15937   4.269   1.559  13.164 -0.4065  0.0147 -0.5147
 1492SOL    HW115938   4.210   1.547  13.089  1.9712  0.4932 -2.4722
 1492SOL    HW215939   4.329   1.627  13.131  0.1619 -0.3414 -0.2219
 1493SOL     OW15940   2.241   3.702  15.439 -0.2688  0.6957  0.0469
 1493SOL    HW115941   2.240   3.664  15.351 -0.7536 -0.3550  0.5082
 1493SOL    HW215942   2.194   3.786  15.443  2.0761  2.0010  0.2371
 1494SOL     OW15943   4.686   0.083   8.122  0.3028  0.6741 -0.7186
 1494SOL    HW115944   4.665   0.098   8.214 -1.4465 -1.1761 -0.8042
 1494SOL    HW215945   0.058   0.097   8.113  0.4198  0.4085  0.0910
 1495SOL     OW15946   0.199   1.377  17.400 -0.2075  0.2426 -0.4454
 1495SOL    HW115947   0.167   1.302  17.351  1.8495  0.6292 -2.3980
 1495SOL    HW215948   0.206   1.443  17.331 -2.7689  0.6969 -0.2394
 1496SOL     OW15949   1.470   2.607   3.320  0.5916  0.1633 -0.1041
 1496SOL    HW115950   1.468   2.542   3.391 -1.4021  1.1699  0.7797
 1496SOL    HW215951   1.537   2.560   3.271  1.2457 -0.7485  1.6584
 1497SOL     OW15952   2.001   1.823   3.472  0.6397  0.1934  0.2852
 1497SOL    HW115953   2.082   1.774   3.484 -0.6007 -1.9091  0.0851
 1497SOL    HW215954   2.012   1.887   3.401 -2.3204 -0.0228 -0.3776
 1498SOL     OW15955   2.399   1.855  12.005  1.1336  0.4339 -0.4421
 1498SOL    HW115956   2.378   1.912  11.931  0.3506  1.6070  0.6897
 1498SOL    HW215957   2.482   1.813  11.982  0.8503 -1.2542  1.6333
 1499SOL     OW15958   3.828   3.693   3.526  0.4862  0.2822  0.5035
 1499SOL    HW115959   3.770   3.762   3.559 -0.9205 -0.2391 -0.8397
 1499SOL    HW215960   3.849   3.735   3.443  2.2572  2.1322  1.9059
 1500SOL     OW15961   1.052   4.314  16.654 -0.8371  0.1655  0.2086
 1500SOL    HW115962   1.090   4.363  16.581  0.3929  0.1152  0.8232
 1500SOL    HW215963   1.098   4.232  16.635 -1.3655 -0.0538 -0.1180
 1501SOL     OW15964   1.676   0.061  12.330 -0.7569 -0.0124 -0.2913
 1501SOL    HW115965   1.616   0.122  12.372 -0.2946  0.3394 -0.1344
 1501SOL    HW215966   1.682   0.002  12.405  0.6896  5.1473  3.6549
 1502SOL     OW15967   2.818   3.929   4.192  0.2274  0.1104  1.0368
 1502SOL    HW115968   2.826   3.838   4.221 -1.5722 -0.3987 -0.0339
 1502SOL    HW215969   2.789   3.979   4.268 -0.9555 -0.0180  0.6741
 1503SOL     OW15970   3.567   1.284  16.029 -0.2307 -0.3874  0.2429
 1503SOL    HW115971   3.624   1.212  16.000  1.0555  0.1155  1.4931
 1503SOL    HW215972   3.486   1.268  15.981 -0.3912  0.0785  0.3580
 1504SOL     OW15973   0.042   1.121   6.296  0.1497 -0.2934 -0.1887
 1504SOL    HW115974   4.684   1.149   6.340 -0.0979 -1.9127  0.4160
 1504SOL    HW215975   0.086   1.067   6.362  1.8673  1.0720 -0.2176
 1505SOL     OW15976   0.740   4.559   4.525  0.0284 -0.0720 -0.1761
 1505SOL    HW115977   0.809   4.501   4.555  0.2223  1.2479  1.9342
 1505SOL    HW215978   0.781   4.646   4.524 -0.4306  0.1444 -0.2474
 1506SOL     OW15979   0.485   1.038   2.250 -0.3227 -0.3707 -0.1423
 1506SOL    HW115980   0.570   1.045   2.207 -0.3115 -0.4237 -0.1296
 1506SOL    HW215981   0.445   1.105   2.194 -0.2046 -0.9163 -0.8883
 1507SOL     OW15982   3.421   1.409  13.774 -0.0976 -0.4736 -0.2550
 1507SOL    HW115983   3.462   1.322  13.769 -2.4236 -1.4988 -1.4896
 1507SOL    HW215984   3.486   1.460  13.726 -0.3179 -0.9004 -1.0135
 1508SOL     OW15985   0.600   0.544   7.133 -0.2981 -0.0815  1.0754
 1508SOL    HW115986   0.615   0.480   7.202 -1.2002 -0.7847  0.6301
 1508SOL    HW215987   0.687   0.551   7.094 -1.0189  0.7049 -0.3785
 1509SOL     OW15988   1.973   0.135  10.366  0.2358  0.0417  0.4360
 1509SOL    HW115989   1.898   0.180  10.404  0.5643  0.0406  1.0813
 1509SOL    HW215990   1.953   0.131  10.273 -1.0179 -3.1394  0.8216
 1510SOL     OW15991   1.011   0.718   6.267  0.6169 -0.4818  0.0912
 1510SOL    HW115992   1.035   0.641   6.215  0.1630 -0.1404 -0.6177
 1510SOL    HW215993   1.095   0.765   6.268 -0.5426  1.6237 -0.1365
 1511SOL     OW15994   0.251   3.335   4.700  0.8864  0.1225 -0.1114
 1511SOL    HW115995   0.214   3.384   4.774  1.1204 -0.5424  0.4375
 1511SOL    HW215996   0.172   3.291   4.668  0.3516  0.9015  0.1189
 1512SOL     OW15997   2.406   4.211  16.014 -0.2049 -0.4134  0.0061
 1512SOL    HW115998   2.333   4.264  16.047  0.8044  1.4533 -0.7879
 1512SOL    HW215999   2.388   4.128  16.057 -2.5213  0.1289  0.0672
 1513SOL     OW16000   4.238   0.423   1.783  0.2182  0.8981 -0.7290
 1513SOL    HW116001   4.276   0.510   1.766  0.7602  0.7813 -0.1260
 1513SOL    HW216002   4.163   0.429   1.725 -1.2433 -1.4442  0.8996
 1514SOL     OW16003   2.432   4.721   3.682 -0.8337 -0.8276 -0.4373
 1514SOL    HW116004   2.442   4.630   3.653  3.6196 -0.3635 -0.4039
 1514SOL    HW216005   2.392   0.043   3.607  1.3487  1.0753 -0.4811
 1515SOL     OW16006   0.704   3.789   2.171 -0.2521 -0.4096 -0.0487
 1515SOL    HW116007   0.755   3.825   2.099  1.7736  0.4723  1.8116
 1515SOL    HW216008   0.628   3.847   2.166 -0.0945 -0.2507 -0.6161
 1516SOL     OW16009   1.003   3.529   8.790  0.0028 -0.6732  0.2256
 1516SOL    HW116010   1.090   3.490   8.802 -0.2038 -0.3544  2.8724
 1516SOL    HW216011   0.986   3.553   8.881  0.1654 -0.0308  0.0847
 1517SOL     OW16012   0.354   3.706   9.227 -0.3756  0.1066 -0.2050
 1517SOL    HW116013   0.410   3.777   9.194  1.1864 -1.1677 -0.2804
 1517SOL    HW216014   0.420   3.651   9.269 -1.1534 -1.0817 -0.5417
 1518SOL     OW16015   1.404   2.522   2.399 -0.1640  0.2310 -0.3250
 1518SOL    HW116016   1.412   2.427   2.413  0.6494  0.4826  0.9586
 1518SOL    HW216017   1.415   2.531   2.304 -0.3295 -1.0728 -0.4667
 1519SOL     OW16018   2.946   1.957   4.549 -0.2052 -0.0417  0.6357
 1519SOL    HW116019   3.020   1.954   4.488 -0.0346  1.0663  0.7944
 1519SOL    HW216020   2.904   1.873   4.533  0.2196  0.0308 -0.8644
 1520SOL     OW16021   0.564   0.231  10.719  0.4821 -0.0829  0.1577
 1520SOL    HW116022   0.510   0.213  10.795  0.2926  0.3518  0.1236
 1520SOL    HW216023   0.643   0.177  10.725  1.4801  1.4410  0.8379
 1521SOL     OW16024   1.715   2.724   2.322 -0.1418  0.0334 -0.0538
 1521SOL    HW116025   1.619   2.724   2.329 -0.2699 -0.7621 -1.5744
 1521SOL    HW216026   1.723   2.817   2.301  0.5749  0.0500  0.2959
 1522SOL     OW16027   1.062   1.680   5.172  0.1588 -0.1971 -0.3117
 1522SOL    HW116028   1.053   1.633   5.089 -2.7080  1.2928 -0.8529
 1522SOL    HW216029   1.092   1.769   5.149 -1.3735 -0.0805 -1.9123
 1523SOL     OW16030   2.252   4.272   8.446  0.4146 -0.0960 -0.1882
 1523SOL    HW116031   2.336   4.315   8.462  1.0253 -1.1910 -0.4194
 1523SOL    HW216032   2.227   4.258   8.537  2.2421 -3.3462 -0.1832
 1524SOL     OW16033   4.353   1.354  14.128  0.5116 -0.0031  0.2850
 1524SOL    HW116034   4.293   1.280  14.124  0.5182  0.1045 -1.7864
 1524SOL    HW216035   4.371   1.364  14.221  0.5715  1.5699  0.1153
 1525SOL     OW16036   3.248   0.083   4.353  0.3441 -0.5708 -0.2400
 1525SOL    HW116037   3.180   0.030   4.395 -0.2751  1.7648  1.6953
 1525SOL    HW216038   3.284   0.117   4.434  1.4483 -0.6621 -0.7029
 1526SOL     OW16039   1.448   2.752   7.205  0.6504  0.1971 -0.0997
 1526SOL    HW116040   1.391   2.768   7.280 -0.6561 -2.1905 -0.5624
 1526SOL    HW216041   1.476   2.842   7.189 -0.9966  1.1864  2.5232
 1527SOL     OW16042   1.103   0.371   3.286 -0.2434  0.7578  0.7454
 1527SOL    HW116043   1.071   0.341   3.371  1.5792  0.4162  1.3008
 1527SOL    HW216044   1.122   0.288   3.243  0.6856  0.1533  2.3489
 1528SOL     OW16045   4.113   3.454   2.412 -0.0366  0.1863 -0.0643
 1528SOL    HW116046   4.100   3.429   2.320  0.4665 -0.8544  0.1413
 1528SOL    HW216047   4.057   3.529   2.427  0.0098  0.1976  0.0477
 1529SOL     OW16048   2.592   2.607  12.989  0.4975 -0.5864  0.2957
 1529SOL    HW116049   2.577   2.524  12.944 -1.3976 -0.3501  0.4863
 1529SOL    HW216050   2.687   2.621  12.994  0.5950 -1.8599  2.0337
 1530SOL     OW16051   3.293   1.570   8.750 -0.1203  0.3490  0.2199
 1530SOL    HW116052   3.269   1.638   8.813  3.0326  2.1733 -0.5061
 1530SOL    HW216053   3.353   1.518   8.803 -1.7832 -1.1288  0.6519
 1531SOL     OW16054   4.340   4.286  16.388 -0.1233  0.8316  0.0321
 1531SOL    HW116055   4.409   4.223  16.369 -1.6374 -0.7114 -0.3666
 1531SOL    HW216056   4.361   4.359  16.330 -0.3852  1.0342  0.1883
 1532SOL     OW16057   1.448   2.954   6.108  0.0033  0.6291 -0.1324
 1532SOL    HW116058   1.432   2.895   6.181 -2.7328 -0.6570 -1.7895
 1532SOL    HW216059   1.464   3.038   6.151 -1.6945  0.9236 -0.1089
 1533SOL     OW16060   1.650   1.044  11.641 -0.6677  0.2148 -0.5917
 1533SOL    HW116061   1.592   1.112  11.606 -0.7940  0.7567  0.6763
 1533SOL    HW216062   1.596   0.968  11.621  0.6457 -0.5438 -1.2453
 1534SOL     OW16063   0.952   1.806  13.968  0.1551  0.5080 -0.8257
 1534SOL    HW116064   0.973   1.889  13.925 -0.7960 -0.1685 -2.5738
 1534SOL    HW216065   0.923   1.824  14.058  1.3020  0.2205 -0.3857
 1535SOL     OW16066   1.960   2.571   3.137 -0.1041 -0.3401  0.0154
 1535SOL    HW116067   1.903   2.605   3.206 -1.6254 -1.8291 -0.5062
 1535SOL    HW216068   1.966   2.475   3.139  0.8807 -0.2874 -0.5741
 1536SOL     OW16069   2.742   2.155  12.493  0.3273 -0.5964  0.1547
 1536SOL    HW116070   2.662   2.184  12.450  0.3851  1.2584  1.2927
 1536SOL    HW216071   2.784   2.241  12.493 -0.8721 -0.0115  0.9530
 1537SOL     OW16072   0.078   3.769   7.001  0.5204  0.0242  0.4885
 1537SOL    HW116073   0.133   3.846   6.987  1.9914 -1.1365 -0.1350
 1537SOL    HW216074   0.045   3.786   7.089 -0.3482 -1.7536  0.5034
 1538SOL     OW16075   3.423   2.614   7.531 -0.2308  0.1339 -0.9063
 1538SOL    HW116076   3.368   2.563   7.470  0.9215  0.9973 -2.6495
 1538SOL    HW216077   3.510   2.606   7.492 -0.3706  0.1125 -1.2163
 1539SOL     OW16078   0.059   2.461   4.861 -0.7021  0.1681 -0.4232
 1539SOL    HW116079   0.064   2.386   4.919  2.0690  0.5236 -0.2196
 1539SOL    HW216080   0.048   2.530   4.926 -1.2667 -0.7558  0.4579
 1540SOL     OW16081   0.142   0.912   8.762  0.2633  0.0647 -0.1346
 1540SOL    HW116082   0.232   0.891   8.740  0.4022  0.0889  0.4116
 1540SOL    HW216083   0.165   0.938   8.851  0.6345 -1.0334  0.0847
 1541SOL     OW16084   2.454   0.618  14.182 -0.7261 -0.1329  0.3209
 1541SOL    HW116085   2.436   0.697  14.234  0.3845  0.4826 -0.2164
 1541SOL    HW216086   2.390   0.630  14.113  0.3689  0.3469 -0.6011
 1542SOL     OW16087   0.481   0.340  14.381  0.5283 -0.3544  0.0647
 1542SOL    HW116088   0.501   0.394  14.458  1.3475  0.1101 -0.4805
 1542SOL    HW216089   0.420   0.395  14.331  1.6294 -1.3249 -2.3294
 1543SOL     OW16090   4.611   2.907   6.594 -0.4734  0.0491 -0.2703
 1543SOL    HW116091   4.589   2.990   6.551 -0.7625 -0.1617 -0.5300
 1543SOL    HW216092   4.616   2.844   6.523 -1.0108  0.8065 -0.9876
 1544SOL     OW16093   2.953   3.921   9.129  0.0010 -0.1484 -0.4130
 1544SOL    HW116094   2.906   3.973   9.064  2.1725  1.9823 -0.2638
 1544SOL    HW216095   2.897   3.843   9.127  0.7537 -0.6651 -1.3258
 1545SOL     OW16096   0.041   2.696   0.669  0.0761  0.6332 -0.0492
 1545SOL    HW116097   4.709   2.618   0.659  1.1560 -0.1456  0.2127
 1545SOL    HW216098   0.035   2.735   0.581 -1.7916  0.8484  0.1646
 1546SOL     OW16099   0.213   0.920   6.406  0.4415 -0.7106  0.0168
 1546SOL    HW116100   0.186   0.872   6.328 -0.4072 -0.9416  0.4598
 1546SOL    HW216101   0.302   0.885   6.417  0.0589 -1.5438  0.4261
 1547SOL     OW16102   2.189   3.727   3.527  0.5943  0.6699 -0.2365
 1547SOL    HW116103   2.125   3.772   3.472  0.2694  1.3843  0.7315
 1547SOL    HW216104   2.145   3.642   3.520 -0.0141  0.9211  0.6592
 1548SOL     OW16105   3.121   1.270   7.171 -0.0595 -0.3270 -0.3249
 1548SOL    HW116106   3.051   1.211   7.145  0.2672 -0.3990 -1.0435
 1548SOL    HW216107   3.110   1.291   7.264 -1.5936  0.8652 -0.7871
 1549SOL     OW16108   0.317   0.027  14.798  0.0704 -0.4350 -0.0787
 1549SOL    HW116109   0.396   4.695  14.801  1.2836  1.3851  0.4312
 1549SOL    HW216110   0.264   4.682  14.756  0.5298  0.6745 -2.4080
 1550SOL     OW16111   1.334   4.531   6.142 -0.5371  0.3156 -0.5416
 1550SOL    HW116112   1.325   4.624   6.120  0.3215  0.7020  0.7826
 1550SOL    HW216113   1.303   4.483   6.065 -0.6260 -2.5737  1.3151
 1551SOL     OW16114   2.010   2.277  12.045 -0.3966  0.0714  0.0363
 1551SOL    HW116115   2.027   2.303  11.954  1.8359  0.9317  0.6914
 1551SOL    HW216116   2.080   2.215  12.066  0.5839  0.6404 -1.5593
 1552SOL     OW16117   0.542   1.628   4.171  0.2228 -0.0958  0.1958
 1552SOL    HW116118   0.501   1.641   4.257 -0.1581  2.4661 -0.3844
 1552SOL    HW216119   0.630   1.597   4.191  0.8834  3.1689  2.3923
 1553SOL     OW16120   2.572   2.030   6.335  0.1507  0.3664  0.2219
 1553SOL    HW116121   2.621   2.055   6.257  0.4058 -0.7498  0.0268
 1553SOL    HW216122   2.494   2.014   6.282 -1.1781 -1.1770  2.6513
 1554SOL     OW16123   2.711   2.987   0.031  0.4525  0.1457 -0.1898
 1554SOL    HW116124   2.757   3.056   0.078 -1.0958  0.5781  0.6790
 1554SOL    HW216125   2.669   3.033  17.648 -0.3026 -0.1559  0.0579
 1555SOL     OW16126   3.043   0.649   9.410 -0.4252 -0.4607 -0.4815
 1555SOL    HW116127   3.079   0.607   9.331 -2.6558 -1.2606 -1.0644
 1555SOL    HW216128   3.102   0.718   9.438  0.0827 -0.3561 -1.8054
 1556SOL     OW16129   2.073   2.576   6.901 -0.1087  0.0651 -0.1602
 1556SOL    HW116130   2.149   2.600   6.848 -0.4151 -0.2773 -0.7456
 1556SOL    HW216131   2.051   2.489   6.867  0.6700 -0.6327  1.1143
 1557SOL     OW16132   4.017   0.708   2.630  1.1013  0.2696 -0.2776
 1557SOL    HW116133   4.090   0.756   2.591  1.1603 -1.1906 -1.9785
 1557SOL    HW216134   3.970   0.694   2.547  1.7991 -1.1489 -0.4295
 1558SOL     OW16135   1.968   3.348   5.694 -0.0783  0.1221  0.1623
 1558SOL    HW116136   1.982   3.320   5.785 -0.9727  0.3621  0.3742
 1558SOL    HW216137   1.972   3.443   5.709 -0.9415  0.2187 -0.1694
 1559SOL     OW16138   2.633   2.780   6.223  0.2228  0.4409 -0.0844
 1559SOL    HW116139   2.681   2.782   6.140  1.8707 -1.9795  0.8087
 1559SOL    HW216140   2.611   2.873   6.233  0.2589  0.5131 -0.6869
 1560SOL     OW16141   3.081   4.397   0.959  0.2029  0.0487  0.3381
 1560SOL    HW116142   3.115   4.328   0.903 -1.8832  0.3358 -1.2723
 1560SOL    HW216143   3.133   4.464   0.914 -1.8732  0.3046 -1.7126
 1561SOL     OW16144   3.445   0.298  12.899 -0.1259 -0.5228 -0.3344
 1561SOL    HW116145   3.353   0.272  12.908  0.3976 -2.1848  0.1531
 1561SOL    HW216146   3.476   0.280  12.987 -0.7425  0.8170  0.1606
 1562SOL     OW16147   1.839   4.465   0.202  0.0715  0.5497 -0.0782
 1562SOL    HW116148   1.894   4.534   0.165  0.5959  0.4036  0.4252
 1562SOL    HW216149   1.890   4.424   0.273  2.0031  1.4167 -0.9581
 1563SOL     OW16150   1.355   1.584   4.415  0.0107  0.4295 -0.5663
 1563SOL    HW116151   1.325   1.501   4.453 -1.3841  0.1668 -2.2292
 1563SOL    HW216152   1.381   1.630   4.495  0.0176 -1.7531  0.7012
 1564SOL     OW16153   0.941   1.184   5.747 -0.1557  0.0672  0.1470
 1564SOL    HW116154   0.883   1.122   5.704  2.1219 -2.2369  0.3793
 1564SOL    HW216155   0.911   1.272   5.722 -2.2439 -0.5272  0.6134
 1565SOL     OW16156   2.241   2.877   8.026 -0.1894 -0.0214 -0.3848
 1565SOL    HW116157   2.168   2.832   8.070  0.1313 -1.4456 -1.3266
 1565SOL    HW216158   2.286   2.913   8.102  0.4036  0.2890 -0.8893
 1566SOL     OW16159   1.518   0.682  17.609  0.0806 -0.3835 -0.0967
 1566SOL    HW116160   1.548   0.664  17.520  0.4911 -1.3827  0.2403
 1566SOL    HW216161   1.545   0.771  17.632 -1.5267  0.1803 -0.3708
 1567SOL     OW16162   4.647   1.633  11.876  0.0319 -0.4820 -0.3367
 1567SOL    HW116163   4.572   1.610  11.930  0.4164 -0.3282  0.2575
 1567SOL    HW216164   4.606   1.712  11.841  0.8503  0.3807  0.6631
 1568SOL     OW16165   0.138   0.930   5.958 -0.3622 -0.1813 -0.1521
 1568SOL    HW116166   0.112   0.864   5.894 -2.9872  1.0695 -0.3684
 1568SOL    HW216167   0.113   0.897   6.044  0.0246  1.7498  0.7013
 1569SOL     OW16168   3.926   2.466   8.652  0.2797  0.2124  0.0399
 1569SOL    HW116169   3.869   2.540   8.674 -2.3628 -1.9783  0.4170
 1569SOL    HW216170   3.883   2.393   8.695  1.5310 -1.4579 -1.5614
 1570SOL     OW16171   1.726   0.063   1.876  0.0708  0.2591 -0.3289
 1570SOL    HW116172   1.786   0.000   1.835 -0.6506 -0.4650 -0.2561
 1570SOL    HW216173   1.741   0.044   1.968  0.7481 -0.6819 -0.6354
 1571SOL     OW16174   2.560   2.400  12.463 -0.2519 -0.2337  0.0946
 1571SOL    HW116175   2.529   2.479  12.506  1.4078 -0.3643  1.5942
 1571SOL    HW216176   2.653   2.401  12.490  0.0907  0.1611 -1.1375
 1572SOL     OW16177   1.305   4.008  11.060  0.0102 -0.0560  0.1155
 1572SOL    HW116178   1.377   4.062  11.029  1.1087 -1.9789 -0.6361
 1572SOL    HW216179   1.290   4.040  11.149 -0.2625 -0.1200  0.0926
 1573SOL     OW16180   0.688   2.596   9.604  0.2077  0.1056 -0.1149
 1573SOL    HW116181   0.721   2.510   9.578  3.2725  1.3844 -0.5054
 1573SOL    HW216182   0.745   2.655   9.556 -1.0408  0.2936 -1.3597
 1574SOL     OW16183   4.656   0.784   2.306  0.0461 -0.0632 -0.3279
 1574SOL    HW116184   4.588   0.849   2.287 -0.2288 -0.6124 -1.2413
 1574SOL    HW216185   4.597   0.709   2.292  0.9561 -0.3212 -2.7315
 1575SOL     OW16186   2.942   2.760   4.914  0.8733 -0.5249 -0.1494
 1575SOL    HW116187   2.925   2.734   5.005  0.1731  3.3157  0.7895
 1575SOL    HW216188   2.888   2.696   4.868  2.9606 -1.0693 -1.8538
 1576SOL     OW16189   3.334   1.608  16.787  0.6615  0.0809  0.1501
 1576SOL    HW116190   3.361   1.539  16.726 -0.3787  1.0582 -1.4265
 1576SOL    HW216191   3.409   1.603  16.845  1.7459 -1.5665 -1.3883
 1577SOL     OW16192   1.043   4.290   7.379  0.1546 -0.4018  0.3303
 1577SOL    HW116193   1.025   4.374   7.337  2.2210 -0.6193 -0.9810
 1577SOL    HW216194   0.992   4.286   7.461 -1.4157 -0.0181 -0.6352
 1578SOL     OW16195   0.719   1.022   4.082 -0.3120  0.2410 -0.6656
 1578SOL    HW116196   0.710   1.104   4.131  0.1462  1.7050 -3.0469
 1578SOL    HW216197   0.643   0.969   4.105  0.6461 -0.6403  0.4678
 1579SOL     OW16198   0.384   0.218   8.062 -0.4676  0.5204 -0.2605
 1579SOL    HW116199   0.447   0.284   8.090 -0.9176  1.1773 -0.8131
 1579SOL    HW216200   0.376   0.153   8.132  2.1437 -0.0428 -0.4889
 1580SOL     OW16201   0.733   0.537  16.220  0.2020  0.1568 -0.0632
 1580SOL    HW116202   0.754   0.630  16.213  1.1589 -0.0015  0.6852
 1580SOL    HW216203   0.759   0.517  16.310  1.2859 -1.4289 -0.7237
 1581SOL     OW16204   1.522   4.047  12.113 -0.0465  0.1749  0.5223
 1581SOL    HW116205   1.470   3.972  12.086 -0.2469  0.5141 -0.0303
 1581SOL    HW216206   1.586   4.034  12.043  0.7873 -1.8829  1.6885
 1582SOL     OW16207   3.275   1.681   4.490  0.1554 -0.0460  0.2502
 1582SOL    HW116208   3.315   1.730   4.418  1.1988 -1.6708 -0.2729
 1582SOL    HW216209   3.341   1.677   4.558  0.8263  0.4647 -0.3664
 1583SOL     OW16210   3.411   1.237   6.309  0.4833 -0.3192  0.6807
 1583SOL    HW116211   3.505   1.247   6.324  0.5189  0.2675  0.0468
 1583SOL    HW216212   3.399   1.142   6.306 -1.3694 -0.2122  4.5012
 1584SOL     OW16213   2.853   0.633   7.596 -0.3907 -0.0804  0.1822
 1584SOL    HW116214   2.900   0.556   7.628 -1.9862 -0.9959  0.3556
 1584SOL    HW216215   2.908   0.649   7.520  2.4911  1.2234  2.5383
 1585SOL     OW16216   3.933   1.249  10.135 -0.0685  0.2818  0.2447
 1585SOL    HW116217   3.942   1.160  10.168 -3.2776 -1.0692 -2.5307
 1585SOL    HW216218   3.923   1.231  10.042 -0.9983 -0.4391  0.4884
 1586SOL     OW16219   4.610   3.466   2.502  0.7215 -0.5923  0.3206
 1586SOL    HW116220   4.666   3.517   2.444  1.3345 -1.5098  0.1170
 1586SOL    HW216221   4.664   3.476   2.580  0.3337 -1.4083  0.6966
 1587SOL     OW16222   2.107   2.163   6.643 -0.1207 -0.2379 -0.2508
 1587SOL    HW116223   2.127   2.072   6.623 -1.4010 -0.2914 -1.2776
 1587SOL    HW216224   2.172   2.206   6.587  2.9248  0.3227  3.6696
 1588SOL     OW16225   0.801   2.615   8.553 -0.4000 -0.1920 -0.3818
 1588SOL    HW116226   0.782   2.655   8.468 -0.1917  2.5999  0.8888
 1588SOL    HW216227   0.816   2.523   8.533  1.6909 -0.1165  0.8779
 1589SOL     OW16228   3.250   3.605   1.570  0.0422  0.0837  0.4098
 1589SOL    HW116229   3.235   3.677   1.509 -0.9923 -0.2315  0.2815
 1589SOL    HW216230   3.158   3.589   1.591  0.3257 -1.9783 -0.0002
 1590SOL     OW16231   0.549   3.101   9.263 -0.9004 -0.0985  0.5085
 1590SOL    HW116232   0.507   3.093   9.349 -0.0501  0.5405  0.9820
 1590SOL    HW216233   0.496   3.047   9.204 -0.0785  0.1093 -0.4047
 1591SOL     OW16234   2.189   0.288   7.143 -0.1418  0.4070  0.2312
 1591SOL    HW116235   2.126   0.221   7.169  0.1839  0.5334  1.3501
 1591SOL    HW216236   2.265   0.256   7.193  0.2747  1.0083 -0.0204
 1592SOL     OW16237   2.841   2.715   9.135 -0.5671  0.0396  0.2332
 1592SOL    HW116238   2.925   2.735   9.175  0.0790 -0.2616 -0.9649
 1592SOL    HW216239   2.851   2.744   9.044 -0.2922  0.4843  0.4095
 1593SOL     OW16240   2.719   2.249  16.144  0.4765 -0.6816 -0.1143
 1593SOL    HW116241   2.773   2.316  16.102 -0.0038 -0.3328 -0.1718
 1593SOL    HW216242   2.654   2.293  16.200 -1.2383 -1.9231 -1.1387
 1594SOL     OW16243   2.488   2.349   8.329 -0.3712  0.0235  0.5772
 1594SOL    HW116244   2.421   2.298   8.284  0.5582 -0.5009 -0.2198
 1594SOL    HW216245   2.471   2.337   8.422 -5.6301  2.7653 -0.0416
 1595SOL     OW16246   2.369   2.232   2.865  0.5716  0.0954  0.0857
 1595SOL    HW116247   2.346   2.259   2.954  0.1697 -0.6653  0.2075
 1595SOL    HW216248   2.400   2.317   2.833 -0.3331  1.7321  3.5247
 1596SOL     OW16249   3.817   1.980   2.341  0.1550  0.3721  0.2500
 1596SOL    HW116250   3.741   2.038   2.343  1.2795  1.8729 -0.2697
 1596SOL    HW216251   3.792   1.894   2.307 -0.0968  0.0585  1.2352
 1597SOL     OW16252   0.732   1.433   9.912 -0.0378 -0.1172  0.4112
 1597SOL    HW116253   0.716   1.459  10.003  0.8052  0.7382  0.3135
 1597SOL    HW216254   0.704   1.342   9.901 -0.0681  0.2448 -2.5022
 1598SOL     OW16255   1.963   4.405   1.495 -0.0135 -0.6055  0.4188
 1598SOL    HW116256   2.038   4.409   1.555  0.3092  0.4626 -0.0675
 1598SOL    HW216257   1.971   4.493   1.458 -0.4284 -0.9485 -0.4921
 1599SOL     OW16258   4.377   2.294  15.125 -0.0950 -0.0990  0.2148
 1599SOL    HW116259   4.344   2.211  15.089 -1.8774 -0.0589  1.7481
 1599SOL    HW216260   4.449   2.315  15.065 -1.4120  0.9230 -1.0144
 1600SOL     OW16261   3.327   2.885   1.418  0.1650  0.2254  0.1794
 1600SOL    HW116262   3.383   2.835   1.358 -1.7360 -1.1579 -0.4597
 1600SOL    HW216263   3.320   2.966   1.367 -1.9583  1.2684  2.1498
 1601SOL     OW16264   1.485   0.706   2.210 -0.5207 -0.0947  0.2773
 1601SOL    HW116265   1.417   0.764   2.177  0.2203 -0.6426 -2.1737
 1601SOL    HW216266   1.566   0.741   2.173  0.9822  0.0126  3.6736
 1602SOL     OW16267   2.677   1.454   2.756  0.2779  0.3258 -0.3138
 1602SOL    HW116268   2.716   1.425   2.674 -0.3642  1.2775 -0.9471
 1602SOL    HW216269   2.750   1.453   2.818  1.6069  1.7132 -1.8777
 1603SOL     OW16270   4.182   2.551   3.729  0.0235 -0.1474  0.2764
 1603SOL    HW116271   4.238   2.585   3.659 -0.4626  0.1362  0.0177
 1603SOL    HW216272   4.125   2.496   3.675 -0.0254  1.1701 -1.0366
 1604SOL     OW16273   1.514   3.928   9.552  0.2667 -0.2612  0.3674
 1604SOL    HW116274   1.424   3.932   9.584  0.7923 -2.6907  2.1951
 1604SOL    HW216275   1.571   3.946   9.627  0.0549  1.0907  0.2104
 1605SOL     OW16276   0.346   2.040   6.049 -0.2369  0.4755  0.3062
 1605SOL    HW116277   0.304   1.955   6.064  0.6740 -0.1158 -0.4854
 1605SOL    HW216278   0.438   2.019   6.035 -0.9769 -1.2371 -1.9001
 1606SOL     OW16279   3.397   0.245   2.900  0.2873 -0.2610 -0.3680
 1606SOL    HW116280   3.340   0.285   2.833  0.2496  1.4259  0.6803
 1606SOL    HW216281   3.470   0.306   2.890  1.6320 -1.6380  1.2039
 1607SOL     OW16282   4.022   3.641  15.485 -0.3874 -0.3097 -0.0480
 1607SOL    HW116283   3.927   3.631  15.475 -0.3595 -1.5366  0.9531
 1607SOL    HW216284   4.038   3.550  15.509  0.4294 -0.0204  0.5028
 1608SOL     OW16285   0.352   2.033   1.288 -0.0481 -0.4104  0.0262
 1608SOL    HW116286   0.441   2.053   1.316 -0.2626 -1.8741  1.7647
 1608SOL    HW216287   0.370   2.025   1.194  1.0755  0.9918  0.1165
 1609SOL     OW16288   1.821   1.080  14.647 -0.3171  0.6002 -0.3175
 1609SOL    HW116289   1.809   1.034  14.730  0.8123  1.3365  0.2565
 1609SOL    HW216290   1.911   1.052  14.629 -0.6505 -0.9295  0.4191
 1610SOL     OW16291   0.702   4.000   2.667  0.1766 -0.1845  0.2561
 1610SOL    HW116292   0.613   4.032   2.653 -0.6865 -1.7530  2.1156
 1610SOL    HW216293   0.739   4.056   2.735  1.1945 -1.0053  0.3779
 1611SOL     OW16294   2.928   1.098   7.082  0.2761 -0.2486  0.0166
 1611SOL    HW116295   2.963   1.028   7.137 -0.9167 -0.4479  0.5257
 1611SOL    HW216296   2.979   1.061   7.010 -0.4980  0.7694 -1.0386
 1612SOL     OW16297   2.877   1.712   4.431  0.1413 -0.0469  0.1017
 1612SOL    HW116298   2.800   1.656   4.424  0.6868 -1.0362  1.8526
 1612SOL    HW216299   2.891   1.728   4.338 -2.4917 -0.6747 -0.3971
 1613SOL     OW16300   3.391   4.583   4.697  0.0038  0.0110  0.5110
 1613SOL    HW116301   3.409   4.512   4.636  0.0180 -0.7755  1.4144
 1613SOL    HW216302   3.396   4.543   4.784  1.2157  0.4003  0.6212
 1614SOL     OW16303   0.545   0.730  13.747 -0.4674 -1.1539 -0.1662
 1614SOL    HW116304   0.621   0.672  13.746 -1.6135 -2.6267 -2.4696
 1614SOL    HW216305   0.477   0.674  13.783  0.0567 -0.7488  1.4614
 1615SOL     OW16306   3.543   1.338   8.356 -0.4263 -0.5177 -0.2184
 1615SOL    HW116307   3.598   1.356   8.280 -0.0250  1.1010  0.4610
 1615SOL    HW216308   3.588   1.262   8.392 -1.5895 -0.9993  0.2067
 1616SOL     OW16309   3.999   1.062   8.139 -0.0017  0.4393  0.0297
 1616SOL    HW116310   4.004   1.137   8.080 -0.0154  0.5938  0.2244
 1616SOL    HW216311   4.085   1.062   8.181  1.0634 -2.3109 -2.2375
 1617SOL     OW16312   3.488   0.706   5.648  0.7549  0.4962  0.1600
 1617SOL    HW116313   3.426   0.660   5.591  0.6725  1.1395 -0.2782
 1617SOL    HW216314   3.432   0.728   5.723 -1.2584 -0.3726 -1.0810
 1618SOL     OW16315   0.856   1.805   4.778 -0.3261  0.1423  0.2082
 1618SOL    HW116316   0.798   1.788   4.704  0.0484 -0.1860 -0.0133
 1618SOL    HW216317   0.868   1.898   4.794 -1.3693  0.5262 -1.2104
 1619SOL     OW16318   0.248   2.011   7.585  0.4648  0.2088 -0.4487
 1619SOL    HW116319   0.304   1.978   7.515 -0.4142  1.4938 -1.7691
 1619SOL    HW216320   0.310   1.989   7.654 -1.1558 -0.4637  0.8018
 1620SOL     OW16321   2.866   3.624  15.072 -0.0146 -0.1668  0.2173
 1620SOL    HW116322   2.930   3.624  15.001  0.0904  0.1745  0.3110
 1620SOL    HW216323   2.812   3.701  15.052  0.0443 -0.6948 -1.9759
 1621SOL     OW16324   4.385   4.405   7.003 -0.1562  0.2609 -0.0331
 1621SOL    HW116325   4.342   4.338   6.950  0.6751  0.2099 -0.6428
 1621SOL    HW216326   4.370   4.371   7.092 -0.8144  0.7217  0.0299
 1622SOL     OW16327   3.424   1.965   9.446 -0.0329  0.3734  0.1472
 1622SOL    HW116328   3.350   1.932   9.495  0.0671 -0.5221 -0.3130
 1622SOL    HW216329   3.425   1.895   9.381 -2.2616  0.3920  0.0929
 1623SOL     OW16330   1.148   3.611   2.882  0.1794 -0.0103  0.3496
 1623SOL    HW116331   1.212   3.641   2.817  1.2882 -0.5551  1.2110
 1623SOL    HW216332   1.073   3.612   2.822  0.4826 -1.4798 -0.0664
 1624SOL     OW16333   3.312   2.576   5.008  0.2982  0.7933  0.0613
 1624SOL    HW116334   3.290   2.515   5.079  0.1674  1.7758  0.8650
 1624SOL    HW216335   3.231   2.569   4.956  0.6542 -0.3538 -0.3450
 1625SOL     OW16336   0.275   2.209   5.568 -0.2301 -0.6535 -0.2423
 1625SOL    HW116337   0.328   2.289   5.570 -1.2302 -0.0049  0.5238
 1625SOL    HW216338   0.318   2.156   5.636  0.0006  1.3003  1.1508
 1626SOL     OW16339   0.001   1.016   1.457 -0.1514 -0.7660 -0.5375
 1626SOL    HW116340   4.677   0.989   1.377  1.4128 -0.0810 -1.6588
 1626SOL    HW216341   4.671   1.088   1.493  0.1107 -0.0664 -1.5494
 1627SOL     OW16342   0.018   2.928   8.337 -0.2052  0.0006 -0.6963
 1627SOL    HW116343   0.082   2.915   8.407 -1.6085  0.3461  0.6448
 1627SOL    HW216344   0.068   2.985   8.279  1.2944  0.3787  0.9722
 1628SOL     OW16345   0.027   2.226   9.134 -0.6896 -0.0576 -0.0674
 1628SOL    HW116346   0.052   2.219   9.042  2.0524 -1.2838  0.7952
 1628SOL    HW216347   0.041   2.318   9.156 -1.2383  0.2237 -0.9129
 1629SOL     OW16348   3.580   2.129   3.286 -0.0966 -0.4859 -0.7910
 1629SOL    HW116349   3.565   2.144   3.192 -2.1255  0.4421 -0.3252
 1629SOL    HW216350   3.640   2.056   3.272  1.2702  0.5068 -0.0197
 1630SOL     OW16351   0.698   3.909   3.368 -0.3783  0.4648 -0.9335
 1630SOL    HW116352   0.639   3.835   3.383 -0.5456  0.7790 -0.0039
 1630SOL    HW216353   0.726   3.889   3.279 -0.2440  1.6960 -1.1700
 1631SOL     OW16354   2.048   0.841  11.809 -0.1356 -0.1015  0.4507
 1631SOL    HW116355   2.042   0.908  11.741  0.2496 -0.8004 -0.2712
 1631SOL    HW216356   2.142   0.819  11.810 -1.1288 -4.3015  0.6872
 1632SOL     OW16357   1.836   2.770   6.675 -0.6821  0.3531  0.0848
 1632SOL    HW116358   1.881   2.694   6.638 -0.6736 -0.3197  1.4705
 1632SOL    HW216359   1.744   2.758   6.655 -0.6446  3.5303 -2.1340
 1633SOL     OW16360   2.112   0.162  16.695  0.4571 -0.4956 -0.0940
 1633SOL    HW116361   2.079   0.251  16.688  0.7111 -0.4411 -0.6154
 1633SOL    HW216362   2.108   0.125  16.607  1.7283 -1.7979  0.3821
 1634SOL     OW16363   1.493   2.902   4.737 -0.8337  0.5329 -0.8069
 1634SOL    HW116364   1.510   2.819   4.693  0.0489 -0.9116  2.3103
 1634SOL    HW216365   1.419   2.878   4.792  0.0931 -1.2583 -0.3599
 1635SOL     OW16366   4.605   3.563  10.096  0.6364  0.5177 -0.3200
 1635SOL    HW116367   4.647   3.648  10.108 -1.4580  1.2993  1.4483
 1635SOL    HW216368   4.647   3.518  10.170  1.6748  2.2951  0.1830
 1636SOL     OW16369   3.203   1.172   8.782  0.0386  0.1200  0.0201
 1636SOL    HW116370   3.236   1.196   8.695  1.1532 -2.8498 -0.3662
 1636SOL    HW216371   3.259   1.095   8.792  0.4111  0.6207  1.6973
 1637SOL     OW16372   2.517   3.171  11.417  0.2599 -0.4820  0.2538
 1637SOL    HW116373   2.611   3.163  11.433  0.3401  2.5214  1.2484
 1637SOL    HW216374   2.498   3.257  11.455  0.8232 -0.2329 -0.0268
 1638SOL     OW16375   0.167   3.388   0.181 -0.6539  0.4166 -0.3356
 1638SOL    HW116376   0.101   3.440   0.136 -0.9676  1.1980  1.0340
 1638SOL    HW216377   0.224   3.460   0.206  3.3848 -2.6517 -0.5379
 1639SOL     OW16378   3.229   3.649   0.163 -0.2103  0.1073 -0.1840
 1639SOL    HW116379   3.192   3.616   0.081 -1.9233 -1.4233  1.2123
 1639SOL    HW216380   3.182   3.733   0.156  1.2514  0.7457 -2.2304
 1640SOL     OW16381   4.422   0.764   7.810  0.4738 -0.0413  0.5396
 1640SOL    HW116382   4.505   0.778   7.764 -0.4096  2.6011 -0.2423
 1640SOL    HW216383   4.401   0.853   7.837 -0.3380 -0.1528  0.2850
 1641SOL     OW16384   3.496   0.492   7.879 -0.2028  0.2759  0.0193
 1641SOL    HW116385   3.590   0.485   7.896 -0.4306 -0.9173  0.7348
 1641SOL    HW216386   3.454   0.463   7.959 -2.7002 -2.6836 -2.3553
 1642SOL     OW16387   0.311   1.010   4.238  0.2623  0.2021 -0.0008
 1642SOL    HW116388   0.335   1.102   4.227 -0.1792  0.3217  0.0446
 1642SOL    HW216389   0.219   1.020   4.260 -0.1053 -1.4536 -0.7838
 1643SOL     OW16390   4.550   0.764   4.225  0.0665  0.2388  0.8677
 1643SOL    HW116391   4.494   0.814   4.165  1.6777  1.0859  0.0800
 1643SOL    HW216392   4.572   0.689   4.169  0.2772  0.0445  1.2115
 1644SOL     OW16393   3.351   0.101   6.270  0.3297 -0.2103  0.1892
 1644SOL    HW116394   3.265   0.060   6.280  1.2997 -1.7911  2.0801
 1644SOL    HW216395   3.402   0.033   6.314  0.6201 -0.7732 -1.0181
 1645SOL     OW16396   0.819   2.352  12.788 -0.5630 -0.1508 -0.4912
 1645SOL    HW116397   0.756   2.348  12.716  0.6002  1.5085 -1.6059
 1645SOL    HW216398   0.767   2.330  12.865 -2.6454  0.6500 -1.6581
 1646SOL     OW16399   3.009   1.147   2.512 -0.2426 -0.1454 -0.3680
 1646SOL    HW116400   3.010   1.055   2.483  0.2835 -0.4187  0.5230
 1646SOL    HW216401   3.015   1.192   2.428  0.5987  2.4469  1.0942
 1647SOL     OW16402   1.368   1.860  16.758 -0.5639  0.0128  0.3249
 1647SOL    HW116403   1.279   1.838  16.728 -0.4687  2.0116 -1.3894
 1647SOL    HW216404   1.357   1.954  16.765  2.2426  0.3814 -0.2318
 1648SOL     OW16405   0.608   1.875  16.743 -0.3009 -0.1758  0.7672
 1648SOL    HW116406   0.611   1.784  16.714 -2.8716  0.4080 -1.3446
 1648SOL    HW216407   0.668   1.852  16.814  1.3360  2.8677  0.3671
 1649SOL     OW16408   3.350   1.482   6.276 -0.3754 -0.5666 -0.0530
 1649SOL    HW116409   3.296   1.475   6.197 -0.7667 -1.2707  0.2802
 1649SOL    HW216410   3.375   1.392   6.297  1.4159 -0.2973 -1.0550
 1650SOL     OW16411   0.015   4.464   3.306 -0.0829 -0.2228 -0.6545
 1650SOL    HW116412   4.681   4.492   3.235 -0.2860  0.5192 -0.2017
 1650SOL    HW216413   0.028   4.379   3.263  2.4597  0.7594 -1.8603
 1651SOL     OW16414   0.845   0.392   5.913 -0.0245 -0.3312  0.5428
 1651SOL    HW116415   0.784   0.322   5.893 -0.6110 -0.3121  2.2164
 1651SOL    HW216416   0.928   0.353   5.888  1.5806  3.3665  0.0610
 1652SOL     OW16417   0.794   1.346   8.177  0.1964  0.5133 -0.4275
 1652SOL    HW116418   0.871   1.390   8.141  0.2704 -0.2615 -1.2418
 1652SOL    HW216419   0.754   1.420   8.221 -0.5525  0.1896 -0.5569
 1653SOL     OW16420   0.440   3.709   5.210  0.3459  0.2685  1.1976
 1653SOL    HW116421   0.511   3.695   5.274 -0.7722 -0.5162  2.2599
 1653SOL    HW216422   0.364   3.695   5.266 -0.4009 -0.2884  0.0421
 1654SOL     OW16423   0.997   2.974   1.612  0.3172  0.9809 -0.0520
 1654SOL    HW116424   1.038   2.974   1.526 -0.7881  0.2564 -0.5822
 1654SOL    HW216425   0.933   3.045   1.606  0.2993  0.7561 -2.5476
 1655SOL     OW16426   3.813   2.056   5.441 -0.0038  0.4109  0.4964
 1655SOL    HW116427   3.902   2.028   5.420 -0.0793 -1.6800  2.9698
 1655SOL    HW216428   3.756   1.999   5.388 -0.7906  0.9482  0.7551
 1656SOL     OW16429   2.309   0.844  11.758  0.3107 -0.6345  0.2532
 1656SOL    HW116430   2.363   0.860  11.681  1.5801 -1.0337  1.0640
 1656SOL    HW216431   2.365   0.779  11.800 -0.2393 -1.2993 -0.0341
 1657SOL     OW16432   1.541   0.455  15.629 -0.0963  0.1888  0.3183
 1657SOL    HW116433   1.552   0.512  15.705  0.9555  1.4706 -0.8066
 1657SOL    HW216434   1.603   0.389  15.661  1.2672  1.4190  0.1939
 1658SOL     OW16435   1.987   2.165   1.663  0.0428 -0.7758  0.4142
 1658SOL    HW116436   1.907   2.116   1.646  0.0691 -0.6789  0.0177
 1658SOL    HW216437   1.973   2.198   1.752 -0.5882  1.1160 -0.3758
 1659SOL     OW16438   2.526   0.916   3.201 -0.4494 -0.3024 -0.0698
 1659SOL    HW116439   2.509   0.983   3.135  2.1684 -0.4699 -0.9283
 1659SOL    HW216440   2.608   0.955   3.233  0.6279 -0.9857 -2.0506
 1660SOL     OW16441   0.582   1.031   6.296  0.1594  0.5951  0.1350
 1660SOL    HW116442   0.563   0.940   6.318  0.2788  0.7762  0.9702
 1660SOL    HW216443   0.504   1.061   6.250 -0.2650 -0.7053 -0.0126
 1661SOL     OW16444   4.126   4.193   3.313 -0.0219 -0.4160  0.4305
 1661SOL    HW116445   4.163   4.269   3.358 -0.8861  0.5740 -0.5255
 1661SOL    HW216446   4.189   4.196   3.242  1.2742 -0.3773  1.5905
 1662SOL     OW16447   0.167   2.289   7.660  0.1600  0.5611 -0.6912
 1662SOL    HW116448   0.235   2.316   7.722 -0.1095  0.0341 -0.1590
 1662SOL    HW216449   0.207   2.207   7.631 -0.5877 -0.5782  1.4525
 1663SOL     OW16450   3.776   3.656   8.463 -0.0921 -0.2186  0.0232
 1663SOL    HW116451   3.762   3.744   8.497 -2.5638 -0.6657  0.1844
 1663SOL    HW216452   3.715   3.604   8.516 -1.0656  1.9395  1.0020
 1664SOL     OW16453   0.878   0.167   8.195  0.0357 -0.4365 -0.4156
 1664SOL    HW116454   0.879   0.143   8.103  2.2679  1.4259 -0.8690
 1664SOL    HW216455   0.921   0.093   8.238 -0.3585  0.2599  1.1834
 1665SOL     OW16456   2.460   1.199   5.718 -0.9103 -0.1214  0.2161
 1665SOL    HW116457   2.382   1.168   5.673 -0.4577  1.4799 -1.6728
 1665SOL    HW216458   2.494   1.270   5.665 -1.0702 -0.5475 -0.4571
 1666SOL     OW16459   3.043   0.518  12.893  0.3935  0.0844  0.1606
 1666SOL    HW116460   3.031   0.582  12.823  0.4483  0.1037  0.1687
 1666SOL    HW216461   3.076   0.579  12.959 -2.2432  2.6256 -0.8622
 1667SOL     OW16462   1.423   0.867   1.513 -0.0863 -0.3752 -0.4928
 1667SOL    HW116463   1.374   0.791   1.545 -0.1721 -1.0851 -2.3241
 1667SOL    HW216464   1.360   0.908   1.454 -0.7269 -0.5290  0.0813
 1668SOL     OW16465   4.453   0.546   6.127  0.1854  0.0633 -0.1526
 1668SOL    HW116466   4.490   0.568   6.212 -1.3153 -0.5838  0.6715
 1668SOL    HW216467   4.525   0.558   6.065  0.4019  2.1131  0.5010
 1669SOL     OW16468   0.329   0.897   3.906 -0.2592 -0.6346 -0.7334
 1669SOL    HW116469   0.263   0.859   3.964 -0.4635  0.0014 -0.5529
 1669SOL    HW216470   0.289   0.915   3.821 -1.0263 -1.5452 -0.5671
 1670SOL     OW16471   0.082   0.170   2.010  0.1609  0.1963  0.1260
 1670SOL    HW116472   0.024   0.103   1.975  1.3755 -2.0282  2.3212
 1670SOL    HW216473   0.135   0.197   1.935  1.9515 -0.0819  1.2933
 1671SOL     OW16474   0.094   1.826   2.720 -0.2974 -0.2557 -0.5539
 1671SOL    HW116475   0.065   1.769   2.792  0.9915 -0.8122 -0.4691
 1671SOL    HW216476   0.186   1.800   2.715  0.0967  1.0957 -0.4115
 1672SOL     OW16477   4.123   1.338   5.845 -0.3745 -0.3848  0.2564
 1672SOL    HW116478   4.192   1.318   5.782  0.7265 -1.8403  1.9266
 1672SOL    HW216479   4.180   1.349   5.921  0.8656 -0.2179 -0.6949
 1673SOL     OW16480   1.015   1.962   4.594 -0.1379  0.1608  0.2986
 1673SOL    HW116481   0.938   1.919   4.555  0.3967  0.2151 -0.7966
 1673SOL    HW216482   1.038   2.019   4.521  3.2007  0.4725  1.6017
 1674SOL     OW16483   0.913   0.257   2.355  0.0437 -0.1278 -0.2851
 1674SOL    HW116484   0.901   0.352   2.355 -2.4293 -0.4224  1.6793
 1674SOL    HW216485   0.825   0.222   2.371  0.4275 -1.1612 -0.3932
 1675SOL     OW16486   2.016   0.708   8.708  0.3979 -0.3288  0.1908
 1675SOL    HW116487   2.020   0.720   8.803  1.6164  0.5497  0.0165
 1675SOL    HW216488   1.963   0.628   8.699  0.6331 -0.4834  0.1892
 1676SOL     OW16489   3.183   3.184  14.485 -0.5260  0.2659 -0.4914
 1676SOL    HW116490   3.097   3.206  14.449 -0.6696 -0.7663 -0.7913
 1676SOL    HW216491   3.205   3.111  14.428  1.3821  0.5057 -0.0338
 1677SOL     OW16492   0.224   0.270   1.465 -0.4530 -0.4957  0.1935
 1677SOL    HW116493   0.269   0.342   1.509 -0.6699  0.1678 -0.6491
 1677SOL    HW216494   0.292   0.232   1.409 -0.2782 -0.0852  0.1268
 1678SOL     OW16495   4.642   4.578  13.282 -0.1535  0.0400  0.4977
 1678SOL    HW116496   4.571   4.639  13.301 -0.7829 -0.1662 -1.1260
 1678SOL    HW216497   4.596   4.497  13.305 -3.8005  2.2427  0.9332
 1679SOL     OW16498   0.334   1.644  15.309  0.3944  0.0597  0.3300
 1679SOL    HW116499   0.377   1.727  15.288 -0.0015  0.0088 -0.6726
 1679SOL    HW216500   0.312   1.670  15.398  2.9476 -2.2661  1.6699
 1680SOL     OW16501   1.082   2.450  12.806  0.0767  0.0128  0.0993
 1680SOL    HW116502   0.991   2.422  12.818  0.1834 -0.8333 -1.1004
 1680SOL    HW216503   1.095   2.466  12.713 -2.6379 -0.2986 -0.3401
 1681SOL     OW16504   2.018   1.119   8.135  0.3395 -0.5186 -0.1204
 1681SOL    HW116505   2.010   1.117   8.040  1.3892  2.3259 -0.2473
 1681SOL    HW216506   2.113   1.121   8.151  0.4635 -0.7438 -0.8280
 1682SOL     OW16507   3.029   0.284   9.225 -0.8071  0.5536 -0.0824
 1682SOL    HW116508   3.038   0.370   9.183  0.1558  0.7671  0.5934
 1682SOL    HW216509   3.108   0.263   9.273 -1.7826 -1.1411  0.7778
 1683SOL     OW16510   1.908   4.357   6.056 -0.0428  0.2632  0.0604
 1683SOL    HW116511   1.845   4.422   6.087 -1.2757 -0.4610 -0.9138
 1683SOL    HW216512   1.974   4.359   6.126  0.9581 -0.9469 -0.8412
 1684SOL     OW16513   0.645   3.987   3.074 -0.5816  0.4730  0.0185
 1684SOL    HW116514   0.706   4.022   3.010 -0.3364  0.1532  0.0758
 1684SOL    HW216515   0.671   3.897   3.095 -1.1306  0.3676  0.2492
 1685SOL     OW16516   2.938   4.505   1.783  0.4852  0.1418 -0.7942
 1685SOL    HW116517   2.919   4.488   1.876  0.2068  0.8755 -0.7187
 1685SOL    HW216518   3.028   4.536   1.791  0.3555  0.4001 -0.2901
 1686SOL     OW16519   1.885   3.237  13.162 -0.1386  0.1042 -1.0767
 1686SOL    HW116520   1.793   3.261  13.162 -0.4211 -0.9563 -1.3656
 1686SOL    HW216521   1.880   3.141  13.166  2.7084 -0.0453 -1.2301
 1687SOL     OW16522   0.582   1.344  17.388  0.5671  0.3448 -0.3431
 1687SOL    HW116523   0.677   1.339  17.376  0.8296 -0.2362  1.9035
 1687SOL    HW216524   0.550   1.352  17.299  2.6270 -1.1483 -1.2122
 1688SOL     OW16525   0.296   3.837   2.225  0.2486  0.4855 -0.1731
 1688SOL    HW116526   0.368   3.856   2.165  1.1353  0.3498  0.8483
 1688SOL    HW216527   0.335   3.877   2.302  0.8640  0.0303 -0.2502
 1689SOL     OW16528   0.697   3.116   6.753  0.6978  0.2676  0.6468
 1689SOL    HW116529   0.724   3.091   6.841  0.6450 -0.6340  0.4051
 1689SOL    HW216530   0.717   3.207   6.735  2.3603 -0.1038  0.6865
 1690SOL     OW16531   4.577   2.168   5.259  0.3725  0.3521 -0.0677
 1690SOL    HW116532   4.662   2.133   5.289 -1.7972 -3.9928  1.0048
 1690SOL    HW216533   4.518   2.119   5.317 -1.2380  3.3389  0.8168
 1691SOL     OW16534   1.129   0.634  15.291  0.8494  0.4103  0.1335
 1691SOL    HW116535   1.086   0.662  15.372 -2.7020 -2.5662 -0.7521
 1691SOL    HW216536   1.208   0.688  15.289  0.7800  0.4313 -1.5425
 1692SOL     OW16537   3.831   0.111  11.629 -0.1968  0.4018 -0.5560
 1692SOL    HW116538   3.800   0.021  11.632 -1.2838  0.7461 -1.3864
 1692SOL    HW216539   3.864   0.107  11.539  0.0688  0.2810 -0.4529
 1693SOL     OW16540   4.540   0.920   3.941  0.3910 -0.7331 -0.3437
 1693SOL    HW116541   4.453   0.937   3.978  0.8815 -0.4757  0.7010
 1693SOL    HW216542   4.589   1.002   3.936 -0.0392 -0.5664 -1.7796
 1694SOL     OW16543   0.732   1.172   8.391 -0.3457  0.5131 -0.4190
 1694SOL    HW116544   0.697   1.235   8.455  2.1802  2.3257 -0.8166
 1694SOL    HW216545   0.789   1.224   8.335  2.6043 -2.8704 -0.5652
 1695SOL     OW16546   1.039   3.705   9.018  0.0552  0.4475  0.1797
 1695SOL    HW116547   1.065   3.654   9.094  1.3680 -0.3640 -0.8140
 1695SOL    HW216548   1.115   3.761   9.001  1.6678 -1.8917 -0.3143
 1696SOL     OW16549   0.495   2.324   4.302 -0.4039  0.4840  0.4600
 1696SOL    HW116550   0.405   2.356   4.310 -0.5231  0.1162  0.5462
 1696SOL    HW216551   0.500   2.294   4.211 -1.1826  1.4869  0.0813
 1697SOL     OW16552   1.831   4.480  12.276  0.7804  0.2781 -0.0742
 1697SOL    HW116553   1.797   4.471  12.365  0.2361 -1.7389 -0.4958
 1697SOL    HW216554   1.779   4.413  12.233 -1.8068  2.0565  0.2836
 1698SOL     OW16555   3.968   0.642  10.783  0.7459  0.0229 -0.4991
 1698SOL    HW116556   3.983   0.637  10.689 -1.6244  0.6294 -0.8951
 1698SOL    HW216557   3.912   0.568  10.807 -2.5856  3.3457  1.9524
 1699SOL     OW16558   1.439   2.427  11.096 -0.6650 -0.0346  0.1144
 1699SOL    HW116559   1.417   2.364  11.164 -1.2822  0.9430  0.8179
 1699SOL    HW216560   1.373   2.405  11.031  0.4791 -0.0801 -1.0244
 1700SOL     OW16561   0.713   3.067   8.554 -0.4600  0.4483  0.0064
 1700SOL    HW116562   0.655   3.000   8.590  0.4941  0.0149  0.7121
 1700SOL    HW216563   0.688   3.065   8.462  0.8530  0.7255 -0.3497
 1701SOL     OW16564   1.064   2.735   2.656 -0.2691  0.0383 -0.3946
 1701SOL    HW116565   1.006   2.808   2.634 -2.1574 -0.9537  1.2988
 1701SOL    HW216566   1.139   2.761   2.602 -1.5410  0.5698 -1.8958
 1702SOL     OW16567   2.892   3.091   8.993  0.6630  0.2547 -0.1997
 1702SOL    HW116568   2.930   3.062   8.911  1.4234 -1.2250  0.6721
 1702SOL    HW216569   2.810   3.042   9.004  0.1183  1.1079 -0.5025
 1703SOL     OW16570   0.311   0.602  12.525 -0.4191 -0.1719  0.4872
 1703SOL    HW116571   0.315   0.687  12.569  1.0986 -0.1109  0.2380
 1703SOL    HW216572   0.388   0.555  12.557  1.5731  2.5672 -0.2499
 1704SOL     OW16573   2.746   0.104   4.950 -0.1773  0.1540  1.0455
 1704SOL    HW116574   2.839   0.085   4.936 -0.5835 -1.1340  0.1068
 1704SOL    HW216575   2.729   0.083   5.042 -3.0951  1.6365  0.8339
 1705SOL     OW16576   0.804   0.668   2.101 -0.0966 -0.0017  0.2765
 1705SOL    HW116577   0.731   0.716   2.061  0.1878 -0.3658 -0.6702
 1705SOL    HW216578   0.762   0.618   2.171 -0.7749 -2.1209 -1.6174
 1706SOL     OW16579   2.586   2.017   5.421 -0.0186 -0.1128 -0.0422
 1706SOL    HW116580   2.538   2.098   5.406  1.7547  1.3285  2.2054
 1706SOL    HW216581   2.610   1.996   5.330  3.3224 -1.2233  1.1002
 1707SOL     OW16582   1.042   1.333   1.658 -0.5224 -0.6652 -0.1461
 1707SOL    HW116583   0.949   1.340   1.636 -0.5193 -0.4065 -0.0747
 1707SOL    HW216584   1.042   1.391   1.734  1.9283  2.1104 -2.2706
 1708SOL     OW16585   1.387   3.239   2.989  0.1840 -0.6922  0.5156
 1708SOL    HW116586   1.370   3.246   3.083  1.6817 -0.8221  0.8020
 1708SOL    HW216587   1.482   3.227   2.993  0.4871  1.3785 -0.7062
 1709SOL     OW16588   0.176   4.064   4.151  0.5882  0.6714 -0.1402
 1709SOL    HW116589   0.246   4.007   4.120 -2.4743 -2.9275 -0.4872
 1709SOL    HW216590   0.222   4.114   4.218  3.0758 -2.2960  0.3758
 1710SOL     OW16591   2.393   0.979   4.584 -0.1616  0.1243 -0.0996
 1710SOL    HW116592   2.370   1.020   4.500  1.2633  1.2929  0.0827
 1710SOL    HW216593   2.473   0.942   4.547  0.7237 -0.4442  2.4008
 1711SOL     OW16594   1.362   0.187   6.513 -0.1750 -0.7336 -0.2219
 1711SOL    HW116595   1.287   0.141   6.475 -1.1916  0.1722  0.6924
 1711SOL    HW216596   1.420   0.113   6.533 -0.1071 -1.1079 -1.7692
 1712SOL     OW16597   4.563   0.876  16.717 -0.2361  0.2869  0.0083
 1712SOL    HW116598   4.525   0.963  16.715 -0.8468  0.0561  1.1490
 1712SOL    HW216599   4.595   0.866  16.627  1.0628  1.9104  0.2953
 1713SOL     OW16600   3.293   4.384   4.013  0.3022  0.2996  0.5914
 1713SOL    HW116601   3.305   4.478   4.004 -0.0830  0.1150 -1.9268
 1713SOL    HW216602   3.345   4.353   3.939 -0.3352  0.0918  0.2296
 1714SOL     OW16603   2.931   4.340   3.541 -0.0699 -0.8983 -0.2781
 1714SOL    HW116604   2.887   4.291   3.610 -0.0261 -0.9801 -0.3074
 1714SOL    HW216605   2.999   4.280   3.510  2.4464  1.0191  1.5747
 1715SOL     OW16606   1.969   3.811   6.142 -0.2968 -0.3021 -0.0013
 1715SOL    HW116607   1.932   3.842   6.059 -3.2050 -1.3723  0.8844
 1715SOL    HW216608   1.938   3.721   6.153 -1.0010 -0.2370 -1.5143
 1716SOL     OW16609   0.425   3.589   1.664 -0.0616  0.0903 -0.1699
 1716SOL    HW116610   0.386   3.583   1.577 -0.9326 -1.5695  0.3281
 1716SOL    HW216611   0.353   3.567   1.724  0.8637  1.1529  1.3061
 1717SOL     OW16612   3.149   2.654  14.801 -0.1235 -0.4568 -0.0087
 1717SOL    HW116613   3.172   2.741  14.834 -2.8932  0.3885 -0.3637
 1717SOL    HW216614   3.220   2.652  14.737 -0.6330 -1.0246 -0.5462
 1718SOL     OW16615   1.450   2.627   0.686 -0.1619 -0.4080 -0.3929
 1718SOL    HW116616   1.442   2.694   0.619  1.7200 -1.6598 -1.9037
 1718SOL    HW216617   1.535   2.630   0.731 -1.3561  1.6047  1.6795
 1719SOL     OW16618   2.816   3.249  13.569  0.3606 -0.7011 -0.5687
 1719SOL    HW116619   2.876   3.286  13.504 -0.5875 -0.4685 -1.3145
 1719SOL    HW216620   2.798   3.325  13.624  0.6064 -0.2363 -1.1180
 1720SOL     OW16621   4.100   3.761   4.828  0.2313  0.7267  0.1699
 1720SOL    HW116622   4.184   3.789   4.864 -1.0810  1.9244  2.3223
 1720SOL    HW216623   4.065   3.715   4.905 -1.4327  0.2239 -0.8809
 1721SOL     OW16624   4.092   0.758   3.939  0.4434 -0.5336 -0.1033
 1721SOL    HW116625   4.101   0.665   3.917  3.0462 -0.5603  1.0927
 1721SOL    HW216626   4.004   0.745   3.975 -0.5128  1.5045 -1.6916
 1722SOL     OW16627   0.488   4.076  12.596 -0.1993 -0.0443  0.0326
 1722SOL    HW116628   0.558   4.110  12.652  1.4069  1.1195 -2.6895
 1722SOL    HW216629   0.510   4.108  12.508 -0.1945 -0.3082 -0.0614
 1723SOL     OW16630   2.852   0.825   9.608  0.6691  0.2130  0.2710
 1723SOL    HW116631   2.930   0.769   9.605  1.7285  1.6000  1.6813
 1723SOL    HW216632   2.833   0.817   9.515  0.7676  1.0812  0.1767
 1724SOL     OW16633   3.528   2.064   2.551 -0.0276 -0.0864  0.0125
 1724SOL    HW116634   3.581   2.070   2.472  0.3058 -1.4347  0.1383
 1724SOL    HW216635   3.438   2.049   2.520  0.1679 -2.3172  0.4924
 1725SOL     OW16636   0.617   1.399  10.557  0.1824  0.1280  0.3355
 1725SOL    HW116637   0.595   1.314  10.595 -0.8008  0.2143 -0.0294
 1725SOL    HW216638   0.647   1.456  10.628 -0.3385  1.9278 -0.9107
 1726SOL     OW16639   0.882   2.148   7.298 -0.0889 -0.0340 -0.0850
 1726SOL    HW116640   0.815   2.216   7.292  0.0439  0.1182  0.1215
 1726SOL    HW216641   0.844   2.075   7.249  0.0533 -0.5737  0.6103
 1727SOL     OW16642   0.387   1.489   0.533 -0.2710 -0.0293 -0.2471
 1727SOL    HW116643   0.381   1.552   0.605 -1.2543 -1.1086  0.6334
 1727SOL    HW216644   0.347   1.535   0.459  0.3231 -1.5003 -1.4944
 1728SOL     OW16645   3.143   4.618   3.125 -0.9068  0.0636  0.6509
 1728SOL    HW116646   3.114   4.563   3.198 -2.7996  1.0881  0.6690
 1728SOL    HW216647   3.065   4.673   3.116 -2.1885 -1.7904  0.4103
 1729SOL     OW16648   4.490   3.732   8.708 -0.3357 -0.1742  0.5307
 1729SOL    HW116649   4.569   3.682   8.686 -0.3068  0.3602 -0.5427
 1729SOL    HW216650   4.533   3.813   8.736  0.9778 -0.2356 -1.2943
 1730SOL     OW16651   2.004   1.087  14.162 -0.3682  0.3811 -0.2870
 1730SOL    HW116652   1.936   1.059  14.223  0.0353  1.1879  0.5157
 1730SOL    HW216653   2.060   1.009  14.170  0.4139  1.0181  0.3495
 1731SOL     OW16654   1.955   2.129   3.103  0.0408  0.5625  0.3966
 1731SOL    HW116655   1.870   2.156   3.140  0.0187  0.6561  0.2769
 1731SOL    HW216656   1.945   2.034   3.103  1.8817  0.3806 -0.1311
 1732SOL     OW16657   1.168   4.329   7.979 -0.0591  0.2648  0.4677
 1732SOL    HW116658   1.150   4.344   7.886 -1.1088 -1.1905  0.4291
 1732SOL    HW216659   1.156   4.419   8.008  0.1589  1.1698 -2.3124
 1733SOL     OW16660   3.826   1.955   9.603 -0.5008 -0.4332 -0.3062
 1733SOL    HW116661   3.798   1.950   9.694  0.3406  0.4828  0.0030
 1733SOL    HW216662   3.920   1.953   9.615 -0.7754 -1.6194  1.5637
 1734SOL     OW16663   1.830   1.377   9.011 -0.1806  0.1298  0.6739
 1734SOL    HW116664   1.892   1.328   9.066  0.6037 -1.3718 -1.5923
 1734SOL    HW216665   1.898   1.430   8.970 -1.1670  0.0406 -1.0675
 1735SOL     OW16666   1.683   0.338  17.538  0.4114 -0.2949  0.0894
 1735SOL    HW116667   1.713   0.314  17.450  0.5764  0.2903 -0.0163
 1735SOL    HW216668   1.589   0.345  17.523  0.2110  0.4060  1.6502
 1736SOL     OW16669   1.707   1.773   8.659  0.0636  0.1794 -0.3446
 1736SOL    HW116670   1.661   1.786   8.742  1.3421 -1.7578  0.6594
 1736SOL    HW216671   1.709   1.677   8.659 -1.9164  0.1219 -1.0919
 1737SOL     OW16672   3.777   3.197   3.847 -0.5640 -0.2881  0.4582
 1737SOL    HW116673   3.771   3.137   3.921 -0.1498  0.4335  1.0710
 1737SOL    HW216674   3.772   3.132   3.777  0.4138 -2.0714  2.0428
 1738SOL     OW16675   2.210   3.628   2.794  0.1977 -0.0756 -0.1349
 1738SOL    HW116676   2.288   3.639   2.848  0.8561 -3.3905 -0.3880
 1738SOL    HW216677   2.204   3.532   2.797 -0.3685  0.0351  2.1865
 1739SOL     OW16678   4.643   0.227   5.059 -0.4709 -0.0385  0.6244
 1739SOL    HW116679   4.606   0.143   5.085 -1.1382 -0.7424 -2.5756
 1739SOL    HW216680   4.588   0.259   4.988 -0.0094  0.4870  0.5055
 1740SOL     OW16681   1.914   2.143  13.526  0.2757 -0.1794 -0.4018
 1740SOL    HW116682   1.960   2.223  13.499 -2.8211  1.1968 -1.5772
 1740SOL    HW216683   1.855   2.180  13.591 -1.0907 -1.3190 -0.9769
 1741SOL     OW16684   2.156   2.428   5.546  0.5839 -0.4774  0.2481
 1741SOL    HW116685   2.087   2.495   5.542  0.8764 -0.2264 -0.4319
 1741SOL    HW216686   2.147   2.403   5.639 -1.0360 -1.7989 -0.2543
 1742SOL     OW16687   2.563   1.185  12.496 -0.3203 -0.0210  0.4078
 1742SOL    HW116688   2.630   1.232  12.446  1.2983  0.7651  3.2661
 1742SOL    HW216689   2.499   1.151  12.434 -0.0400 -1.3714  0.8409
 1743SOL     OW16690   3.975   1.903  12.520  0.0629  0.1235 -0.2787
 1743SOL    HW116691   3.944   1.888  12.609  2.0004  0.8355  0.5022
 1743SOL    HW216692   4.035   1.977  12.529 -0.1705  0.4309 -1.1692
 1744SOL     OW16693   4.084   1.497   1.616  0.0562  0.6295  0.4402
 1744SOL    HW116694   4.075   1.493   1.711 -2.3463  0.5591  0.2052
 1744SOL    HW216695   4.158   1.436   1.607 -1.1819 -1.0188  1.5595
 1745SOL     OW16696   0.340   3.915  12.799 -0.0321 -0.1760  0.3056
 1745SOL    HW116697   0.380   3.980  12.742  2.1052 -1.9111 -0.1761
 1745SOL    HW216698   0.254   3.914  12.758  0.9401  2.2841 -1.7977
 1746SOL     OW16699   4.051   4.677   3.103 -0.0449 -0.5092 -0.4253
 1746SOL    HW116700   4.034   4.712   3.191  2.2876  1.1282 -0.6317
 1746SOL    HW216701   4.143   4.650   3.113 -0.5780 -2.5053 -0.8530
 1747SOL     OW16702   2.020   3.352   9.572  0.1611 -0.0073  0.2400
 1747SOL    HW116703   1.954   3.358   9.503 -1.7980 -0.1701  2.1119
 1747SOL    HW216704   2.009   3.263   9.604  0.0029 -0.0709  0.0034
 1748SOL     OW16705   0.211   0.580   5.603 -0.4376  0.0968 -0.0675
 1748SOL    HW116706   0.171   0.655   5.559 -0.2537  0.7316  0.8234
 1748SOL    HW216707   0.242   0.547   5.519  0.9424 -0.0595  0.4944
 1749SOL     OW16708   3.735   2.169   1.731  0.0370  0.4724  0.1192
 1749SOL    HW116709   3.763   2.255   1.703  0.8722  0.7027  1.6629
 1749SOL    HW216710   3.690   2.143   1.651  2.3975  1.5652 -1.5476
 1750SOL     OW16711   2.087   2.621   6.085 -0.2760 -0.3740  0.8901
 1750SOL    HW116712   2.102   2.558   6.015  1.2853  0.3823  0.5188
 1750SOL    HW216713   2.118   2.699   6.039  0.5078 -0.7385  0.7987
 1751SOL     OW16714   3.839   1.772   1.830 -0.6020 -0.6865 -0.0130
 1751SOL    HW116715   3.806   1.771   1.740  1.3306 -2.3927 -0.6922
 1751SOL    HW216716   3.882   1.857   1.835 -0.8832 -0.6039  1.0221
 1752SOL     OW16717   4.527   1.029  16.235  0.5870  0.1058 -0.1051
 1752SOL    HW116718   4.464   0.987  16.176 -1.3900  1.0485  1.3579
 1752SOL    HW216719   4.599   1.047  16.173  1.0328  2.5972  1.1556
 1753SOL     OW16720   1.839   0.769   2.988  0.0238  0.1834  0.1077
 1753SOL    HW116721   1.857   0.684   2.946 -1.6774 -1.2320  2.2116
 1753SOL    HW216722   1.898   0.828   2.942  1.5221 -0.8428  0.7360
 1754SOL     OW16723   1.318   2.005   4.454  0.2963  0.3581  0.4272
 1754SOL    HW116724   1.401   1.967   4.427 -0.4811 -0.1949 -1.2276
 1754SOL    HW216725   1.305   1.972   4.543  2.0805 -0.6363  0.3104
 1755SOL     OW16726   1.331   0.930   6.471  0.0275 -0.4116 -0.1827
 1755SOL    HW116727   1.316   0.942   6.564 -0.2607  0.6631 -0.3731
 1755SOL    HW216728   1.359   0.839   6.462  0.0390 -0.3150 -1.1165
 1756SOL     OW16729   4.449   0.667  16.842 -0.1334 -0.1213  0.4310
 1756SOL    HW116730   4.517   0.635  16.902 -0.9556 -0.7527  1.0153
 1756SOL    HW216731   4.475   0.751  16.803  0.8680  0.4842  2.4089
 1757SOL     OW16732   0.806   4.274  10.045 -0.1541  0.2345  0.1613
 1757SOL    HW116733   0.740   4.248  10.109  1.2888 -1.0892  1.1416
 1757SOL    HW216734   0.865   4.199  10.053  2.4262  2.1020 -1.1477
 1758SOL     OW16735   1.893   0.356  13.981  0.1365  0.3085  0.1660
 1758SOL    HW116736   1.810   0.335  13.938 -0.9995  0.7728  2.1451
 1758SOL    HW216737   1.947   0.386  13.908 -1.2804  1.2488 -0.4838
 1759SOL     OW16738   3.796   0.552   7.514  0.0460  0.1114 -0.1790
 1759SOL    HW116739   3.754   0.558   7.429 -0.0635  1.0598 -0.0553
 1759SOL    HW216740   3.815   0.643   7.533  0.1410  0.0416  0.0681
 1760SOL     OW16741   1.068   0.543  11.997 -0.2829 -0.1046 -0.4175
 1760SOL    HW116742   1.057   0.613  11.933  2.9437 -1.0737 -1.9929
 1760SOL    HW216743   1.134   0.485  11.960  1.3413  1.0090  0.7545
 1761SOL     OW16744   4.162   1.083   4.537  0.4350 -0.0026  0.0743
 1761SOL    HW116745   4.103   1.050   4.470  2.2934  0.5410 -1.8341
 1761SOL    HW216746   4.153   1.005   4.592 -1.1058  0.3471  0.3142
 1762SOL     OW16747   0.273   0.396   6.452  0.5395  0.0554  0.0457
 1762SOL    HW116748   0.361   0.406   6.415  0.8120 -0.4381  0.5587
 1762SOL    HW216749   0.285   0.340   6.529 -1.8701 -1.1438 -0.4641
 1763SOL     OW16750   3.256   2.319   8.612 -0.5180  0.3023  0.4993
 1763SOL    HW116751   3.241   2.414   8.608 -1.4222  0.2234  1.9681
 1763SOL    HW216752   3.283   2.297   8.523  2.9025 -0.3776  1.6928
 1764SOL     OW16753   2.747   0.567   6.137 -0.3346 -0.1101  0.1616
 1764SOL    HW116754   2.671   0.541   6.190 -0.0348 -0.0426  0.6249
 1764SOL    HW216755   2.772   0.483   6.099 -2.5607 -1.4921  1.6974
 1765SOL     OW16756   1.985   4.554   5.571 -0.2599  0.2489 -0.8210
 1765SOL    HW116757   1.921   4.621   5.593  1.4898  1.3270  1.0131
 1765SOL    HW216758   1.962   4.494   5.642  1.3574  0.2847 -0.2560
 1766SOL     OW16759   4.359   0.043   3.038 -0.2282 -0.0820  0.2822
 1766SOL    HW116760   4.451   0.058   3.060 -0.7789  1.6130  1.4273
 1766SOL    HW216761   4.353   0.055   2.943 -0.0060 -1.0756  0.1464
 1767SOL     OW16762   0.010   1.483   3.656  0.0691  0.7693  0.6053
 1767SOL    HW116763   4.641   1.462   3.632 -0.5105  1.7922  1.9241
 1767SOL    HW216764   4.721   1.568   3.698 -0.4866 -0.0684  2.1338
 1768SOL     OW16765   2.169   0.750   2.634 -0.5075 -0.6470  0.1013
 1768SOL    HW116766   2.199   0.791   2.715 -1.6228  1.4910 -0.5756
 1768SOL    HW216767   2.086   0.796   2.623 -0.1981 -0.5443 -1.8915
 1769SOL     OW16768   1.728   1.049   7.365  0.1069  0.0756 -0.1893
 1769SOL    HW116769   1.705   1.044   7.458  0.3338  0.0594 -0.1341
 1769SOL    HW216770   1.755   0.959   7.345  0.8978  0.2364  0.1519
 1770SOL     OW16771   1.933   0.117  12.254 -0.0103 -0.3915  0.2427
 1770SOL    HW116772   1.952   0.209  12.275 -2.5495  0.3453 -0.6019
 1770SOL    HW216773   1.843   0.108  12.287  0.3769  0.3185  1.5085
 1771SOL     OW16774   1.366   2.879   2.971  0.3944 -0.9184  0.3853
 1771SOL    HW116775   1.292   2.819   2.964 -1.2351  1.1808 -0.4410
 1771SOL    HW216776   1.431   2.828   2.924 -0.2196 -0.6672 -0.7274
 1772SOL     OW16777   1.368   4.423   2.864 -0.2399  0.1967  0.2897
 1772SOL    HW116778   1.444   4.411   2.921 -0.6342 -0.8510  0.5957
 1772SOL    HW216779   1.330   4.504   2.899 -0.0400 -0.7900  2.7789
 1773SOL     OW16780   1.841   0.323   5.901  0.2619  0.2608  0.0025
 1773SOL    HW116781   1.752   0.319   5.935 -0.4781  0.2966 -1.9040
 1773SOL    HW216782   1.836   0.399   5.843  0.9482  1.1675  1.1548
 1774SOL     OW16783   3.800   0.508  15.894  0.2976 -0.1114  0.6301
 1774SOL    HW116784   3.751   0.446  15.840 -1.2082  2.2252 -0.7289
 1774SOL    HW216785   3.886   0.465  15.896 -0.1679 -0.9107  3.7183
 1775SOL     OW16786   2.287   4.339  16.288  0.0690 -0.6741  0.5692
 1775SOL    HW116787   2.362   4.365  16.341 -0.6424  1.9360  0.3399
 1775SOL    HW216788   2.212   4.353  16.347 -0.1145  0.9631 -0.0555
 1776SOL     OW16789   4.330   0.779   3.092  0.1556  0.2265 -0.1292
 1776SOL    HW116790   4.385   0.792   3.015 -1.0748  1.2514 -0.8253
 1776SOL    HW216791   4.248   0.796   3.047 -0.0419 -2.1046 -0.6693
 1777SOL     OW16792   2.924   1.751   7.224 -0.5633 -0.3643 -0.1112
 1777SOL    HW116793   2.981   1.678   7.198  0.4887  0.2497  0.4882
 1777SOL    HW216794   2.965   1.812   7.162  0.6645  0.0135  1.0850
 1778SOL     OW16795   0.972   0.327  11.462 -0.0431  0.0662  1.0963
 1778SOL    HW116796   1.028   0.250  11.476  0.2287  0.0141 -0.2668
 1778SOL    HW216797   1.014   0.368  11.386  0.7135  0.3209  1.6519
 1779SOL     OW16798   3.678   2.567   8.106 -0.1138  0.3761 -0.0460
 1779SOL    HW116799   3.754   2.557   8.048 -1.4666 -2.3906 -1.3608
 1779SOL    HW216800   3.620   2.626   8.058 -0.5397  0.2163  0.2780
 1780SOL     OW16801   3.024   1.177   5.778  0.1697  0.3302  0.3696
 1780SOL    HW116802   2.955   1.239   5.799 -1.0641 -0.5479 -1.0902
 1780SOL    HW216803   3.032   1.186   5.683 -2.1242  0.5051  0.2054
 1781SOL     OW16804   1.854   3.545   2.683 -0.3198 -0.0665 -0.6927
 1781SOL    HW116805   1.800   3.613   2.642 -2.7679 -3.7847 -3.5668
 1781SOL    HW216806   1.861   3.572   2.774 -1.4149 -3.2079  0.3107
 1782SOL     OW16807   2.718   2.596   9.681 -0.9126 -0.2165 -0.1832
 1782SOL    HW116808   2.756   2.675   9.720  0.2431 -1.1748  0.6490
 1782SOL    HW216809   2.795   2.538   9.687 -1.8010 -1.5596 -1.8308
 1783SOL     OW16810   1.992   1.968  11.962 -0.0273  0.1702  0.1157
 1783SOL    HW116811   1.991   2.055  11.922 -1.3801 -0.0192 -0.2773
 1783SOL    HW216812   2.039   1.991  12.042 -0.8570  0.7302  0.4421
 1784SOL     OW16813   2.144   1.913   0.360  0.1556  0.2101 -1.0042
 1784SOL    HW116814   2.112   1.978   0.423 -0.8073 -0.4950 -0.7594
 1784SOL    HW216815   2.175   1.844   0.418 -3.3731 -0.7064 -0.1901
 1785SOL     OW16816   4.616   2.909   5.932  0.0760  0.5604  0.6149
 1785SOL    HW116817   4.639   2.852   5.859 -1.2527 -0.2046  0.8019
 1785SOL    HW216818   4.665   2.988   5.907  0.6531  0.3135  0.9470
 1786SOL     OW16819   2.999   4.195   5.005  0.7045 -0.1608  0.3016
 1786SOL    HW116820   3.023   4.209   5.097 -0.3951 -1.3426  0.7535
 1786SOL    HW216821   2.947   4.274   4.990 -2.0055 -2.0842 -0.4694
 1787SOL     OW16822   4.256   3.394   3.882  0.2788  0.3120 -0.0676
 1787SOL    HW116823   4.291   3.464   3.936  0.1941  0.6873 -0.4971
 1787SOL    HW216824   4.240   3.324   3.945  1.0120  0.2586  0.0524
 1788SOL     OW16825   1.468   2.384   7.443  0.4553  0.2266 -0.9766
 1788SOL    HW116826   1.491   2.339   7.361  0.4131 -2.9047  0.6987
 1788SOL    HW216827   1.378   2.402   7.419  0.1063  0.7281  0.7636
 1789SOL     OW16828   4.528   4.400   3.751 -0.1859 -0.1211  0.2431
 1789SOL    HW116829   4.459   4.334   3.756  1.2770 -1.7802 -1.5337
 1789SOL    HW216830   4.544   4.424   3.660 -1.6056  1.9080  0.5362
 1790SOL     OW16831   1.100   3.067   3.086  0.2244  0.2947 -0.2610
 1790SOL    HW116832   1.149   3.032   3.012  0.1203 -0.9815  0.2734
 1790SOL    HW216833   1.099   3.162   3.074  0.9115  0.1712 -1.2691
 1791SOL     OW16834   1.623   1.026   0.797 -0.4896  0.0390 -0.2042
 1791SOL    HW116835   1.618   1.102   0.740 -1.8039  0.9258  1.0851
 1791SOL    HW216836   1.540   1.041   0.843 -0.2498 -0.6256  0.4606
 1792SOL     OW16837   3.914   3.396  11.068  0.1715  0.1177  0.0897
 1792SOL    HW116838   3.919   3.314  11.117  2.2166 -0.0998 -0.4824
 1792SOL    HW216839   3.895   3.342  10.991  1.3246 -0.9485  0.5480
 1793SOL     OW16840   3.287   2.267   5.168  0.6222  0.1401 -0.4043
 1793SOL    HW116841   3.374   2.253   5.130  1.6915 -1.7072  2.7440
 1793SOL    HW216842   3.230   2.253   5.092  0.5680 -1.2244 -0.1037
 1794SOL     OW16843   2.995   2.852  17.207  0.3698 -0.5203  0.1312
 1794SOL    HW116844   2.989   2.822  17.298 -0.2963  0.1810  0.3206
 1794SOL    HW216845   2.900   2.847  17.196  0.6261  2.9645 -3.7629
 1795SOL     OW16846   0.155   4.390   4.188 -0.0780  0.1114  0.2172
 1795SOL    HW116847   0.186   4.349   4.269  0.2319  0.1891  0.1378
 1795SOL    HW216848   0.160   4.485   4.203  3.0799  0.0198 -0.1021
 1796SOL     OW16849   3.604   2.570   3.758  0.1378 -0.4287  0.2099
 1796SOL    HW116850   3.697   2.550   3.770  0.4655 -1.8964 -4.6146
 1796SOL    HW216851   3.604   2.665   3.759 -2.0439 -0.4801  2.3817
 1797SOL     OW16852   3.689   2.167  17.017 -0.0984 -0.0055 -0.4142
 1797SOL    HW116853   3.682   2.170  17.112 -0.2543 -1.8836 -0.3615
 1797SOL    HW216854   3.758   2.100  17.010 -1.1203 -1.0268 -0.5974
 1798SOL     OW16855   1.736   1.396   9.548 -0.0019  0.0450  0.4113
 1798SOL    HW116856   1.669   1.409   9.615 -0.3260 -1.2682  0.3444
 1798SOL    HW216857   1.732   1.301   9.536  1.8466 -0.5491  4.4938
 1799SOL     OW16858   1.642   0.370   6.733 -0.2765  0.4100 -0.4030
 1799SOL    HW116859   1.731   0.336   6.739 -0.1029  1.0213  0.5223
 1799SOL    HW216860   1.600   0.311   6.796  0.9956 -0.2223 -0.1534
 1800SOL     OW16861   2.962   0.866   7.199  0.3607  0.0083 -0.0507
 1800SOL    HW116862   3.034   0.816   7.238  1.0184  0.3413 -0.8384
 1800SOL    HW216863   2.897   0.799   7.221  0.8292  0.0530  1.4936
 1801SOL     OW16864   4.075   3.917   3.662 -0.7398  0.5414  0.1849
 1801SOL    HW116865   4.162   3.879   3.653 -1.7445 -0.8401 -3.5192
 1801SOL    HW216866   4.027   3.872   3.593  0.0204 -0.5487  0.3734
 1802SOL     OW16867   0.864   2.408   8.958 -0.0238  0.6127 -0.1641
 1802SOL    HW116868   0.769   2.396   8.964  0.1631 -0.5816  0.3846
 1802SOL    HW216869   0.896   2.465   9.029  3.0550 -0.0744 -1.0059
 1803SOL     OW16870   4.093   2.121   8.879  0.4130  0.3128 -0.1559
 1803SOL    HW116871   4.009   2.078   8.870  1.8547 -2.2452 -1.4611
 1803SOL    HW216872   4.152   2.067   8.826 -0.7805  1.1614 -2.3453
 1804SOL     OW16873   3.231   4.541   6.134 -0.3474  0.8693  0.1229
 1804SOL    HW116874   3.226   4.598   6.057 -0.3933  2.0128  0.9754
 1804SOL    HW216875   3.173   4.579   6.199 -0.7065  0.3765  0.0919
 1805SOL     OW16876   2.760   3.343  15.511  0.1204 -0.2627 -0.3267
 1805SOL    HW116877   2.694   3.303  15.454  0.9638  0.6603 -1.9324
 1805SOL    HW216878   2.736   3.309  15.598  1.7238 -0.8107 -0.1012
 1806SOL     OW16879   0.205   2.423   4.309  0.1295 -0.0074  0.5864
 1806SOL    HW116880   0.167   2.363   4.245 -0.9420 -0.1928  1.4028
 1806SOL    HW216881   0.183   2.391   4.396 -3.2969  3.6297  1.0691
 1807SOL     OW16882   2.099   0.191   2.721 -0.5169  0.0016  0.1961
 1807SOL    HW116883   2.024   0.133   2.708  1.2739 -1.9888 -1.1529
 1807SOL    HW216884   2.074   0.256   2.654 -1.8845  0.5194  1.2145
 1808SOL     OW16885   1.625   3.563   3.868 -0.0383 -0.0853 -0.1307
 1808SOL    HW116886   1.608   3.532   3.957  0.8036 -0.3708 -0.0739
 1808SOL    HW216887   1.566   3.510   3.815 -0.4031  0.7810 -0.6033
 1809SOL     OW16888   2.912   3.162   3.235 -0.3306  0.1936 -0.2918
 1809SOL    HW116889   2.924   3.107   3.158 -1.4161 -1.3034  0.6054
 1809SOL    HW216890   3.006   3.175   3.250 -0.0564 -1.2650 -0.7605
 1810SOL     OW16891   3.077   0.533  14.159 -0.2024  0.7873 -0.2721
 1810SOL    HW116892   3.031   0.494  14.084  1.3602  0.1596 -0.9012
 1810SOL    HW216893   3.166   0.517  14.130 -1.0902  0.0998 -2.6892
 1811SOL     OW16894   2.817   2.056   6.551  0.2875 -0.1484 -0.1017
 1811SOL    HW116895   2.789   2.076   6.462 -0.0245  0.9585  0.2394
 1811SOL    HW216896   2.898   2.107   6.559 -0.8298  1.5480  0.5858
 1812SOL     OW16897   1.067   3.106  11.103 -0.6137  0.3408 -0.0357
 1812SOL    HW116898   1.162   3.102  11.104 -0.4970  2.8819 -1.4117
 1812SOL    HW216899   1.049   3.200  11.113  1.3321  0.8943 -1.8152
 1813SOL     OW16900   1.787   3.750   8.382 -0.2822  0.2347 -0.2054
 1813SOL    HW116901   1.761   3.734   8.473  0.1851  1.8601  0.2168
 1813SOL    HW216902   1.814   3.842   8.380  1.5890 -0.2974  0.6972
 1814SOL     OW16903   3.147   2.264   3.930  0.0668  0.3546  0.0708
 1814SOL    HW116904   3.125   2.231   3.843  1.3172  0.2817 -0.2165
 1814SOL    HW216905   3.212   2.329   3.905  0.4336  0.0083  0.1223
 1815SOL     OW16906   1.046   3.078  15.307  0.2161  0.3435 -0.5585
 1815SOL    HW116907   1.044   3.117  15.220  0.4562  0.1324 -0.6586
 1815SOL    HW216908   0.978   3.011  15.296  0.0912  0.0377  2.0293
 1816SOL     OW16909   0.932   2.563   3.080  0.4780  0.4127 -0.4224
 1816SOL    HW116910   0.977   2.488   3.119 -0.1449 -0.8462 -2.1318
 1816SOL    HW216911   0.997   2.634   3.078 -0.3520  1.0825 -3.2788
 1817SOL     OW16912   0.117   3.175   9.090 -0.0339 -0.3138 -0.4038
 1817SOL    HW116913   0.112   3.225   9.171 -0.4860 -1.8729  0.5441
 1817SOL    HW216914   0.024   3.164   9.069 -0.2078 -1.0842  0.7771
 1818SOL     OW16915   1.019   1.122   9.606 -0.6072 -0.2752  0.2261
 1818SOL    HW116916   1.091   1.112   9.668 -0.8577  1.4588  0.8024
 1818SOL    HW216917   0.971   1.186   9.658  1.9607  2.3417 -0.6123
 1819SOL     OW16918   1.573   3.038  12.926 -0.8895 -0.0618 -0.1798
 1819SOL    HW116919   1.627   2.985  12.868 -2.2651 -0.6623 -0.9236
 1819SOL    HW216920   1.609   3.127  12.922 -0.9270  0.0057  1.0268
 1820SOL     OW16921   3.370   0.613   7.364  0.0486  0.3320 -0.6471
 1820SOL    HW116922   3.325   0.529   7.378 -1.4417  1.2421  0.0346
 1820SOL    HW216923   3.325   0.634   7.282 -0.4873 -1.0363 -0.7116
 1821SOL     OW16924   1.276   3.578   6.195  0.7923 -0.2001 -0.3311
 1821SOL    HW116925   1.351   3.616   6.242 -0.8082 -0.5839  2.4984
 1821SOL    HW216926   1.304   3.487   6.188  0.4440 -0.1654 -2.1458
 1822SOL     OW16927   3.861   0.952  16.867  0.6485 -0.1056 -0.4465
 1822SOL    HW116928   3.952   0.940  16.891  0.5422 -0.6723 -0.3329
 1822SOL    HW216929   3.864   0.918  16.778 -0.3688 -0.3459 -0.3962
 1823SOL     OW16930   1.342   3.575  17.411  0.4692  0.4495  0.4034
 1823SOL    HW116931   1.367   3.620  17.492  1.4293  0.8946 -0.1431
 1823SOL    HW216932   1.286   3.639  17.367  1.4744  0.3350 -1.0401
 1824SOL     OW16933   2.379   2.818   8.725  0.1301  0.2817  0.2788
 1824SOL    HW116934   2.409   2.900   8.686 -1.1629  0.9050  0.6085
 1824SOL    HW216935   2.394   2.821   8.819 -0.0329 -0.0874  0.3167
 1825SOL     OW16936   2.875   3.845   7.063  0.6161  0.1763  0.2794
 1825SOL    HW116937   2.830   3.925   7.034  2.7638  0.8446 -1.1608
 1825SOL    HW216938   2.962   3.878   7.044 -0.0024  0.0473 -2.7385
 1826SOL     OW16939   2.691   4.448   7.838 -0.5684  0.4546  0.1112
 1826SOL    HW116940   2.753   4.409   7.776 -2.2499 -1.3158 -0.4716
 1826SOL    HW216941   2.612   4.445   7.783 -0.4637 -0.0423 -0.0110
 1827SOL     OW16942   3.781   3.628  11.065 -0.6642  0.1005 -0.0259
 1827SOL    HW116943   3.793   3.629  10.970 -0.6660  0.0738 -0.0266
 1827SOL    HW216944   3.837   3.551  11.076 -1.8279 -0.6905  0.4302
 1828SOL     OW16945   2.157   1.929   4.072  0.1930  0.0536  0.3097
 1828SOL    HW116946   2.147   1.969   4.159  1.1684  2.8059 -0.8532
 1828SOL    HW216947   2.253   1.929   4.072  0.1910  0.9782  0.5709
 1829SOL     OW16948   4.357   1.543   2.120 -0.3778  0.4426 -0.4349
 1829SOL    HW116949   4.413   1.615   2.093  1.4692 -1.6592 -2.1814
 1829SOL    HW216950   4.281   1.598   2.138  0.4176  1.5939 -0.5946
 1830SOL     OW16951   4.015   1.071   5.144  0.0250  0.2109 -0.0785
 1830SOL    HW116952   4.092   1.097   5.194  0.8077  0.3425 -1.3739
 1830SOL    HW216953   3.966   1.027   5.213 -0.1270 -1.1081 -1.0300
 1831SOL     OW16954   2.714   4.347  16.293  0.3549  0.6103 -0.4449
 1831SOL    HW116955   2.769   4.290  16.238  0.1462  0.3294 -0.3621
 1831SOL    HW216956   2.723   4.433  16.250  0.8950 -0.1883 -1.9629
 1832SOL     OW16957   0.045   3.600   2.302 -1.1762  0.0595  0.1895
 1832SOL    HW116958   0.099   3.559   2.235  0.5524  0.2977  1.4385
 1832SOL    HW216959   0.088   3.685   2.309  1.5180 -1.1036 -2.1419
 1833SOL     OW16960   3.868   3.526   1.639 -0.4075 -0.1047  0.1550
 1833SOL    HW116961   3.825   3.450   1.599  1.2477 -1.4109  0.8140
 1833SOL    HW216962   3.883   3.589   1.568  0.0742 -0.6449 -0.2292
 1834SOL     OW16963   2.666   1.922   5.179  0.2380 -0.3135 -0.1202
 1834SOL    HW116964   2.611   1.950   5.106  0.6268 -0.3140 -0.4102
 1834SOL    HW216965   2.746   1.971   5.160  0.4190 -1.8663 -3.3262
 1835SOL     OW16966   3.019   1.768   8.639  0.4186  0.4885 -0.6497
 1835SOL    HW116967   3.104   1.772   8.596  0.0854 -0.2017 -1.3655
 1835SOL    HW216968   2.963   1.730   8.572  0.7297  2.5481 -2.0691
 1836SOL     OW16969   0.670   2.090   6.257  0.3792 -0.1045  0.5058
 1836SOL    HW116970   0.651   2.000   6.284 -1.4049  0.6644  1.7731
 1836SOL    HW216971   0.748   2.111   6.309 -0.2378  2.4041  0.4282
 1837SOL     OW16972   0.203   4.537   9.237 -0.0214  0.1412  0.1967
 1837SOL    HW116973   0.270   4.581   9.185  0.2681 -1.9387 -1.2332
 1837SOL    HW216974   0.127   4.547   9.178  0.0402 -0.4462  0.0090
 1838SOL     OW16975   1.917   1.119  16.681  0.0559 -0.2975 -0.0198
 1838SOL    HW116976   1.884   1.116  16.592 -3.1423 -0.9761  1.2032
 1838SOL    HW216977   1.997   1.067  16.672  0.0328 -0.3934  0.3188
 1839SOL     OW16978   1.011   3.068   3.756  0.3122  0.2942  0.4677
 1839SOL    HW116979   1.034   3.156   3.783 -1.4087  1.1268 -0.7873
 1839SOL    HW216980   0.970   3.034   3.835  0.3355  2.4431  1.3822
 1840SOL     OW16981   2.114   1.394   8.701 -0.1560  0.5871  0.3190
 1840SOL    HW116982   2.148   1.389   8.790 -1.0027 -1.8711  0.5078
 1840SOL    HW216983   2.067   1.477   8.709 -0.0244  0.7546 -0.6983
 1841SOL     OW16984   3.475   2.933   9.178 -0.4533 -0.4370  0.5077
 1841SOL    HW116985   3.414   2.861   9.194 -3.4811  1.0361 -4.2816
 1841SOL    HW216986   3.502   2.957   9.267 -0.1465 -1.4896  0.6952
 1842SOL     OW16987   4.175   2.755   1.291 -0.7872 -0.1994 -0.3242
 1842SOL    HW116988   4.212   2.796   1.369  0.9247  1.3912 -1.9653
 1842SOL    HW216989   4.252   2.717   1.249 -0.1087 -0.8750  1.5429
 1843SOL     OW16990   0.860   3.300  13.429  0.8919 -0.5315 -0.6418
 1843SOL    HW116991   0.810   3.380  13.415  2.2991  0.4722  0.0714
 1843SOL    HW216992   0.934   3.327  13.484 -0.2655 -0.0295  0.6653
 1844SOL     OW16993   1.603   2.304   8.036  0.1650  0.4175 -0.1380
 1844SOL    HW116994   1.671   2.289   8.101 -0.0979  1.3082  0.3480
 1844SOL    HW216995   1.638   2.255   7.961 -0.8368 -0.3807 -0.0754
 1845SOL     OW16996   1.508   0.998   6.998  0.4744 -0.4841  0.0591
 1845SOL    HW116997   1.603   0.990   7.002  0.4493  0.4867  2.9424
 1845SOL    HW216998   1.501   1.084   7.041 -1.2510 -0.8165  0.4653
 1846SOL     OW16999   4.055   1.664   7.085  0.1432 -0.0776 -0.2891
 1846SOL    HW117000   4.036   1.757   7.084 -1.1063 -0.3360 -0.8302
 1846SOL    HW217001   4.139   1.664   7.040  1.6778  0.1337  2.5734
 1847SOL     OW17002   0.273   0.135   8.908 -0.2476  0.0448  0.0709
 1847SOL    HW117003   0.209   0.188   8.955 -0.2088  1.2434 -1.2201
 1847SOL    HW217004   0.299   0.065   8.968  0.5362 -2.0500 -2.7395
 1848SOL     OW17005   0.107   4.547   8.710  0.4998 -0.0992 -0.6236
 1848SOL    HW117006   0.134   4.462   8.674  2.1945  0.2323 -0.1408
 1848SOL    HW217007   0.149   4.618   8.662  2.0439 -0.1181  0.6803
 1849SOL     OW17008   3.999   3.011   3.945  0.4308  0.8816 -0.3595
 1849SOL    HW117009   4.041   3.017   3.859  0.1847 -0.6147 -0.5823
 1849SOL    HW217010   4.014   2.919   3.965  1.6914  1.2255  0.2830
 1850SOL     OW17011   2.582   3.051   3.696  0.0602 -0.1494  0.5483
 1850SOL    HW117012   2.505   3.033   3.641  0.2073  1.2919 -0.1371
 1850SOL    HW217013   2.542   3.104   3.765  0.6481 -0.3798  1.0610
 1851SOL     OW17014   3.865   2.421   7.344 -0.0316  0.4485  0.0539
 1851SOL    HW117015   3.936   2.425   7.280  2.1424 -1.2785  2.3171
 1851SOL    HW217016   3.921   2.446   7.417  2.1858 -1.0074 -1.1369
 1852SOL     OW17017   0.825   1.144  15.381  0.7130 -0.5549  0.3439
 1852SOL    HW117018   0.916   1.137  15.352  0.1642 -0.8544 -1.3043
 1852SOL    HW217019   0.810   1.238  15.378 -1.2715 -0.8130  1.8133
 1853SOL     OW17020   3.513   1.060   4.989 -0.1499 -0.6580 -0.5527
 1853SOL    HW117021   3.472   0.990   4.938 -0.3751  0.4548 -1.8907
 1853SOL    HW217022   3.540   1.018   5.070  0.7213 -1.1949 -1.1179
 1854SOL     OW17023   4.641   3.345  14.477 -0.9738  0.0356  0.5333
 1854SOL    HW117024   4.561   3.371  14.431 -0.7830 -1.3397 -0.5653
 1854SOL    HW217025   4.655   3.421  14.534  0.4515  1.1081 -1.2502
 1855SOL     OW17026   4.720   1.485   7.722  0.1411  0.0076 -0.5565
 1855SOL    HW117027   0.036   1.460   7.638  0.6605 -1.4453  0.1148
 1855SOL    HW217028   0.068   1.451   7.778 -1.8594  0.6939  2.3504
 1856SOL     OW17029   3.130   2.760   0.649 -0.3119  0.6159  0.8212
 1856SOL    HW117030   3.141   2.834   0.589 -2.3593 -1.6740 -2.3928
 1856SOL    HW217031   3.187   2.783   0.722  1.6711 -1.5368 -0.0610
 1857SOL     OW17032   0.828   3.698   6.846 -0.5435  0.3288  0.2318
 1857SOL    HW117033   0.740   3.715   6.812 -0.6923 -1.9604 -0.5846
 1857SOL    HW217034   0.867   3.784   6.855  0.2812 -0.4381  3.7516
 1858SOL     OW17035   1.458   3.540   1.398  0.0518  0.3146  0.2652
 1858SOL    HW117036   1.513   3.546   1.476 -1.4491  0.8162  1.3020
 1858SOL    HW217037   1.424   3.628   1.377 -1.1493 -0.2456 -0.1312
 1859SOL     OW17038   4.549   4.252   9.824 -0.3274  0.4985 -0.0274
 1859SOL    HW117039   4.583   4.337   9.796 -0.3649 -0.0539 -1.7535
 1859SOL    HW217040   4.581   4.243   9.914 -0.3023  3.5913  0.2798
 1860SOL     OW17041   4.395   2.134   6.675 -0.2532 -0.0508  0.1119
 1860SOL    HW117042   4.408   2.087   6.592  0.1132 -0.6589  0.5096
 1860SOL    HW217043   4.428   2.220   6.649 -1.5944  0.4827  0.1939
 1861SOL     OW17044   0.962   1.517  16.990 -0.0167 -0.1870 -0.5464
 1861SOL    HW117045   0.868   1.531  16.998 -0.0587  0.0231 -1.4475
 1861SOL    HW217046   0.975   1.502  17.084  0.6479 -0.9975 -0.7678
 1862SOL     OW17047   4.449   2.017  12.104  0.0047 -0.4025 -0.5401
 1862SOL    HW117048   4.382   1.967  12.149  2.8277 -3.1833  0.5827
 1862SOL    HW217049   4.407   2.081  12.045 -1.1121 -0.1531  0.5406
 1863SOL     OW17050   4.569   1.826   1.606 -0.5306  0.0881  0.0859
 1863SOL    HW117051   4.588   1.788   1.520  0.8553  0.7115  0.1181
 1863SOL    HW217052   4.545   1.914   1.579 -0.2333  0.2744  0.4396
 1864SOL     OW17053   1.720   3.540   6.987 -0.1091 -0.3075 -0.6835
 1864SOL    HW117054   1.811   3.562   7.007 -0.4579 -0.1608  0.7976
 1864SOL    HW217055   1.697   3.604   6.920 -3.0063 -1.0456 -0.3987
 1865SOL     OW17056   4.592   3.351   4.745 -0.2077  0.2704 -0.1459
 1865SOL    HW117057   4.626   3.440   4.742 -0.3200  0.3423  0.7570
 1865SOL    HW217058   4.509   3.357   4.698 -1.3012 -1.8787  1.5104
 1866SOL     OW17059   1.645   4.172   3.684 -0.3553 -0.5330 -0.1973
 1866SOL    HW117060   1.682   4.137   3.765  0.2998  0.8322  0.1067
 1866SOL    HW217061   1.710   4.240   3.663  0.3166 -1.1910 -0.2454
 1867SOL     OW17062   0.372   2.476   3.819 -0.0916 -0.0986  0.0951
 1867SOL    HW117063   0.459   2.493   3.783 -0.9903  3.4379 -0.3991
 1867SOL    HW217064   0.335   2.424   3.747 -0.3527  0.6397 -0.3021
 1868SOL     OW17065   2.532   1.210   7.776 -0.2634 -0.1441  0.0225
 1868SOL    HW117066   2.531   1.114   7.784 -2.0616  0.1152  2.8947
 1868SOL    HW217067   2.579   1.222   7.694  1.7559 -0.0746  1.1693
 1869SOL     OW17068   1.210   0.421   5.235 -0.2060  0.4408  0.4667
 1869SOL    HW117069   1.247   0.509   5.222  1.7382 -0.4180  0.1743
 1869SOL    HW217070   1.155   0.441   5.310  0.6949 -0.1607  1.2826
 1870SOL     OW17071   0.493   2.180   6.985 -0.3749  0.7948  0.0462
 1870SOL    HW117072   0.577   2.149   6.950 -1.1609  0.6775 -1.6923
 1870SOL    HW217073   0.487   2.117   7.057 -0.3070  0.3873 -0.3025
 1871SOL     OW17074   2.631   0.434   6.348 -0.5344  0.1606 -0.2661
 1871SOL    HW117075   2.547   0.473   6.371  0.1085  1.2023  0.2735
 1871SOL    HW217076   2.612   0.352   6.395  0.5656  0.7460  1.1992
 1872SOL     OW17077   2.839   3.036   3.607  0.2751  0.0840 -0.6894
 1872SOL    HW117078   2.757   3.050   3.654 -0.5665 -1.4213 -1.7330
 1872SOL    HW217079   2.856   3.125   3.573  3.5661 -0.8143 -1.4060
 1873SOL     OW17080   1.645   2.192   4.167 -0.5848 -0.1115 -0.0251
 1873SOL    HW117081   1.635   2.106   4.207  1.3902 -0.3254  0.0180
 1873SOL    HW217082   1.720   2.196   4.107 -1.3254 -0.3489 -0.9833
 1874SOL     OW17083   2.087   4.520   3.012 -0.1991 -0.1841 -0.2362
 1874SOL    HW117084   2.033   4.449   3.046  2.1951 -0.3776  3.0591
 1874SOL    HW217085   2.124   4.485   2.931  0.0853 -0.3413 -0.0386
 1875SOL     OW17086   3.509   2.068   8.245 -0.3716  0.5388 -0.3452
 1875SOL    HW117087   3.539   2.157   8.227  0.2813 -0.1396 -2.7030
 1875SOL    HW217088   3.462   2.083   8.327  0.6718 -0.6723  0.4785
 1876SOL     OW17089   3.689   1.803   3.997  0.3140  0.1607 -0.2429
 1876SOL    HW117090   3.597   1.789   4.020 -0.2378  1.5774 -1.6115
 1876SOL    HW217091   3.671   1.862   3.923  0.8080  1.0570  0.3611
 1877SOL     OW17092   1.821   2.862   5.066 -0.4509 -0.3955  0.1743
 1877SOL    HW117093   1.869   2.787   5.103 -1.2518 -1.4128 -0.8386
 1877SOL    HW217094   1.733   2.825   5.064 -0.6430 -0.0913  2.5310
 1878SOL     OW17095   1.370   3.676  16.064 -0.1620  0.4580 -0.3669
 1878SOL    HW117096   1.288   3.628  16.078  1.1355 -1.7451 -0.3281
 1878SOL    HW217097   1.404   3.623  15.993 -2.6750  0.2067 -1.4076
 1879SOL     OW17098   1.796   2.916  15.579 -0.5752 -0.2864 -0.0889
 1879SOL    HW117099   1.800   2.888  15.488  3.1709 -0.6318  0.1964
 1879SOL    HW217100   1.781   3.010  15.567  0.3802 -0.0141  0.8050
 1880SOL     OW17101   0.433   1.439  10.267 -0.2110 -0.1195 -0.7309
 1880SOL    HW117102   0.395   1.353  10.249  1.6901 -1.1401  0.1142
 1880SOL    HW217103   0.496   1.417  10.336 -1.7037  1.4398  1.1163
 1881SOL     OW17104   1.671   3.955   0.474  0.5265 -0.1327 -0.2933
 1881SOL    HW117105   1.701   3.973   0.385 -1.5126 -0.4762 -1.0580
 1881SOL    HW217106   1.721   4.029   0.508  0.3767 -0.6784  1.1594
 1882SOL     OW17107   3.952   1.734   5.362  0.5015 -0.0074  0.4347
 1882SOL    HW117108   3.874   1.761   5.410  0.0535  0.3559 -0.4825
 1882SOL    HW217109   3.985   1.819   5.332 -0.7280  0.2371 -0.2361
 1883SOL     OW17110   1.075   0.762   5.943  0.1498  0.2531 -0.0440
 1883SOL    HW117111   1.121   0.828   5.891 -0.9329 -0.9589 -2.5344
 1883SOL    HW217112   1.146   0.712   5.983  0.0061  1.1268  1.2989
 1884SOL     OW17113   2.473   0.040   5.764 -0.6032 -0.3354 -0.3232
 1884SOL    HW117114   2.558   4.718   5.768 -0.2936  0.1903 -1.2201
 1884SOL    HW217115   2.409   4.690   5.768  1.3226 -1.9520  1.2948
 1885SOL     OW17116   3.363   1.729  12.190 -0.2026  0.3730  0.4389
 1885SOL    HW117117   3.269   1.738  12.171 -0.7755 -4.6860  0.9119
 1885SOL    HW217118   3.384   1.641  12.157 -0.4614  0.3187  0.4156
 1886SOL     OW17119   0.148   1.690  11.991  0.0387  0.0478 -0.1639
 1886SOL    HW117120   0.169   1.781  11.968 -2.2830  1.0129  1.5196
 1886SOL    HW217121   0.067   1.672  11.942 -1.9579 -2.7845  4.1908
 1887SOL     OW17122   4.474   2.672   7.732 -0.3742  0.2493 -0.5800
 1887SOL    HW117123   4.550   2.647   7.785 -1.5463 -1.3593  0.3379
 1887SOL    HW217124   4.432   2.587   7.722 -2.1614  0.7358  2.9283
 1888SOL     OW17125   0.975   1.105   0.607  0.3140 -0.4812  0.2739
 1888SOL    HW117126   0.994   1.078   0.518 -2.1937 -2.0863  0.2255
 1888SOL    HW217127   0.880   1.090   0.603  0.8085 -3.6762  0.7691
 1889SOL     OW17128   2.874   1.035   7.474  0.1962  0.0990 -0.9799
 1889SOL    HW117129   2.965   1.029   7.505 -0.4689  0.9108  1.1798
 1889SOL    HW217130   2.889   1.012   7.383 -0.8470 -2.4386 -0.4918
 1890SOL     OW17131   1.631   2.755   3.529 -0.0834 -0.4075 -0.2571
 1890SOL    HW117132   1.566   2.704   3.577 -2.0810 -0.6663 -3.2613
 1890SOL    HW217133   1.579   2.806   3.468 -0.2456 -1.4426 -0.9794
 1891SOL     OW17134   1.020   0.904   8.388 -0.1192  0.0362 -0.3500
 1891SOL    HW117135   1.055   0.958   8.458  0.3368  1.4015 -1.6163
 1891SOL    HW217136   0.929   0.901   8.417 -0.7139  1.3426 -2.0382
 1892SOL     OW17137   2.932   2.495   2.206  0.0028  0.2805 -0.2239
 1892SOL    HW117138   2.924   2.421   2.146 -1.1529 -0.9606  1.4366
 1892SOL    HW217139   3.015   2.526   2.171 -0.5106  0.4826 -1.2395
 1893SOL     OW17140   0.419   2.296   1.493 -0.0351  0.4541  0.1380
 1893SOL    HW117141   0.347   2.253   1.448 -2.9558  1.6674  3.6970
 1893SOL    HW217142   0.492   2.236   1.477 -1.3107 -0.6844 -1.4378
 1894SOL     OW17143   1.197   4.284   1.146 -0.2859  0.3435 -0.1662
 1894SOL    HW117144   1.263   4.302   1.079 -0.0132  2.3009  0.6186
 1894SOL    HW217145   1.129   4.351   1.132 -1.6337 -0.8108  0.8127
 1895SOL     OW17146   1.687   3.395   6.309 -0.6720  0.3501 -1.1503
 1895SOL    HW117147   1.704   3.303   6.329 -0.0356  0.3847 -1.5575
 1895SOL    HW217148   1.630   3.382   6.233 -2.6304  1.2456  0.1509
 1896SOL     OW17149   2.574   0.785   5.257 -0.0720 -0.3009 -0.2537
 1896SOL    HW117150   2.536   0.854   5.202 -1.6683  0.9559  2.4308
 1896SOL    HW217151   2.539   0.802   5.344 -0.0170  1.3988 -0.5646
 1897SOL     OW17152   0.488   2.706   0.983 -0.1585 -0.4970  0.0671
 1897SOL    HW117153   0.566   2.680   1.033  0.5573 -1.1116 -1.3904
 1897SOL    HW217154   0.432   2.708   1.061 -0.2136 -0.3945  0.0255
 1898SOL     OW17155   0.138   2.835   3.569  0.3127  0.2459 -0.2413
 1898SOL    HW117156   0.217   2.888   3.579 -0.9105  1.9246  0.3725
 1898SOL    HW217157   0.159   2.757   3.621  2.6731  1.2069  0.2345
 1899SOL     OW17158   1.685   0.724  10.653 -0.5218  0.0678  0.7651
 1899SOL    HW117159   1.700   0.630  10.641  1.6023  0.6601 -1.2310
 1899SOL    HW217160   1.778   0.749  10.646 -0.4794 -0.4585 -0.6810
 1900SOL     OW17161   2.208   2.263   8.886 -0.1205  0.5891 -0.1237
 1900SOL    HW117162   2.243   2.271   8.975  0.9114  0.2975 -0.4964
 1900SOL    HW217163   2.168   2.350   8.882  0.1657  0.7343  0.1727
 1901SOL     OW17164   0.978   0.258   9.738 -0.0194  0.3170 -0.2095
 1901SOL    HW117165   1.010   0.340   9.774  1.0278  0.6558 -1.9759
 1901SOL    HW217166   0.994   0.261   9.644 -2.3912 -0.4443 -0.6621
 1902SOL     OW17167   1.569   2.390   4.309  0.6214  0.9889  0.1773
 1902SOL    HW117168   1.597   2.304   4.277 -2.4313 -0.4542  1.3277
 1902SOL    HW217169   1.476   2.373   4.322  0.2589  1.7618 -1.4967
 1903SOL     OW17170   1.832   1.200   7.766 -0.3284  0.0120 -0.0755
 1903SOL    HW117171   1.906   1.152   7.803 -1.7756 -3.5454 -1.7667
 1903SOL    HW217172   1.797   1.254   7.837  2.0839 -0.7060  1.6696
 1904SOL     OW17173   2.971   2.079   9.270  0.2424 -0.1860 -0.1184
 1904SOL    HW117174   2.966   2.135   9.193 -0.6460  0.7697  0.6237
 1904SOL    HW217175   3.053   2.111   9.308  0.5378 -1.1812  0.0773
 1905SOL     OW17176   2.261   3.963   5.054 -0.3490  0.4318  0.2515
 1905SOL    HW117177   2.227   3.874   5.041 -0.5480  0.6894 -1.0323
 1905SOL    HW217178   2.175   4.002   5.067 -1.3660 -1.9505  0.7707
 1906SOL     OW17179   4.527   2.588   2.761 -0.7484  0.9811 -0.3321
 1906SOL    HW117180   4.483   2.539   2.830  0.5691 -2.1800 -1.7387
 1906SOL    HW217181   4.470   2.568   2.687 -1.1468  0.7395  0.0430
 1907SOL     OW17182   0.532   1.063   5.883 -0.2792  0.0084  0.0651
 1907SOL    HW117183   0.490   0.982   5.855  1.1285 -1.0003  0.8732
 1907SOL    HW217184   0.576   1.086   5.801 -0.4538 -0.4352 -0.1547
 1908SOL     OW17185   0.805   3.137  16.764  0.5627  0.4123 -0.0145
 1908SOL    HW117186   0.719   3.171  16.786 -0.1720 -0.4083 -1.6392
 1908SOL    HW217187   0.783   3.046  16.786 -0.6937  0.2169 -2.1355
 1909SOL     OW17188   0.099   1.200   6.018 -0.5492  0.5123 -0.1181
 1909SOL    HW117189   0.107   1.115   5.975 -0.1420  0.0573  0.8665
 1909SOL    HW217190   0.080   1.177   6.109 -0.2515  0.2612 -0.1187
 1910SOL     OW17191   2.963   1.738  13.883  0.3074  0.8138 -0.2710
 1910SOL    HW117192   2.960   1.724  13.977  1.6508  0.7460 -0.2290
 1910SOL    HW217193   3.030   1.676  13.854 -1.2856 -1.4008  0.7949
 1911SOL     OW17194   2.570   3.285   8.167  0.2527 -0.1416 -0.2500
 1911SOL    HW117195   2.591   3.212   8.226 -0.4327  0.2203  0.4418
 1911SOL    HW217196   2.478   3.297   8.189  0.7228  0.7874  1.2048
 1912SOL     OW17197   3.241   0.551   6.101  0.5908 -0.1353  0.1161
 1912SOL    HW117198   3.221   0.474   6.048 -0.5406  1.5625 -1.9041
 1912SOL    HW217199   3.324   0.521   6.139  0.8963  4.0974  2.7238
 1913SOL     OW17200   3.513   4.006   7.874  0.6663 -0.7571 -0.3188
 1913SOL    HW117201   3.575   4.071   7.840  2.1064 -1.6813  0.5240
 1913SOL    HW217202   3.581   3.939   7.883 -1.0503 -2.2967  1.1354
 1914SOL     OW17203   3.505   0.775   9.636  0.0919  0.0284  0.0197
 1914SOL    HW117204   3.531   0.866   9.631  2.0975 -0.5477  0.0594
 1914SOL    HW217205   3.447   0.757   9.562  0.2784  0.8223 -0.3178
 1915SOL     OW17206   0.157   0.097   2.374  0.4455 -0.1292  0.0369
 1915SOL    HW117207   0.122   0.044   2.446 -0.9056 -1.6120 -1.7334
 1915SOL    HW217208   0.201   0.165   2.425  0.5000 -1.4729  1.7745
 1916SOL     OW17209   3.862   4.085   0.395  0.5108 -0.4056 -0.8173
 1916SOL    HW117210   3.863   4.000   0.439  1.1282 -1.2599 -2.5031
 1916SOL    HW217211   3.919   4.059   0.322 -0.2100 -0.1107 -1.4827
 1917SOL     OW17212   0.434   0.494  11.343  0.1840 -0.2596  0.1244
 1917SOL    HW117213   0.467   0.566  11.397  1.5610  0.0279 -1.1178
 1917SOL    HW217214   0.362   0.458  11.395 -0.6380  1.1088 -0.0400
 1918SOL     OW17215   3.920   0.701   7.159  0.4690  0.2168 -0.2303
 1918SOL    HW117216   3.994   0.652   7.197  1.8351  1.3346 -1.4437
 1918SOL    HW217217   3.920   0.765   7.230  1.2351 -0.7705  0.6621
 1919SOL     OW17218   4.207   3.624   3.147 -0.2399 -0.1634  0.1068
 1919SOL    HW117219   4.274   3.690   3.133 -0.6338  0.2033 -0.0664
 1919SOL    HW217220   4.139   3.652   3.085 -0.6415  1.0284  1.0970
 1920SOL     OW17221   0.890   0.867   3.687 -0.2616 -0.0820 -0.9722
 1920SOL    HW117222   0.849   0.792   3.643  1.0516 -0.8617 -0.8510
 1920SOL    HW217223   0.815   0.926   3.694  0.7576  1.2481 -1.3797
 1921SOL     OW17224   1.451   0.320   5.303 -0.1967 -0.1984  0.0178
 1921SOL    HW117225   1.431   0.241   5.353  0.5660  0.7306  1.7943
 1921SOL    HW217226   1.389   0.311   5.230  0.1227  1.1994 -0.4136
 1922SOL     OW17227   1.476   3.676   0.915  0.2250 -0.0144  0.3897
 1922SOL    HW117228   1.563   3.714   0.927  0.2524  0.5884 -1.7552
 1922SOL    HW217229   1.414   3.748   0.927  0.5297  0.2135  0.5981
 1923SOL     OW17230   4.572   3.108   9.040  0.3440 -0.1833  0.3101
 1923SOL    HW117231   4.526   3.192   9.034 -0.6175 -0.5680  2.0761
 1923SOL    HW217232   4.498   3.055   9.071 -0.8117  0.9522 -0.5032
 1924SOL     OW17233   2.708   1.513   9.517  0.1591  0.2457  0.4520
 1924SOL    HW117234   2.760   1.487   9.593 -1.5005 -0.1392  1.4563
 1924SOL    HW217235   2.761   1.487   9.442  0.8147 -2.5074  1.8811
 1925SOL     OW17236   4.571   0.990   4.552 -0.8214 -0.1874 -0.1016
 1925SOL    HW117237   4.635   0.924   4.525 -1.9626 -1.0072 -0.7914
 1925SOL    HW217238   4.504   0.927   4.578 -1.0487 -0.0252 -0.2964
 1926SOL     OW17239   1.400   0.923  12.459 -0.7527 -0.9256  0.1696
 1926SOL    HW117240   1.306   0.905  12.453 -0.8605 -0.6492  1.1126
 1926SOL    HW217241   1.421   0.932  12.366 -1.8116  0.8664  0.1173
 1927SOL     OW17242   2.536   4.465  17.545  0.0102  0.5169  0.2091
 1927SOL    HW117243   2.520   4.447  17.452 -1.2761  0.6999  0.3928
 1927SOL    HW217244   2.517   4.559  17.551 -4.4229 -0.2214 -1.5888
 1928SOL     OW17245   3.669   4.619   5.269 -0.1889 -0.1765  0.4201
 1928SOL    HW117246   3.668   4.556   5.340 -3.5500 -0.4783  0.0962
 1928SOL    HW217247   3.579   4.613   5.237  0.4295 -1.6912 -1.0615
 1929SOL     OW17248   0.997   2.128  12.872  0.2209 -0.7258  0.2496
 1929SOL    HW117249   0.980   2.198  12.809 -1.3067 -0.9729  0.4091
 1929SOL    HW217250   1.022   2.064  12.804 -0.4563 -0.2146 -0.4797
 1930SOL     OW17251   1.737   0.115   6.123  0.3415 -0.4671  0.7285
 1930SOL    HW117252   1.701   0.204   6.121 -0.9605 -1.0265 -0.8151
 1930SOL    HW217253   1.695   0.083   6.044 -0.6532 -0.8617  1.4242
 1931SOL     OW17254   0.544   2.581   2.642 -0.3783  0.0449 -0.1486
 1931SOL    HW117255   0.584   2.650   2.589 -0.0513  0.0366  0.0889
 1931SOL    HW217256   0.604   2.579   2.716 -1.8836  0.1613  1.0688
 1932SOL     OW17257   2.228   2.242   7.846  0.0113  0.2937 -0.2669
 1932SOL    HW117258   2.314   2.235   7.885 -0.0688 -0.2427 -0.1862
 1932SOL    HW217259   2.179   2.273   7.922 -0.6914 -0.6770 -0.3214
 1933SOL     OW17260   0.690   0.925  15.752 -0.0388 -0.0850 -0.1913
 1933SOL    HW117261   0.649   1.005  15.718 -2.3454 -0.8235  0.8696
 1933SOL    HW217262   0.624   0.859  15.732  1.4960 -0.6051 -3.3985
 1934SOL     OW17263   1.319   0.919   4.418 -0.2758  0.0948  0.5467
 1934SOL    HW117264   1.409   0.952   4.424 -0.2648 -0.0457  1.1301
 1934SOL    HW217265   1.298   0.909   4.326 -2.9560 -0.0219  1.1740
 1935SOL     OW17266   2.136   2.301   2.697 -0.2824 -0.5083 -0.4461
 1935SOL    HW117267   2.217   2.275   2.742 -0.3190 -1.2313 -0.7892
 1935SOL    HW217268   2.156   2.260   2.612 -1.0401  1.1224 -1.4031
 1936SOL     OW17269   4.099   2.000   4.724 -0.2375  0.3537 -0.2051
 1936SOL    HW117270   4.131   2.009   4.635  3.6662 -0.8651  1.0759
 1936SOL    HW217271   4.006   2.019   4.715 -1.1465 -3.7612  0.4580
 1937SOL     OW17272   2.804   3.767  13.483  0.2156  0.7607 -0.3198
 1937SOL    HW117273   2.802   3.759  13.579 -0.0260 -1.4019 -0.5012
 1937SOL    HW217274   2.739   3.836  13.468  1.3576  2.1131  0.9207
 1938SOL     OW17275   3.197   3.643   5.264 -0.1685 -0.5257  0.4950
 1938SOL    HW117276   3.213   3.667   5.173  0.4591 -1.2962  0.3982
 1938SOL    HW217277   3.102   3.648   5.265 -0.1486 -0.1680  0.5438
 1939SOL     OW17278   4.172   3.705  12.255 -0.1236 -0.0028  0.4558
 1939SOL    HW117279   4.217   3.754  12.186  1.8962 -1.1846  0.9151
 1939SOL    HW217280   4.088   3.694  12.211  1.0740 -1.1884 -1.5102
 1940SOL     OW17281   3.345   2.914  12.049  0.3083  0.2213  0.1184
 1940SOL    HW117282   3.250   2.917  12.044  0.4003  0.6250 -1.5254
 1940SOL    HW217283   3.363   3.001  12.012 -0.8180  0.7751  0.8653
 1941SOL     OW17284   1.296   0.672   5.740 -0.1972 -0.1662  0.2309
 1941SOL    HW117285   1.276   0.607   5.807 -1.3428 -1.2652 -1.1661
 1941SOL    HW217286   1.291   0.754   5.790  1.8057  1.1169 -1.6663
 1942SOL     OW17287   2.155   1.451   3.662  0.8394  0.0480  0.3492
 1942SOL    HW117288   2.063   1.443   3.636  0.5026  0.8186  1.2960
 1942SOL    HW217289   2.199   1.507   3.598 -0.4555  0.6351 -0.0288
 1943SOL     OW17290   0.942   1.924   7.602 -0.0778 -0.0512  0.1937
 1943SOL    HW117291   0.989   2.002   7.569  0.1793  0.9780  2.9925
 1943SOL    HW217292   0.962   1.933   7.695 -0.6134 -2.0585  0.5056
 1944SOL     OW17293   0.131   2.687   6.848  0.2762  0.1313  0.4776
 1944SOL    HW117294   0.114   2.626   6.776  0.9268  0.4431  0.0610
 1944SOL    HW217295   0.210   2.650   6.888  0.0887 -0.9318 -0.1383
 1945SOL     OW17296   2.668   0.145   3.574  0.1866 -0.1253 -0.3263
 1945SOL    HW117297   2.645   0.156   3.482  1.1627  1.1875 -0.4057
 1945SOL    HW217298   2.587   0.105   3.608  0.0552 -1.2526 -1.9697
 1946SOL     OW17299   0.051   1.824  15.174  0.0714 -0.2535  0.5043
 1946SOL    HW117300   0.013   1.885  15.111 -0.0840 -2.3868 -1.4679
 1946SOL    HW217301   0.140   1.810  15.139 -0.1706  0.3428 -0.3436
 1947SOL     OW17302   3.721   3.229   6.899  0.5425 -0.1878  0.6083
 1947SOL    HW117303   3.763   3.179   6.968  1.0751 -0.0528  0.3817
 1947SOL    HW217304   3.632   3.198   6.914  0.2983  0.5257  0.6578
 1948SOL     OW17305   3.792   1.392  12.783 -0.0376 -0.1437 -0.4231
 1948SOL    HW117306   3.762   1.306  12.753  0.1711  0.0274 -1.1350
 1948SOL    HW217307   3.816   1.373  12.873  1.3603 -0.8204 -0.9411
 1949SOL     OW17308   0.024   2.434   3.227  0.2127 -0.1376  0.1008
 1949SOL    HW117309   0.098   2.393   3.181  1.1814  0.0630  1.4822
 1949SOL    HW217310   4.710   2.357   3.270 -0.0808 -0.1102 -0.0956
 1950SOL     OW17311   4.490   2.091   7.866 -0.0887 -1.1450  0.1878
 1950SOL    HW117312   4.513   2.183   7.850 -0.2568 -1.2800 -0.8543
 1950SOL    HW217313   4.569   2.048   7.834  1.6629  1.4146  1.0323
 1951SOL     OW17314   0.023   4.557  14.532 -0.0581 -0.4893  0.0092
 1951SOL    HW117315   0.100   4.557  14.589 -0.0436  0.7088 -0.0116
 1951SOL    HW217316   0.052   4.504  14.458 -1.5917 -1.3283  0.0147
 1952SOL     OW17317   4.347   4.684   5.424  0.1049  0.7726 -0.6341
 1952SOL    HW117318   4.410   4.622   5.387  1.3366  2.5405 -1.4967
 1952SOL    HW217319   4.264   4.637   5.433  0.6655 -0.3210 -1.1548
 1953SOL     OW17320   1.844   2.397  13.728  0.4273  0.2409 -0.2526
 1953SOL    HW117321   1.774   2.461  13.738  0.5826  0.7703 -2.4425
 1953SOL    HW217322   1.898   2.429  13.656 -0.4763  2.1667 -0.0773
 1954SOL     OW17323   4.345   1.642   8.451  0.6220 -0.6416 -0.2247
 1954SOL    HW117324   4.317   1.646   8.360 -1.9389 -1.9563  0.4896
 1954SOL    HW217325   4.413   1.708   8.466  1.7423 -1.7412 -0.4801
 1955SOL     OW17326   3.446   4.121   5.918  0.1131 -0.2129 -0.0593
 1955SOL    HW117327   3.429   4.027   5.919 -0.7152 -0.0676 -0.9445
 1955SOL    HW217328   3.356   4.152   5.933  0.0362  0.8924 -2.7535
 1956SOL     OW17329   1.324   4.430  13.365 -0.0059 -0.2605  0.1260
 1956SOL    HW117330   1.382   4.465  13.297  1.1907 -0.4012  1.0605
 1956SOL    HW217331   1.316   4.344  13.323 -1.8394 -0.4183  0.8294
 1957SOL     OW17332   0.015   3.928   9.881 -0.9239  0.4123  0.0532
 1957SOL    HW117333   4.696   3.966   9.803 -0.7545 -0.3969 -0.4288
 1957SOL    HW217334   0.076   3.871   9.835 -0.9918 -0.3339  0.8980
 1958SOL     OW17335   3.452   1.342   4.305 -0.2874 -0.0326 -0.2616
 1958SOL    HW117336   3.546   1.325   4.313 -0.8775 -1.5026  3.8706
 1958SOL    HW217337   3.447   1.421   4.251 -1.5145 -0.4428 -0.7403
 1959SOL     OW17338   1.095   1.965   6.448  0.2338 -0.2050  0.3104
 1959SOL    HW117339   1.133   1.993   6.365  0.4694  0.1018  0.5234
 1959SOL    HW217340   1.129   1.877   6.464 -0.9667 -0.3380  2.1711
 1960SOL     OW17341   3.564   3.780   0.816  0.0551  0.3375 -0.0924
 1960SOL    HW117342   3.618   3.810   0.743 -0.1260  2.2232  0.5532
 1960SOL    HW217343   3.594   3.691   0.834 -1.8319 -0.6407 -1.8094
 1961SOL     OW17344   2.603   1.714   3.602 -0.6532  0.1759 -0.1277
 1961SOL    HW117345   2.677   1.683   3.549 -1.4640  0.6708 -1.5391
 1961SOL    HW217346   2.599   1.808   3.583  1.7240  0.2865 -0.0798
 1962SOL     OW17347   0.266   0.518   1.956  0.0070 -0.1190 -0.0476
 1962SOL    HW117348   0.261   0.529   1.861  2.6492  1.6933  0.0386
 1962SOL    HW217349   0.264   0.608   1.987 -3.1496 -0.2165  0.0492
 1963SOL     OW17350   1.513   4.075   2.512 -0.2013  0.1601 -0.7575
 1963SOL    HW117351   1.433   4.107   2.556  0.2336 -1.1580  1.0089
 1963SOL    HW217352   1.495   4.108   2.424 -2.2649 -0.9899 -0.7821
 1964SOL     OW17353   1.329   1.335   8.953  0.3231  0.3261  0.4566
 1964SOL    HW117354   1.423   1.349   8.967  0.4067 -1.1432  1.3195
 1964SOL    HW217355   1.328   1.251   8.998 -0.1033  0.3381  0.4632
 1965SOL     OW17356   2.021   1.301  14.348 -0.0248  0.0375 -0.4426
 1965SOL    HW117357   2.021   1.230  14.284  1.1951 -1.3427  1.0683
 1965SOL    HW217358   2.117   1.309  14.354 -0.1128 -0.6342  1.7191
 1966SOL     OW17359   1.990   3.623   7.879 -0.1120 -0.3402 -0.7394
 1966SOL    HW117360   2.034   3.585   7.803  2.1924 -2.6758  1.7604
 1966SOL    HW217361   1.921   3.671   7.833 -1.0196 -1.0884 -0.1546
 1967SOL     OW17362   4.647   2.135  10.771 -0.1202  0.3701  0.0496
 1967SOL    HW117363   4.564   2.114  10.729 -0.0221 -0.8661  0.5011
 1967SOL    HW217364   4.703   2.119  10.695 -0.4002 -0.3263 -0.0028
 1968SOL     OW17365   2.219   3.726   7.325  0.4965 -0.6632 -0.2419
 1968SOL    HW117366   2.254   3.761   7.407 -0.9068 -1.2272  0.5955
 1968SOL    HW217367   2.266   3.644   7.313 -2.8434 -2.5366 -0.4563
 1969SOL     OW17368   2.733   0.820  11.447 -0.0068  0.2603 -0.2075
 1969SOL    HW117369   2.652   0.863  11.475 -0.7039 -1.9835  1.1631
 1969SOL    HW217370   2.742   0.863  11.362 -1.0593  2.2274  0.6655
 1970SOL     OW17371   3.288   1.570  10.780 -0.2003  0.2332 -0.5327
 1970SOL    HW117372   3.215   1.593  10.723 -2.7916 -3.2322  1.4213
 1970SOL    HW217373   3.349   1.535  10.714  1.3042  1.8670  0.0131
 1971SOL     OW17374   2.799   1.387   3.443  0.0282 -0.1002 -0.2258
 1971SOL    HW117375   2.747   1.406   3.521  1.9466  3.4460  0.1563
 1971SOL    HW217376   2.733   1.356   3.381  0.2926  0.3951 -0.7443
 1972SOL     OW17377   0.373   3.245   2.797  0.0082  0.3844 -0.2987
 1972SOL    HW117378   0.298   3.241   2.737 -0.3320 -0.6401  0.2053
 1972SOL    HW217379   0.348   3.175   2.857  3.5572 -0.4890  0.1563
 1973SOL     OW17380   4.024   2.700   2.176 -0.4640  0.1310  0.1853
 1973SOL    HW117381   4.111   2.726   2.206 -0.8571  1.5961  0.0961
 1973SOL    HW217382   4.043   2.702   2.083  2.3157  1.7849  0.8068
 1974SOL     OW17383   2.701   3.140   2.494  0.0426 -0.0872 -0.2852
 1974SOL    HW117384   2.625   3.170   2.445 -0.9777 -0.7573  0.9077
 1974SOL    HW217385   2.667   3.065   2.542  0.8551 -0.5759 -0.4670
 1975SOL     OW17386   0.892   1.798   5.359  0.2010 -0.1547  0.5444
 1975SOL    HW117387   0.941   1.725   5.319  0.7581  0.1453  0.6742
 1975SOL    HW217388   0.965   1.859   5.372 -0.6067  0.5511  1.6985
 1976SOL     OW17389   0.595   0.463  14.558 -0.1430 -0.0485 -0.1785
 1976SOL    HW117390   0.652   0.393  14.590  0.3818 -1.0985 -3.3687
 1976SOL    HW217391   0.666   0.523  14.535 -0.0397 -0.3338 -0.6224
 1977SOL     OW17392   4.013   0.379   1.150  0.1672 -0.0942 -0.0993
 1977SOL    HW117393   4.093   0.396   1.200 -0.1245  0.9260  0.0294
 1977SOL    HW217394   3.989   0.468   1.123 -2.2130 -0.3154  1.3050
 1978SOL     OW17395   1.906   1.568   4.577 -0.2660 -0.4670 -0.4151
 1978SOL    HW117396   1.975   1.531   4.522  0.5691  0.5308 -0.0561
 1978SOL    HW217397   1.944   1.549   4.663 -0.3795  1.0167 -0.0311
 1979SOL     OW17398   0.517   0.730  10.861 -0.1886 -0.2401 -0.0495
 1979SOL    HW117399   0.551   0.646  10.890  0.3574 -0.3202 -0.9191
 1979SOL    HW217400   0.596   0.785  10.861 -0.4196  0.1025  1.2817
 1980SOL     OW17401   2.096   3.815  14.798 -0.0192  0.5444 -0.0373
 1980SOL    HW117402   2.030   3.856  14.742 -1.1667 -1.5122 -0.1892
 1980SOL    HW217403   2.161   3.810  14.729  0.1284  0.2944  0.1208
 1981SOL     OW17404   1.495   1.468   3.038 -0.2945  0.4094  0.1157
 1981SOL    HW117405   1.582   1.486   3.073  0.0731  1.6387 -1.4376
 1981SOL    HW217406   1.498   1.508   2.951  0.4853 -2.3937 -1.1454
 1982SOL     OW17407   1.257   3.004   5.871  0.5021  0.6843  0.0453
 1982SOL    HW117408   1.347   3.021   5.898 -0.5441  3.0597  2.0792
 1982SOL    HW217409   1.226   2.964   5.953 -1.0470  0.7603 -0.5014
 1983SOL     OW17410   0.202   0.424  11.499  0.4037 -0.2099 -0.5065
 1983SOL    HW117411   0.174   0.378  11.579  0.3232  1.0645  0.1944
 1983SOL    HW217412   0.189   0.349  11.441  2.4226 -1.6850  0.9174
 1984SOL     OW17413   2.223   0.520  13.228  0.2238  0.1238  0.1761
 1984SOL    HW117414   2.190   0.489  13.144 -0.6764  2.1116 -0.2069
 1984SOL    HW217415   2.159   0.586  13.255 -2.2396 -2.5934  0.9261
 1985SOL     OW17416   4.693   2.459  15.743  0.2726  0.0681  0.1353
 1985SOL    HW117417   4.611   2.412  15.756 -0.5369  0.6518 -3.0176
 1985SOL    HW217418   0.025   2.411  15.806 -1.0189 -2.0579 -0.3657
 1986SOL     OW17419   1.860   1.833   9.272 -0.1407  0.8344  0.6734
 1986SOL    HW117420   1.884   1.922   9.299 -1.1322  0.9373  1.2042
 1986SOL    HW217421   1.878   1.779   9.349 -0.2965 -0.5180 -0.2373
 1987SOL     OW17422   2.670   4.412   6.754 -0.0849 -0.0358 -0.0185
 1987SOL    HW117423   2.630   4.423   6.668 -0.3750 -0.9680 -0.0078
 1987SOL    HW217424   2.592   4.380   6.799  1.2829 -0.8305  1.7989
 1988SOL     OW17425   4.516   0.424   7.828  0.1382 -0.0692  0.0819
 1988SOL    HW117426   4.596   0.386   7.792  0.2323 -0.2037  0.4338
 1988SOL    HW217427   4.483   0.347   7.875 -1.9593  0.0118 -1.2801
 1989SOL     OW17428   2.931   0.141   6.470  0.4638 -0.2952  0.2096
 1989SOL    HW117429   2.843   0.103   6.477  0.2738 -0.0096 -0.6338
 1989SOL    HW217430   2.948   0.192   6.549  0.3792  0.4805 -0.2805
 1990SOL     OW17431   1.400   0.080   3.722  0.5314 -0.1989 -0.3131
 1990SOL    HW117432   1.471   0.135   3.753 -1.5356  1.5087  1.3880
 1990SOL    HW217433   1.394   0.018   3.794  0.7564  1.8763  1.4769
 1991SOL     OW17434   0.841   0.667   3.322 -0.1950 -0.0547 -0.2400
 1991SOL    HW117435   0.822   0.720   3.244  1.9177  1.7971  0.5155
 1991SOL    HW217436   0.778   0.699   3.387 -1.5314 -1.9036 -0.6175
 1992SOL     OW17437   2.004   4.240   1.816 -0.0744  0.4062  0.3860
 1992SOL    HW117438   1.994   4.327   1.854 -0.1919  1.0830 -1.2041
 1992SOL    HW217439   2.072   4.267   1.755 -0.4722 -1.3928 -0.8470
 1993SOL     OW17440   2.823   1.075   6.282 -0.5010  0.0888 -0.5887
 1993SOL    HW117441   2.862   0.994   6.249  2.2265  1.1987 -0.0613
 1993SOL    HW217442   2.840   1.134   6.208 -1.3493 -0.0866 -0.9361
 1994SOL     OW17443   3.270   0.900   5.015  0.3767  0.5267 -0.2502
 1994SOL    HW117444   3.313   0.881   5.099  1.3057 -0.3836 -0.9364
 1994SOL    HW217445   3.188   0.851   5.020  0.3990  0.4390 -0.7828
 1995SOL     OW17446   3.637   4.353  11.427 -0.4432  0.2079 -0.3374
 1995SOL    HW117447   3.729   4.333  11.446 -0.8367 -1.8823 -0.6033
 1995SOL    HW217448   3.639   4.343  11.332 -3.6071 -1.2852 -0.2420
 1996SOL     OW17449   3.644   1.317   6.042 -0.1453 -0.7097 -0.3284
 1996SOL    HW117450   3.722   1.262   6.039 -0.4270 -1.2363  2.1843
 1996SOL    HW217451   3.580   1.263   6.087 -1.2775  0.7828 -0.1744
 1997SOL     OW17452   1.759   2.970   1.070 -0.6184  0.3687 -0.0732
 1997SOL    HW117453   1.842   2.937   1.036 -0.0100  1.6902  0.1565
 1997SOL    HW217454   1.718   2.885   1.088 -1.5611  0.9401  0.4985
 1998SOL     OW17455   0.085   0.786  16.868  0.0920 -0.4274 -0.1790
 1998SOL    HW117456   0.111   0.769  16.777  1.8538  1.7762 -0.0800
 1998SOL    HW217457   0.005   0.836  16.848  0.6513  0.9441  1.0601
 1999SOL     OW17458   1.386   1.504  17.442  0.1664  0.0854 -0.2311
 1999SOL    HW117459   1.422   1.415  17.437  0.9557  0.2895  2.1466
 1999SOL    HW217460   1.470   1.546  17.457  0.5372 -0.4416 -0.7846
 2000SOL     OW17461   1.057   1.413   6.951 -0.3152  0.0888  0.1429
 2000SOL    HW117462   0.984   1.358   6.979 -0.8781  1.2961  1.0768
 2000SOL    HW217463   1.020   1.495   6.986 -1.5583  0.0188 -1.0286
 2001SOL     OW17464   1.943   0.669   6.731  0.6890 -0.0763 -0.4717
 2001SOL    HW117465   2.036   0.648   6.738  0.7645 -0.3654 -2.1999
 2001SOL    HW217466   1.920   0.621   6.651  0.7443 -2.5215  0.9852
 2002SOL     OW17467   0.071   3.226  11.780  0.2058 -0.4496  0.0833
 2002SOL    HW117468   0.070   3.212  11.685 -0.6617 -2.0018  0.3115
 2002SOL    HW217469   0.166   3.226  11.791  0.2234  0.8222 -0.0605
 2003SOL     OW17470   3.450   2.585   4.534 -0.1980  0.6925 -0.2023
 2003SOL    HW117471   3.545   2.571   4.534 -0.3032  0.0723  1.6889
 2003SOL    HW217472   3.435   2.635   4.614 -1.3798  0.9968 -0.6096
 2004SOL     OW17473   2.414   4.172   5.165 -0.0132 -0.6838  0.1069
 2004SOL    HW117474   2.389   4.234   5.097  1.7941  0.1866  0.2349
 2004SOL    HW217475   2.361   4.094   5.150 -0.0891 -0.2695 -1.7406
 2005SOL     OW17476   4.367   2.451   2.589 -0.2750 -0.6331 -0.9550
 2005SOL    HW117477   4.341   2.526   2.535  2.4578  1.3817  0.4536
 2005SOL    HW217478   4.299   2.388   2.567  1.4526 -2.6562 -0.5469
 2006SOL     OW17479   0.164   0.195  11.363  0.8857 -0.0608 -0.3915
 2006SOL    HW117480   0.242   0.143  11.383  0.2520 -0.0821  2.0328
 2006SOL    HW217481   0.101   0.160  11.425  0.6670 -0.1866 -0.6869
 2007SOL     OW17482   3.182   4.577   5.393  0.2542  0.4078  0.2045
 2007SOL    HW117483   3.091   4.595   5.366  0.2544 -1.0111 -0.7452
 2007SOL    HW217484   3.207   4.654   5.444 -1.7852  1.1173  0.1564
 2008SOL     OW17485   2.959   4.285   8.748  0.3038  0.1917  0.1047
 2008SOL    HW117486   2.865   4.263   8.745  0.1619  0.7009  0.7031
 2008SOL    HW217487   2.975   4.216   8.683 -2.1390  0.9052 -1.2677
 2009SOL     OW17488   1.749   3.562   3.589 -0.0464 -0.2173 -0.1808
 2009SOL    HW117489   1.783   3.651   3.582 -1.3071  0.1790 -1.3364
 2009SOL    HW217490   1.759   3.538   3.681  0.6683  1.0310  0.0586
 2010SOL     OW17491   0.877   4.109   5.934  0.1435 -0.1648  0.2579
 2010SOL    HW117492   0.904   4.129   5.844 -1.6975 -1.1640 -0.4948
 2010SOL    HW217493   0.949   4.060   5.973 -0.4121 -0.9226  0.3116
 2011SOL     OW17494   1.128   4.675   8.766 -0.2690  0.3216 -0.1579
 2011SOL    HW117495   1.215   4.661   8.804 -0.1911 -2.5204 -1.3901
 2011SOL    HW217496   1.071   4.671   8.843  0.8347  0.7386  0.6862
 2012SOL     OW17497   3.850   0.043  12.766 -0.2576  0.3462 -0.0807
 2012SOL    HW117498   3.850   4.677  12.728  0.6190 -0.0267  0.7853
 2012SOL    HW217499   3.939   0.060  12.798 -0.5796  0.2258  0.8712
 2013SOL     OW17500   1.339   1.541   1.110 -0.1498 -0.0593 -0.1881
 2013SOL    HW117501   1.316   1.526   1.202  1.1484 -2.9599 -0.3444
 2013SOL    HW217502   1.261   1.587   1.079 -0.7689 -0.8035  0.2866
 2014SOL     OW17503   0.228   2.441  16.152 -0.3672  0.3264  0.1132
 2014SOL    HW117504   0.184   2.435  16.236  0.4044 -1.4537  0.3684
 2014SOL    HW217505   0.268   2.528  16.159 -0.6658  0.2545  2.5040
 2015SOL     OW17506   3.086   0.766  12.362  0.0193  0.4765  0.1015
 2015SOL    HW117507   3.064   0.705  12.433 -0.2581 -0.8384 -1.1041
 2015SOL    HW217508   2.999   0.784  12.327 -0.7260  2.5009  2.9898
 2016SOL     OW17509   3.866   1.704   6.752  0.3146  0.1166  0.3577
 2016SOL    HW117510   3.956   1.735   6.753  0.3421  0.1242 -1.8469
 2016SOL    HW217511   3.820   1.786   6.732 -0.1541  0.5620  3.3122
 2017SOL     OW17512   0.100   4.397   6.353  0.1238 -0.4835  0.0334
 2017SOL    HW117513   0.064   4.377   6.439  1.5500 -1.4829  0.3835
 2017SOL    HW217514   0.188   4.362   6.358  0.4512  0.4701  0.9798
 2018SOL     OW17515   1.080   1.131  17.415 -0.0031 -0.1958  0.6041
 2018SOL    HW117516   1.096   1.218  17.453  1.5074  0.6737 -2.0492
 2018SOL    HW217517   1.035   1.079  17.482  2.4568 -0.8050  1.8045
 2019SOL     OW17518   0.364   1.509   8.021  0.1520  0.7237  0.1143
 2019SOL    HW117519   0.369   1.466   8.106 -0.2611 -0.2680 -0.3685
 2019SOL    HW217520   0.332   1.591   8.059 -0.4302 -0.6191  2.4689
 2020SOL     OW17521   3.034   2.749  15.791  0.1933  0.6857  0.1772
 2020SOL    HW117522   3.065   2.750  15.881  0.4502 -1.7785  0.0935
 2020SOL    HW217523   3.030   2.840  15.760 -1.4134  0.2526 -0.8915
 2021SOL     OW17524   0.821   2.339   8.511  0.5055  0.3501  0.2652
 2021SOL    HW117525   0.795   2.262   8.561 -1.6150  0.3654 -0.7809
 2021SOL    HW217526   0.880   2.313   8.440  0.5112  0.2871  0.2930
 2022SOL     OW17527   0.137   3.791   1.277 -0.0092 -0.3587  0.3505
 2022SOL    HW117528   0.132   3.744   1.194 -1.8040  0.0805  0.2132
 2022SOL    HW217529   0.073   3.861   1.264  0.3793 -0.3067 -1.2806
 2023SOL     OW17530   3.817   0.934   6.949 -0.8544 -0.2798  0.0205
 2023SOL    HW117531   3.893   0.877   6.960 -0.8993  0.4058  3.7783
 2023SOL    HW217532   3.848   1.025   6.952 -0.9937 -0.3709  3.3829
 2024SOL     OW17533   1.941   0.069  16.041 -0.0191 -0.0381 -0.0463
 2024SOL    HW117534   1.944   0.042  15.949  1.0357  0.6090 -0.2007
 2024SOL    HW217535   1.877   0.139  16.028 -0.0804  0.1763  1.4568
 2025SOL     OW17536   2.400   2.230  16.899  1.2655  0.2721  0.0876
 2025SOL    HW117537   2.343   2.203  16.827  0.7754  1.1349  0.1550
 2025SOL    HW217538   2.452   2.299  16.856  1.2278  0.7184  0.7664
 2026SOL     OW17539   1.161   1.333   2.261 -0.0490  0.0985 -0.1799
 2026SOL    HW117540   1.209   1.386   2.197  0.5471  2.8297  2.5210
 2026SOL    HW217541   1.200   1.246   2.253  3.4417  1.4386  2.5797
 2027SOL     OW17542   4.575   1.204  16.471  0.0196  0.2374  0.1989
 2027SOL    HW117543   4.566   1.137  16.403  0.2891 -0.0779  0.4668
 2027SOL    HW217544   4.537   1.279  16.427 -0.4616 -0.2946 -0.2855
 2028SOL     OW17545   3.346   1.598   0.063  0.0649  1.0868  0.1364
 2028SOL    HW117546   3.389   1.615   0.147  2.5755 -0.6093 -0.8219
 2028SOL    HW217547   3.369   1.680   0.019  0.8484  0.5083 -0.5176
 2029SOL     OW17548   4.706   1.328   9.664  0.0976 -0.3623  0.3543
 2029SOL    HW117549   4.684   1.274   9.740 -3.0155 -0.2473 -0.4756
 2029SOL    HW217550   4.625   1.374   9.645  0.4044 -0.8754 -2.2946
 2030SOL     OW17551   3.388   1.432  15.659 -0.3843  0.1918 -0.2015
 2030SOL    HW117552   3.388   1.381  15.577  1.0545  0.1258 -0.1673
 2030SOL    HW217553   3.350   1.513  15.624  1.0172  0.7268 -0.5105
 2031SOL     OW17554   3.284   3.182   0.192 -0.0606  0.6145  0.5299
 2031SOL    HW117555   3.264   3.256   0.134  0.8755 -0.1075 -0.7241
 2031SOL    HW217556   3.245   3.206   0.276 -0.4549 -2.1313  1.1409
 2032SOL     OW17557   1.799   3.240  13.448 -0.1726 -0.7956  0.0582
 2032SOL    HW117558   1.836   3.304  13.386 -2.6864  0.2808 -0.3316
 2032SOL    HW217559   1.879   3.207  13.488 -1.9237 -1.6593  2.8587
 2033SOL     OW17560   3.182   2.236  15.088 -0.3639 -0.0892  0.2651
 2033SOL    HW117561   3.171   2.300  15.017 -0.1468 -1.2699 -0.8159
 2033SOL    HW217562   3.216   2.298  15.153 -0.5857 -0.0263  0.3213
 2034SOL     OW17563   0.302   3.365   1.871  0.3059  0.0283 -0.3234
 2034SOL    HW117564   0.252   3.289   1.841 -0.2913 -0.3365  1.5604
 2034SOL    HW217565   0.387   3.331   1.843 -0.1816 -0.6179 -1.0137
 2035SOL     OW17566   2.351   3.500  15.602  0.5861  0.2005 -0.2757
 2035SOL    HW117567   2.287   3.557  15.561  0.4527  0.3367  0.1225
 2035SOL    HW217568   2.429   3.539  15.562  0.6439 -0.6962 -1.0495
 2036SOL     OW17569   0.828   1.225   1.144 -0.1924  0.4695 -0.2098
 2036SOL    HW117570   0.815   1.273   1.226 -0.0169  0.5665 -0.2403
 2036SOL    HW217571   0.912   1.255   1.110  1.3884 -2.7101  0.8647
 2037SOL     OW17572   3.705   3.805   0.561  0.3221  0.3615 -0.1440
 2037SOL    HW117573   3.657   3.864   0.503 -1.4343 -1.9068 -0.9960
 2037SOL    HW217574   3.723   3.728   0.507  0.5320  1.8089 -2.1329
 2038SOL     OW17575   1.987   1.889   5.400 -0.6367 -0.2051  0.1366
 2038SOL    HW117576   1.995   1.978   5.434  0.2650 -0.2308  0.0043
 2038SOL    HW217577   2.080   1.875   5.380 -0.5140 -1.8585  1.8318
 2039SOL     OW17578   3.252   4.517  12.725 -0.2731  0.7928  0.5973
 2039SOL    HW117579   3.233   4.610  12.738 -3.0655  0.4754 -1.4658
 2039SOL    HW217580   3.346   4.513  12.706 -0.3006 -0.7029  0.7687
 2040SOL     OW17581   2.839   0.746  12.248  0.2804  0.3160 -0.4666
 2040SOL    HW117582   2.867   0.793  12.170  0.8081 -0.7889 -0.9387
 2040SOL    HW217583   2.744   0.754  12.255  0.4955  0.2742  2.8710
 2041SOL     OW17584   2.411   3.532   5.077  0.4106 -0.5306  0.4956
 2041SOL    HW117585   2.421   3.488   4.993 -1.7870  1.3747 -0.7703
 2041SOL    HW217586   2.501   3.567   5.081 -0.6284  2.1359  0.3612
 2042SOL     OW17587   4.034   3.751   2.997  0.5074 -0.6444  0.2430
 2042SOL    HW117588   3.973   3.782   3.063  0.6493  0.6216 -0.2144
 2042SOL    HW217589   3.970   3.738   2.927 -0.2295  0.1560  0.7870
 2043SOL     OW17590   3.893   4.170   8.057  0.1451 -0.2401 -0.0997
 2043SOL    HW117591   3.802   4.140   8.054 -0.3921  1.3108  1.1232
 2043SOL    HW217592   3.949   4.098   8.028  3.5371  1.4780  2.0833
 2044SOL     OW17593   1.221   4.040   7.940 -0.3872  0.2921 -0.3949
 2044SOL    HW117594   1.311   4.018   7.964 -1.1653 -1.6187  0.7354
 2044SOL    HW217595   1.216   4.132   7.967  0.9832  0.3661 -0.3817
 2045SOL     OW17596   0.828   0.095  10.983  0.4189 -0.1462  0.0584
 2045SOL    HW117597   0.817   0.122  10.892  3.2458 -0.1417 -0.2728
 2045SOL    HW217598   0.912   0.134  11.007 -0.8419  2.0674  0.8688
 2046SOL     OW17599   0.084   1.577   9.403 -0.2894 -0.3515  0.3654
 2046SOL    HW117600   0.150   1.517   9.368  0.4170  1.6940 -1.8328
 2046SOL    HW217601   0.115   1.578   9.493 -2.8184  0.5988  1.1946
 2047SOL     OW17602   0.768   0.165  17.395 -0.1709  0.0657 -0.2452
 2047SOL    HW117603   0.772   0.070  17.385 -4.6011  0.0477 -1.9785
 2047SOL    HW217604   0.840   0.189  17.337  0.9682 -2.7193  0.0219
 2048SOL     OW17605   1.548   4.684   4.762 -0.6277 -0.3529  0.4877
 2048SOL    HW117606   1.585   0.018   4.694 -0.7618  0.1469  0.8244
 2048SOL    HW217607   1.593   4.602   4.743 -0.2660  0.4026 -1.9210
 2049SOL     OW17608   4.109   1.132   7.167  0.1000  0.3974 -0.4430
 2049SOL    HW117609   4.173   1.159   7.233  0.2750  0.0730 -0.4813
 2049SOL    HW217610   4.104   1.040   7.191 -2.0019 -0.0499 -2.6298
 2050SOL     OW17611   0.155   3.454   6.510 -0.1140  0.5484 -0.5567
 2050SOL    HW117612   0.247   3.429   6.512 -0.6545 -1.4079 -0.2043
 2050SOL    HW217613   0.132   3.435   6.601  0.0895 -0.7146 -0.7680
 2051SOL     OW17614   0.340   0.951  15.582  0.1871  0.3869 -0.7176
 2051SOL    HW117615   0.292   1.034  15.579  1.3697  1.1886  2.2776
 2051SOL    HW217616   0.418   0.991  15.544 -0.1453  0.1996 -1.6164
 2052SOL     OW17617   2.121   2.390   8.069  0.1255 -0.6739 -0.0682
 2052SOL    HW117618   2.115   2.483   8.047  0.4206 -0.8937 -1.0521
 2052SOL    HW217619   2.029   2.367   8.062 -0.3850  0.4444  2.8747
 2053SOL     OW17620   0.124   0.446   5.099 -0.8558  0.4582  0.0334
 2053SOL    HW117621   0.046   0.394   5.083 -0.2765  0.1275 -1.7912
 2053SOL    HW217622   0.093   0.522   5.049 -1.7037 -1.6862 -2.7230
 2054SOL     OW17623   2.873   3.152   0.176  0.2822  0.3481 -0.4079
 2054SOL    HW117624   2.799   3.187   0.226 -0.4242  2.1665 -2.7439
 2054SOL    HW217625   2.938   3.158   0.246 -1.4764  2.2593  1.0769
 2055SOL     OW17626   1.039   0.288   5.756 -0.4057 -0.2323  0.1577
 2055SOL    HW117627   1.080   0.211   5.717 -1.3627 -1.2170  1.0839
 2055SOL    HW217628   1.068   0.363   5.703  1.3034  0.3652  1.9283
 2056SOL     OW17629   4.258   0.464  12.295  0.1212  0.7218  0.1659
 2056SOL    HW117630   4.335   0.520  12.308  0.8615  0.2323 -1.9912
 2056SOL    HW217631   4.261   0.424  12.381 -0.4174 -1.7457 -0.9713
 2057SOL     OW17632   4.687   2.320   8.000  0.1942 -0.2809 -0.2008
 2057SOL    HW117633   4.701   2.324   7.905 -3.1373 -0.1655 -0.6969
 2057SOL    HW217634   0.050   2.331   8.042  0.7525 -0.6501 -1.2308
 2058SOL     OW17635   0.394   4.170   5.881  0.4650  0.0857  0.3945
 2058SOL    HW117636   0.475   4.125   5.855  0.3432  0.2920 -0.3407
 2058SOL    HW217637   0.325   4.114   5.848  0.0062  0.4918  0.6614
 2059SOL     OW17638   1.963   3.285   5.975 -0.0925 -0.1021 -0.0111
 2059SOL    HW117639   1.950   3.222   6.046  1.8435 -0.8271 -0.2854
 2059SOL    HW217640   2.029   3.347   6.006 -0.0832 -0.1134 -0.0082
 2060SOL     OW17641   3.189   1.768   9.179 -0.5686 -0.6313 -0.1851
 2060SOL    HW117642   3.197   1.794   9.087  0.2784 -1.3633 -0.3233
 2060SOL    HW217643   3.271   1.793   9.221 -0.8113  0.9832 -0.6793
 2061SOL     OW17644   2.075   4.424   3.716 -0.3870  0.3071  0.3923
 2061SOL    HW117645   2.044   4.433   3.806 -1.0319 -1.4686  0.3489
 2061SOL    HW217646   2.171   4.415   3.719 -0.5519 -1.6117  0.1803
 2062SOL     OW17647   0.616   3.037   1.503 -0.2131 -0.2382  0.5787
 2062SOL    HW117648   0.649   3.093   1.433  0.0942 -1.5403 -0.3070
 2062SOL    HW217649   0.622   3.082   1.587  2.9821  0.0084  0.1971
 2063SOL     OW17650   3.890   0.359  10.153  0.9768  0.1104 -0.0427
 2063SOL    HW117651   3.909   0.445  10.114  0.0480 -0.2250 -1.2467
 2063SOL    HW217652   3.932   0.371  10.238 -0.7686  2.0135  0.5608
 2064SOL     OW17653   2.369   0.435   7.717  0.1757 -0.6599  0.4637
 2064SOL    HW117654   2.315   0.362   7.685 -0.2972 -0.3101  0.4506
 2064SOL    HW217655   2.442   0.415   7.659 -0.3422 -0.9954 -0.0840
 2065SOL     OW17656   0.217   0.294   1.761 -0.3287  0.4342 -0.0643
 2065SOL    HW117657   0.140   0.350   1.765  0.4293  1.4696 -0.0220
 2065SOL    HW217658   0.205   0.258   1.674 -1.3761 -0.7646  0.5815
 2066SOL     OW17659   0.072   1.961  11.881 -0.3601 -0.6818 -0.0817
 2066SOL    HW117660   0.070   2.051  11.849 -0.9099  0.2000  2.4817
 2066SOL    HW217661   4.720   1.970  11.941  0.9968  2.1324  1.1281
 2067SOL     OW17662   2.367   0.070   6.409  0.0006 -0.0446  0.0149
 2067SOL    HW117663   2.359   0.081   6.504  0.0830  0.4658 -0.0372
 2067SOL    HW217664   2.403   0.156   6.389  1.7264 -0.4424  1.4735
 2068SOL     OW17665   1.648   0.939  17.654  0.5138  0.0017  0.1516
 2068SOL    HW117666   1.726   0.982  17.619  0.6976  2.0840  3.0632
 2068SOL    HW217667   1.578   0.981  17.603  2.0501  0.8562 -1.2639
 2069SOL     OW17668   2.989   3.817   4.671 -1.0074 -0.0714  0.0470
 2069SOL    HW117669   2.986   3.896   4.617  0.7693 -0.1545 -0.1517
 2069SOL    HW217670   3.058   3.846   4.729  0.3991 -0.2196 -1.5569
 2070SOL     OW17671   4.368   3.032  11.984  0.0001 -0.2879  0.5417
 2070SOL    HW117672   4.362   2.969  12.056  0.2831  0.4015  1.1616
 2070SOL    HW217673   4.451   3.008  11.942  0.8466 -0.5735  2.3925
 2071SOL     OW17674   0.994   4.105   6.542 -0.6231 -0.1240 -0.0308
 2071SOL    HW117675   1.081   4.075   6.515 -0.6942  1.5282 -2.0605
 2071SOL    HW217676   1.019   4.196   6.554  0.7435 -0.5818  0.6050
 2072SOL     OW17677   3.562   3.045   7.589  0.5500  0.2905  0.8247
 2072SOL    HW117678   3.601   2.966   7.552  1.4634  1.6725 -1.2012
 2072SOL    HW217679   3.643   3.076   7.630  0.3541  1.1657  0.5422
 2073SOL     OW17680   0.366   1.119  16.765  0.2794  0.2945  0.4539
 2073SOL    HW117681   0.367   1.139  16.672  0.9028 -1.4331  0.0845
 2073SOL    HW217682   0.405   1.031  16.767  1.7178  0.9282 -0.1377
 2074SOL     OW17683   3.394   3.385  11.475 -0.3297  0.1317 -0.1930
 2074SOL    HW117684   3.476   3.388  11.426 -0.6317 -0.0948 -0.7035
 2074SOL    HW217685   3.414   3.471  11.513  0.7304 -1.3838  2.6110
 2075SOL     OW17686   0.350   2.199   4.886 -0.3232 -0.5137  0.2864
 2075SOL    HW117687   0.365   2.176   4.977  4.3665 -3.9565 -1.3288
 2075SOL    HW217688   0.261   2.234   4.893 -0.4075 -0.1727 -2.2566
 2076SOL     OW17689   3.614   3.963   9.068  0.4392  0.5874  0.4685
 2076SOL    HW117690   3.551   4.004   9.008  0.9227  0.4107 -0.1661
 2076SOL    HW217691   3.593   3.989   9.158  2.8489 -0.0160  1.1973
 2077SOL     OW17692   4.479   3.287   7.605 -0.6647  0.2920  0.2319
 2077SOL    HW117693   4.519   3.275   7.692 -1.3100  0.6280  0.5749
 2077SOL    HW217694   4.546   3.259   7.543 -1.0428  1.0824 -0.5287
 2078SOL     OW17695   2.303   1.082   5.252 -0.1110 -0.2963  0.1664
 2078SOL    HW117696   2.279   0.991   5.266 -0.9872 -0.1638 -0.5061
 2078SOL    HW217697   2.262   1.095   5.166  0.0316  0.5293  0.2218
 2079SOL     OW17698   4.397   4.624   8.782  0.0393 -0.7206 -0.4845
 2079SOL    HW117699   4.309   4.631   8.820  1.1290  0.3428  1.8344
 2079SOL    HW217700   4.449   4.665   8.851 -0.8985  0.0324 -0.2280
 2080SOL     OW17701   1.620   1.677   5.470  0.0394 -0.0914  0.9854
 2080SOL    HW117702   1.682   1.646   5.536  1.7313  0.4903 -0.3393
 2080SOL    HW217703   1.655   1.764   5.450  2.7641 -1.3323  0.5239
 2081SOL     OW17704   4.561   2.791  14.628  0.1190  0.1523 -0.1466
 2081SOL    HW117705   4.651   2.764  14.642  0.3689  0.9570 -0.2299
 2081SOL    HW217706   4.527   2.720  14.573  1.1859  1.9424 -3.1105
 2082SOL     OW17707   0.692   2.043  11.731  0.0603  0.4127 -0.5451
 2082SOL    HW117708   0.712   2.083  11.816 -2.0372  2.4768 -1.0326
 2082SOL    HW217709   0.758   2.086  11.676 -1.1486  1.3556 -1.2772
 2083SOL     OW17710   2.119   1.781  13.304  0.0373 -0.0811  0.4267
 2083SOL    HW117711   2.203   1.751  13.269  0.8707  2.7033  0.0751
 2083SOL    HW217712   2.078   1.803  13.220 -0.0664  0.3454  0.5887
 2084SOL     OW17713   1.025   0.376   7.437 -0.3682 -0.6684 -0.4213
 2084SOL    HW117714   1.001   0.329   7.517 -2.2053 -0.6931 -0.9898
 2084SOL    HW217715   1.006   0.469   7.450  0.5176 -0.5290 -0.1798
 2085SOL     OW17716   0.360   2.167   8.406  0.2355  0.0481  0.0747
 2085SOL    HW117717   0.358   2.139   8.314  0.6293  2.4717 -0.6686
 2085SOL    HW217718   0.434   2.112   8.431  0.9590  1.7241  1.6348
 2086SOL     OW17719   1.407   0.742   7.373 -0.0709 -0.0183  0.1318
 2086SOL    HW117720   1.367   0.776   7.293  2.0776  0.2471 -0.8122
 2086SOL    HW217721   1.351   0.666   7.385  1.6435 -1.3331 -0.2097
 2087SOL     OW17722   1.054   1.181   2.996 -0.1888  0.6008 -1.5037
 2087SOL    HW117723   1.064   1.253   3.058  0.1482 -0.0199 -0.8505
 2087SOL    HW217724   1.135   1.175   2.945 -0.4037 -2.1928 -1.5289
 2088SOL     OW17725   0.288   4.611   3.850 -0.2549 -0.3907  0.3995
 2088SOL    HW117726   0.194   4.619   3.865 -0.2567 -0.6145  0.4938
 2088SOL    HW217727   0.316   4.546   3.914  2.0234  0.8077  0.6199
 2089SOL     OW17728   3.836   1.807   7.313 -0.1963 -0.2715  0.2158
 2089SOL    HW117729   3.843   1.900   7.333 -1.2645  0.5847 -3.2948
 2089SOL    HW217730   3.741   1.797   7.305 -0.2050  1.6214 -1.7849
 2090SOL     OW17731   3.220   0.989   0.166 -0.1750  0.5448 -0.5672
 2090SOL    HW117732   3.206   0.898   0.191 -2.7347  1.1086  0.1442
 2090SOL    HW217733   3.197   0.982   0.074 -0.2396 -0.1805 -0.4931
 2091SOL     OW17734   1.466   1.923   8.541 -0.3635  0.0582  0.8916
 2091SOL    HW117735   1.434   1.837   8.568 -0.2529 -0.0917  0.5443
 2091SOL    HW217736   1.555   1.907   8.571 -0.9358 -0.5330  2.2581
 2092SOL     OW17737   1.708   1.750   4.524  0.2118 -0.2745  0.0205
 2092SOL    HW117738   1.621   1.718   4.549 -0.1295  1.2845  0.8210
 2092SOL    HW217739   1.767   1.693   4.573  0.5160 -0.3805 -0.4772
 2093SOL     OW17740   3.660   2.826   4.749 -0.3714  0.1570 -0.1194
 2093SOL    HW117741   3.636   2.747   4.799  0.7566 -1.3888 -2.0095
 2093SOL    HW217742   3.755   2.817   4.755 -0.3457  1.1454  1.0004
 2094SOL     OW17743   2.816   1.337   2.543 -0.1714 -0.2028  0.0501
 2094SOL    HW117744   2.882   1.273   2.519  0.9205 -0.0381  2.6502
 2094SOL    HW217745   2.776   1.346   2.456  1.0977 -2.1436 -0.7278
 2095SOL     OW17746   0.909   2.508   9.254  0.3917  0.0522 -0.6330
 2095SOL    HW117747   0.957   2.590   9.242  0.0439  0.3615  0.1215
 2095SOL    HW217748   0.840   2.538   9.312  2.0858  0.0637  1.3751
 2096SOL     OW17749   0.171   4.132  10.020 -0.2028 -0.0670  0.2672
 2096SOL    HW117750   0.108   4.068   9.986 -0.2313 -0.4745  1.0740
 2096SOL    HW217751   0.208   4.164   9.938  2.6919 -0.1717  1.5415
 2097SOL     OW17752   2.828   1.939   5.613  0.0552 -0.3584  0.2837
 2097SOL    HW117753   2.769   1.871   5.645 -1.7099  0.1895 -1.8081
 2097SOL    HW217754   2.792   1.950   5.525  1.6386 -2.8512 -0.6552
 2098SOL     OW17755   4.145   2.945  12.756  0.0559 -0.5412  0.4821
 2098SOL    HW117756   4.061   2.953  12.802  0.5258 -0.3777  1.3010
 2098SOL    HW217757   4.132   2.860  12.715 -1.5384 -1.0821  2.1141
 2099SOL     OW17758   1.017   0.239   5.368  0.0833  0.1196  0.0814
 2099SOL    HW117759   1.045   0.193   5.288  0.1226 -1.0461  0.7632
 2099SOL    HW217760   0.970   0.316   5.337 -0.6764 -0.0405  0.8353
 2100SOL     OW17761   4.219   4.311   6.267 -0.6241 -0.1667 -0.2317
 2100SOL    HW117762   4.184   4.225   6.242  2.0510 -1.0517 -0.9082
 2100SOL    HW217763   4.237   4.285   6.358  2.1408 -0.3305 -0.8163
 2101SOL     OW17764   1.810   4.296   5.169  0.1276  0.1454  0.0506
 2101SOL    HW117765   1.898   4.302   5.206  0.2711 -0.5913 -0.1744
 2101SOL    HW217766   1.826   4.329   5.080 -0.6913  2.0559  0.6290
 2102SOL     OW17767   4.075   4.626   6.671  0.3640 -0.7215 -0.1465
 2102SOL    HW117768   4.150   4.612   6.614 -0.0963  1.7265 -1.3541
 2102SOL    HW217769   4.052   4.535   6.691  0.5080 -0.9002 -0.8080
 2103SOL     OW17770   3.908   4.140   5.797  0.0389  0.0801  0.3808
 2103SOL    HW117771   3.833   4.199   5.812 -0.4710 -0.5171  0.1705
 2103SOL    HW217772   3.962   4.178   5.866 -0.8017  2.3790 -0.2113
 2104SOL     OW17773   0.516   3.986   2.111  0.0350 -0.1029  0.1121
 2104SOL    HW117774   0.473   4.065   2.143 -0.9401  0.1738 -1.9274
 2104SOL    HW217775   0.540   4.015   2.023 -0.5650  0.8584  0.2642
 2105SOL     OW17776   0.239   2.464   5.224  0.1684 -0.1077  0.0928
 2105SOL    HW117777   0.157   2.507   5.251  1.2312  2.5691 -0.9457
 2105SOL    HW217778   0.280   2.445   5.308 -2.1535  0.8853  1.4649
 2106SOL     OW17779   0.647   0.246  14.190 -0.0410  0.5309  0.9336
 2106SOL    HW117780   0.731   0.281  14.220  0.0215  2.1354 -1.1280
 2106SOL    HW217781   0.597   0.302  14.249 -0.5172  1.0160  0.0719
 2107SOL     OW17782   2.804   2.746  17.669  0.2974 -0.0843  0.5869
 2107SOL    HW117783   2.767   2.824   0.020 -2.6392 -1.2322  0.1165
 2107SOL    HW217784   2.724   2.706  17.636  0.4786  0.3717 -0.4262
 2108SOL     OW17785   0.397   0.375   3.663 -0.3703  0.1960 -0.2560
 2108SOL    HW117786   0.367   0.345   3.748  1.2602 -0.0029  0.2476
 2108SOL    HW217787   0.345   0.317   3.608 -0.0165  0.3316 -0.7371
 2109SOL     OW17788   2.460   4.421  15.451 -0.2396 -0.0701 -0.1870
 2109SOL    HW117789   2.485   4.485  15.517  0.4876  0.3322 -0.8473
 2109SOL    HW217790   2.519   4.452  15.382  0.5128 -2.4375 -0.6429
 2110SOL     OW17791   0.412   4.314  14.180 -0.3715  0.0862 -0.3623
 2110SOL    HW117792   0.475   4.269  14.124  0.8671 -1.3050  2.1268
 2110SOL    HW217793   0.406   4.393  14.127  1.1219  1.4637  1.5220
 2111SOL     OW17794   2.584   2.777   3.562 -0.3718 -0.1930  0.1424
 2111SOL    HW117795   2.491   2.795   3.550  0.5003  2.4229 -2.4672
 2111SOL    HW217796   2.600   2.860   3.606 -1.2878 -0.1593  0.4028
 2112SOL     OW17797   3.541   4.559  10.398 -0.1051  0.1115 -0.2091
 2112SOL    HW117798   3.569   4.586  10.310  0.2633  1.2995  0.2747
 2112SOL    HW217799   3.584   4.474  10.399  0.6354  0.4972  0.4671
 2113SOL     OW17800   0.508   3.273   8.161 -0.3200 -0.2770  0.2691
 2113SOL    HW117801   0.550   3.357   8.145  1.7332 -1.4421 -0.4398
 2113SOL    HW217802   0.419   3.288   8.130 -0.6333  2.0925  2.2780
 2114SOL     OW17803   3.639   1.882   4.668 -0.1410  0.2443 -0.1762
 2114SOL    HW117804   3.682   1.797   4.652  0.6814  0.5965  0.1471
 2114SOL    HW217805   3.592   1.900   4.587 -0.8011  1.7025  0.5351
 2115SOL     OW17806   1.980   0.723   9.955  0.0651  0.1388 -0.2309
 2115SOL    HW117807   1.955   0.713   9.863 -3.0077  1.4474  0.4657
 2115SOL    HW217808   2.066   0.762   9.944  0.1203  0.5969  1.9034
 2116SOL     OW17809   3.689   3.626   2.619 -0.5569 -0.2970 -0.3025
 2116SOL    HW117810   3.696   3.531   2.611 -0.8023 -0.2425 -1.0997
 2116SOL    HW217811   3.771   3.651   2.576 -1.8504  1.8364 -1.4952
 2117SOL     OW17812   0.194   1.064   3.391  0.3872 -0.1820 -0.0734
 2117SOL    HW117813   0.112   1.022   3.364 -0.9025  0.6919  2.3915
 2117SOL    HW217814   0.242   1.068   3.309  2.2464 -1.4331  0.9705
 2118SOL     OW17815   3.505   2.225  14.988 -0.2605  0.6325  0.8431
 2118SOL    HW117816   3.591   2.249  15.021  0.1180  0.4877 -0.0523
 2118SOL    HW217817   3.442   2.273  15.041  0.2649  0.5873  1.5123
 2119SOL     OW17818   4.081   3.699  13.423 -0.3030  0.1655  0.4854
 2119SOL    HW117819   4.091   3.673  13.331  0.2291  0.4856  0.4527
 2119SOL    HW217820   4.035   3.627  13.465 -1.7197  0.6237 -0.2698
 2120SOL     OW17821   4.289   1.129   7.378  0.1708  0.0249  0.5990
 2120SOL    HW117822   4.367   1.166   7.421 -0.0674 -0.2155  1.2462
 2120SOL    HW217823   4.293   1.034   7.391 -2.1878  0.2037  2.5688
 2121SOL     OW17824   2.976   0.097   7.637  0.3820  0.0058  0.7269
 2121SOL    HW117825   2.963   0.007   7.607  2.1466  0.2372 -0.7749
 2121SOL    HW217826   3.062   0.093   7.680  1.2785 -1.8899 -1.2582
 2122SOL     OW17827   1.845   1.031   1.963  0.1485  0.6969 -0.2810
 2122SOL    HW117828   1.824   1.118   1.997  0.4063  0.7002 -0.1351
 2122SOL    HW217829   1.876   1.064   1.879  1.9800  0.4680  0.3049
 2123SOL     OW17830   1.945   0.592   4.536 -0.5789 -0.2619  0.0912
 2123SOL    HW117831   2.023   0.645   4.555 -0.2828 -0.6541 -0.0392
 2123SOL    HW217832   1.980   0.534   4.469 -0.1487  2.0485 -1.6522
 2124SOL     OW17833   3.869   0.002  10.547  0.0215 -0.4380  0.4007
 2124SOL    HW117834   3.867   0.008  10.452 -2.7968 -1.5537  0.3925
 2124SOL    HW217835   3.926   0.075  10.570 -1.5380  1.5097 -1.9210
 2125SOL     OW17836   4.205   1.467   5.513 -0.3443 -0.4312 -0.7001
 2125SOL    HW117837   4.130   1.477   5.455  0.0948  0.0824 -1.1724
 2125SOL    HW217838   4.199   1.549   5.561 -0.4590 -0.6259 -0.3765
 2126SOL     OW17839   3.656   2.914   2.917  0.1330  0.0338  0.2469
 2126SOL    HW117840   3.648   3.007   2.897 -0.9185 -0.2093 -0.4701
 2126SOL    HW217841   3.747   2.917   2.945  0.2412  1.5304 -0.2545
 2127SOL     OW17842   2.298   2.062   1.241 -0.2484  0.0500  0.0670
 2127SOL    HW117843   2.211   2.074   1.278  0.0224  0.4081  0.5932
 2127SOL    HW217844   2.285   2.093   1.152 -1.0242 -0.3448  0.0415
 2128SOL     OW17845   2.404   2.492   7.349  0.0799  0.1473 -0.2603
 2128SOL    HW117846   2.338   2.437   7.308 -1.0404  2.3267 -1.3404
 2128SOL    HW217847   2.394   2.459   7.438  0.7560  1.1822  0.1985
 2129SOL     OW17848   0.372   1.236   8.465  0.4471 -0.4944 -0.1782
 2129SOL    HW117849   0.452   1.254   8.516 -0.1987 -0.8802  0.9613
 2129SOL    HW217850   0.411   1.190   8.391  0.2601 -1.8290  0.5677
 2130SOL     OW17851   4.097   2.276   7.675 -0.3724  0.1997  0.2115
 2130SOL    HW117852   4.189   2.292   7.697  0.8853 -2.2936 -3.0479
 2130SOL    HW217853   4.048   2.287   7.756 -0.6807 -0.7888  0.1612
 2131SOL     OW17854   0.767   0.580  15.960 -0.2537  0.5132 -0.5791
 2131SOL    HW117855   0.685   0.560  15.915 -0.4881  0.3584 -0.0757
 2131SOL    HW217856   0.744   0.546  16.046 -0.3337  1.6579 -0.1575
 2132SOL     OW17857   0.692   2.004   7.543  0.1359  0.0141 -0.1901
 2132SOL    HW117858   0.688   1.931   7.481  0.4720  1.0307 -1.4065
 2132SOL    HW217859   0.779   1.985   7.578  0.1238  0.6614  0.1982
 2133SOL     OW17860   1.132   2.618   8.916 -0.1304 -0.2811  0.0505
 2133SOL    HW117861   1.103   2.637   8.826  1.4611  0.4222 -0.3147
 2133SOL    HW217862   1.174   2.700   8.942 -1.5361  0.9914 -1.6056
 2134SOL     OW17863   2.142   0.234   6.746 -0.1063  0.5061  0.1543
 2134SOL    HW117864   2.186   0.151   6.729 -0.3218 -0.2135  3.1457
 2134SOL    HW217865   2.200   0.274   6.811 -0.8555 -0.4201  1.3857
 2135SOL     OW17866   3.705   4.200   7.790  0.1711 -0.0967 -0.2022
 2135SOL    HW117867   3.694   4.295   7.786 -0.9152 -0.1500  1.2487
 2135SOL    HW217868   3.760   4.180   7.714  1.2461  0.3129  0.4550
 2136SOL     OW17869   2.076   1.519   4.792 -0.3782  0.1479 -0.8455
 2136SOL    HW117870   2.051   1.426   4.794  1.3904 -0.3094  0.4776
 2136SOL    HW217871   2.165   1.506   4.761  1.4845  0.7077  4.1417
 2137SOL     OW17872   1.337   2.078   3.693  0.0093 -0.3210  0.8069
 2137SOL    HW117873   1.256   2.124   3.713 -0.6503  0.0883 -2.7331
 2137SOL    HW217874   1.343   2.040   3.780  0.5754 -2.6693 -0.2729
 2138SOL     OW17875   2.629   4.542   4.948  0.0542 -0.0500  0.3541
 2138SOL    HW117876   2.557   4.479   4.949  0.4891 -0.5514  0.3945
 2138SOL    HW217877   2.583   4.622   4.972  1.6651  0.7007  0.9243
 2139SOL     OW17878   3.691   4.676   6.204 -0.4226  0.4679 -1.2785
 2139SOL    HW117879   3.760   0.012   6.237 -0.6528  0.2923 -0.4916
 2139SOL    HW217880   3.619   4.715   6.253  2.4461  0.1810  3.1654
 2140SOL     OW17881   0.956   0.087  11.762  0.1793  0.0683 -0.1127
 2140SOL    HW117882   1.011   0.097  11.684  0.0170  0.2317 -0.2059
 2140SOL    HW217883   0.915   0.172  11.771  0.4741 -0.0832  2.4248
 2141SOL     OW17884   3.779   1.581   2.511  0.1664  0.3618 -0.3444
 2141SOL    HW117885   3.752   1.645   2.576 -0.0604 -0.2431  0.1609
 2141SOL    HW217886   3.778   1.622   2.425 -0.9358  0.5505 -0.2364
 2142SOL     OW17887   1.230   4.710   9.171 -0.1148 -0.2077  0.5041
 2142SOL    HW117888   1.251   4.643   9.105 -0.4835  0.3246 -0.1615
 2142SOL    HW217889   1.214   0.066   9.118  0.5668  0.3173  1.0729
 2143SOL     OW17890   1.177   3.048   8.728 -0.4180 -0.6724 -0.3124
 2143SOL    HW117891   1.128   3.035   8.647 -1.0903  2.8209 -0.4439
 2143SOL    HW217892   1.147   2.975   8.782  1.3639 -1.2132 -0.0307
 2144SOL     OW17893   3.069   3.172  16.828  0.0810  0.6937  0.3119
 2144SOL    HW117894   3.126   3.200  16.756  1.4926 -1.1322  0.6888
 2144SOL    HW217895   3.106   3.085  16.846  0.9865  0.5265 -2.2966
 2145SOL     OW17896   3.349   3.141   4.743 -0.1542  0.0561  0.0959
 2145SOL    HW117897   3.279   3.086   4.777  0.2103 -0.7003 -0.3759
 2145SOL    HW217898   3.332   3.114   4.652 -0.0557  0.6638 -0.1051
 2146SOL     OW17899   1.463   0.166   7.319 -0.3703 -0.0812  0.3986
 2146SOL    HW117900   1.393   0.102   7.335 -1.4980  0.9319 -0.4723
 2146SOL    HW217901   1.519   0.150   7.394  0.6054  2.1275  0.1179
 2147SOL     OW17902   1.248   2.577   7.974 -0.1208  0.0399  0.1737
 2147SOL    HW117903   1.242   2.659   8.023  3.3419  0.4666 -0.1056
 2147SOL    HW217904   1.341   2.567   7.957  0.1160  1.7432  0.4703
 2148SOL     OW17905   2.118   0.059  17.423 -0.3832  0.6046 -0.1212
 2148SOL    HW117906   2.180   0.003  17.375 -0.8659 -2.5046  2.9033
 2148SOL    HW217907   2.074   0.087  17.343 -2.8553  0.1446  1.0856
 2149SOL     OW17908   0.165   2.505   5.742 -0.4506 -0.0633  0.2155
 2149SOL    HW117909   0.074   2.537   5.740 -0.8979 -1.2972  0.8769
 2149SOL    HW217910   0.219   2.579   5.770  0.1433  0.2155 -1.6956
 2150SOL     OW17911   1.951   3.620   3.213  0.0948  0.2120  0.0611
 2150SOL    HW117912   2.031   3.670   3.200  0.1886 -0.2392 -1.1029
 2150SOL    HW217913   1.917   3.654   3.130  1.9452 -0.7052 -1.0810
 2151SOL     OW17914   3.673   4.498  15.967  0.2730  0.7777  0.5541
 2151SOL    HW117915   3.652   4.459  15.883  1.2454  1.7667 -0.1410
 2151SOL    HW217916   3.585   4.499  16.004 -0.3701 -0.2521 -0.9755
 2152SOL     OW17917   1.399   3.894   2.287  0.4166 -0.3106 -0.5109
 2152SOL    HW117918   1.478   3.863   2.331 -0.6138 -1.0292  0.8355
 2152SOL    HW217919   1.337   3.836   2.331  0.3099  0.2341  0.0485
 2153SOL     OW17920   2.811   1.732   2.281 -0.3673 -0.6179  0.0228
 2153SOL    HW117921   2.812   1.792   2.207 -0.6693  2.0856  2.1983
 2153SOL    HW217922   2.746   1.667   2.254 -1.6574  0.8143 -0.3054
 2154SOL     OW17923   2.394   4.063   0.702 -0.7042 -0.2583  0.1440
 2154SOL    HW117924   2.412   4.037   0.792 -1.5985 -1.5815 -0.0648
 2154SOL    HW217925   2.471   4.106   0.664  0.1625 -1.5100  0.4883
 2155SOL     OW17926   0.570   3.648   5.451  0.3818  0.4237  0.0525
 2155SOL    HW117927   0.610   3.682   5.531  1.1526  1.0783 -0.6215
 2155SOL    HW217928   0.541   3.558   5.468  0.9000  0.3037  0.3110
 2156SOL     OW17929   2.298   2.322   3.099  0.5986 -0.0246  0.6263
 2156SOL    HW117930   2.241   2.353   3.170 -1.5657 -3.5795  0.4346
 2156SOL    HW217931   2.382   2.362   3.122 -0.0415  1.3828  0.5189
 2157SOL     OW17932   2.079   3.541  14.566 -0.4158 -0.1460  0.2406
 2157SOL    HW117933   2.141   3.612  14.584 -0.6924  0.3847 -0.9194
 2157SOL    HW217934   2.037   3.567  14.485  1.8061 -2.4670 -1.6670
 2158SOL     OW17935   4.010   3.411  13.579 -0.2090  0.4193  0.0091
 2158SOL    HW117936   3.943   3.344  13.579  0.0210  0.1886  0.0023
 2158SOL    HW217937   4.073   3.370  13.639 -1.2108 -0.3078  0.5536
 2159SOL     OW17938   3.165   3.502   6.888  0.0516  0.1207  0.2413
 2159SOL    HW117939   3.175   3.593   6.862  1.4479  0.2756  1.3197
 2159SOL    HW217940   3.201   3.443   6.821  2.9051  0.9247  1.0512
 2160SOL     OW17941   1.984   2.751   2.001 -0.1581 -0.1412 -0.3020
 2160SOL    HW117942   2.028   2.668   2.018 -1.3631  0.1175  3.8433
 2160SOL    HW217943   2.036   2.805   2.061 -1.1109  1.7460 -1.1782
 2161SOL     OW17944   2.234   3.128   7.912 -0.0730 -0.0727 -0.4591
 2161SOL    HW117945   2.232   3.033   7.929  0.5967 -0.0034 -0.0050
 2161SOL    HW217946   2.162   3.149   7.971 -0.1295  1.4297 -1.0687
 2162SOL     OW17947   2.708   0.212  10.549  0.5391  0.0057 -0.3566
 2162SOL    HW117948   2.787   0.254  10.517  1.8244 -1.4902  0.7788
 2162SOL    HW217949   2.734   0.176  10.635 -2.7302 -2.2224 -0.3347
 2163SOL     OW17950   2.982   4.002   3.655 -0.2034 -0.4900  0.6325
 2163SOL    HW117951   2.901   4.030   3.698 -1.4926 -2.3135 -0.6279
 2163SOL    HW217952   3.030   4.081   3.679  0.1209 -0.0536 -1.4157
 2164SOL     OW17953   3.440   3.766  16.155 -0.5963  0.1681  0.1538
 2164SOL    HW117954   3.367   3.824  16.135 -1.0776 -0.9706 -1.4194
 2164SOL    HW217955   3.387   3.692  16.186  0.0213  0.0465  0.9220
 2165SOL     OW17956   0.449   1.238   1.274 -0.4138  0.2092 -0.4292
 2165SOL    HW117957   0.386   1.310   1.266 -1.2610 -0.2987  1.4331
 2165SOL    HW217958   0.384   1.169   1.285 -0.7376  0.1847 -2.4467
 2166SOL     OW17959   0.249   0.107   9.495  0.4352  0.1375  0.7158
 2166SOL    HW117960   0.332   0.059   9.491 -0.1992 -0.8106 -0.9816
 2166SOL    HW217961   0.218   0.088   9.407 -1.6499 -1.3785  1.7728
 2167SOL     OW17962   0.473   1.638  10.073  0.1798  0.1370 -0.3681
 2167SOL    HW117963   0.471   1.572  10.142 -1.9730 -1.2991 -1.7851
 2167SOL    HW217964   0.555   1.681  10.096  1.0905 -1.1425 -1.2161
 2168SOL     OW17965   0.575   1.413   1.752  0.7907  0.0501 -0.2759
 2168SOL    HW117966   0.602   1.466   1.677  0.5122 -0.5342 -0.7907
 2168SOL    HW217967   0.547   1.333   1.708  1.8328 -0.7478  0.5297
 2169SOL     OW17968   2.002   2.371   4.408 -0.4189 -0.1034 -1.0045
 2169SOL    HW117969   1.927   2.313   4.396  0.2405 -1.1987  0.2247
 2169SOL    HW217970   2.046   2.385   4.324 -1.8387  1.1562 -1.5390
 2170SOL     OW17971   1.240   0.421   4.342  0.8708  0.0128  0.3130
 2170SOL    HW117972   1.248   0.346   4.401  0.2279 -0.1433  0.2006
 2170SOL    HW217973   1.147   0.441   4.353  1.3451  0.3342  3.8221
 2171SOL     OW17974   1.843   3.992   1.821 -0.7414 -0.1974 -0.2509
 2171SOL    HW117975   1.772   4.020   1.879  0.1287 -0.9589  1.1812
 2171SOL    HW217976   1.888   4.077   1.823 -1.0129 -0.0633  0.4267
 2172SOL     OW17977   2.892   1.746  17.595  0.2272 -0.1028 -0.3717
 2172SOL    HW117978   2.978   1.788  17.601  0.0826 -0.1043  1.4596
 2172SOL    HW217979   2.839   1.825  17.584  0.7003  0.2817  0.1340
 2173SOL     OW17980   4.163   3.997   1.635 -0.3339  0.4385 -0.0706
 2173SOL    HW117981   4.075   4.029   1.616 -0.6292 -1.0839 -1.2415
 2173SOL    HW217982   4.134   3.924   1.689 -0.3534 -0.3376 -1.1273
 2174SOL     OW17983   0.221   3.249  12.785  0.0019  0.0491  0.0099
 2174SOL    HW117984   0.164   3.182  12.823 -0.8130  1.6310  1.5666
 2174SOL    HW217985   0.196   3.318  12.846 -2.6357 -1.1920  0.3120
 2175SOL     OW17986   2.817   1.466   6.681  0.1039  0.4188  0.0634
 2175SOL    HW117987   2.824   1.499   6.591  0.5573 -0.9469 -0.4066
 2175SOL    HW217988   2.727   1.496   6.693 -0.9023 -1.4473 -2.5751
 2176SOL     OW17989   2.599   0.825   6.376  0.0942 -0.2094  0.2853
 2176SOL    HW117990   2.663   0.839   6.446 -1.9162  3.0262  1.4740
 2176SOL    HW217991   2.560   0.912   6.389  0.7539 -0.1886  2.0105
 2177SOL     OW17992   4.328   2.254   6.001 -0.1748  0.2741 -0.0593
 2177SOL    HW117993   4.405   2.245   6.057 -1.2965  1.4324  1.6454
 2177SOL    HW217994   4.279   2.328   6.037  0.1721 -0.1996  1.3596
 2178SOL     OW17995   0.299   0.385   2.940  0.1363  0.6559  0.4533
 2178SOL    HW117996   0.388   0.355   2.921  1.3022  3.9589  0.6755
 2178SOL    HW217997   0.276   0.441   2.866  0.4808  0.1224 -0.0576
 2179SOL     OW17998   3.172   2.611  12.358 -0.1729  0.3978  0.4617
 2179SOL    HW117999   3.129   2.691  12.329  1.9473  0.3761 -2.7971
 2179SOL    HW218000   3.235   2.650  12.420  1.1401 -0.0606 -0.5851
 2180SOL     OW18001   1.406   0.981   9.658  0.0023 -0.1386 -0.7476
 2180SOL    HW118002   1.396   0.898   9.611 -0.8493 -0.9333  0.8227
 2180SOL    HW218003   1.323   0.981   9.708  0.9927  0.3136  0.9058
 2181SOL     OW18004   0.564   2.594  13.956  0.0515 -0.0238  0.3565
 2181SOL    HW118005   0.599   2.630  14.037 -0.4985  0.5806  0.3157
 2181SOL    HW218006   0.648   2.569  13.916  0.0891  0.9515 -0.1668
 2182SOL     OW18007   0.759   3.480  14.536  0.2236 -0.8439 -0.0132
 2182SOL    HW118008   0.787   3.528  14.458 -0.4005 -0.8113 -0.2221
 2182SOL    HW218009   0.748   3.393  14.498  0.7078 -0.9659  0.1337
 2183SOL     OW18010   1.565   2.737   2.864 -0.1919  0.1998 -0.9575
 2183SOL    HW118011   1.564   2.643   2.884  0.8261  0.2868 -0.5257
 2183SOL    HW218012   1.649   2.769   2.896 -0.5157 -0.5593  0.6502
 2184SOL     OW18013   2.276   1.739  15.968  0.4778  1.1190  0.5584
 2184SOL    HW118014   2.186   1.768  15.978 -0.0719  0.5673 -2.6666
 2184SOL    HW218015   2.303   1.783  15.887  1.4054  1.3221  0.9752
 2185SOL     OW18016   0.823   3.186   3.245 -0.9738 -0.2537  0.0985
 2185SOL    HW118017   0.865   3.206   3.328 -0.7356  0.2288 -0.1347
 2185SOL    HW218018   0.872   3.241   3.183 -2.4717  0.3143 -0.5623
 2186SOL     OW18019   2.967   0.125   3.267  0.0257  0.0972  0.0771
 2186SOL    HW118020   2.950   0.210   3.225  2.1314  0.8618  0.7653
 2186SOL    HW218021   3.045   0.145   3.318 -0.7150  1.5874  0.6295
 2187SOL     OW18022   0.262   0.792   1.932 -0.4023 -0.3584 -0.4953
 2187SOL    HW118023   0.317   0.867   1.911  0.7092 -1.3282 -1.0691
 2187SOL    HW218024   0.236   0.772   1.842  1.6501  0.1051 -1.1965
 2188SOL     OW18025   4.111   2.821   7.783  0.3305  0.0665  0.1834
 2188SOL    HW118026   4.128   2.738   7.827  0.8501 -0.2621 -0.6364
 2188SOL    HW218027   4.022   2.838   7.811  0.0938  1.1115 -1.1889
 2189SOL     OW18028   1.156   2.597   4.305  0.2759  0.1148  0.5133
 2189SOL    HW118029   1.080   2.655   4.309  0.3303  0.2582 -0.5522
 2189SOL    HW218030   1.120   2.510   4.285  1.5624  0.4092 -3.0026
 2190SOL     OW18031   1.072   1.027   8.651 -0.2323 -0.3125 -0.2718
 2190SOL    HW118032   1.129   1.013   8.727 -2.7974 -2.2564  1.2731
 2190SOL    HW218033   0.983   1.019   8.684 -0.1041  0.4453  0.2634
 2191SOL     OW18034   2.396   2.275   4.084  0.6555  0.1814  0.7809
 2191SOL    HW118035   2.434   2.360   4.103  1.2202 -0.0838  0.8223
 2191SOL    HW218036   2.382   2.278   3.989 -3.3675  0.6140  1.3914
 2192SOL     OW18037   4.307   0.605   5.653  0.5743  0.0374 -0.0131
 2192SOL    HW118038   4.244   0.611   5.581  1.3537 -1.9125 -0.8555
 2192SOL    HW218039   4.393   0.605   5.612 -0.0331 -0.7504 -1.2748
 2193SOL     OW18040   2.271   1.645  12.195  0.3724  0.2091  0.0351
 2193SOL    HW118041   2.192   1.623  12.145 -0.5084 -3.2711  2.9943
 2193SOL    HW218042   2.329   1.688  12.133 -1.0029  3.3560  0.9394
 2194SOL     OW18043   2.867   0.224  14.123  0.0118 -0.2524 -0.4710
 2194SOL    HW118044   2.796   0.168  14.091  0.0544 -0.6898  0.2007
 2194SOL    HW218045   2.942   0.163  14.118 -0.6242 -1.3032  3.0136
 2195SOL     OW18046   1.476   2.972   8.103 -0.1546 -0.1411  0.4469
 2195SOL    HW118047   1.533   2.895   8.109  1.6683  1.3515  2.1239
 2195SOL    HW218048   1.547   3.036   8.096 -1.1547  1.1492  2.2504
 2196SOL     OW18049   1.666   4.477   6.130  0.4916  0.6278  0.2644
 2196SOL    HW118050   1.659   4.523   6.214  0.5479  1.1040  0.0076
 2196SOL    HW218051   1.605   4.527   6.076  0.6940  0.4401 -0.1372
 2197SOL     OW18052   4.065   1.015  15.302  0.1267 -0.0154 -0.1157
 2197SOL    HW118053   3.983   0.977  15.334  0.2930 -0.3845 -0.1275
 2197SOL    HW218054   4.037   1.107  15.300 -0.1074 -0.0774  0.3962
 2198SOL     OW18055   0.099   0.418  14.463 -0.2417 -0.0799  0.4256
 2198SOL    HW118056   0.068   0.349  14.521 -0.2201  0.4894  1.1059
 2198SOL    HW218057   0.156   0.462  14.526 -0.2077 -0.9046  0.9661
 2199SOL     OW18058   2.447   3.826   4.307 -0.1722 -0.0849 -0.6626
 2199SOL    HW118059   2.488   3.911   4.294 -1.5523  0.8048  0.7545
 2199SOL    HW218060   2.381   3.823   4.238  0.5564 -1.8046 -1.2824
 2200SOL     OW18061   0.515   4.592   4.223  0.0182 -0.3174 -0.5385
 2200SOL    HW118062   0.585   4.562   4.281  0.7063  0.0791 -1.1670
 2200SOL    HW218063   0.491   4.677   4.259 -0.8238 -0.5864 -0.4536
 2201SOL     OW18064   4.652   2.474   9.283 -0.0742 -0.2426 -0.6567
 2201SOL    HW118065   4.660   2.501   9.375  0.3345 -2.0461 -0.1622
 2201SOL    HW218066   4.565   2.507   9.259 -1.0057 -0.6695  2.1075
 2202SOL     OW18067   1.905   3.505  13.339  0.2591  0.3106  0.3977
 2202SOL    HW118068   1.960   3.459  13.275 -1.8066  1.2111 -2.0008
 2202SOL    HW218069   1.840   3.534  13.275 -1.5859 -0.3388  2.0056
 2203SOL     OW18070   3.713   4.235   3.091  0.2168 -0.1465 -0.2459
 2203SOL    HW118071   3.759   4.283   3.022  2.0479  1.0499  1.8223
 2203SOL    HW218072   3.627   4.226   3.051 -0.0190  1.1470 -0.0188
 2204SOL     OW18073   0.567   2.192   9.212 -0.5008  0.1092 -0.5773
 2204SOL    HW118074   0.648   2.174   9.261  0.3542  0.5563 -1.8099
 2204SOL    HW218075   0.514   2.113   9.221 -0.4722  0.3354  1.5332
 2205SOL     OW18076   3.735   1.810  16.836  0.3284  0.0472 -0.8564
 2205SOL    HW118077   3.797   1.870  16.876 -0.2888 -1.1613  1.9107
 2205SOL    HW218078   3.658   1.865  16.824 -0.4375 -0.3511  2.2542
 2206SOL     OW18079   4.190   4.040   4.192  0.0953  0.0091  0.1141
 2206SOL    HW118080   4.242   3.991   4.128 -0.7322 -0.1047 -0.4750
 2206SOL    HW218081   4.225   4.010   4.275 -0.1069  0.6117  0.4146
 2207SOL     OW18082   3.061   0.567  15.871 -0.0409 -0.2626  0.0179
 2207SOL    HW118083   3.123   0.551  15.942  2.4409  0.5728 -1.9533
 2207SOL    HW218084   2.984   0.562  15.927  0.5027  0.3509  0.8136
 2208SOL     OW18085   2.209   0.810   9.735  0.3349 -0.0693  0.1000
 2208SOL    HW118086   2.286   0.827   9.789  0.0879 -1.7761  1.0084
 2208SOL    HW218087   2.144   0.847   9.794 -0.2951 -1.7365  0.4644
 2209SOL     OW18088   0.453   1.726   8.396  0.3037  0.1714  0.1942
 2209SOL    HW118089   0.368   1.724   8.350  0.9534 -0.0848 -0.9981
 2209SOL    HW218090   0.443   1.816   8.429 -1.1469  0.8251 -1.9978
 2210SOL     OW18091   4.568   2.656   4.846  0.1452  0.2760  0.1032
 2210SOL    HW118092   4.480   2.669   4.881  0.1160 -0.0459  0.1537
 2210SOL    HW218093   4.611   2.715   4.907  2.3493 -1.8152  0.6035
 2211SOL     OW18094   1.235   2.941   7.085 -0.5502  0.4696 -0.2103
 2211SOL    HW118095   1.211   2.913   7.173  0.4057  3.5033  1.0394
 2211SOL    HW218096   1.315   2.993   7.100  0.0883 -0.3281 -0.9160
 2212SOL     OW18097   0.172   2.614   1.752 -0.0751 -0.2535 -0.4225
 2212SOL    HW118098   0.112   2.677   1.791 -0.0795 -1.6212  1.7445
 2212SOL    HW218099   0.258   2.656   1.756 -0.2513  0.1009 -0.3506
 2213SOL     OW18100   3.772   4.449  12.410  0.1315  0.0402 -0.1114
 2213SOL    HW118101   3.808   4.532  12.442  0.7567  0.4563 -1.8986
 2213SOL    HW218102   3.796   4.390  12.481 -2.6348 -0.6369  0.2368
 2214SOL     OW18103   1.460   4.187   0.941  0.0638  0.1234  0.1547
 2214SOL    HW118104   1.413   4.256   0.894  0.5711  1.7755  2.0464
 2214SOL    HW218105   1.530   4.227   0.993 -1.8473  2.1884  1.1781
 2215SOL     OW18106   1.127   2.067   6.916  0.7122  0.3831 -0.4890
 2215SOL    HW118107   1.197   2.025   6.966  0.1983 -0.6452 -0.6562
 2215SOL    HW218108   1.178   2.115   6.849 -0.2909 -0.0012 -1.5194
 2216SOL     OW18109   0.897   4.302   1.996 -0.0067 -0.1167  0.0111
 2216SOL    HW118110   0.811   4.338   1.975  0.5253  0.8124 -0.5879
 2216SOL    HW218111   0.952   4.361   1.944 -0.6544  2.5887  2.3879
 2217SOL     OW18112   4.349   3.821   2.044  0.1853  0.2021  0.0684
 2217SOL    HW118113   4.387   3.747   1.997  1.7498  0.4537  0.9360
 2217SOL    HW218114   4.367   3.894   1.985 -1.1719  1.8833  1.7111
 2218SOL     OW18115   2.820   1.954   9.477  0.6160  0.0715 -0.4123
 2218SOL    HW118116   2.864   2.000   9.405  3.0519  0.7650  1.5384
 2218SOL    HW218117   2.729   1.979   9.460  0.5973  0.7954  0.7893
 2219SOL     OW18118   3.034   2.846  12.052  0.1047 -0.1635 -0.0891
 2219SOL    HW118119   3.010   2.810  12.137 -0.2309 -0.2266 -0.2115
 2219SOL    HW218120   3.015   2.775  11.992  1.7180 -0.0923 -0.6828
 2220SOL     OW18121   3.227   2.178   3.175  0.1520  0.4114 -0.3074
 2220SOL    HW118122   3.215   2.141   3.087  0.4075  2.3285 -1.1339
 2220SOL    HW218123   3.248   2.094   3.216 -0.1929  0.9169  0.8883
 2221SOL     OW18124   2.196   0.345   1.413 -0.2974 -0.1117 -0.5162
 2221SOL    HW118125   2.120   0.403   1.413  1.2429  1.9099  2.4662
 2221SOL    HW218126   2.262   0.414   1.401 -0.0184 -0.6113 -1.8324
 2222SOL     OW18127   4.073   2.360  12.789 -0.5715 -0.1092 -0.4607
 2222SOL    HW118128   3.996   2.404  12.753 -0.8439 -0.1657  0.0537
 2222SOL    HW218129   4.136   2.432  12.796 -1.8333  1.0292 -1.0399
 2223SOL     OW18130   1.274   1.639   3.132 -0.7266 -0.1482  0.0797
 2223SOL    HW118131   1.240   1.596   3.211  0.7311 -2.1955 -0.4132
 2223SOL    HW218132   1.368   1.621   3.127 -0.5100  0.7190  1.1167
 2224SOL     OW18133   0.270   0.053   8.629 -0.3382 -0.1747  0.3458
 2224SOL    HW118134   0.258   0.146   8.611 -1.3991  0.3067  3.5044
 2224SOL    HW218135   0.239   0.057   8.719  1.4106  2.5959  0.8036
 2225SOL     OW18136   4.486   0.064   2.529 -1.0579 -0.3400 -0.0562
 2225SOL    HW118137   4.559   0.101   2.578 -1.7032  0.9779 -0.1059
 2225SOL    HW218138   4.505   4.693   2.543  0.4412  0.1107  0.9714
 2226SOL     OW18139   0.707   4.322   5.722  0.3378  0.3728  0.0729
 2226SOL    HW118140   0.638   4.256   5.717 -1.2035  1.8355  1.9293
 2226SOL    HW218141   0.785   4.270   5.702  0.4308  0.2902  0.6476
 2227SOL     OW18142   0.929   4.549   6.762 -0.4362 -0.0160 -0.3146
 2227SOL    HW118143   0.836   4.561   6.740 -1.0461  0.4030  2.5026
 2227SOL    HW218144   0.959   4.640   6.764 -0.5052  0.0136 -0.6035
 2228SOL     OW18145   1.600   1.590   7.235 -0.3764  0.5673 -0.1169
 2228SOL    HW118146   1.561   1.657   7.291  1.6422  1.1402  0.6102
 2228SOL    HW218147   1.584   1.512   7.288 -1.6449  0.9334  0.0447
 2229SOL     OW18148   3.396   0.987  17.411  0.0260  0.8363  0.4255
 2229SOL    HW118149   3.474   1.041  17.425  0.1328  1.3333 -2.0409
 2229SOL    HW218150   3.407   0.947  17.325 -0.3171  4.2858 -1.2601
 2230SOL     OW18151   3.645   1.902  11.663  0.3941 -0.0098 -0.0747
 2230SOL    HW118152   3.669   1.944  11.746 -0.1600 -0.9661  0.5656
 2230SOL    HW218153   3.685   1.816  11.672  0.2277 -0.2330 -1.5223
 2231SOL     OW18154   4.211   1.596  12.892  0.4534 -0.1053 -0.0471
 2231SOL    HW118155   4.123   1.618  12.860  0.5365  1.1731  0.6312
 2231SOL    HW218156   4.262   1.677  12.880  0.0827  0.1079 -0.1907
 2232SOL     OW18157   1.975   2.076   8.963 -0.5357  0.4122 -0.2278
 2232SOL    HW118158   1.903   2.139   8.961  0.1917  1.2271 -0.7079
 2232SOL    HW218159   2.035   2.108   8.896  1.9304 -2.5610  0.5555
 2233SOL     OW18160   3.769   0.725   3.200  0.3214  0.2006 -0.2616
 2233SOL    HW118161   3.706   0.717   3.271  1.3335 -2.0316  0.3673
 2233SOL    HW218162   3.761   0.638   3.162  5.0182  0.0380 -0.9647
 2234SOL     OW18163   2.508   4.604  12.458 -0.6644  0.0951 -0.6657
 2234SOL    HW118164   2.558   4.548  12.518 -2.0599 -0.6737 -0.2276
 2234SOL    HW218165   2.419   4.589  12.489 -0.6295 -0.7185 -0.9552
 2235SOL     OW18166   1.486   2.718   5.946 -0.2973 -0.1294 -0.0310
 2235SOL    HW118167   1.422   2.767   5.997 -2.1159 -0.5706 -1.8808
 2235SOL    HW218168   1.555   2.785   5.937 -1.2609  1.0154  1.1545
 2236SOL     OW18169   1.751   4.661  13.947 -0.0453 -0.2942  0.2181
 2236SOL    HW118170   1.700   4.699  13.877 -0.3549 -0.4368  0.3652
 2236SOL    HW218171   1.829   4.716  13.954 -0.1917 -0.0410 -0.2029
 2237SOL     OW18172   0.188   4.638   4.310  0.2972 -0.0399  0.2654
 2237SOL    HW118173   0.274   4.611   4.344  0.5702  0.1128 -0.3033
 2237SOL    HW218174   0.165   4.704   4.374 -0.1181  0.5426 -0.4934
 2238SOL     OW18175   0.811   3.556   3.333 -0.0818  0.1590 -0.2673
 2238SOL    HW118176   0.841   3.611   3.260  1.9263  0.7821  1.0250
 2238SOL    HW218177   0.886   3.536   3.389 -0.3927  1.4501  0.6059
 2239SOL     OW18178   1.180   3.835   4.045  0.1812 -0.1064  0.4840
 2239SOL    HW118179   1.271   3.844   4.020  0.2037 -1.7545 -0.0201
 2239SOL    HW218180   1.153   3.927   4.036  0.3883 -0.1182 -0.2395
 2240SOL     OW18181   2.699   2.174   4.295 -0.0352 -0.3732  0.6267
 2240SOL    HW118182   2.783   2.210   4.322 -0.0281  0.2775 -0.2651
 2240SOL    HW218183   2.646   2.221   4.360  2.0905 -0.0791  2.1257
 2241SOL     OW18184   2.625   3.993   6.749  0.0363 -0.3161  0.1698
 2241SOL    HW118185   2.624   3.991   6.653  1.0755  2.7854  0.0754
 2241SOL    HW218186   2.715   4.011   6.777 -0.0661 -0.5133  0.6302
 2242SOL     OW18187   0.561   1.982   8.360  0.2930 -0.0922  0.5310
 2242SOL    HW118188   0.646   2.017   8.386  0.5559  0.3991 -0.9699
 2242SOL    HW218189   0.592   1.904   8.313  0.2417  0.8427 -1.0594
 2243SOL     OW18190   3.700   4.382   0.783 -0.6140 -0.1356 -0.1798
 2243SOL    HW118191   3.674   4.328   0.857 -0.5716 -2.6724 -2.0117
 2243SOL    HW218192   3.754   4.444   0.832  0.1404 -0.3154 -0.7702
 2244SOL     OW18193   4.209   1.550   6.451  0.8770 -0.1343 -0.0197
 2244SOL    HW118194   4.164   1.561   6.368  0.9109  1.9837  0.2626
 2244SOL    HW218195   4.196   1.639   6.482 -2.3034  0.6053 -3.5643
 2245SOL     OW18196   3.935   2.348   6.579 -0.2723  0.5747  0.0365
 2245SOL    HW118197   3.925   2.394   6.496 -4.2757  0.3635  0.3555
 2245SOL    HW218198   4.025   2.370   6.603 -0.4466  1.3073  0.0340
 2246SOL     OW18199   1.497   1.672  12.624  0.7596  0.1963  0.3707
 2246SOL    HW118200   1.509   1.760  12.659  0.9712 -1.0147  3.2877
 2246SOL    HW218201   1.580   1.626  12.610 -0.8367 -2.2832 -0.9563
 2247SOL     OW18202   4.380   2.203   2.813 -0.5232 -0.0709 -0.2862
 2247SOL    HW118203   4.472   2.216   2.832 -0.8410  0.2084  1.0470
 2247SOL    HW218204   4.385   2.142   2.739 -0.8019 -0.7692  0.2729
 2248SOL     OW18205   3.695   0.461   3.718  0.7305 -0.0832  0.4252
 2248SOL    HW118206   3.700   0.422   3.805  0.2661  2.3856  1.5332
 2248SOL    HW218207   3.781   0.500   3.706  0.0619  1.5492  1.0568
 2249SOL     OW18208   3.379   0.264   1.631  0.2269 -0.3412 -0.0145
 2249SOL    HW118209   3.305   0.229   1.682  1.2365  2.8063  3.6038
 2249SOL    HW218210   3.409   0.187   1.584 -1.2767  0.0200 -1.5488
 2250SOL     OW18211   4.476   1.812   5.067  0.2621 -0.6885  0.2434
 2250SOL    HW118212   4.448   1.777   5.152 -0.6075 -1.4760 -0.3698
 2250SOL    HW218213   4.486   1.901   5.101 -1.6279 -0.7956  1.1078
 2251SOL     OW18214   1.416   1.433   9.408  0.0272  0.0548 -0.2325
 2251SOL    HW118215   1.402   1.527   9.416  1.1026  0.3628 -2.0543
 2251SOL    HW218216   1.326   1.403   9.423  0.7754 -0.5327  3.1249
 2252SOL     OW18217   3.808   3.569  16.222  0.1495 -0.0776  0.5804
 2252SOL    HW118218   3.820   3.572  16.317 -1.0021  1.9881  0.6881
 2252SOL    HW218219   3.832   3.478  16.209  2.2914  0.5014  0.3747
 2253SOL     OW18220   0.009   1.769   6.318  0.0584  0.3941 -0.0266
 2253SOL    HW118221   4.706   1.858   6.290  1.6263  0.2680 -1.8147
 2253SOL    HW218222   4.708   1.768   6.411  2.5330  0.2061  0.5865
 2254SOL     OW18223   0.488   4.036   6.346 -0.4653  0.3641  0.0156
 2254SOL    HW118224   0.582   4.019   6.354  0.0733  3.2016 -0.1710
 2254SOL    HW218225   0.455   3.961   6.297  3.1481 -0.6267 -0.9009
 2255SOL     OW18226   2.451   1.813  10.219  0.3607 -0.0705 -0.7797
 2255SOL    HW118227   2.462   1.815  10.314  1.9015 -0.3499 -0.9461
 2255SOL    HW218228   2.504   1.736  10.203 -1.0455 -1.0484 -0.7163
 2256SOL     OW18229   4.530   1.655   6.711  0.1556 -0.0946  0.0764
 2256SOL    HW118230   4.597   1.723   6.706  0.6077 -0.5419  0.0983
 2256SOL    HW218231   4.583   1.587   6.752  2.4113  1.8576  0.4005
 2257SOL     OW18232   4.615   3.697  16.778  0.6089 -0.3478 -0.1801
 2257SOL    HW118233   4.609   3.777  16.829 -0.4220  0.2626 -1.2421
 2257SOL    HW218234   4.577   3.630  16.835  1.8744  0.1732  1.2711
 2258SOL     OW18235   4.660   3.223   3.831  0.2821  0.0255  0.5558
 2258SOL    HW118236   4.718   3.298   3.833 -0.5904  0.7732 -1.6328
 2258SOL    HW218237   4.600   3.240   3.903 -0.9609  3.2569 -1.2276
 2259SOL     OW18238   1.615   4.425   2.364  0.0430 -0.1413  0.3608
 2259SOL    HW118239   1.656   4.341   2.385  1.0791  0.4240  0.6276
 2259SOL    HW218240   1.540   4.405   2.309  1.9855  1.4850 -2.8489
 2260SOL     OW18241   3.683   0.419   5.462  0.7935  0.5575  0.5198
 2260SOL    HW118242   3.671   0.326   5.439 -2.2165  1.2249 -0.5332
 2260SOL    HW218243   3.666   0.403   5.555 -0.1361  0.9428  0.4159
 2261SOL     OW18244   4.688   0.037   2.781 -0.1155  0.4708 -0.4529
 2261SOL    HW118245   4.648   4.687   2.830 -0.6035 -0.2809 -1.9346
 2261SOL    HW218246   0.019   0.078   2.849 -1.1411  1.2099 -0.1056
 2262SOL     OW18247   1.974   0.064  15.764 -0.0339 -0.6366 -0.3575
 2262SOL    HW118248   1.949   0.147  15.725  1.5367  0.0398  0.0910
 2262SOL    HW218249   1.961   0.002  15.692  1.2073 -1.7124  0.3381
 2263SOL     OW18250   2.706   1.768  13.072  0.0959  0.3916 -0.1975
 2263SOL    HW118251   2.740   1.823  13.143  2.0900 -0.6052 -0.3819
 2263SOL    HW218252   2.666   1.833  13.013 -1.0679 -0.1873 -0.0398
 2264SOL     OW18253   2.848   3.243   6.403  0.6382  0.0872  1.1140
 2264SOL    HW118254   2.876   3.303   6.473 -1.1906  2.0847  0.1074
 2264SOL    HW218255   2.891   3.166   6.442  3.1065  0.4934 -0.7643
 2265SOL     OW18256   3.020   3.113   2.356 -0.3051 -0.1453 -0.0858
 2265SOL    HW118257   2.963   3.190   2.353 -0.5174 -0.3189 -0.5356
 2265SOL    HW218258   2.983   3.053   2.291  1.3533 -0.5645 -0.6500
 2266SOL     OW18259   2.554   3.231   3.925 -0.0919  0.3226 -0.1013
 2266SOL    HW118260   2.605   3.307   3.897 -1.6944  0.8145 -1.6811
 2266SOL    HW218261   2.622   3.189   3.979  0.3661  1.5751  0.2848
 2267SOL     OW18262   2.003   1.865   3.099 -0.2287 -0.0492 -0.0195
 2267SOL    HW118263   1.981   1.771   3.100 -1.7753  0.3123 -0.3517
 2267SOL    HW218264   2.080   1.866   3.043 -1.2685  1.1478 -1.4280
 2268SOL     OW18265   0.758   4.005   6.428  0.7507  0.2143  0.3219
 2268SOL    HW118266   0.769   3.918   6.391  0.8862  0.5500 -0.4272
 2268SOL    HW218267   0.845   4.031   6.456  0.5664  0.3504  0.7816
 2269SOL     OW18268   0.247   2.546   3.050  0.1566  0.6984  0.1254
 2269SOL    HW118269   0.229   2.639   3.056 -0.7446  0.1775  5.4691
 2269SOL    HW218270   0.282   2.540   2.961 -0.3855 -2.8686  0.1531
 2270SOL     OW18271   0.014   1.529   2.016 -0.4260  0.2777  0.4800
 2270SOL    HW118272   4.683   1.604   2.044 -1.7176 -0.1158 -0.9264
 2270SOL    HW218273   0.100   1.570   2.007  0.3736 -1.9208 -1.7188
 2271SOL     OW18274   2.437   3.174   0.129  0.0302 -0.2747 -0.0209
 2271SOL    HW118275   2.414   3.121   0.054 -1.5104 -2.1540  1.7991
 2271SOL    HW218276   2.354   3.166   0.176 -1.2596  0.6245 -2.1319
 2272SOL     OW18277   3.198   0.639   4.400 -0.0611 -0.5027  0.0217
 2272SOL    HW118278   3.280   0.598   4.429 -0.9879 -1.8530  0.6972
 2272SOL    HW218279   3.141   0.563   4.395 -1.0350  0.0910  1.9142
 2273SOL     OW18280   2.949   0.334   6.274  0.1691  0.1683  0.3728
 2273SOL    HW118281   2.857   0.360   6.276  0.8694  2.4440  2.4620
 2273SOL    HW218282   2.956   0.265   6.340  1.8109  1.0796  1.1478
 2274SOL     OW18283   3.974   1.161   1.867 -0.4872  0.3003 -0.2754
 2274SOL    HW118284   4.042   1.207   1.915  1.4611  0.8175 -3.5689
 2274SOL    HW218285   3.908   1.222   1.833  0.9233  2.2419  0.4713
 2275SOL     OW18286   0.408   0.558  12.854 -0.4763  0.6413 -1.1430
 2275SOL    HW118287   0.404   0.480  12.798 -0.0471  0.1039 -0.4311
 2275SOL    HW218288   0.324   0.549  12.900 -1.3109  2.6234 -2.2900
 2276SOL     OW18289   1.238   1.156   2.791  0.2586  0.9031  0.1298
 2276SOL    HW118290   1.288   1.076   2.777 -1.0212  0.0996  0.2162
 2276SOL    HW218291   1.257   1.206   2.711 -2.3060  4.0848  1.5240
 2277SOL     OW18292   2.585   2.294   2.438  0.0814  0.1474 -0.3053
 2277SOL    HW118293   2.586   2.287   2.533 -2.0959  0.1965 -0.2773
 2277SOL    HW218294   2.658   2.246   2.399  0.5498  2.0678 -1.7988
 2278SOL     OW18295   3.890   4.118   5.515 -0.0260 -0.0707  0.1487
 2278SOL    HW118296   3.799   4.097   5.493 -0.1439  1.1100 -0.4501
 2278SOL    HW218297   3.891   4.117   5.611 -2.7285  2.2840  0.1953
 2279SOL     OW18298   0.464   0.048   9.967  0.0277  0.6597  0.2272
 2279SOL    HW118299   0.531   0.106  10.005  2.0760 -0.8461 -1.0958
 2279SOL    HW218300   0.425   0.109   9.905 -0.5873 -2.2618 -2.2337
 2280SOL     OW18301   2.812   3.460  11.774 -0.0240 -0.0558 -0.1130
 2280SOL    HW118302   2.836   3.401  11.846  0.8653  1.7124  1.0365
 2280SOL    HW218303   2.859   3.420  11.701 -0.6207  0.2093 -0.6454
 2281SOL     OW18304   2.880   3.653   6.798 -0.3697  0.2976 -0.0247
 2281SOL    HW118305   2.895   3.714   6.726  0.1282 -1.9265 -1.7981
 2281SOL    HW218306   2.902   3.704   6.875  2.3757 -0.6286 -0.1870
 2282SOL     OW18307   4.378   0.387  15.956 -0.6858  0.1859 -0.0112
 2282SOL    HW118308   4.347   0.426  15.874  0.2022  0.1596 -0.3629
 2282SOL    HW218309   4.431   0.459  15.988  0.6760 -0.1432 -1.4769
 2283SOL     OW18310   2.579   1.975   3.526 -0.2841 -0.1449 -0.0616
 2283SOL    HW118311   2.590   2.001   3.618 -0.9696  0.0255 -0.0301
 2283SOL    HW218312   2.508   2.034   3.502 -0.6895 -0.6388 -0.0688
 2284SOL     OW18313   0.237   3.732   5.394  0.1793  0.2759  0.0065
 2284SOL    HW118314   0.213   3.775   5.476 -1.0235 -0.2418 -0.0755
 2284SOL    HW218315   0.178   3.764   5.326  1.6792  1.9089 -0.5397
 2285SOL     OW18316   0.810   3.863   4.133  0.8703 -0.0086  0.4192
 2285SOL    HW118317   0.820   3.919   4.056  0.4825 -0.3061  0.1531
 2285SOL    HW218318   0.812   3.774   4.100 -0.5785  0.0507  0.1653
 2286SOL     OW18319   2.107   0.175  16.407 -0.2643 -0.3811  0.7638
 2286SOL    HW118320   2.068   0.260  16.385  2.0674  0.9167  1.6314
 2286SOL    HW218321   2.140   0.142  16.324  0.0991  2.3997 -0.1946
 2287SOL     OW18322   2.984   2.844  17.475  0.0987  0.3852 -0.5226
 2287SOL    HW118323   3.010   2.924  17.521  0.8874 -0.4119  0.4137
 2287SOL    HW218324   2.914   2.813  17.533 -0.3487 -1.3453 -1.9814
 2288SOL     OW18325   3.291   3.342   3.565  0.5205 -0.6913  0.4203
 2288SOL    HW118326   3.302   3.431   3.531  0.2849 -0.6641  0.4146
 2288SOL    HW218327   3.372   3.331   3.615  1.2379  1.1123 -0.3260
 2289SOL     OW18328   2.437   4.187   6.781  0.4097 -0.2241 -0.1218
 2289SOL    HW118329   2.506   4.126   6.753 -0.4416 -0.2987 -2.0517
 2289SOL    HW218330   2.394   4.137   6.850  0.3125 -0.7300 -0.5526
 2290SOL     OW18331   0.180   2.186   3.249 -0.4459  0.2854  0.3079
 2290SOL    HW118332   0.248   2.239   3.290  1.7827 -0.5002 -2.4444
 2290SOL    HW218333   0.137   2.149   3.327 -0.0603 -0.9858 -0.0735
 2291SOL     OW18334   0.264   3.379  17.052 -0.5519  0.1033 -0.0050
 2291SOL    HW118335   0.271   3.430  16.971  0.2246 -0.2586 -0.1753
 2291SOL    HW218336   0.317   3.303  17.026  1.4448  1.8886 -1.2205
 2292SOL     OW18337   0.278   2.542   0.195 -0.2428 -0.4669 -0.0369
 2292SOL    HW118338   0.255   2.530   0.103 -0.8453 -0.4434  0.1078
 2292SOL    HW218339   0.324   2.461   0.217  0.9146  0.0574 -0.5552
 2293SOL     OW18340   0.399   0.868  12.580 -0.4882 -0.1532  0.6641
 2293SOL    HW118341   0.423   0.873  12.488 -1.2253  4.5629  0.7296
 2293SOL    HW218342   0.400   0.958  12.611 -2.8511  0.0315  0.1620
 2294SOL     OW18343   1.720   0.826   2.137  0.2288  0.5964  0.1475
 2294SOL    HW118344   1.794   0.767   2.146  1.0910  1.5443 -0.7990
 2294SOL    HW218345   1.759   0.898   2.087  0.7215 -0.5184 -1.0882
 2295SOL     OW18346   4.183   4.602   0.719  0.1203  0.1126 -0.1823
 2295SOL    HW118347   4.239   4.677   0.734 -0.5269  1.0172 -2.3336
 2295SOL    HW218348   4.102   4.645   0.692 -0.3745 -0.0728  1.0303
 2296SOL     OW18349   2.873   0.028   0.996  0.1207 -0.1344  0.2594
 2296SOL    HW118350   2.806   0.000   0.934  2.3740 -1.4641 -1.5634
 2296SOL    HW218351   2.920   0.102   0.958 -0.8361  0.3291 -0.0195
 2297SOL     OW18352   2.447   0.749   2.587 -0.0787  0.1312  0.1638
 2297SOL    HW118353   2.353   0.763   2.597  0.0412 -0.2402  1.6864
 2297SOL    HW218354   2.480   0.823   2.535 -0.5454 -1.3827 -2.3010
 2298SOL     OW18355   4.638   1.506   4.207 -0.4798 -0.3744 -0.1648
 2298SOL    HW118356   4.576   1.434   4.193 -1.0668 -0.1761  1.3637
 2298SOL    HW218357   4.618   1.531   4.297  0.2923 -0.4603  0.0239
 2299SOL     OW18358   2.325   0.813   3.830  0.0304  0.3815 -0.6096
 2299SOL    HW118359   2.232   0.790   3.827 -0.2532  1.3619  0.9577
 2299SOL    HW218360   2.350   0.777   3.914  0.3420  1.9198 -0.0348
 2300SOL     OW18361   3.039   1.994   7.406  0.1293 -0.1609  0.3260
 2300SOL    HW118362   2.953   1.959   7.430  0.2342 -0.2285  0.6068
 2300SOL    HW218363   3.089   1.954   7.477 -1.1913 -1.2261  0.6765
 2301SOL     OW18364   1.193   0.421   4.783 -0.0225 -0.4973 -0.6459
 2301SOL    HW118365   1.242   0.502   4.797 -1.4853  0.6439 -2.2560
 2301SOL    HW218366   1.199   0.422   4.688 -1.7304  0.5643 -0.7340
 2302SOL     OW18367   2.857   3.585   4.251  0.7720  0.0629  0.3824
 2302SOL    HW118368   2.903   3.549   4.327 -2.8635 -1.0220  2.0700
 2302SOL    HW218369   2.786   3.522   4.237 -0.2578  1.3003  0.0668
 2303SOL     OW18370   1.073   4.308   8.873  0.2639 -0.7376  0.3826
 2303SOL    HW118371   1.156   4.270   8.902  0.4251 -0.7700 -0.1223
 2303SOL    HW218372   1.099   4.336   8.785  1.7270 -1.8389  0.4745
 2304SOL     OW18373   2.231   2.170   0.203  0.0694  0.1255  0.1676
 2304SOL    HW118374   2.320   2.153   0.171  0.0413 -2.3216  1.3651
 2304SOL    HW218375   2.214   2.080   0.232  1.3711  0.1714  1.1013
 2305SOL     OW18376   0.392   2.704   0.445 -0.0439 -0.7530 -0.2511
 2305SOL    HW118377   0.382   2.723   0.352  1.3935  1.9445  0.1359
 2305SOL    HW218378   0.474   2.750   0.465 -0.6347 -0.4320  1.4132
 2306SOL     OW18379   2.154   3.770  15.125 -0.1500 -0.0793  0.0762
 2306SOL    HW118380   2.122   3.686  15.159  1.3208  0.2008  2.1510
 2306SOL    HW218381   2.078   3.791  15.071 -1.6693 -1.6476  1.5820
 2307SOL     OW18382   2.890   2.312  13.759 -0.1387 -0.4760 -0.3222
 2307SOL    HW118383   2.847   2.324  13.844 -0.8918 -2.4230 -0.4362
 2307SOL    HW218384   2.950   2.240  13.776 -1.1083 -1.2901 -0.3622
 2308SOL     OW18385   0.069   4.395  10.668 -0.0289 -0.0216  0.2837
 2308SOL    HW118386   0.164   4.389  10.656  0.0044 -2.3692  1.5818
 2308SOL    HW218387   0.040   4.304  10.681 -0.6420  0.3369  1.3873
 2309SOL     OW18388   3.982   2.842  12.974 -0.5986 -0.4959  0.3864
 2309SOL    HW118389   4.065   2.805  13.003  0.9395  0.5663 -2.6495
 2309SOL    HW218390   3.941   2.761  12.944  0.9329 -1.4608  0.9214
 2310SOL     OW18391   2.133   0.796   8.171 -0.1296 -0.1900 -0.7986
 2310SOL    HW118392   2.062   0.810   8.234  1.6936  2.5362  0.6482
 2310SOL    HW218393   2.205   0.848   8.208 -2.4731  4.5079 -2.8048
 2311SOL     OW18394   3.281   1.483   9.259 -0.0863  0.2935 -0.3940
 2311SOL    HW118395   3.229   1.559   9.236  0.4236  1.0946  1.1133
 2311SOL    HW218396   3.276   1.435   9.176 -0.5543 -1.7361  0.8021
 2312SOL     OW18397   1.564   4.642   1.263  0.7191  0.7025 -0.2616
 2312SOL    HW118398   1.518   4.664   1.344  3.1880  2.8863  0.5726
 2312SOL    HW218399   1.583   4.552   1.287 -2.0496  0.4292  0.8383
 2313SOL     OW18400   3.607   1.199   1.597  0.0422 -0.0490 -0.6440
 2313SOL    HW118401   3.613   1.257   1.521 -1.1924  0.2789 -0.4959
 2313SOL    HW218402   3.519   1.173   1.571 -0.5881  1.8447 -0.4076
 2314SOL     OW18403   4.675   1.109  14.602  0.1198 -0.2326  0.4635
 2314SOL    HW118404   0.044   1.103  14.573  0.6602  1.5648  1.8062
 2314SOL    HW218405   4.688   1.178  14.667  1.9936  0.4804 -0.6780
 2315SOL     OW18406   3.779   2.208  11.725  0.0147  0.2233  0.5683
 2315SOL    HW118407   3.844   2.196  11.794  1.5244  1.8453 -0.5493
 2315SOL    HW218408   3.706   2.171  11.773 -1.1120  0.1939 -1.1700
 2316SOL     OW18409   4.158   1.687  13.541 -0.0332 -0.1007 -0.2296
 2316SOL    HW118410   4.189   1.665  13.629  1.6771  1.1026 -0.5309
 2316SOL    HW218411   4.231   1.652  13.489  0.1758 -1.6776  1.1159
 2317SOL     OW18412   1.474   3.761   7.121  0.0330 -0.9233  0.0434
 2317SOL    HW118413   1.516   3.694   7.175  2.0409 -1.3564 -2.0539
 2317SOL    HW218414   1.462   3.828   7.188 -2.5998 -0.7857 -0.5758
 2318SOL     OW18415   2.855   1.647   8.138 -0.3177 -0.5170 -0.0224
 2318SOL    HW118416   2.914   1.709   8.180  1.1143 -1.0043 -1.3156
 2318SOL    HW218417   2.894   1.565   8.166  0.1263  0.0011  0.8676
 2319SOL     OW18418   1.428   2.776   6.313 -0.2672 -0.5362  0.1107
 2319SOL    HW118419   1.343   2.739   6.339 -1.3249 -0.4003 -3.1735
 2319SOL    HW218420   1.469   2.693   6.288 -0.8886 -0.8877  0.2629
 2320SOL     OW18421   2.470   0.645   3.034 -0.0785 -0.0691  0.1545
 2320SOL    HW118422   2.481   0.740   3.047 -0.7058  0.2078 -1.3232
 2320SOL    HW218423   2.505   0.627   2.947 -0.1755  0.0859  0.0823
 2321SOL     OW18424   0.895   1.318   3.993  0.2015  0.9339  0.4887
 2321SOL    HW118425   0.850   1.369   3.926 -0.1999 -0.4031 -0.2611
 2321SOL    HW218426   0.882   1.224   3.981 -0.9900  1.0494  0.9105
 2322SOL     OW18427   2.113   0.296   9.405  0.0581  0.6486 -0.2904
 2322SOL    HW118428   2.077   0.260   9.486 -0.6229 -0.6949 -1.1874
 2322SOL    HW218429   2.136   0.387   9.424  0.6487  0.5111 -0.3726
 2323SOL     OW18430   3.828   0.654   3.949 -0.0618 -0.1535  0.3613
 2323SOL    HW118431   3.751   0.689   3.906 -0.8843  0.7946  2.6247
 2323SOL    HW218432   3.782   0.633   4.030  0.7183 -0.6625  0.6774
 2324SOL     OW18433   2.778   3.726   9.106  0.3167  0.1708 -0.5266
 2324SOL    HW118434   2.792   3.684   9.021  1.1753 -0.1651 -0.2244
 2324SOL    HW218435   2.764   3.644   9.155  2.5727 -0.0326 -0.2076
 2325SOL     OW18436   1.858   0.499   3.547 -0.3150  0.4179 -0.0595
 2325SOL    HW118437   1.781   0.544   3.513 -1.8915 -0.8417  1.8973
 2325SOL    HW218438   1.920   0.518   3.476  1.3338  1.5576  1.6954
 2326SOL     OW18439   3.056   3.582   7.469  0.7395  0.0742 -0.1621
 2326SOL    HW118440   3.096   3.551   7.388 -1.5157 -1.8346 -0.5527
 2326SOL    HW218441   3.021   3.497   7.497  0.3819  0.4262  0.4451
 2327SOL     OW18442   2.609   1.958   3.087  0.0080  0.4353  0.1360
 2327SOL    HW118443   2.545   1.915   3.145 -0.5355 -0.0165 -0.8085
 2327SOL    HW218444   2.606   1.909   3.005 -1.6120  1.1104 -0.2140
 2328SOL     OW18445   2.867   4.236   3.769 -0.6356  0.1836  0.0555
 2328SOL    HW118446   2.820   4.185   3.835 -0.4604  0.2207  0.2105
 2328SOL    HW218447   2.873   4.311   3.829  1.4643 -1.4552  1.8719
 2329SOL     OW18448   4.484   3.618   9.246 -0.1578  0.5197 -0.3256
 2329SOL    HW118449   4.429   3.622   9.325 -0.4310  2.3416 -0.6159
 2329SOL    HW218450   4.468   3.701   9.201  1.2264  0.1272 -1.5297
 2330SOL     OW18451   1.700   1.504   8.712 -0.5971 -0.2625  0.7279
 2330SOL    HW118452   1.621   1.477   8.663 -1.4210  1.1229  1.3088
 2330SOL    HW218453   1.750   1.423   8.713 -2.6104 -1.5135  0.8617
 2331SOL     OW18454   2.226   4.057  15.158  0.5377  0.2018 -0.3121
 2331SOL    HW118455   2.268   3.987  15.108  0.3859 -1.7604  2.2729
 2331SOL    HW218456   2.203   4.124  15.095  1.7273  0.7479 -0.1624
 2332SOL     OW18457   0.520   3.163   0.198 -0.1195 -0.2329  0.6841
 2332SOL    HW118458   0.488   3.152   0.108 -4.7854 -0.7418  2.4123
 2332SOL    HW218459   0.597   3.212   0.169  0.3748 -0.3710  1.7673
 2333SOL     OW18460   0.009   3.147   4.666 -0.2858  0.1711 -0.6662
 2333SOL    HW118461   4.667   3.203   4.709  1.4942  3.3138 -2.1264
 2333SOL    HW218462   4.712   3.061   4.705  0.9184  0.3970  0.4368
 2334SOL     OW18463   2.052   1.074   7.870 -0.0826 -1.0773 -0.2285
 2334SOL    HW118464   2.060   0.990   7.825 -0.4687 -1.5311  0.5512
 2334SOL    HW218465   2.141   1.108   7.865 -0.4796  0.2800  2.1242
 2335SOL     OW18466   0.118   2.803   4.532 -0.1959 -0.0779 -0.5151
 2335SOL    HW118467   0.031   2.837   4.550 -0.8095 -0.3191 -3.0207
 2335SOL    HW218468   0.097   2.729   4.474 -1.9555  0.0675 -0.0431
 2336SOL     OW18469   4.605   3.545   8.354  0.1534  0.0216  0.0507
 2336SOL    HW118470   4.542   3.533   8.283  1.5408  1.4506 -1.3966
 2336SOL    HW218471   4.662   3.607   8.309 -1.3475  1.0346 -0.4515
 2337SOL     OW18472   0.570   3.523   4.876 -0.2730 -0.0507 -0.3975
 2337SOL    HW118473   0.640   3.570   4.921  0.1274 -1.3879  0.3704
 2337SOL    HW218474   0.508   3.595   4.862 -2.1313 -1.7263 -0.9032
 2338SOL     OW18475   1.768   1.890   6.023  0.0196  0.0670 -0.0907
 2338SOL    HW118476   1.823   1.812   6.016 -0.5241 -0.2451 -0.8940
 2338SOL    HW218477   1.803   1.930   6.103 -0.5163  0.3442  0.0078
 2339SOL     OW18478   2.504   1.397   5.449  0.1832 -0.2449  0.2355
 2339SOL    HW118479   2.516   1.486   5.416  0.3916 -0.6053 -0.6533
 2339SOL    HW218480   2.481   1.365   5.362 -1.3653 -1.1006  0.9574
 2340SOL     OW18481   0.083   0.614   8.758  0.3544  0.7811  0.2459
 2340SOL    HW118482   0.134   0.695   8.762  2.9101 -0.7750 -0.7809
 2340SOL    HW218483   0.008   0.641   8.705  0.7202  0.7842 -0.2688
 2341SOL     OW18484   3.238   2.246   6.942 -0.5871  0.5136 -0.0637
 2341SOL    HW118485   3.263   2.161   6.906  0.0895  0.2152  1.0917
 2341SOL    HW218486   3.167   2.217   6.999  0.9018 -0.4744  1.2933
 2342SOL     OW18487   2.646   1.689   7.942  0.0776  0.0937  0.1303
 2342SOL    HW118488   2.676   1.691   7.851 -1.2056  0.5296 -0.2824
 2342SOL    HW218489   2.708   1.633   7.988 -2.0606 -1.3843  1.2054
 2343SOL     OW18490   2.327   2.742   7.792  0.3022  0.8291 -0.1911
 2343SOL    HW118491   2.403   2.795   7.767  1.2450 -0.6321 -0.4097
 2343SOL    HW218492   2.274   2.804   7.843 -0.3918  0.0829 -0.0160
 2344SOL     OW18493   2.357   0.200   1.228  0.0263 -0.2931  0.4352
 2344SOL    HW118494   2.292   0.245   1.282  0.0589  2.4363 -1.8265
 2344SOL    HW218495   2.323   0.111   1.230  2.0323 -1.0447  1.7269
 2345SOL     OW18496   4.643   2.508  13.896 -0.3020  0.0970 -0.0573
 2345SOL    HW118497   4.590   2.581  13.931  0.4197  0.6734 -0.1707
 2345SOL    HW218498   4.629   2.519  13.802 -0.1416 -0.2342 -0.1171
 2346SOL     OW18499   3.975   0.326   3.568  0.4166 -0.0193 -1.0096
 2346SOL    HW118500   4.067   0.339   3.546  0.6900 -2.9721 -1.5859
 2346SOL    HW218501   3.946   0.415   3.589  1.3433  0.2644 -0.9599
 2347SOL     OW18502   1.993   0.426  16.656 -0.4756 -0.3706 -0.6652
 2347SOL    HW118503   1.939   0.489  16.704 -1.1241 -0.1726 -1.6589
 2347SOL    HW218504   2.070   0.480  16.636 -0.3150  0.0742  1.1579
 2348SOL     OW18505   1.482   3.753   3.646  0.0508  0.0895 -0.2291
 2348SOL    HW118506   1.555   3.746   3.708 -0.7547 -0.8204  0.6223
 2348SOL    HW218507   1.422   3.814   3.688  1.1640 -0.7615  2.6172
 2349SOL     OW18508   0.252   0.480  14.244  0.0820 -0.0737  0.7912
 2349SOL    HW118509   0.204   0.465  14.326 -0.2249  0.2473  0.6690
 2349SOL    HW218510   0.203   0.552  14.205 -0.8109  0.1122  2.2442
 2350SOL     OW18511   1.460   3.635  14.537 -0.0899  0.3202 -0.5896
 2350SOL    HW118512   1.441   3.612  14.628 -2.3160  2.5084 -0.5148
 2350SOL    HW218513   1.536   3.581  14.515 -0.8836  0.5037 -3.7907
 2351SOL     OW18514   2.191   3.264  10.680  0.2916  0.0985  0.4014
 2351SOL    HW118515   2.283   3.280  10.661 -0.1705 -0.3494 -2.1326
 2351SOL    HW218516   2.175   3.188  10.624 -0.8313  0.3898  0.3186
 2352SOL     OW18517   0.447   3.171   5.071 -0.6398 -0.1467 -0.0997
 2352SOL    HW118518   0.515   3.193   5.006  0.1076 -0.8570  0.4448
 2352SOL    HW218519   0.446   3.247   5.130  3.5588  1.1964 -1.7116
 2353SOL     OW18520   3.825   4.371   4.746 -0.4512  0.1029 -0.5460
 2353SOL    HW118521   3.876   4.402   4.821 -0.8601 -2.2154  0.6986
 2353SOL    HW218522   3.817   4.448   4.691 -0.2386 -1.2634 -2.4741
 2354SOL     OW18523   4.480   0.271   4.409 -0.6380  0.4387 -0.5583
 2354SOL    HW118524   4.548   0.295   4.346 -1.0451 -0.9545 -1.5147
 2354SOL    HW218525   4.404   0.288   4.353 -2.7553 -1.2558  1.8202
 2355SOL     OW18526   4.360   3.989   8.268  0.7203 -0.1743  0.1871
 2355SOL    HW118527   4.373   4.013   8.359 -0.2116  3.8737 -0.7451
 2355SOL    HW218528   4.318   4.067   8.231 -1.2778 -1.8835 -1.2097
 2356SOL     OW18529   2.395   4.662   8.101  0.4642 -0.3886 -0.0585
 2356SOL    HW118530   2.409   4.718   8.024 -0.3262  1.0094  0.8140
 2356SOL    HW218531   2.477   4.663   8.151 -0.1355  1.6759  0.9175
 2357SOL     OW18532   1.607   2.718   1.039  0.2903 -0.0088  0.2366
 2357SOL    HW118533   1.630   2.702   1.130 -1.2529  0.3573  0.6890
 2357SOL    HW218534   1.606   2.625   1.013 -0.1657 -0.3894  1.6400
 2358SOL     OW18535   1.176   2.222   8.059 -0.1411 -0.1284  0.0699
 2358SOL    HW118536   1.182   2.226   7.964 -2.1678 -2.3280 -0.1413
 2358SOL    HW218537   1.216   2.136   8.070 -0.2897 -0.3101 -0.8762
 2359SOL     OW18538   2.285   0.916   9.152  0.1734  0.3888  0.0431
 2359SOL    HW118539   2.303   0.929   9.059  0.5072 -0.0356  0.0448
 2359SOL    HW218540   2.331   0.834   9.169 -0.2341  0.0864 -0.3317
 2360SOL     OW18541   1.076   1.516   4.943 -0.2915  0.3523  0.0465
 2360SOL    HW118542   1.072   1.574   4.868  1.1620 -2.5702 -2.2732
 2360SOL    HW218543   1.144   1.450   4.925 -1.7187 -0.2502 -3.0797
 2361SOL     OW18544   1.083   1.207  16.685 -0.1388 -0.4242  0.7615
 2361SOL    HW118545   1.047   1.157  16.758  1.0746 -0.1884  1.5181
 2361SOL    HW218546   1.054   1.149  16.614 -0.6273  0.6020  0.1108
 2362SOL     OW18547   0.618   3.693   9.777 -0.3295  0.5264  0.6897
 2362SOL    HW118548   0.684   3.630   9.809 -1.5219 -1.1066 -0.0469
 2362SOL    HW218549   0.612   3.671   9.684 -1.0568  1.2970  0.5619
 2363SOL     OW18550   3.421   1.181   0.076  0.5590 -0.0731 -0.3469
 2363SOL    HW118551   3.397   1.252   0.016 -2.9997 -1.4848 -0.6022
 2363SOL    HW218552   3.348   1.119   0.073  0.3604  0.0328  2.3031
 2364SOL     OW18553   4.379   2.897   2.854  0.2967 -0.3615  0.1409
 2364SOL    HW118554   4.472   2.888   2.835  0.4360 -1.5119  1.3549
 2364SOL    HW218555   4.362   2.949   2.775  0.8977 -0.6822 -0.2000
 2365SOL     OW18556   4.273   2.799   8.483  0.2642  0.3303  0.0641
 2365SOL    HW118557   4.243   2.841   8.564 -1.1664 -0.6382  0.0328
 2365SOL    HW218558   4.197   2.746   8.460 -0.0601  1.3924 -1.2949
 2366SOL     OW18559   2.996   3.496   8.347 -0.0808 -0.0297 -0.1570
 2366SOL    HW118560   2.925   3.537   8.296 -2.2688  1.2950  4.0006
 2366SOL    HW218561   2.997   3.560   8.418  1.5856 -1.4369  1.0486
 2367SOL     OW18562   1.500   2.166   5.366  0.6792 -0.2184 -0.0689
 2367SOL    HW118563   1.535   2.119   5.290  2.1034 -0.7111  0.9027
 2367SOL    HW218564   1.421   2.117   5.391  0.1185 -0.4688 -2.3056
 2368SOL     OW18565   1.104   4.685  10.668  0.1656  0.2633  0.2383
 2368SOL    HW118566   1.165   4.629  10.716  1.4341  0.5070 -1.0867
 2368SOL    HW218567   1.045   4.612  10.649 -0.2179  0.6133  0.0971
 2369SOL     OW18568   2.977   3.162   6.748  0.6578  0.2945  0.1422
 2369SOL    HW118569   2.905   3.099   6.741  1.9131 -1.1324  0.0485
 2369SOL    HW218570   3.053   3.109   6.768  0.7964  0.5841  0.3837
 2370SOL     OW18571   2.145   3.601   8.894  0.0803 -0.0328  0.3909
 2370SOL    HW118572   2.219   3.619   8.835 -0.8744 -1.1570 -1.1422
 2370SOL    HW218573   2.194   3.614   8.975 -0.4240  0.9941  0.5349
 2371SOL     OW18574   1.611   2.871   6.496 -0.5031 -0.1492  0.2495
 2371SOL    HW118575   1.525   2.882   6.455 -0.1767  0.9509 -0.1221
 2371SOL    HW218576   1.672   2.866   6.422 -0.7792  2.3838 -0.1580
 2372SOL     OW18577   4.451   3.719  16.086  0.3847  0.5464 -0.3639
 2372SOL    HW118578   4.416   3.665  16.157 -0.2967  0.9735 -0.3750
 2372SOL    HW218579   4.545   3.709  16.099  0.0953 -0.7674  0.7304
 2373SOL     OW18580   3.953   2.623   8.943 -0.4129  0.5283  0.2159
 2373SOL    HW118581   3.924   2.532   8.940 -0.1454  0.4587 -0.1742
 2373SOL    HW218582   3.897   2.665   8.878 -2.2915  0.2728  1.6690
 2374SOL     OW18583   3.648   1.096  10.624 -0.3716 -0.0786 -0.3884
 2374SOL    HW118584   3.719   1.068  10.567 -0.5970  1.0825 -1.2285
 2374SOL    HW218585   3.658   1.031  10.694 -0.1431 -0.5799 -0.8838
 2375SOL     OW18586   2.493   1.171   3.586 -0.3178 -0.2222 -0.4685
 2375SOL    HW118587   2.582   1.138   3.574 -0.5956 -1.2877  0.4658
 2375SOL    HW218588   2.518   1.255   3.624  0.7556 -0.8787  0.2995
 2376SOL     OW18589   3.738   2.819   9.156  0.0817  0.5092 -0.1683
 2376SOL    HW118590   3.708   2.909   9.168  0.9138  0.6165  1.0671
 2376SOL    HW218591   3.655   2.785   9.121 -0.8719 -0.1710  2.7178
 2377SOL     OW18592   3.290   4.044   4.140 -0.7524  0.8227 -0.2661
 2377SOL    HW118593   3.253   4.133   4.140  3.3386  2.5605  2.3241
 2377SOL    HW218594   3.346   4.052   4.063 -0.7185 -1.2850 -0.4539
 2378SOL     OW18595   0.450   0.322  11.708 -1.0330 -0.2867  0.1214
 2378SOL    HW118596   0.435   0.322  11.803 -3.2072  0.6161 -0.1987
 2378SOL    HW218597   0.360   0.314  11.674  0.3605 -1.8083 -3.1765
 2379SOL     OW18598   1.298   0.881  11.917  0.3086 -0.3998  0.3659
 2379SOL    HW118599   1.230   0.837  11.866 -0.5602  0.1454  1.0658
 2379SOL    HW218600   1.357   0.813  11.950 -0.9182 -0.1762  2.9241
 2380SOL     OW18601   3.631   0.200   7.800  0.6710  0.1425  0.1478
 2380SOL    HW118602   3.619   0.219   7.707 -3.3203 -1.1158  0.4044
 2380SOL    HW218603   3.650   0.107   7.786  0.0741  0.5217 -2.9942
 2381SOL     OW18604   1.015   4.169   1.770  0.5947 -0.2185  0.2150
 2381SOL    HW118605   0.981   4.099   1.715 -2.7385  1.0722  0.6668
 2381SOL    HW218606   0.962   4.245   1.747  2.1332  0.4662 -1.0988
 2382SOL     OW18607   4.197   2.389   5.761  0.0169  0.0652 -0.2862
 2382SOL    HW118608   4.116   2.339   5.769  0.1902 -0.1180  0.3215
 2382SOL    HW218609   4.163   2.462   5.814 -1.6279 -1.4280  0.7060
 2383SOL     OW18610   2.438   0.650   3.638  0.4431  0.1283 -0.0120
 2383SOL    HW118611   2.398   0.691   3.714 -2.0386 -0.2186 -1.1535
 2383SOL    HW218612   2.435   0.723   3.576 -3.9616  0.5015  0.6648
 2384SOL     OW18613   3.646   3.732   2.252 -0.9323 -0.0073 -0.4613
 2384SOL    HW118614   3.728   3.703   2.213 -0.9356 -0.7948  0.1216
 2384SOL    HW218615   3.587   3.726   2.177 -1.3038  0.4160 -0.1989
 2385SOL     OW18616   4.235   3.929   8.941 -0.2396 -0.6942 -0.0566
 2385SOL    HW118617   4.162   3.921   8.879 -0.9559 -1.1795  0.8450
 2385SOL    HW218618   4.227   4.018   8.976 -2.8141 -1.7227  1.9962
 2386SOL     OW18619   1.033   2.983   9.179 -0.4213 -0.8595  0.2914
 2386SOL    HW118620   0.958   3.038   9.204 -0.8305 -0.0101 -2.7930
 2386SOL    HW218621   0.997   2.955   9.095  1.7510 -1.3922 -0.4603
 2387SOL     OW18622   4.419   2.962  10.968 -0.0800 -0.1728 -0.0375
 2387SOL    HW118623   4.463   2.893  11.018 -1.3039 -0.2459  0.9200
 2387SOL    HW218624   4.494   2.993  10.917 -0.2414  2.3696  1.2466
 2388SOL     OW18625   0.836   4.650  11.978 -0.0894 -0.4820  0.4762
 2388SOL    HW118626   0.877   4.717  11.924  1.5781 -0.7043  1.4765
 2388SOL    HW218627   0.749   4.689  11.985 -1.0220 -2.3590 -0.4251
 2389SOL     OW18628   1.779   2.803   6.006 -0.0224 -0.0773  0.6059
 2389SOL    HW118629   1.799   2.759   5.924 -0.2527  0.5514  0.2176
 2389SOL    HW218630   1.789   2.890   5.967  1.3801 -0.3628  0.3515
 2390SOL     OW18631   1.772   4.285   4.251  0.6220  0.3490 -1.0357
 2390SOL    HW118632   1.852   4.268   4.201  1.8014  1.8185  0.3459
 2390SOL    HW218633   1.819   4.304   4.332 -0.9538  2.9802 -0.7334
 2391SOL     OW18634   2.958   3.133   1.775 -0.4646  0.5988 -0.1071
 2391SOL    HW118635   2.900   3.146   1.700  0.4374  1.5354 -0.6483
 2391SOL    HW218636   3.002   3.049   1.762  1.1969  1.5692 -0.7551
 2392SOL     OW18637   3.532   3.909   6.270 -0.1194  0.6061  0.2075
 2392SOL    HW118638   3.461   3.963   6.235  1.2110  0.6005 -2.4789
 2392SOL    HW218639   3.486   3.874   6.347  2.2382 -1.1317  0.8299
 2393SOL     OW18640   2.577   1.308  11.221 -0.1254  0.5905  0.0357
 2393SOL    HW118641   2.591   1.331  11.130 -1.3252 -2.3223 -0.8713
 2393SOL    HW218642   2.639   1.357  11.275  1.3397  2.7163 -3.6305
 2394SOL     OW18643   2.778   1.594   5.602  0.5206 -0.0333 -0.4893
 2394SOL    HW118644   2.791   1.502   5.578  0.3168  0.0612 -0.9554
 2394SOL    HW218645   2.703   1.593   5.662 -0.2926  0.6836 -1.4994
 2395SOL     OW18646   0.786   2.727   8.264  0.2384  0.1754  0.5269
 2395SOL    HW118647   0.837   2.706   8.186 -0.1348  1.5925 -0.1077
 2395SOL    HW218648   0.837   2.803   8.292  1.1369 -0.0902 -0.3982
 2396SOL     OW18649   1.083   4.575  11.829  0.0773  0.4445  0.1517
 2396SOL    HW118650   1.016   4.507  11.826 -1.2785  1.7921 -0.0796
 2396SOL    HW218651   1.030   4.649  11.798  0.8382  0.2502 -1.5893
 2397SOL     OW18652   3.192   2.964   3.096  0.0338  0.0675 -0.7080
 2397SOL    HW118653   3.235   2.879   3.108  0.5913  0.5452  0.6885
 2397SOL    HW218654   3.169   2.947   3.005  0.5224  0.8132 -0.9630
 2398SOL     OW18655   3.111   0.428  15.659  0.1627  0.2572  0.5474
 2398SOL    HW118656   3.025   0.395  15.635  0.8408 -0.4429 -0.8932
 2398SOL    HW218657   3.087   0.484  15.733 -1.2820 -1.6466  1.5227
 2399SOL     OW18658   4.508   3.098   5.107  0.1165  0.1468  0.0325
 2399SOL    HW118659   4.576   3.039   5.074  1.0214 -0.8033  3.6159
 2399SOL    HW218660   4.437   3.035   5.121  1.6539 -1.5773  0.0421
 2400SOL     OW18661   0.619   4.494   1.223 -0.0427 -0.1014  0.0044
 2400SOL    HW118662   0.592   4.415   1.178 -1.9221 -0.5935  1.9434
 2400SOL    HW218663   0.650   4.553   1.154 -0.3069 -1.4873 -1.2933
 2401SOL     OW18664   1.509   3.845   3.382  0.6605 -0.0059  0.3794
 2401SOL    HW118665   1.475   3.817   3.467  0.4669 -0.2664  0.2178
 2401SOL    HW218666   1.519   3.939   3.397  2.4227  0.0032 -0.9475
 2402SOL     OW18667   4.275   1.414   6.066  0.2740 -0.2145  0.2464
 2402SOL    HW118668   4.217   1.378   6.133 -0.9213  1.4715  0.1263
 2402SOL    HW218669   4.346   1.456   6.115 -0.0185  1.5634 -0.8848
 2403SOL     OW18670   2.151   0.603   3.638 -0.0414  0.2132  0.8676
 2403SOL    HW118671   2.203   0.526   3.614 -0.0802 -0.0698  1.6664
 2403SOL    HW218672   2.178   0.665   3.570  0.6171 -0.6353  0.3505
 2404SOL     OW18673   2.839   1.664   3.488  0.2423 -0.2757  0.1174
 2404SOL    HW118674   2.929   1.676   3.458  0.3631 -0.1298  0.5354
 2404SOL    HW218675   2.818   1.574   3.466 -0.3650  0.1188 -0.9296
 2405SOL     OW18676   1.686   0.965   5.142 -0.3382  0.0986 -0.9842
 2405SOL    HW118677   1.671   0.879   5.183  0.1957  1.2376  1.6077
 2405SOL    HW218678   1.606   1.015   5.156 -0.4971 -0.1985 -0.8121
 2406SOL     OW18679   4.716   4.290   7.664  0.3275 -0.5539  0.1491
 2406SOL    HW118680   0.055   4.264   7.733  0.0557 -1.9190 -0.1115
 2406SOL    HW218681   0.012   4.231   7.590  2.2734  2.2780 -1.6419
 2407SOL     OW18682   0.096   1.414   7.411 -0.1466 -0.6459 -0.1621
 2407SOL    HW118683   0.181   1.422   7.455  0.9641  2.3683 -2.7888
 2407SOL    HW218684   0.096   1.324   7.379  0.1266 -0.1487 -1.6016
 2408SOL     OW18685   1.062   0.387   7.158 -0.1927  0.6169 -0.0063
 2408SOL    HW118686   1.030   0.384   7.248 -0.0646  0.8259  0.0472
 2408SOL    HW218687   1.113   0.306   7.156 -1.2270 -0.0368  0.3293
 2409SOL     OW18688   4.653   3.031   5.596  0.0970  0.4512  0.3083
 2409SOL    HW118689   4.655   3.069   5.508  1.7575  0.7271  0.4665
 2409SOL    HW218690   4.560   3.017   5.610 -0.2040  1.4863 -0.6092
 2410SOL     OW18691   1.020   0.507  16.248  0.4526 -0.1041 -0.1990
 2410SOL    HW118692   0.961   0.513  16.324  0.3391 -0.6140 -0.2454
 2410SOL    HW218693   0.960   0.469  16.183 -2.4685  0.8125  1.9331
 2411SOL     OW18694   4.545   2.836   7.415 -0.2215 -0.2361  0.1158
 2411SOL    HW118695   4.574   2.909   7.360  0.0224 -2.1903 -2.3357
 2411SOL    HW218696   4.561   2.768   7.350  2.5331 -0.9398  1.5221
 2412SOL     OW18697   1.858   2.051   3.675  0.0044  0.2108  0.7986
 2412SOL    HW118698   1.789   2.080   3.734  0.0214  2.1424 -0.1326
 2412SOL    HW218699   1.876   1.963   3.707 -0.6887  0.3363  1.5286
 2413SOL     OW18700   3.974   4.418   7.993 -0.2143 -0.5639 -0.3397
 2413SOL    HW118701   3.937   4.330   7.995 -0.1708 -0.5131  2.9005
 2413SOL    HW218702   4.015   4.425   7.906 -0.8018  0.1192 -0.5572
 2414SOL     OW18703   2.610   1.396   7.942  0.0535  0.3773  0.4691
 2414SOL    HW118704   2.599   1.319   7.886  0.0151  0.6581  0.0900
 2414SOL    HW218705   2.539   1.447   7.904  1.0431  2.0508  0.9011
 2415SOL     OW18706   0.158   3.716   9.476  0.4119  0.9188 -0.0764
 2415SOL    HW118707   0.218   3.765   9.419  0.5883  0.0156 -0.6701
 2415SOL    HW218708   0.129   3.648   9.416 -1.7854  2.6114 -0.9169
 2416SOL     OW18709   2.549   1.177   4.875  0.1695 -0.3194 -0.3180
 2416SOL    HW118710   2.576   1.165   4.784 -1.5285  0.9458 -0.9852
 2416SOL    HW218711   2.593   1.259   4.896  0.1821 -0.7826  1.4819
 2417SOL     OW18712   1.155   1.592   4.183  0.3417 -0.1146  0.1731
 2417SOL    HW118713   1.227   1.612   4.243 -0.1726  2.8686 -0.1795
 2417SOL    HW218714   1.193   1.523   4.130 -2.1419 -3.1173  2.2477
 2418SOL     OW18715   2.872   2.124   5.147  0.4016  0.8397 -0.2606
 2418SOL    HW118716   2.878   2.161   5.059 -1.1409 -1.7962 -1.4739
 2418SOL    HW218717   2.860   2.206   5.195 -1.7800  0.6978 -0.5632
 2419SOL     OW18718   4.582   2.815   3.650 -0.1862 -0.9821  0.1240
 2419SOL    HW118719   4.673   2.814   3.620 -0.8469  0.7464 -1.9764
 2419SOL    HW218720   4.555   2.906   3.646  0.4437 -0.8545 -1.1950
 2420SOL     OW18721   1.167   1.958   3.357 -0.1507 -0.3790 -0.2719
 2420SOL    HW118722   1.106   1.886   3.376 -1.4176  0.8113  0.2150
 2420SOL    HW218723   1.124   1.998   3.282 -2.8398 -0.3747  1.2549
 2421SOL     OW18724   3.919   2.119   6.723 -0.1207 -0.5166  0.0947
 2421SOL    HW118725   3.920   2.198   6.670 -2.2183 -0.8315 -0.3837
 2421SOL    HW218726   3.930   2.049   6.659 -1.0455  1.6096 -2.3662
 2422SOL     OW18727   3.289   2.160  15.341  0.2418 -0.2056 -0.8069
 2422SOL    HW118728   3.341   2.086  15.373  0.6659  0.3534 -0.1966
 2422SOL    HW218729   3.328   2.163  15.254 -0.5700  0.4658 -1.1522
 2423SOL     OW18730   3.702   2.744   6.368 -0.3034 -0.3020  0.0168
 2423SOL    HW118731   3.698   2.839   6.354 -1.7941 -0.3202  0.3550
 2423SOL    HW218732   3.677   2.732   6.460  1.3214  1.0185  0.6187
 2424SOL     OW18733   2.691   3.539   7.771  0.3376 -0.4489 -0.0206
 2424SOL    HW118734   2.726   3.451   7.774 -0.5941 -0.8406 -0.5893
 2424SOL    HW218735   2.738   3.579   7.844  0.9725 -0.6517 -0.3200
 2425SOL     OW18736   2.414   1.162   9.220  0.2517 -0.0521 -0.3167
 2425SOL    HW118737   2.384   1.160   9.311 -0.6126  3.4279 -0.5131
 2425SOL    HW218738   2.376   1.082   9.183 -1.5404 -0.0239  1.4768
 2426SOL     OW18739   0.955   4.456   1.069  0.9463  0.9055 -1.0798
 2426SOL    HW118740   0.899   4.534   1.075 -1.6183 -1.0942  0.8048
 2426SOL    HW218741   0.990   4.462   0.980 -1.8839 -0.7723 -2.2674
 2427SOL     OW18742   4.696   3.056   2.930 -0.4286  0.4063 -0.3180
 2427SOL    HW118743   0.009   2.987   2.986 -1.0462  0.1191 -0.2866
 2427SOL    HW218744   4.668   3.006   2.853 -0.1095  0.8725 -0.7363
 2428SOL     OW18745   4.451   3.940  14.935 -0.1500 -0.0746 -0.0633
 2428SOL    HW118746   4.394   3.907  15.005  1.4518 -0.4202  1.0585
 2428SOL    HW218747   4.515   3.986  14.989  1.2855 -1.2875 -0.7327
 2429SOL     OW18748   0.213   3.002  13.998 -0.6720 -0.0069 -0.0022
 2429SOL    HW118749   0.182   2.993  14.088 -1.5227 -1.4281 -0.4334
 2429SOL    HW218750   0.183   2.919  13.961 -1.1945 -0.5514  1.6577
 2430SOL     OW18751   1.970   1.844   8.234  0.0184 -0.0343  0.8390
 2430SOL    HW118752   2.048   1.896   8.253 -1.1898  1.7427  0.9218
 2430SOL    HW218753   1.981   1.756   8.271 -0.5270  0.2770  1.7677
 2431SOL     OW18754   0.269   1.524   9.903  0.1461 -0.1271 -0.0164
 2431SOL    HW118755   0.357   1.562   9.898 -0.0580  0.4278  0.6012
 2431SOL    HW218756   0.245   1.537   9.994  1.4215  0.7051  0.2004
 2432SOL     OW18757   4.716   0.335  10.701 -0.8456  0.2248 -0.1291
 2432SOL    HW118758   4.667   0.275  10.757  1.0748 -0.9920  0.2337
 2432SOL    HW218759   0.078   0.289  10.709  0.4735  2.7518  0.5781
 2433SOL     OW18760   1.033   3.672  14.475 -0.6179 -0.0094 -0.3749
 2433SOL    HW118761   1.056   3.594  14.524 -2.3407  0.5734  1.3564
 2433SOL    HW218762   0.978   3.638  14.405  1.1528 -1.3433 -1.1043
 2434SOL     OW18763   2.654   4.161  11.067  0.0256 -0.7183 -0.6785
 2434SOL    HW118764   2.644   4.213  10.987 -1.4431 -2.2451 -1.4524
 2434SOL    HW218765   2.615   4.078  11.042 -0.7086 -1.4861  3.0516
 2435SOL     OW18766   0.472   1.200   1.594 -0.2219  0.3695 -0.4704
 2435SOL    HW118767   0.531   1.175   1.524  0.1589  0.5533 -0.2157
 2435SOL    HW218768   0.393   1.149   1.576  1.1611 -1.8955 -0.1211
 2436SOL     OW18769   1.144   1.100   7.691  0.1842 -0.0260  0.0464
 2436SOL    HW118770   1.211   1.069   7.752  0.7955 -0.1494 -0.6859
 2436SOL    HW218771   1.150   1.039   7.618  3.0973 -2.0306  1.9460
 2437SOL     OW18772   3.268   4.257   8.612 -0.0865  0.3136  0.1408
 2437SOL    HW118773   3.255   4.335   8.559 -0.6760  0.1925  0.1088
 2437SOL    HW218774   3.182   4.216   8.600 -0.7593  2.1995 -1.4969
 2438SOL     OW18775   2.961   1.897  14.214 -0.1358  0.2985  0.1852
 2438SOL    HW118776   2.929   1.904  14.304  1.3300 -1.6647  0.8387
 2438SOL    HW218777   2.903   1.966  14.180 -0.5140  1.0706  2.4421
 2439SOL     OW18778   2.758   1.457   4.595  0.2874  0.0383 -0.0147
 2439SOL    HW118779   2.845   1.481   4.626  0.0788  0.2477  0.4046
 2439SOL    HW218780   2.779   1.448   4.502 -1.7271  0.5525 -0.5198
 2440SOL     OW18781   4.531   4.097  16.355  0.1081  0.3896  0.1326
 2440SOL    HW118782   4.580   4.108  16.436 -3.0207  1.0133  1.9420
 2440SOL    HW218783   4.586   4.142  16.292  0.6212  1.9112  1.6752
 2441SOL     OW18784   1.644   0.171  17.078 -0.3490  0.2162  0.0676
 2441SOL    HW118785   1.552   0.153  17.100 -0.2572 -2.1019 -1.4935
 2441SOL    HW218786   1.671   0.086  17.043 -0.0782 -0.0625  0.9518
 2442SOL     OW18787   1.724   3.535  13.133 -0.2796 -0.4164 -0.1055
 2442SOL    HW118788   1.696   3.444  13.132  0.2739 -0.5930  0.8883
 2442SOL    HW218789   1.674   3.577  13.062  0.1631  1.2554  0.5624
 2443SOL     OW18790   0.274   2.702   8.771 -0.2018  0.1010  0.6107
 2443SOL    HW118791   0.354   2.681   8.724 -0.1235 -0.5228  1.0148
 2443SOL    HW218792   0.309   2.736   8.854 -0.2015  0.7053  0.3605
 2444SOL     OW18793   0.786   3.464   2.974 -0.5017  0.4974 -0.1053
 2444SOL    HW118794   0.700   3.425   2.958  0.7227 -2.6421  0.8959
 2444SOL    HW218795   0.773   3.500   3.062  0.4954 -0.4255  0.4250
 2445SOL     OW18796   4.228   4.441   3.918 -0.9868 -0.0244  0.1663
 2445SOL    HW118797   4.220   4.348   3.897 -1.7060  0.2965 -0.9752
 2445SOL    HW218798   4.247   4.481   3.834  2.1878  0.1281  0.9410
 2446SOL     OW18799   1.692   0.595   7.142  0.0677 -0.6289  0.4797
 2446SOL    HW118800   1.625   0.643   7.093  2.7218  1.9261 -0.6358
 2446SOL    HW218801   1.671   0.501   7.141 -1.7269 -0.2101 -0.9864
 2447SOL     OW18802   0.069   0.959   6.792  0.7362  0.0728 -0.5344
 2447SOL    HW118803   4.709   1.008   6.779  1.1005  0.1201 -2.6550
 2447SOL    HW218804   0.042   0.867   6.796 -0.1577  0.3942  0.9183
 2448SOL     OW18805   0.349   2.519   8.977  0.9709  0.3646  0.2523
 2448SOL    HW118806   0.370   2.558   9.062  0.0064  0.6094  0.3765
 2448SOL    HW218807   0.258   2.547   8.975  1.2022  1.2217  2.7266
 2449SOL     OW18808   3.304   0.882   9.276 -0.5421 -0.2378 -0.3436
 2449SOL    HW118809   3.356   0.816   9.323 -1.5688 -0.5177  0.4024
 2449SOL    HW218810   3.225   0.894   9.329  0.3516  2.0907  0.4641
 2450SOL     OW18811   0.882   0.343  12.448  0.0442  0.0285 -0.0242
 2450SOL    HW118812   0.921   0.283  12.384 -3.4042 -1.2909 -0.8552
 2450SOL    HW218813   0.882   0.421  12.392  0.9966  0.2997  0.3423
 2451SOL     OW18814   2.576   0.149   4.037  0.2620  0.5593 -0.1586
 2451SOL    HW118815   2.666   0.179   4.047 -0.5935  2.6630  1.1711
 2451SOL    HW218816   2.536   0.211   4.098  1.7180 -0.8866  2.2906
 2452SOL     OW18817   0.333   1.721   3.009  0.0007 -1.0898 -0.1623
 2452SOL    HW118818   0.244   1.693   2.988  0.2229 -1.9200  0.0116
 2452SOL    HW218819   0.317   1.791   3.073  0.0782 -0.1463 -1.1643
 2453SOL     OW18820   1.647   1.534   2.516 -0.0706 -0.1742 -0.0524
 2453SOL    HW118821   1.632   1.556   2.608 -0.2082 -0.6373  0.0370
 2453SOL    HW218822   1.609   1.605   2.463 -0.4177  0.6525  1.2980
 2454SOL     OW18823   2.558   3.817  13.235  0.3705 -0.2892 -0.1324
 2454SOL    HW118824   2.546   3.912  13.237 -1.2838 -0.5152  1.9057
 2454SOL    HW218825   2.568   3.789  13.326  0.8314 -0.9039 -0.3765
 2455SOL     OW18826   1.184   2.827   6.603 -0.4727  0.3680 -0.2288
 2455SOL    HW118827   1.221   2.793   6.685 -0.2128  0.4163 -0.3264
 2455SOL    HW218828   1.096   2.797   6.626 -1.0558  1.2963 -1.2251
 2456SOL     OW18829   1.854   4.147   7.208  0.7482 -0.3664 -0.3186
 2456SOL    HW118830   1.760   4.166   7.204  1.1391  0.9760 -2.9209
 2456SOL    HW218831   1.859   4.066   7.258 -0.2733 -0.6580 -0.7002
 2457SOL     OW18832   0.683   1.803   8.723 -0.2646  0.6255 -0.0349
 2457SOL    HW118833   0.702   1.896   8.709 -0.2188  0.9648  2.1550
 2457SOL    HW218834   0.773   1.774   8.704  0.3725  1.2393  2.0284
 2458SOL     OW18835   3.950   3.930  13.226  0.0016  0.0017 -0.4969
 2458SOL    HW118836   4.022   3.992  13.215 -0.2310  0.2617 -0.5626
 2458SOL    HW218837   3.967   3.878  13.147  2.3169  0.7860 -0.5245
 2459SOL     OW18838   1.654   4.156   2.006  0.6712 -0.2313  0.4828
 2459SOL    HW118839   1.728   4.214   2.027  0.0294  0.0468  1.9073
 2459SOL    HW218840   1.619   4.136   2.093 -1.2276  0.6250 -0.0869
 2460SOL     OW18841   1.747   1.633   3.262 -0.7455 -0.6198 -0.6452
 2460SOL    HW118842   1.725   1.721   3.290  1.1127 -0.0301 -1.0132
 2460SOL    HW218843   1.841   1.640   3.241 -0.8582  0.2249 -0.8530
 2461SOL     OW18844   0.509   0.788   5.804  0.3341  0.9309  0.2948
 2461SOL    HW118845   0.446   0.779   5.875  1.5390 -0.3408  1.2012
 2461SOL    HW218846   0.594   0.774   5.845  0.1283  0.9951  0.7351
 2462SOL     OW18847   2.255   2.793   0.896 -0.4556 -0.5119 -0.0555
 2462SOL    HW118848   2.221   2.768   0.810 -1.3722 -0.0010  0.1538
 2462SOL    HW218849   2.188   2.856   0.923 -1.7426 -2.2700  0.8387
 2463SOL     OW18850   1.648   1.232  13.559  0.4033 -0.0824 -0.0677
 2463SOL    HW118851   1.726   1.263  13.606  0.7917  0.5381 -1.1183
 2463SOL    HW218852   1.587   1.306  13.552  0.4193  0.0321  0.9779
 2464SOL     OW18853   2.097   4.587  12.366  0.2766  0.3400 -0.3708
 2464SOL    HW118854   2.158   4.521  12.333 -0.3377 -0.8531  0.9101
 2464SOL    HW218855   2.018   4.570  12.314 -0.6213  1.1498  0.7507
 2465SOL     OW18856   3.762   1.905  17.684  0.2943 -0.1371  0.5397
 2465SOL    HW118857   3.743   1.903  17.590 -1.0456  0.1042  0.7982
 2465SOL    HW218858   3.850   1.943  17.688  0.4679 -0.3227 -1.4904
 2466SOL     OW18859   2.053   4.149  17.352 -0.3775 -0.2220 -0.6184
 2466SOL    HW118860   2.101   4.232  17.358 -1.5927  0.5296 -1.1832
 2466SOL    HW218861   2.063   4.138  17.257 -0.0736 -2.8793 -0.2547
 2467SOL     OW18862   1.528   1.738   6.323  0.1103 -0.0742 -0.2593
 2467SOL    HW118863   1.479   1.725   6.404  0.0941  0.3949 -0.1918
 2467SOL    HW218864   1.525   1.650   6.287 -2.1362  0.5828 -1.6712
 2468SOL     OW18865   3.971   3.606   7.593 -0.0343  0.0387  0.6938
 2468SOL    HW118866   3.892   3.600   7.539 -1.4509  0.5081  2.7371
 2468SOL    HW218867   3.959   3.689   7.638  1.2217  1.1662 -1.0301
 2469SOL     OW18868   2.715   0.637   3.507  0.1290 -0.1231 -0.0481
 2469SOL    HW118869   2.739   0.719   3.550 -1.1129 -0.9679  2.2982
 2469SOL    HW218870   2.628   0.624   3.547  0.6771  0.2590  1.2886
 2470SOL     OW18871   3.410   2.801   8.851  0.1527  0.0441 -0.0311
 2470SOL    HW118872   3.473   2.752   8.903 -0.8355 -1.7423 -0.5255
 2470SOL    HW218873   3.475   2.870   8.842 -0.1577  0.1197 -1.7887
 2471SOL     OW18874   3.919   0.567   5.364 -0.2996 -0.2642 -0.1845
 2471SOL    HW118875   3.855   0.538   5.428 -1.6032 -2.3516 -2.4328
 2471SOL    HW218876   3.949   0.489   5.317  1.5504  0.4938 -0.2717
 2472SOL     OW18877   4.715   1.599  17.283 -0.5496  0.2065 -0.0038
 2472SOL    HW118878   0.045   1.612  17.362 -0.9429  0.5425  0.1964
 2472SOL    HW218879   0.070   1.567  17.236 -2.3472 -2.0367 -1.4234
 2473SOL     OW18880   2.041   0.724  15.804  0.7341 -0.1587  0.0768
 2473SOL    HW118881   2.033   0.788  15.874  1.6734  0.6755 -0.5804
 2473SOL    HW218882   2.051   0.640  15.850  0.3472  0.8256  1.9674
 2474SOL     OW18883   3.166   3.200   3.192 -0.4948  0.0800 -0.4920
 2474SOL    HW118884   3.247   3.248   3.210  0.3316 -0.6613 -2.2754
 2474SOL    HW218885   3.188   3.109   3.173 -2.3203 -0.1152 -1.6205
 2475SOL     OW18886   0.210   0.037   5.600 -0.0392 -0.3059  0.4804
 2475SOL    HW118887   0.290   0.059   5.552  1.0958  0.8877  2.9473
 2475SOL    HW218888   0.187   4.686   5.543 -0.8584  0.5252 -0.2568
 2476SOL     OW18889   3.511   0.074  17.597  0.0665 -0.2269 -0.3138
 2476SOL    HW118890   3.478   0.029  17.675 -0.1491  1.7803  0.7460
 2476SOL    HW218891   3.430   0.102  17.552  1.0685  0.1679 -1.8855
 2477SOL     OW18892   2.169   2.693  10.461  0.0521 -0.6622  0.1146
 2477SOL    HW118893   2.201   2.619  10.410 -2.5688 -0.8031 -1.3318
 2477SOL    HW218894   2.159   2.754  10.388  0.2484 -1.3564 -0.4985
 2478SOL     OW18895   1.587   4.072   5.846 -0.3559 -0.3247 -0.2047
 2478SOL    HW118896   1.591   4.107   5.935  0.3906  1.2173 -0.8367
 2478SOL    HW218897   1.495   4.045   5.839 -0.2891 -0.6140  0.0472
 2479SOL     OW18898   1.038   3.303   6.868  0.0220  0.2802  0.4983
 2479SOL    HW118899   0.998   3.368   6.925  0.4258  0.5493  0.4755
 2479SOL    HW218900   1.016   3.217   6.906  0.5085 -0.5099 -1.0012
 2480SOL     OW18901   4.165   2.690   6.607  0.1002 -0.4356 -0.0649
 2480SOL    HW118902   4.254   2.671   6.580 -0.9032 -1.6412 -2.5256
 2480SOL    HW218903   4.126   2.713   6.523 -0.4670 -0.1663  0.2623
 2481SOL     OW18904   2.439   0.259  14.872  0.3390 -0.6223 -0.4747
 2481SOL    HW118905   2.446   0.352  14.852 -1.5989 -0.4100 -0.1568
 2481SOL    HW218906   2.367   0.258  14.934 -0.2182  0.0352 -1.1032
 2482SOL     OW18907   0.953   0.129   7.281 -0.4793 -0.5703 -0.2862
 2482SOL    HW118908   0.981   0.193   7.347  1.1652 -0.8354 -0.7322
 2482SOL    HW218909   1.020   0.061   7.282 -0.0579 -0.1426  1.1737
 2483SOL     OW18910   4.566   0.899   2.868 -0.4706  0.2689  0.2805
 2483SOL    HW118911   4.551   0.981   2.822 -0.7783  0.9959  1.6807
 2483SOL    HW218912   4.542   0.932   2.955 -1.4561  3.3549 -1.1784
 2484SOL     OW18913   0.471   1.749  10.585 -0.3355 -0.2416 -0.5425
 2484SOL    HW118914   0.379   1.728  10.601 -0.5627  0.9185 -0.3280
 2484SOL    HW218915   0.512   1.687  10.645 -1.9180 -1.7903 -1.0623
 2485SOL     OW18916   3.904   0.842   2.857 -0.0002  0.0429  0.1294
 2485SOL    HW118917   3.916   0.785   2.781  2.5623  1.0498 -0.2229
 2485SOL    HW218918   3.859   0.919   2.821 -1.1853 -0.3876  0.6918
 2486SOL     OW18919   2.367   0.394   6.798  0.0980 -0.0709 -0.6380
 2486SOL    HW118920   2.307   0.468   6.790 -1.5519 -1.3298  0.0721
 2486SOL    HW218921   2.410   0.402   6.713 -0.3538  2.2846 -0.6504
 2487SOL     OW18922   0.232   2.093   7.897  0.2702  0.0449  0.1342
 2487SOL    HW118923   0.303   2.052   7.948  2.4387  2.7173 -0.7823
 2487SOL    HW218924   0.240   2.182   7.931  2.3668 -0.0366 -0.1219
 2488SOL     OW18925   0.838   3.016   2.968  0.0819 -0.2409  0.1632
 2488SOL    HW118926   0.795   2.988   3.049 -0.6725  1.9880  0.5393
 2488SOL    HW218927   0.924   3.050   2.996  0.7798 -1.8700 -0.0063
 2489SOL     OW18928   2.269   3.243  15.492  0.1588 -0.2530 -0.2069
 2489SOL    HW118929   2.291   3.334  15.512  0.9058 -0.3179 -0.7281
 2489SOL    HW218930   2.175   3.238  15.505 -0.1024 -2.7050 -3.0927
 2490SOL     OW18931   2.148   3.212   9.314  0.4953  0.0044 -0.3635
 2490SOL    HW118932   2.059   3.178   9.319  0.8928 -1.0421 -0.4258
 2490SOL    HW218933   2.194   3.139   9.273 -0.6270 -0.0694 -1.4922
 2491SOL     OW18934   0.429   4.538  14.018  0.2433  0.2880 -0.3889
 2491SOL    HW118935   0.476   4.573  13.942  1.5931 -3.0873 -1.1481
 2491SOL    HW218936   0.489   4.577  14.081 -1.0971 -0.6141  1.4484
 2492SOL     OW18937   4.571   4.350  10.435 -0.2617  0.1621 -0.5057
 2492SOL    HW118938   4.602   4.433  10.398  0.6546 -0.7190 -1.7234
 2492SOL    HW218939   4.596   4.356  10.527 -3.2194 -1.0758  0.3638
 2493SOL     OW18940   4.686   3.711   5.815 -0.0583 -0.2968  0.4590
 2493SOL    HW118941   4.645   3.640   5.765 -1.1055  0.5630  0.0823
 2493SOL    HW218942   4.610   3.747   5.860  0.7291  2.5035 -0.4322
 2494SOL     OW18943   4.240   0.805   7.072  0.7918 -0.2187 -0.2147
 2494SOL    HW118944   4.183   0.830   6.999  0.6277 -2.6933 -0.9285
 2494SOL    HW218945   4.281   0.725   7.041 -1.7701 -0.6467 -2.5235
 2495SOL     OW18946   0.773   0.054  12.974 -0.0137  0.0995 -0.0603
 2495SOL    HW118947   0.720   0.016  13.045 -0.5881 -0.9700 -1.0665
 2495SOL    HW218948   0.717   0.121  12.935 -0.6222 -0.6927 -0.5494
 2496SOL     OW18949   1.976   2.559   2.779 -0.0057 -0.2733 -0.4037
 2496SOL    HW118950   2.020   2.476   2.765 -0.0337 -0.4904  0.7906
 2496SOL    HW218951   1.895   2.533   2.735  0.5794 -1.3322 -0.8490
 2497SOL     OW18952   3.984   1.851   0.984  0.4630 -0.4504 -0.2636
 2497SOL    HW118953   3.892   1.825   0.991 -0.1563  1.3863 -1.4516
 2497SOL    HW218954   4.015   1.830   0.896 -2.7547  1.7164 -1.9216
 2498SOL     OW18955   3.401   1.716   6.920 -0.1399 -0.0253 -0.3376
 2498SOL    HW118956   3.426   1.623   6.922  1.1695  0.3395  0.2490
 2498SOL    HW218957   3.331   1.717   6.854  2.2501  1.6235 -2.8066
 2499SOL     OW18958   0.354   2.063   9.559  0.1475 -0.0103 -0.1491
 2499SOL    HW118959   0.313   2.064   9.473 -0.2347 -0.3326  0.0261
 2499SOL    HW218960   0.428   2.009   9.533 -0.2941 -0.5846 -0.2216
 2500SOL     OW18961   3.441   4.327   4.266 -0.1555  1.2020 -0.0768
 2500SOL    HW118962   3.367   4.370   4.224  0.0563  0.3733 -1.3067
 2500SOL    HW218963   3.510   4.393   4.258  1.3826 -0.4629 -0.5855
 2501SOL     OW18964   2.589   2.865   6.584  0.1765  0.4967 -0.1666
 2501SOL    HW118965   2.617   2.783   6.543 -0.5927  0.9636 -1.6683
 2501SOL    HW218966   2.510   2.839   6.631 -0.6885  0.3175 -1.7045
 2502SOL     OW18967   1.469   3.941   7.960  0.0211 -0.0142  0.6474
 2502SOL    HW118968   1.498   3.892   7.883  1.2363  0.4186  0.8233
 2502SOL    HW218969   1.549   3.927   8.010  0.0531 -1.7493  0.0980
 2503SOL     OW18970   0.603   4.227   1.072  0.1583 -0.4472 -0.1866
 2503SOL    HW118971   0.536   4.160   1.059 -1.2805  1.2786 -1.7143
 2503SOL    HW218972   0.685   4.186   1.044 -0.8802 -1.7018 -1.3637
 2504SOL     OW18973   0.787   2.449   6.219  0.6449  0.1771  0.3059
 2504SOL    HW118974   0.751   2.458   6.131  0.2656 -0.3814  0.4049
 2504SOL    HW218975   0.704   2.442   6.267  0.8027 -0.2812  0.5127
 2505SOL     OW18976   0.896   3.930   7.623  0.8058 -0.4077 -0.2132
 2505SOL    HW118977   0.958   3.857   7.636 -0.5229 -1.5805 -0.4446
 2505SOL    HW218978   0.814   3.881   7.625  0.3500  0.4403  1.1560
 2506SOL     OW18979   3.644   0.243   8.058  0.5068  0.3816  0.0193
 2506SOL    HW118980   3.647   0.225   7.964 -2.7951  0.9238 -0.1772
 2506SOL    HW218981   3.661   0.337   8.051 -0.8717  0.4175 -2.8665
 2507SOL     OW18982   3.821   2.358   5.435 -0.4808  0.3041  0.0690
 2507SOL    HW118983   3.854   2.364   5.346 -1.0926 -0.6741 -0.2281
 2507SOL    HW218984   3.821   2.263   5.448  0.4257  0.4431  1.0936
 2508SOL     OW18985   2.522   2.647   0.854  0.5236 -0.2372  0.3420
 2508SOL    HW118986   2.547   2.641   0.762 -0.3169  0.4498  0.0608
 2508SOL    HW218987   2.603   2.618   0.895  0.0515 -1.0078  0.7191
 2509SOL     OW18988   1.412   0.454  16.997 -0.4706  0.1256 -0.2767
 2509SOL    HW118989   1.366   0.415  16.922  2.5797 -0.2896 -1.9444
 2509SOL    HW218990   1.410   0.547  16.979  0.2354  0.4553  1.3008
 2510SOL     OW18991   1.829   1.381   4.009 -0.2867 -0.4247 -0.0740
 2510SOL    HW118992   1.913   1.337   4.027 -0.5647 -0.8479  0.1912
 2510SOL    HW218993   1.794   1.409   4.093  0.9681  2.2507 -0.4674
 2511SOL     OW18994   3.147   3.357   8.665  0.0376  0.0086  0.1928
 2511SOL    HW118995   3.067   3.337   8.616 -1.0238 -4.0197  3.6455
 2511SOL    HW218996   3.112   3.389   8.748 -1.5061  0.0744 -0.4825
 2512SOL     OW18997   3.530   1.596   9.033 -0.2380 -0.0587  0.1879
 2512SOL    HW118998   3.508   1.528   8.970 -0.6702  0.7502 -0.5438
 2512SOL    HW218999   3.527   1.548   9.116 -0.8999  1.0046  0.7795
 2513SOL     OW19000   0.729   4.527   1.708 -0.5290  0.2677  0.0343
 2513SOL    HW119001   0.715   4.519   1.803  1.3754  0.0430  0.3017
 2513SOL    HW219002   0.646   4.504   1.666 -1.0328 -0.4105  1.3823
 2514SOL     OW19003   0.997   3.469  14.686  0.3404 -0.5080  0.2652
 2514SOL    HW119004   0.967   3.470  14.777 -1.2251 -1.2284 -0.2390
 2514SOL    HW219005   0.927   3.420  14.642 -0.1872  0.6694 -0.2059
 2515SOL     OW19006   3.346   1.585  16.120 -0.1634 -0.1340  0.0404
 2515SOL    HW119007   3.363   1.649  16.052  1.0846 -0.7191 -0.1847
 2515SOL    HW219008   3.306   1.646  16.182  1.7864  1.8065 -0.6375
 2516SOL     OW19009   4.487   0.951   6.796  0.2252  0.2065 -0.4509
 2516SOL    HW119010   4.431   1.013   6.749  0.9747  0.2456 -1.2997
 2516SOL    HW219011   4.421   0.884   6.780 -0.7887  0.8322  1.1456
 2517SOL     OW19012   2.578   1.010  14.360  0.0247 -0.1911 -0.2644
 2517SOL    HW119013   2.526   0.930  14.357 -0.0107 -0.1958  0.3959
 2517SOL    HW219014   2.608   1.010  14.269  1.3803 -2.6630  0.1834
 2518SOL     OW19015   4.523   4.704   0.889 -0.5828  0.8126  0.3183
 2518SOL    HW119016   4.489   4.682   0.975  1.5844  1.9607  1.4793
 2518SOL    HW219017   4.470   0.060   0.875  0.4670  1.7204  1.3647
 2519SOL     OW19018   2.874   3.354   9.966  0.3310  0.3639  0.3300
 2519SOL    HW119019   2.803   3.335   9.904  0.6698 -3.4557  1.1151
 2519SOL    HW219020   2.932   3.279   9.952  0.9040  0.7404  0.6672
 2520SOL     OW19021   3.315   4.471   5.821  0.1963  0.0226 -0.1542
 2520SOL    HW119022   3.250   4.401   5.827 -1.4928  1.5723 -0.4774
 2520SOL    HW219023   3.352   4.469   5.733  1.4648 -1.4972  0.4156
 2521SOL     OW19024   1.801   2.203  12.328 -0.7186 -0.3545 -0.0041
 2521SOL    HW119025   1.736   2.139  12.357 -0.4299 -0.5105  0.3097
 2521SOL    HW219026   1.778   2.210  12.236 -1.2942  1.4837  0.2898
 2522SOL     OW19027   2.424   1.616  12.391  0.1721  0.5599 -0.2551
 2522SOL    HW119028   2.492   1.672  12.353  0.3937  0.3767 -0.1247
 2522SOL    HW219029   2.355   1.621  12.324  0.9348  0.5023 -1.0492
 2523SOL     OW19030   2.942   3.383   3.628 -0.2757  0.0772 -0.3489
 2523SOL    HW119031   2.912   3.445   3.561 -1.6372 -1.1212 -0.8545
 2523SOL    HW219032   2.990   3.326   3.568  0.6694  2.9367 -2.3151
 2524SOL     OW19033   4.470   4.718   5.702 -0.5014 -0.0712  0.0154
 2524SOL    HW119034   4.419   0.018   5.624 -0.5022  1.1810  0.3596
 2524SOL    HW219035   4.544   0.050   5.673 -0.7327  0.4743  0.4241
 2525SOL     OW19036   0.569   0.424   6.361 -0.7448  0.3064  0.5011
 2525SOL    HW119037   0.646   0.477   6.341 -0.3336 -0.7927 -0.7844
 2525SOL    HW219038   0.574   0.388   6.450 -2.2835 -0.3816  0.3069
 2526SOL     OW19039   0.060   0.891   5.660  0.9398  0.2278 -0.0676
 2526SOL    HW119040   0.044   0.863   5.570  0.0577  2.9339 -0.7521
 2526SOL    HW219041   0.095   0.979   5.644  0.5797  0.7335  1.9661
 2527SOL     OW19042   0.125   2.663  10.020 -0.0022 -0.0035 -0.2420
 2527SOL    HW119043   0.053   2.684  10.080 -0.1404  0.3468 -0.5369
 2527SOL    HW219044   0.113   2.570   9.999  0.3943 -0.0194 -0.3973
 2528SOL     OW19045   3.275   4.379  15.046 -0.1816  0.2785 -0.1483
 2528SOL    HW119046   3.217   4.349  15.115  0.2570 -1.4103 -0.5117
 2528SOL    HW219047   3.357   4.377  15.095  0.0203 -0.2541 -0.5087
 2529SOL     OW19048   2.977   2.890   0.945  0.2894 -0.4628 -0.7101
 2529SOL    HW119049   3.022   2.839   1.012 -1.9670  0.5801  1.5850
 2529SOL    HW219050   3.039   2.871   0.874 -1.0934 -0.2793 -1.9543
 2530SOL     OW19051   0.875   4.447   7.230 -0.1009  0.1658 -0.3150
 2530SOL    HW119052   0.927   4.528   7.229  0.3195 -0.1009  0.1623
 2530SOL    HW219053   0.791   4.484   7.203  0.9582  2.0613 -1.1014
 2531SOL     OW19054   2.748   2.198  17.074 -0.5012  0.8347 -0.4788
 2531SOL    HW119055   2.668   2.146  17.065  0.1274 -0.2509  0.3507
 2531SOL    HW219056   2.717   2.289  17.070  2.2050  1.7285 -0.9705
 2532SOL     OW19057   2.125   4.218   0.150  0.1408 -0.5260 -0.6932
 2532SOL    HW119058   2.150   4.214   0.243 -0.9891 -1.2355 -0.4105
 2532SOL    HW219059   2.206   4.246   0.108  1.4613 -1.3114  1.2760
 2533SOL     OW19060   2.557   3.916  15.795 -0.6100  0.4195 -0.0669
 2533SOL    HW119061   2.485   3.979  15.796 -0.3928  0.6572  1.0680
 2533SOL    HW219062   2.605   3.947  15.718 -1.7385  0.0908 -0.9157
 2534SOL     OW19063   3.888   2.036  16.738  0.4594  0.3223 -0.1020
 2534SOL    HW119064   3.977   2.017  16.710 -0.8558 -1.5714 -3.0280
 2534SOL    HW219065   3.895   2.043  16.833 -1.7134  0.9014  0.0278
 2535SOL     OW19066   4.152   0.744   1.973  0.2552 -0.2949  0.4447
 2535SOL    HW119067   4.161   0.745   1.878  3.4748 -1.4441  0.7571
 2535SOL    HW219068   4.068   0.787   1.991  0.6850  0.9487 -0.5663
 2536SOL     OW19069   1.321   0.101   6.083  0.3440 -0.1991  0.0538
 2536SOL    HW119070   1.357   0.153   6.155 -1.7586 -0.9704  1.6427
 2536SOL    HW219071   1.330   0.157   6.005  3.7460 -0.7314  0.0278
 2537SOL     OW19072   3.428   4.227   2.588 -0.1114  0.3180  0.1588
 2537SOL    HW119073   3.463   4.222   2.499 -0.6962 -0.5815 -0.0251
 2537SOL    HW219074   3.500   4.266   2.637  2.6235 -4.0605 -0.4224
 2538SOL     OW19075   0.881   3.003  12.746 -0.7263 -0.1705 -0.3015
 2538SOL    HW119076   0.941   2.933  12.772  2.1734  2.4863  0.1470
 2538SOL    HW219077   0.806   2.982  12.801 -0.7229 -1.3097 -0.7273
 2539SOL     OW19078   0.716   1.191   4.318 -0.6931  0.0552 -0.1085
 2539SOL    HW119079   0.679   1.148   4.395  0.6201  1.1795  1.1378
 2539SOL    HW219080   0.805   1.157   4.315 -0.8859 -0.5637  1.3476
 2540SOL     OW19081   2.630   4.408   0.404  0.3071 -0.8303 -0.1438
 2540SOL    HW119082   2.712   4.457   0.403 -1.4146  2.1073  1.8619
 2540SOL    HW219083   2.647   4.353   0.327  2.2421 -0.3670 -0.0440
 2541SOL     OW19084   1.342   3.035  11.202  0.0564  0.1585  0.1989
 2541SOL    HW119085   1.363   2.948  11.235  1.4912  0.1243 -0.8060
 2541SOL    HW219086   1.425   3.075  11.175  1.8005 -4.0111 -0.5883
 2542SOL     OW19087   2.025   4.058   3.657  0.3198 -0.8605  0.4640
 2542SOL    HW119088   2.101   4.083   3.605 -0.1691  2.4205  1.3176
 2542SOL    HW219089   1.974   4.138   3.648 -1.5621 -1.9974  0.8941
 2543SOL     OW19090   2.002   0.726   6.428 -0.0909  0.4029 -0.2812
 2543SOL    HW119091   2.070   0.761   6.371 -0.2583  1.7848  0.3661
 2543SOL    HW219092   1.982   0.798   6.488  0.8503 -0.5016  1.1047
 2544SOL     OW19093   4.310   3.754   5.572 -0.1218 -0.9726  0.0923
 2544SOL    HW119094   4.226   3.750   5.526  0.0082  0.4141 -0.2847
 2544SOL    HW219095   4.330   3.848   5.573  1.3520 -1.3231  2.8991
 2545SOL     OW19096   3.284   3.897   5.108  0.3925  0.4521  0.7499
 2545SOL    HW119097   3.371   3.935   5.121 -0.5639  4.0894 -3.3133
 2545SOL    HW219098   3.277   3.834   5.180  0.0502  1.6438  1.7633
 2546SOL     OW19099   2.924   4.312   9.200 -0.0114 -0.2929 -0.4743
 2546SOL    HW119100   2.938   4.383   9.262  2.6735 -1.7831  0.6126
 2546SOL    HW219101   2.918   4.366   9.122  1.2770 -0.2366 -0.5331
 2547SOL     OW19102   1.397   0.556   3.226  0.2153  0.8702  0.3544
 2547SOL    HW119103   1.427   0.493   3.160 -0.7799  1.3139 -0.5254
 2547SOL    HW219104   1.452   0.630   3.198  2.2132 -0.5274  0.5677
 2548SOL     OW19105   0.441   1.428  15.454 -0.4179  0.9055  0.5714
 2548SOL    HW119106   0.390   1.479  15.391 -0.0493 -0.8934 -1.1881
 2548SOL    HW219107   0.379   1.420  15.527 -0.3132 -1.4004  0.4280
 2549SOL     OW19108   1.969   3.952   8.173 -0.0371 -0.6490 -0.6546
 2549SOL    HW119109   1.986   3.858   8.180 -2.0881 -1.0870 -1.4310
 2549SOL    HW219110   2.060   3.979   8.169 -0.7496  1.7859 -0.1878
 2550SOL     OW19111   3.390   1.694   5.036 -0.0562  0.0136 -0.5648
 2550SOL    HW119112   3.373   1.739   5.119  1.6485 -0.2228 -0.1039
 2550SOL    HW219113   3.440   1.618   5.064  1.3639  1.0429 -0.3441
 2551SOL     OW19114   0.438   4.303  10.368 -0.0707 -0.2221  0.0681
 2551SOL    HW119115   0.380   4.234  10.335 -2.3713  3.4118 -3.4845
 2551SOL    HW219116   0.409   4.377  10.315  1.8136 -0.9481 -1.9982
 2552SOL     OW19117   1.900   3.096  15.312  0.3897  0.1489  0.0607
 2552SOL    HW119118   1.854   3.117  15.231  4.0018  1.5662 -1.5868
 2552SOL    HW219119   1.903   3.000  15.310  0.4331  0.1717 -0.8520
 2553SOL     OW19120   0.794   3.396   5.596  0.0609  0.2463 -0.2127
 2553SOL    HW119121   0.841   3.367   5.675 -0.2816  0.7751  0.1875
 2553SOL    HW219122   0.757   3.314   5.564 -0.8350  0.9782 -1.0081
 2554SOL     OW19123   3.639   1.438   9.256 -0.2060 -0.0808 -0.1831
 2554SOL    HW119124   3.591   1.410   9.334 -0.0065  1.2194  0.4069
 2554SOL    HW219125   3.630   1.364   9.197  1.1578  0.7447 -1.4404
 2555SOL     OW19126   2.370   2.388  13.296 -0.2806  0.2501 -0.7003
 2555SOL    HW119127   2.331   2.333  13.228 -1.7372 -1.5456  1.6184
 2555SOL    HW219128   2.374   2.473  13.251  0.6977  0.4569 -0.2257
 2556SOL     OW19129   0.749   1.697  13.866  0.3791  0.5332  0.0538
 2556SOL    HW119130   0.832   1.744  13.872 -0.0589  1.2005  0.9096
 2556SOL    HW219131   0.700   1.741  13.935  0.2100  0.2479  0.1154
 2557SOL     OW19132   2.552   0.842   9.441 -0.0859 -0.8391  0.0863
 2557SOL    HW119133   2.470   0.876   9.477  0.5901 -0.0289  0.8679
 2557SOL    HW219134   2.535   0.749   9.427  0.2393 -0.9232  0.2441
 2558SOL     OW19135   4.264   0.724  11.653 -0.1629 -0.4176 -0.3852
 2558SOL    HW119136   4.285   0.666  11.580 -0.2513 -1.7864  0.6845
 2558SOL    HW219137   4.168   0.734  11.650 -0.1583 -0.4167 -0.5465
 2559SOL     OW19138   4.060   0.449   5.009 -0.0556 -0.0838  0.2567
 2559SOL    HW119139   4.127   0.486   5.066 -0.3814  0.9821 -0.0550
 2559SOL    HW219140   4.004   0.423   5.083  0.9377 -0.5002  0.8623
 2560SOL     OW19141   0.545   4.025  17.655 -0.5203  0.5950  0.1165
 2560SOL    HW119142   0.638   4.027  17.676 -0.6972  1.7614  0.8035
 2560SOL    HW219143   0.537   4.105  17.603 -1.4128  0.9803  0.8440
 2561SOL     OW19144   2.305   0.239   0.854  0.0164  0.1488 -0.4380
 2561SOL    HW119145   2.240   0.272   0.916  0.1748 -2.9962  1.4134
 2561SOL    HW219146   2.253   0.189   0.790 -0.8549  1.1432 -0.5011
 2562SOL     OW19147   2.135   4.317  15.713 -0.1579 -0.7592  0.6766
 2562SOL    HW119148   2.148   4.408  15.738  0.4939 -0.1116 -2.0055
 2562SOL    HW219149   2.120   4.282  15.801  3.1604 -0.3730  1.3801
 2563SOL     OW19150   1.347   3.744   1.274  0.5960  0.2214 -0.2558
 2563SOL    HW119151   1.280   3.812   1.277 -0.2379 -0.6291  0.3903
 2563SOL    HW219152   1.358   3.746   1.179 -0.2930 -1.2764 -0.3801
 2564SOL     OW19153   3.519   3.651  10.671  1.0960  0.9615 -0.6508
 2564SOL    HW119154   3.564   3.684  10.593  3.2398 -1.5549 -0.4587
 2564SOL    HW219155   3.551   3.561  10.680 -0.5604  0.7965  3.7963
 2565SOL     OW19156   1.814   0.237   1.604 -0.4799 -0.3145 -0.3113
 2565SOL    HW119157   1.869   0.165   1.636 -0.7827 -0.3443  0.1378
 2565SOL    HW219158   1.830   0.311   1.663 -0.0814  0.2046 -1.0589
 2566SOL     OW19159   1.352   1.952   9.420  0.5158  0.3810 -0.1626
 2566SOL    HW119160   1.397   1.971   9.502 -0.9159  1.2411  0.4417
 2566SOL    HW219161   1.415   1.985   9.356  1.8411 -2.4157 -0.2844
 2567SOL     OW19162   4.180   4.310   3.042  0.3600  0.2002 -0.2823
 2567SOL    HW119163   4.213   4.380   3.098 -0.2864 -0.3248  0.7604
 2567SOL    HW219164   4.260   4.280   2.999 -1.0482 -0.9133 -2.1293
 2568SOL     OW19165   2.797   0.976  12.413  0.1684  0.0474 -0.3577
 2568SOL    HW119166   2.730   1.019  12.467  0.7009  1.3825 -0.7564
 2568SOL    HW219167   2.765   0.886  12.418 -1.8877  0.8932  1.6856
 2569SOL     OW19168   0.969   4.520   6.340 -0.5100 -0.4126 -0.5357
 2569SOL    HW119169   1.028   4.573   6.287 -1.0240 -0.7723 -1.4830
 2569SOL    HW219170   0.910   4.498   6.267  1.7548 -0.3944 -2.3627
 2570SOL     OW19171   2.679   1.173  13.059 -0.4363  0.0358  0.2496
 2570SOL    HW119172   2.691   1.257  13.015  0.0314 -1.9341 -3.3846
 2570SOL    HW219173   2.597   1.140  13.022  0.3544 -2.1915  0.4987
 2571SOL     OW19174   1.960   0.622   5.398 -0.6090 -0.4241  0.7550
 2571SOL    HW119175   1.919   0.676   5.331  0.7176 -0.5054 -0.1055
 2571SOL    HW219176   2.054   0.615   5.382 -0.8174 -1.2022 -0.1099
 2572SOL     OW19177   3.934   2.259   0.746  0.5725  0.2742 -0.4994
 2572SOL    HW119178   3.923   2.349   0.717 -4.7385  0.0322  0.7643
 2572SOL    HW219179   3.854   2.220   0.710 -0.2703  0.9552  0.6724
 2573SOL     OW19180   1.592   1.167   5.436 -0.4223 -0.5155  0.4852
 2573SOL    HW119181   1.572   1.223   5.510 -2.6899 -0.3168 -0.2802
 2573SOL    HW219182   1.603   1.229   5.364  0.7733  0.0995  1.1937
 2574SOL     OW19183   0.753   4.416   2.304 -0.3447  0.1676  0.1428
 2574SOL    HW119184   0.787   4.490   2.355 -1.0269 -0.3648  1.3809
 2574SOL    HW219185   0.824   4.351   2.308  0.5156  1.2082  2.0883
 2575SOL     OW19186   2.985   3.429   2.405  0.5850  0.2897 -0.6398
 2575SOL    HW119187   3.069   3.447   2.364  0.9031 -3.5806 -1.7654
 2575SOL    HW219188   2.937   3.510   2.387  1.9216  1.5785  1.7079
 2576SOL     OW19189   1.271   2.196   6.704  0.3218  0.3910  0.2639
 2576SOL    HW119190   1.236   2.176   6.617  0.6562  1.3648 -0.0997
 2576SOL    HW219191   1.297   2.284   6.677  2.1606 -0.1027  0.4694
 2577SOL     OW19192   4.172   0.088   2.359 -0.0490 -0.0588  0.8234
 2577SOL    HW119193   4.113   0.163   2.367 -0.5914 -0.3411 -0.4546
 2577SOL    HW219194   4.113   0.031   2.309  0.2203  0.3292  0.0600
 2578SOL     OW19195   0.883   1.487  10.384 -0.1242 -0.7528  0.1566
 2578SOL    HW119196   0.836   1.507  10.465  1.3540  0.1033  0.8095
 2578SOL    HW219197   0.901   1.580  10.367 -3.0604 -0.3628 -0.8005
 2579SOL     OW19198   1.359   4.534   1.663 -0.1888 -0.1749 -0.1876
 2579SOL    HW119199   1.398   4.532   1.750  0.8224  1.0235 -0.6209
 2579SOL    HW219200   1.317   4.448   1.661  1.2629 -0.8754 -0.5192
 2580SOL     OW19201   2.408   3.137   6.624  0.2054  0.3790  0.5289
 2580SOL    HW119202   2.360   3.135   6.706 -3.5331 -3.9507 -1.7585
 2580SOL    HW219203   2.444   3.049   6.636  0.7150  0.3593 -1.0784
 2581SOL     OW19204   2.302   3.283   6.132  0.8834  0.1085  0.0548
 2581SOL    HW119205   2.352   3.229   6.194  1.4760  0.8607  0.2301
 2581SOL    HW219206   2.292   3.369   6.172  3.0563 -1.3810  3.7267
 2582SOL     OW19207   0.029   1.272  14.780  0.0038 -0.1992 -0.9125
 2582SOL    HW119208   0.076   1.213  14.839  3.0645  1.1299 -2.0224
 2582SOL    HW219209   0.099   1.336  14.773  1.5280 -1.7119  0.2668
 2583SOL     OW19210   4.015   2.857   9.066  0.3304 -0.4768 -0.4783
 2583SOL    HW119211   4.026   2.777   9.015 -0.9829 -0.6359 -0.5142
 2583SOL    HW219212   3.920   2.863   9.062  0.4880  1.9412 -0.6055
 2584SOL     OW19213   1.879   2.251  15.563  0.1264  0.2632  0.5626
 2584SOL    HW119214   1.793   2.221  15.532 -0.5272  1.5292  1.1637
 2584SOL    HW219215   1.871   2.342  15.535  1.9259 -0.1109 -1.0995
 2585SOL     OW19216   2.968   3.426   1.163  0.0435 -0.1462 -0.2412
 2585SOL    HW119217   2.988   3.514   1.195 -1.1639  1.3796 -3.6177
 2585SOL    HW219218   2.882   3.451   1.127  0.5458  1.5404 -0.2875
 2586SOL     OW19219   0.919   4.170   8.524  0.1010 -0.5405  0.0867
 2586SOL    HW119220   0.913   4.219   8.442  2.1568 -0.5191 -0.0614
 2586SOL    HW219221   0.837   4.204   8.559  1.3570  2.8644 -0.2380
 2587SOL     OW19222   3.282   3.733  11.532 -1.0310 -0.2745 -0.7465
 2587SOL    HW119223   3.357   3.702  11.583 -1.3007 -2.5967 -1.7821
 2587SOL    HW219224   3.253   3.808  11.584  0.6565 -0.3085  0.2413
 2588SOL     OW19225   1.707   1.739  15.876 -0.1987  0.0061 -0.2708
 2588SOL    HW119226   1.757   1.666  15.913  0.9013  0.3834 -1.0159
 2588SOL    HW219227   1.782   1.795  15.858 -1.1839  2.1734  2.3378
 2589SOL     OW19228   4.116   4.114   3.850 -0.2402 -0.3674  0.1002
 2589SOL    HW119229   4.141   4.066   3.929 -0.8271 -2.9110 -1.2619
 2589SOL    HW219230   4.109   4.043   3.786  0.2650  0.0201 -0.3768
 2590SOL     OW19231   1.499   2.264  14.968  0.0696 -0.2643 -0.1135
 2590SOL    HW119232   1.560   2.337  14.975  0.6397 -0.7221 -0.3837
 2590SOL    HW219233   1.417   2.312  14.953  0.3043  0.4597  0.9069
 2591SOL     OW19234   3.100   2.660  16.066  0.3290 -0.2591  0.6422
 2591SOL    HW119235   3.052   2.743  16.075  0.2360 -0.1461 -1.0196
 2591SOL    HW219236   3.048   2.605  16.125 -0.0457 -1.2683 -0.6434
 2592SOL     OW19237   0.108   0.360   8.621 -0.2366 -0.0560 -0.3089
 2592SOL    HW119238   0.124   0.442   8.666 -2.9904 -0.2998  1.1129
 2592SOL    HW219239   0.019   0.333   8.640  0.0031 -1.1902 -0.7688
 2593SOL     OW19240   4.558   0.810   5.811 -0.1512  0.3507  0.2158
 2593SOL    HW119241   4.615   0.825   5.736 -1.3401 -1.6233 -1.0563
 2593SOL    HW219242   4.558   0.901   5.840  0.1681  0.7419 -1.0103
 2594SOL     OW19243   3.636   2.722   7.866  0.2422 -0.2855  0.2795
 2594SOL    HW119244   3.648   2.653   7.801 -3.5939 -1.1770  0.5702
 2594SOL    HW219245   3.721   2.766   7.871  0.2657 -0.1184 -1.5366
 2595SOL     OW19246   3.569   0.614   5.266 -0.1721  0.2429  0.4010
 2595SOL    HW119247   3.569   0.568   5.350  1.0867 -0.4407  0.0232
 2595SOL    HW219248   3.662   0.626   5.248 -0.0157 -2.8505 -0.8995
 2596SOL     OW19249   3.233   3.487   4.292 -0.0017 -0.4881  0.7713
 2596SOL    HW119250   3.267   3.543   4.362  0.7230  0.1338 -0.0847
 2596SOL    HW219251   3.205   3.555   4.231 -0.6594 -3.1939 -1.9505
 2597SOL     OW19252   4.698   0.916   3.342 -0.1357 -0.2807 -0.3930
 2597SOL    HW119253   4.607   0.946   3.348  0.4912  1.1850  1.8842
 2597SOL    HW219254   4.691   0.851   3.273  0.6317 -0.5550 -0.2103
 2598SOL     OW19255   3.888   1.795   3.755 -0.4755 -0.7650 -0.5076
 2598SOL    HW119256   3.902   1.769   3.664 -0.6065 -0.7202 -0.5408
 2598SOL    HW219257   3.834   1.723   3.788  1.0779 -1.1513  1.2371
 2599SOL     OW19258   2.164   4.188   7.714 -0.3774 -0.2500 -0.1829
 2599SOL    HW119259   2.181   4.263   7.770  1.9757 -0.2920 -0.8387
 2599SOL    HW219260   2.070   4.176   7.729  0.1006 -1.3859  1.7878
 2600SOL     OW19261   3.729   4.588   3.354 -1.1350 -0.1847  0.4145
 2600SOL    HW119262   3.702   4.620   3.268  1.7968 -0.5562 -0.6549
 2600SOL    HW219263   3.761   4.672   3.388  0.0083 -0.1644 -0.6959
 2601SOL     OW19264   3.653   0.567   2.460 -0.1744  0.4676 -0.2336
 2601SOL    HW119265   3.614   0.504   2.400 -1.1868 -0.7737  1.7394
 2601SOL    HW219266   3.742   0.535   2.474 -0.3354  0.7436  1.4557
 2602SOL     OW19267   1.624   4.359   1.386  0.0109  0.4257 -0.1761
 2602SOL    HW119268   1.549   4.315   1.428  0.7245  0.2979  0.9435
 2602SOL    HW219269   1.695   4.360   1.449  1.1478 -0.1036 -1.4621
 2603SOL     OW19270   3.357   1.353   5.430  0.5538  0.2146  0.3194
 2603SOL    HW119271   3.268   1.361   5.397  0.3788 -0.8541  0.5392
 2603SOL    HW219272   3.362   1.438   5.473  1.7336  1.5449 -2.4377
 2604SOL     OW19273   3.849   3.054  16.899  0.0898  0.0730  0.6390
 2604SOL    HW119274   3.799   2.980  16.935 -1.6113  0.5814 -0.6587
 2604SOL    HW219275   3.900   3.082  16.975  2.9628  0.4282 -1.4291
 2605SOL     OW19276   1.507   0.807  11.656  0.0159  0.0542  0.1926
 2605SOL    HW119277   1.475   0.773  11.739  1.8859 -2.6953 -0.2224
 2605SOL    HW219278   1.575   0.745  11.630  0.9532  1.7145 -1.3145
 2606SOL     OW19279   4.717   3.959   6.080  0.2362 -0.0116  0.0979
 2606SOL    HW119280   0.040   3.927   6.158  2.1739  0.6949 -0.7236
 2606SOL    HW219281   4.721   4.051   6.109  0.7982  0.4533 -1.4360
 2607SOL     OW19282   1.334   2.163   4.849 -0.2497 -0.2184  0.2245
 2607SOL    HW119283   1.304   2.166   4.940  1.2322 -0.1740  0.7138
 2607SOL    HW219284   1.270   2.212   4.798 -1.4210  0.4502  2.3335
 2608SOL     OW19285   2.106   1.634   6.649 -0.6631  0.1117 -0.3940
 2608SOL    HW119286   2.105   1.541   6.626  2.0436  0.7050 -2.9222
 2608SOL    HW219287   2.098   1.623   6.743 -0.3523  2.3492 -0.0890
 2609SOL     OW19288   3.134   2.433   2.039  0.1750 -0.0721 -0.4318
 2609SOL    HW119289   3.085   2.439   1.957  0.3010  2.4738 -0.3269
 2609SOL    HW219290   3.223   2.434   2.005 -0.5400  1.5199 -2.2312
 2610SOL     OW19291   1.426   2.453   6.629  0.0525  0.5742  0.2490
 2610SOL    HW119292   1.516   2.420   6.638  0.2363  0.7725 -0.8723
 2610SOL    HW219293   1.440   2.547   6.640 -0.2252  0.7272 -0.7224
 2611SOL     OW19294   1.297   1.931   3.905  0.6357  0.1760  0.0568
 2611SOL    HW119295   1.211   1.896   3.931  1.8391 -2.4741  0.4799
 2611SOL    HW219296   1.335   1.954   3.990  0.1672  2.9844 -0.4817
 2612SOL     OW19297   3.401   1.181   7.217 -0.1795 -0.4083  0.5390
 2612SOL    HW119298   3.326   1.224   7.175  0.1037 -0.4710 -0.0284
 2612SOL    HW219299   3.396   1.094   7.178  0.3952 -0.6269  0.9492
 2613SOL     OW19300   2.037   1.480   8.175 -0.3263  0.3917  0.5819
 2613SOL    HW119301   2.070   1.493   8.265 -0.0242  2.6601  0.1361
 2613SOL    HW219302   2.122   1.488   8.131 -1.0285  0.8522 -0.6695
 2614SOL     OW19303   2.934   3.959   5.904 -0.1724 -0.0138  0.1878
 2614SOL    HW119304   2.894   4.042   5.929 -1.7589 -1.0630  1.0839
 2614SOL    HW219305   2.861   3.897   5.898 -1.3826  1.3537  0.9936
 2615SOL     OW19306   3.092   2.871   7.308  0.1208  0.2526  0.1356
 2615SOL    HW119307   3.111   2.965   7.310 -0.0077  0.2951 -0.6527
 2615SOL    HW219308   3.023   2.865   7.374 -0.3951 -3.0062 -0.7004
 2616SOL     OW19309   1.419   0.654  12.066 -0.7183 -0.0675  0.4307
 2616SOL    HW119310   1.408   0.560  12.074 -0.4654 -0.1170  0.2049
 2616SOL    HW219311   1.500   0.671  12.113 -0.9443 -1.5581  1.3323
 2617SOL     OW19312   4.235   1.026   1.797  0.0406  0.2084  0.1233
 2617SOL    HW119313   4.233   1.066   1.884  2.0581  0.3271  0.0990
 2617SOL    HW219314   4.146   1.050   1.771 -0.2344 -0.2653  0.6335
 2618SOL     OW19315   0.358   2.652  13.774  0.1696  0.7373  0.1844
 2618SOL    HW119316   0.433   2.640  13.832 -0.7293 -0.3200  1.1093
 2618SOL    HW219317   0.370   2.744  13.751  1.8251  1.0121  2.2565
 2619SOL     OW19318   3.580   3.168   2.374  0.3490  0.0526  0.2903
 2619SOL    HW119319   3.632   3.182   2.295  1.1074 -1.4322  0.5333
 2619SOL    HW219320   3.500   3.191   2.327 -0.6495  0.6073  2.2372
 2620SOL     OW19321   0.050   0.142   9.283  0.0879 -0.1010 -0.7730
 2620SOL    HW119322   0.013   0.067   9.237  3.0317 -1.3048 -1.1792
 2620SOL    HW219323   4.695   0.197   9.294 -0.3591 -0.6346 -1.2805
 2621SOL     OW19324   3.923   1.179   6.984  0.2608  0.4892  0.2747
 2621SOL    HW119325   3.978   1.244   6.938 -2.3457  0.4179 -2.9339
 2621SOL    HW219326   3.985   1.155   7.053  0.6033  1.3586  0.2733
 2622SOL     OW19327   3.428   0.128  15.761 -0.3098 -0.0922 -0.0915
 2622SOL    HW119328   3.453   0.037  15.744  0.3283  0.2908 -1.2294
 2622SOL    HW219329   3.439   0.132  15.856 -2.8172 -0.1070  0.2105
 2623SOL     OW19330   2.497   0.700   6.152  0.9424 -0.3976  0.4481
 2623SOL    HW119331   2.547   0.726   6.229  1.4858  0.1911 -0.1017
 2623SOL    HW219332   2.556   0.719   6.079 -0.4071  2.6152  0.1122
 2624SOL     OW19333   2.862   4.234   3.006  0.3583  0.1141  0.9074
 2624SOL    HW119334   2.951   4.200   3.009 -1.2966 -4.4097 -2.3233
 2624SOL    HW219335   2.837   4.226   3.098 -0.1434  2.0537  0.9566
 2625SOL     OW19336   3.200   0.782   6.459 -0.1360  0.2453  0.0029
 2625SOL    HW119337   3.273   0.736   6.500 -1.2386 -1.1214  0.4295
 2625SOL    HW219338   3.151   0.706   6.429 -0.2256  0.1598  0.3672
 2626SOL     OW19339   3.675   2.796   5.877 -0.1903  0.3189  0.2360
 2626SOL    HW119340   3.594   2.844   5.862  0.1645  0.1690 -2.1104
 2626SOL    HW219341   3.650   2.709   5.908 -1.1547  0.3267 -0.5405
 2627SOL     OW19342   3.277   3.720   0.878  0.1570 -0.2553  0.3532
 2627SOL    HW119343   3.359   3.765   0.858  0.2359  0.1162  1.5347
 2627SOL    HW219344   3.291   3.640   0.826  2.1262  0.7211 -0.6032
 2628SOL     OW19345   4.499   1.997   6.484 -0.1388  0.4337 -0.4043
 2628SOL    HW119346   4.566   1.949   6.533 -3.1149 -1.0146  2.1865
 2628SOL    HW219347   4.555   2.022   6.410 -2.7775 -0.0202 -2.5668
 2629SOL     OW19348   2.694   0.836   7.549 -0.3517  0.2401 -0.2102
 2629SOL    HW119349   2.747   0.760   7.574 -2.4972 -1.3034 -0.3449
 2629SOL    HW219350   2.764   0.901   7.538  0.9069 -1.1729 -0.5984
 2630SOL     OW19351   2.558   3.150  13.580 -0.5195  0.0892  0.7633
 2630SOL    HW119352   2.650   3.175  13.570 -0.8257  0.7225 -0.4676
 2630SOL    HW219353   2.530   3.152  13.488 -0.5641  2.4789  0.8346
 2631SOL     OW19354   1.303   1.129   9.138 -0.6512  0.9186 -0.4214
 2631SOL    HW119355   1.295   1.161   9.228 -2.0410  2.2359 -1.0179
 2631SOL    HW219356   1.390   1.088   9.141 -0.8678  0.4898  0.2044
 2632SOL     OW19357   2.344   4.638   2.615  0.2283  0.7292  0.2783
 2632SOL    HW119358   2.251   4.658   2.608  0.1137 -0.7353 -2.5034
 2632SOL    HW219359   2.390   4.722   2.617  0.2487  0.7247 -0.0696
 2633SOL     OW19360   2.682   0.153   1.195 -0.7144 -0.0340  0.5227
 2633SOL    HW119361   2.754   0.207   1.164 -0.1722 -1.3814 -0.5209
 2633SOL    HW219362   2.728   0.071   1.211  0.5325  1.0001  2.2771
 2634SOL     OW19363   2.725   2.152   6.088 -0.4225  0.0161 -0.0574
 2634SOL    HW119364   2.677   2.156   6.005  0.0021  0.0246 -0.3026
 2634SOL    HW219365   2.741   2.058   6.094  0.1984  0.1763  0.7136
 2635SOL     OW19366   1.045   4.667   3.627  0.3193 -0.0905  0.0474
 2635SOL    HW119367   1.127   4.680   3.581 -0.8081  0.2899 -1.8639
 2635SOL    HW219368   1.071   4.602   3.692  0.5308 -0.1900 -0.1363
 2636SOL     OW19369   0.727   2.423   9.860  0.1745  0.0634 -0.2380
 2636SOL    HW119370   0.705   2.514   9.882 -1.9285  0.0325 -2.1752
 2636SOL    HW219371   0.717   2.382   9.947 -3.8646 -0.1217 -0.7954
 2637SOL     OW19372   2.078   0.835  12.156  0.1784  0.0200 -0.0926
 2637SOL    HW119373   2.011   0.881  12.206 -0.2492 -0.7899  0.0714
 2637SOL    HW219374   2.122   0.907  12.111 -0.5960 -0.5012 -1.6893
 2638SOL     OW19375   1.456   1.463   3.864 -0.5412 -0.7966 -0.3639
 2638SOL    HW119376   1.433   1.374   3.889 -0.3630 -1.1479 -1.4573
 2638SOL    HW219377   1.459   1.501   3.952 -1.7083 -0.4802 -0.4672
 2639SOL     OW19378   4.230   4.168   7.870 -0.3207  0.0933  0.2093
 2639SOL    HW119379   4.165   4.227   7.831 -0.7864 -0.2618  0.4389
 2639SOL    HW219380   4.264   4.126   7.791 -1.3511  0.8765 -0.6528
 2640SOL     OW19381   1.840   0.803  16.652  0.3611  0.1916 -0.1179
 2640SOL    HW119382   1.844   0.776  16.744 -1.1189 -0.2738 -0.1860
 2640SOL    HW219383   1.930   0.833  16.638  1.3164 -1.9368  1.3090
 2641SOL     OW19384   2.332   0.392   2.377 -0.2524 -0.0072 -0.2339
 2641SOL    HW119385   2.287   0.308   2.372  0.6024 -0.4992  0.4213
 2641SOL    HW219386   2.422   0.378   2.408 -1.1065 -1.8756  1.3464
 2642SOL     OW19387   4.438   1.554   3.678  0.2947 -0.1619  0.6332
 2642SOL    HW119388   4.427   1.504   3.759 -2.0560  0.4646  0.7101
 2642SOL    HW219389   4.479   1.635   3.709 -0.8687  0.4729  0.5465
 2643SOL     OW19390   3.619   3.716  10.389  0.5691  0.0720 -0.0593
 2643SOL    HW119391   3.650   3.626  10.378  0.1188  0.2596 -2.7160
 2643SOL    HW219392   3.534   3.712  10.344 -0.4078  1.3801  1.6848
 2644SOL     OW19393   0.235   3.054   4.311  0.1659  0.1599  1.1043
 2644SOL    HW119394   0.210   3.126   4.369 -0.8989  1.1005 -0.5371
 2644SOL    HW219395   0.214   2.975   4.360 -0.5986 -1.4518 -1.8457
 2645SOL     OW19396   4.625   2.270   6.993 -0.4530 -0.0956 -0.0835
 2645SOL    HW119397   4.540   2.291   6.955 -0.1275 -0.6647 -1.1523
 2645SOL    HW219398   4.648   2.191   6.943  0.6520  0.3542 -0.2928
 2646SOL     OW19399   3.561   2.268   3.895  0.2175  0.1115 -0.0838
 2646SOL    HW119400   3.488   2.330   3.895  0.0642 -0.0629 -1.1080
 2646SOL    HW219401   3.549   2.252   3.989 -0.0503 -1.0222 -0.3031
 2647SOL     OW19402   4.580   2.887   2.197  0.3007 -0.1020 -0.8188
 2647SOL    HW119403   4.547   2.814   2.144  0.7831  0.3311 -1.7071
 2647SOL    HW219404   4.675   2.875   2.191  0.5142  0.5578  1.3915
 2648SOL     OW19405   2.951   3.773   6.570  0.9161  0.0684 -0.0140
 2648SOL    HW119406   3.027   3.828   6.588  0.0631  1.0215  0.6686
 2648SOL    HW219407   2.936   3.798   6.479  0.0479 -1.5461 -0.3030
 2649SOL     OW19408   0.508   1.111   7.985 -0.1041  0.4713 -0.3087
 2649SOL    HW119409   0.538   1.197   7.957 -0.1091  0.5814  0.0240
 2649SOL    HW219410   0.458   1.086   7.907  1.8202 -2.6884 -0.5462
 2650SOL     OW19411   3.697   2.593   5.202 -0.3963 -0.7666  0.3554
 2650SOL    HW119412   3.704   2.498   5.216 -0.4039 -0.9629 -1.0485
 2650SOL    HW219413   3.749   2.614   5.280 -0.6848  0.0741  0.3129
 2651SOL     OW19414   0.846   2.133   9.308 -0.6597 -0.3990 -0.5770
 2651SOL    HW119415   0.834   2.211   9.362  1.4566 -0.9692  0.7151
 2651SOL    HW219416   0.934   2.102   9.330 -0.5154  0.1466 -0.3700
 2652SOL     OW19417   3.636   3.375   3.644  0.4455  0.1008 -0.3364
 2652SOL    HW119418   3.683   3.431   3.582  0.1345  2.1633  1.2960
 2652SOL    HW219419   3.704   3.340   3.701 -1.3187  1.2368  2.4957
 2653SOL     OW19420   0.568   3.528   8.078 -0.0864 -0.9648 -0.3736
 2653SOL    HW119421   0.645   3.534   8.135 -0.4769  2.6625 -0.1962
 2653SOL    HW219422   0.523   3.611   8.095  1.1493  0.0323 -1.9144
 2654SOL     OW19423   0.871   3.894   4.758 -0.0221  0.1097  0.3095
 2654SOL    HW119424   0.866   3.919   4.665  2.4932  0.5067  0.2973
 2654SOL    HW219425   0.833   3.977   4.790 -1.5563 -1.3525  2.2932
 2655SOL     OW19426   1.144   2.715   5.122  0.6615  0.1875 -0.1157
 2655SOL    HW119427   1.065   2.761   5.094  0.0568 -0.7824  0.0297
 2655SOL    HW219428   1.159   2.742   5.212 -0.1782  0.0533  0.0593
 2656SOL     OW19429   0.464   2.691   9.481  0.4070  0.3387  0.3148
 2656SOL    HW119430   0.516   2.649   9.550 -0.1420  0.8787  1.0656
 2656SOL    HW219431   0.378   2.650   9.493  0.6871 -0.7564 -1.5213
 2657SOL     OW19432   0.806   0.743   2.744  0.0894 -0.4886 -0.3344
 2657SOL    HW119433   0.738   0.808   2.763  1.1614  0.6894 -0.5423
 2657SOL    HW219434   0.760   0.661   2.763  3.5233 -2.9508 -2.7042
 2658SOL     OW19435   3.142   2.922   7.741  0.4242  0.7539  0.0670
 2658SOL    HW119436   3.099   2.894   7.661  0.1208  1.0134  0.1390
 2658SOL    HW219437   3.201   2.848   7.752  1.1910  1.0762 -1.9929
 2659SOL     OW19438   0.080   1.274  11.609 -0.0507  0.6029  0.4101
 2659SOL    HW119439   0.010   1.219  11.643 -0.4562 -0.6636 -2.5063
 2659SOL    HW219440   0.071   1.352  11.663 -0.2148  0.3376  0.7679
 2660SOL     OW19441   3.931   1.105   5.773  0.2526 -0.1395  1.0137
 2660SOL    HW119442   3.841   1.139   5.781  0.1659 -0.1040 -0.0991
 2660SOL    HW219443   3.985   1.184   5.782  0.3224 -0.2204  1.3154
 2661SOL     OW19444   2.732   2.991   2.739  0.3090  0.2423 -0.6886
 2661SOL    HW119445   2.773   2.946   2.812  1.9218  2.7844 -0.0032
 2661SOL    HW219446   2.652   3.013   2.786  1.5867 -0.8497  1.9891
 2662SOL     OW19447   4.470   2.710   7.146 -0.1778 -0.4562 -0.1279
 2662SOL    HW119448   4.397   2.672   7.195 -0.5847  0.7144  0.1738
 2662SOL    HW219449   4.432   2.696   7.059  0.8348  1.1532 -0.8072
 2663SOL     OW19450   4.574   1.188   8.631 -0.3058  0.3738  0.2959
 2663SOL    HW119451   4.669   1.195   8.619  0.0553  2.2747  4.2839
 2663SOL    HW219452   4.547   1.279   8.620 -0.8585  0.1322 -0.3184
 2664SOL     OW19453   1.521   3.243   8.914 -0.1625  0.1044 -0.5629
 2664SOL    HW119454   1.580   3.302   8.867 -0.3568 -0.2303 -1.2262
 2664SOL    HW219455   1.478   3.307   8.971  0.7386  0.1957  0.0119
 2665SOL     OW19456   0.536   1.093   9.925  0.4712 -0.4408  0.2253
 2665SOL    HW119457   0.469   1.038   9.884  0.6582  0.5860 -1.4594
 2665SOL    HW219458   0.615   1.044   9.899  0.7933 -1.5355  3.2651
 2666SOL     OW19459   2.292   3.042   2.487  0.0622 -0.4393  0.6249
 2666SOL    HW119460   2.346   2.984   2.541 -0.0478 -0.6214  0.5380
 2666SOL    HW219461   2.211   2.993   2.474 -0.4973  0.5448  0.3801
 2667SOL     OW19462   1.480   3.571  12.969  0.0878  0.8500  0.3568
 2667SOL    HW119463   1.418   3.613  13.028 -1.3447  0.7071 -1.0517
 2667SOL    HW219464   1.445   3.482  12.972 -1.0097  1.2411 -0.6355
 2668SOL     OW19465   4.163   1.499   2.346 -0.1625 -0.2438 -0.3952
 2668SOL    HW119466   4.241   1.498   2.401 -0.6668  1.7734  0.3926
 2668SOL    HW219467   4.191   1.463   2.262 -2.2630  0.2213 -1.3083
 2669SOL     OW19468   2.380   1.426   4.752 -0.5597  0.0030  0.2275
 2669SOL    HW119469   2.436   1.356   4.717 -0.5908  0.5078 -0.8159
 2669SOL    HW219470   2.405   1.445   4.843  2.1210 -2.9166  0.1095
 2670SOL     OW19471   2.710   3.979   4.856  0.2178  0.3418  0.9114
 2670SOL    HW119472   2.645   4.025   4.803  1.0160 -0.9324 -1.1716
 2670SOL    HW219473   2.683   3.889   4.840  3.3714 -0.2036 -1.3355
 2671SOL     OW19474   1.037   4.126   4.875 -0.1774 -0.1787  0.0430
 2671SOL    HW119475   0.953   4.110   4.833 -0.5049  0.0336  0.6173
 2671SOL    HW219476   1.073   4.037   4.878  0.6615  0.1031 -1.5502
 2672SOL     OW19477   3.271   2.642   6.454  0.3497 -0.1355  0.1339
 2672SOL    HW119478   3.293   2.694   6.532  1.2944  0.4439 -0.5181
 2672SOL    HW219479   3.177   2.634   6.467  0.3422  0.5214  0.4835
 2673SOL     OW19480   4.199   4.169   8.732 -0.1187 -0.0197  0.2622
 2673SOL    HW119481   4.262   4.101   8.707 -2.2063 -1.5465 -0.8085
 2673SOL    HW219482   4.124   4.127   8.690  1.8990 -2.8068 -0.4995
 2674SOL     OW19483   0.675   4.645   3.354  0.2020 -0.0386 -0.1980
 2674SOL    HW119484   0.720   0.004   3.328 -0.4663  0.1099 -0.9066
 2674SOL    HW219485   0.600   4.688   3.395  0.1444  0.5537 -0.9097
 2675SOL     OW19486   2.712   3.700   3.338 -0.7383  0.2611 -0.3965
 2675SOL    HW119487   2.712   3.727   3.430 -0.6038  0.8019 -0.5519
 2675SOL    HW219488   2.678   3.611   3.349  1.9861 -0.8662 -1.0074
 2676SOL     OW19489   1.206   1.522  13.139 -0.8298  0.2858  0.0634
 2676SOL    HW119490   1.211   1.430  13.113  4.8762  0.6432 -0.1269
 2676SOL    HW219491   1.137   1.555  13.083  0.1854  2.3541  0.0393
 2677SOL     OW19492   1.812   1.514   2.295  0.3179 -0.2580 -0.2614
 2677SOL    HW119493   1.839   1.605   2.297 -1.5769  0.2839  0.7646
 2677SOL    HW219494   1.734   1.516   2.351  0.3231 -2.4823 -0.1425
 2678SOL     OW19495   0.492   2.316  11.231 -0.1037 -0.1835 -0.5226
 2678SOL    HW119496   0.521   2.388  11.287 -1.0224  0.4010 -0.7883
 2678SOL    HW219497   0.568   2.305  11.174  1.6591  2.6467  1.3151
 2679SOL     OW19498   0.550   4.462   2.623  0.0500 -0.2264 -0.3552
 2679SOL    HW119499   0.534   4.553   2.599  3.4764  0.2620 -0.8055
 2679SOL    HW219500   0.520   4.416   2.544  0.5288 -0.3776 -0.4493
 2680SOL     OW19501   4.127   4.642   1.489 -0.4166  0.0216  0.1159
 2680SOL    HW119502   4.126   4.551   1.460 -0.9966  0.4078 -1.0916
 2680SOL    HW219503   4.121   4.631   1.584  2.7754 -0.2614  0.2745
 2681SOL     OW19504   3.846   2.035  14.104 -0.0891 -0.0276 -0.8149
 2681SOL    HW119505   3.754   2.021  14.123 -0.3781  0.0163 -2.1553
 2681SOL    HW219506   3.874   1.952  14.143 -1.2202 -0.7193 -1.4869
 2682SOL     OW19507   3.167   0.536  10.655  0.2943 -0.0125 -0.5286
 2682SOL    HW119508   3.157   0.624  10.618  0.4320 -0.3321 -1.3401
 2682SOL    HW219509   3.261   0.547  10.669  0.2563 -0.4607  0.0925
 2683SOL     OW19510   3.326   2.349   1.700  0.0961  0.1154 -0.8971
 2683SOL    HW119511   3.247   2.365   1.752  2.6376  1.2968  2.6443
 2683SOL    HW219512   3.342   2.441   1.683  1.6126  0.5710  2.9332
 2684SOL     OW19513   2.580   3.239   7.684 -0.2444 -0.6416  0.2655
 2684SOL    HW119514   2.548   3.220   7.596  0.7549  0.0948 -0.2546
 2684SOL    HW219515   2.526   3.313   7.710 -2.1108 -1.3960 -1.4439
 2685SOL     OW19516   1.696   2.463   6.124  0.4586  0.2342  0.6386
 2685SOL    HW119517   1.611   2.481   6.165 -0.6202 -0.5942 -1.2665
 2685SOL    HW219518   1.756   2.465   6.199  0.1129  0.2287  0.9165
 2686SOL     OW19519   2.092   1.318   4.045 -0.1442  0.4346  0.3038
 2686SOL    HW119520   2.116   1.409   4.060 -0.8130  0.8392 -1.1029
 2686SOL    HW219521   2.127   1.282   4.127 -0.7647  0.8220  0.7373
 2687SOL     OW19522   2.759   4.569   5.587  0.0748  0.1886 -0.4846
 2687SOL    HW119523   2.852   4.553   5.602 -0.2293 -2.2921 -1.1900
 2687SOL    HW219524   2.743   4.550   5.495  2.4153 -1.4361 -0.5492
 2688SOL     OW19525   4.714   2.223   5.657  0.0726 -0.4480 -0.4154
 2688SOL    HW119526   0.078   2.255   5.632  0.4322  0.1230  1.5859
 2688SOL    HW219527   4.661   2.276   5.596  0.6266 -0.0166 -0.5235
 2689SOL     OW19528   1.530   1.371   8.186 -0.6831  0.0190 -0.3405
 2689SOL    HW119529   1.531   1.309   8.259 -1.9806 -0.3237 -0.6073
 2689SOL    HW219530   1.507   1.313   8.113  0.1554 -0.9561  0.1491
 2690SOL     OW19531   3.692   4.664  17.297 -0.4397 -0.0270  0.4139
 2690SOL    HW119532   3.597   4.654  17.306 -0.3231  0.0044  1.6426
 2690SOL    HW219533   3.708   0.033  17.272  2.1969 -1.1004 -1.7633
 2691SOL     OW19534   3.606   0.771   3.833  0.2107  0.4003 -0.3609
 2691SOL    HW119535   3.511   0.764   3.844  0.0722  0.8358 -1.2996
 2691SOL    HW219536   3.602   0.833   3.760 -3.1181  3.5218  2.4132
 2692SOL     OW19537   4.346   3.039   3.889 -0.6059  0.0470 -0.6482
 2692SOL    HW119538   4.337   3.067   3.797 -1.2936 -0.0451 -0.6048
 2692SOL    HW219539   4.374   3.115   3.940  0.0982  0.3036 -1.4143
 2693SOL     OW19540   3.847   2.353   5.786 -0.4286 -0.2539  0.1672
 2693SOL    HW119541   3.782   2.384   5.723  0.6918 -0.2598 -0.9879
 2693SOL    HW219542   3.838   2.415   5.859  0.9967  1.0392 -0.7636
 2694SOL     OW19543   1.190   1.334   3.216 -0.4544 -0.1791 -0.6296
 2694SOL    HW119544   1.265   1.377   3.176  0.7156 -3.6267 -2.1893
 2694SOL    HW219545   1.173   1.390   3.291  0.0129  0.3737 -0.9373
 2695SOL     OW19546   4.291   4.218   5.770 -0.5825  0.0739  0.4337
 2695SOL    HW119547   4.304   4.280   5.842  0.2160 -0.5553  0.8243
 2695SOL    HW219548   4.381   4.187   5.760 -0.8573 -0.1409 -1.3770
 2696SOL     OW19549   0.972   1.903   6.767 -0.3116 -0.3913 -0.6543
 2696SOL    HW119550   1.005   1.948   6.689 -0.1545 -0.6230 -0.7204
 2696SOL    HW219551   1.019   1.953   6.833  0.3664  0.9467 -2.1455
 2697SOL     OW19552   0.516   2.407   8.385 -0.0103  0.3473 -0.2109
 2697SOL    HW119553   0.487   2.319   8.406  0.1101  0.3202 -0.1604
 2697SOL    HW219554   0.563   2.428   8.465  0.9957 -1.5323 -0.3280
 2698SOL     OW19555   1.151   3.318   7.631 -0.2934  0.2335  0.6475
 2698SOL    HW119556   1.207   3.391   7.605  3.0429 -2.3131  0.7820
 2698SOL    HW219557   1.070   3.332   7.581  0.5293  0.8364 -0.5175
 2699SOL     OW19558   2.870   1.601   5.158  0.0701  0.8670 -0.0917
 2699SOL    HW119559   2.885   1.599   5.063  0.0356 -1.0602 -0.0427
 2699SOL    HW219560   2.775   1.601   5.169  0.1256  0.8310  0.3646
 2700SOL     OW19561   0.549   2.819  15.173 -0.0015 -0.5466 -0.1654
 2700SOL    HW119562   0.462   2.857  15.158 -0.1325  0.3770  3.0666
 2700SOL    HW219563   0.528   2.726  15.186  1.6382 -1.1129 -1.5032
 2701SOL     OW19564   3.530   0.371   4.857  0.2097 -0.0677 -0.5104
 2701SOL    HW119565   3.550   0.284   4.891 -0.0038 -1.1301 -3.1126
 2701SOL    HW219566   3.575   0.368   4.773  1.2872  1.7443 -0.0065
 2702SOL     OW19567   4.345   1.957   8.701  0.7209  0.4991 -0.2029
 2702SOL    HW119568   4.410   2.016   8.738  1.0713  0.8807 -1.4401
 2702SOL    HW219569   4.385   1.944   8.615  0.5454 -0.4639 -0.1493
 2703SOL     OW19570   1.560   2.456   2.875  0.1557  0.1385  0.3880
 2703SOL    HW119571   1.543   2.363   2.891  1.1803  0.0186  0.7768
 2703SOL    HW219572   1.604   2.456   2.791 -0.5733 -1.3200  0.0113
 2704SOL     OW19573   4.636   4.036  13.278 -0.0074 -0.0949 -0.0516
 2704SOL    HW119574   4.701   3.967  13.272 -0.1960 -0.2486 -0.3141
 2704SOL    HW219575   4.680   4.119  13.261  1.2161 -0.6639  0.3684
 2705SOL     OW19576   3.466   3.165   6.098 -0.2868 -0.3864 -0.2090
 2705SOL    HW119577   3.519   3.164   6.178 -0.2229 -0.1478 -0.2465
 2705SOL    HW219578   3.425   3.080   6.113  2.1694 -1.6548 -0.6469
 2706SOL     OW19579   1.348   0.810   8.118 -0.4019  0.5328 -0.1500
 2706SOL    HW119580   1.401   0.768   8.050 -0.1860 -0.9488  0.9160
 2706SOL    HW219581   1.281   0.742   8.110  0.9146 -0.6520 -1.0831
 2707SOL     OW19582   0.615   2.335   2.091  0.6731  0.0510 -0.3147
 2707SOL    HW119583   0.560   2.346   2.169  2.6064  1.5801  0.8376
 2707SOL    HW219584   0.559   2.376   2.025  0.2780 -0.6188 -0.3933
 2708SOL     OW19585   2.480   1.262  13.753  0.3382  0.0921 -0.6392
 2708SOL    HW119586   2.512   1.219  13.674 -2.0647 -1.3744 -0.8252
 2708SOL    HW219587   2.402   1.212  13.778 -0.8313  1.7810 -0.8908
 2709SOL     OW19588   0.627   1.689  14.324  0.2649  0.8193  0.4394
 2709SOL    HW119589   0.638   1.610  14.376  2.3655  0.2211 -0.8933
 2709SOL    HW219590   0.627   1.753  14.395  2.9544  0.8643  0.4029
 2710SOL     OW19591   4.193   4.517   3.620 -0.1898  0.5045  0.1368
 2710SOL    HW119592   4.162   4.430   3.642  0.7450  0.0906 -0.1757
 2710SOL    HW219593   4.199   4.494   3.528 -0.0159  1.2040 -0.0289
 2711SOL     OW19594   3.893   3.686   2.107  0.6985 -0.0868  0.5130
 2711SOL    HW119595   3.987   3.677   2.121  0.6223 -1.2642  0.2935
 2711SOL    HW219596   3.885   3.624   2.035 -0.8013  0.3466  0.3134
 2712SOL     OW19597   0.025   2.972   3.959 -0.4081 -0.1406  0.1506
 2712SOL    HW119598   0.003   3.040   3.896  2.9929  0.4782 -0.3607
 2712SOL    HW219599   4.664   2.924   3.959 -0.1476 -0.5927  0.8333
 2713SOL     OW19600   1.481   4.292   4.943 -0.3183 -0.5943  0.4660
 2713SOL    HW119601   1.464   4.211   4.992 -2.4323 -1.7168 -2.0947
 2713SOL    HW219602   1.516   4.341   5.017 -2.5079  1.3634  0.1832
 2714SOL     OW19603   0.159   1.872  14.739  0.0598  0.1407 -0.0636
 2714SOL    HW119604   0.126   1.815  14.808  1.6586 -1.1848 -0.3997
 2714SOL    HW219605   0.078   1.919  14.721 -0.7593 -0.2873  2.6339
 2715SOL     OW19606   4.691   2.192   6.698  0.8511  0.0085  0.4136
 2715SOL    HW119607   0.055   2.225   6.671  0.7476 -0.7689 -0.8637
 2715SOL    HW219608   4.635   2.259   6.659 -0.7599  0.3569  3.3809
 2716SOL     OW19609   4.452   2.995   3.324  0.2923 -0.2532 -0.4249
 2716SOL    HW119610   4.361   2.993   3.293  0.4302  1.6792 -0.9670
 2716SOL    HW219611   4.436   3.072   3.379 -2.3170 -1.3043  0.3073
 2717SOL     OW19612   3.649   2.962   1.157 -0.2481  0.0270  0.0739
 2717SOL    HW119613   3.678   3.038   1.207  1.1473 -0.0495 -0.6127
 2717SOL    HW219614   3.708   2.897   1.196 -0.7760 -1.6032 -1.8523
 2718SOL     OW19615   1.225   2.726   0.422 -0.1902 -0.3875  0.4652
 2718SOL    HW119616   1.276   2.781   0.482 -0.9815  0.4844  0.3276
 2718SOL    HW219617   1.202   2.786   0.352  1.1540 -0.1333  0.2457
 2719SOL     OW19618   0.929   4.176   2.246  0.5009 -0.2411  0.2466
 2719SOL    HW119619   0.989   4.106   2.222  1.6892  1.0691 -0.6283
 2719SOL    HW219620   0.934   4.233   2.169 -1.5340  0.5534  0.6821
 2720SOL     OW19621   1.488   0.305   3.097  0.5160  0.1046 -0.4036
 2720SOL    HW119622   1.489   0.294   3.001  2.3030 -1.0465 -0.2450
 2720SOL    HW219623   1.582   0.310   3.114  0.7813  2.8654 -2.6088
 2721SOL     OW19624   4.446   4.167   5.102  0.1933  0.0690  0.0678
 2721SOL    HW119625   4.400   4.227   5.161 -2.6626 -1.1567 -0.9000
 2721SOL    HW219626   4.462   4.089   5.156  0.1772 -1.6862 -2.4439
 2722SOL     OW19627   2.755   3.674   8.190 -0.0424  0.1595  0.2407
 2722SOL    HW119628   2.712   3.735   8.130  0.8638 -0.8484 -1.4161
 2722SOL    HW219629   2.795   3.628   8.117  1.3846  1.0492  0.4560
 2723SOL     OW19630   1.370   4.437  17.681 -0.4152 -0.5277 -0.3770
 2723SOL    HW119631   1.464   4.427   0.007 -0.7238 -2.7836 -0.0166
 2723SOL    HW219632   1.358   4.511   0.051  0.1153  2.2441 -3.6494
 2724SOL     OW19633   0.286   2.039   9.264 -0.1739 -0.7095  0.1820
 2724SOL    HW119634   0.241   2.113   9.223 -1.2964 -1.3999  0.1773
 2724SOL    HW219635   0.225   1.968   9.243 -0.8962 -0.4277  1.3672
 2725SOL     OW19636   4.562   0.560  16.132  0.1768 -0.0505  0.0294
 2725SOL    HW119637   4.589   0.633  16.076 -1.0154  0.1350 -0.3035
 2725SOL    HW219638   4.632   0.581  16.194  0.7393 -0.4721 -0.4557
 2726SOL     OW19639   0.770   2.370  10.802 -0.0522 -0.0614  1.2582
 2726SOL    HW119640   0.841   2.310  10.779  0.1304 -0.2089  2.1995
 2726SOL    HW219641   0.739   2.395  10.716  0.1157 -1.3376  0.8331
 2727SOL     OW19642   0.996   0.745  16.817 -0.4203  0.0299 -0.3766
 2727SOL    HW119643   0.989   0.715  16.908  0.3318 -1.1157 -0.6953
 2727SOL    HW219644   1.062   0.684  16.783 -1.7766 -0.3497 -2.2919
 2728SOL     OW19645   0.878   1.052  16.798 -0.1876  0.0936 -0.1809
 2728SOL    HW119646   0.896   1.099  16.879 -0.0365 -1.3919  0.6396
 2728SOL    HW219647   0.856   1.127  16.741  1.5754 -0.5304 -1.6634
 2729SOL     OW19648   3.167   1.422   0.537  0.5556 -0.0400 -0.0814
 2729SOL    HW119649   3.206   1.428   0.624 -0.1657  1.2793  0.1522
 2729SOL    HW219650   3.081   1.389   0.563 -0.0601 -0.6344 -2.9394
 2730SOL     OW19651   3.926   3.627  12.473  0.5290 -0.1321 -0.2399
 2730SOL    HW119652   3.855   3.592  12.419 -1.2604  1.0863  1.3550
 2730SOL    HW219653   3.990   3.648  12.405 -0.6639 -0.3442 -1.4202
 2731SOL     OW19654   0.388   2.263  10.907 -0.4827  0.2640 -0.3805
 2731SOL    HW119655   0.296   2.281  10.924 -0.6357  0.5126 -1.4610
 2731SOL    HW219656   0.411   2.210  10.984  0.2663 -1.6130 -1.9044
 2732SOL     OW19657   1.391   4.268  12.044 -0.0271  0.3301 -0.3283
 2732SOL    HW119658   1.366   4.249  11.954 -2.0410  1.4506  0.0037
 2732SOL    HW219659   1.457   4.204  12.072 -1.1979 -1.0378 -0.6772
 2733SOL     OW19660   2.020   0.080   9.013 -0.8860  0.3824  0.3029
 2733SOL    HW119661   2.053   0.167   9.036 -0.6987  0.1387  0.9723
 2733SOL    HW219662   2.012   0.088   8.918 -0.7755 -0.5182  0.2189
 2734SOL     OW19663   0.484   3.970   4.673  0.6358 -0.5206 -0.7997
 2734SOL    HW119664   0.473   3.973   4.768  0.5062  0.8725 -0.8564
 2734SOL    HW219665   0.536   4.048   4.653  2.5060 -1.9353 -1.3992
 2735SOL     OW19666   0.401   4.087   7.776  0.4674  0.6463 -0.3200
 2735SOL    HW119667   0.384   4.016   7.714 -0.4854  0.4619  0.1508
 2735SOL    HW219668   0.477   4.057   7.825  0.5300 -2.0650 -2.0602
 2736SOL     OW19669   4.649   1.949  13.593  0.0410 -0.1871  0.1388
 2736SOL    HW119670   4.588   1.875  13.590  0.4664 -0.5128 -0.5723
 2736SOL    HW219671   0.005   1.899  13.568  0.2824 -0.0349  0.5915
 2737SOL     OW19672   1.950   1.847  11.468  0.5255  0.2104 -0.2436
 2737SOL    HW119673   1.967   1.857  11.562 -0.5564  0.3670 -0.0738
 2737SOL    HW219674   1.924   1.756  11.454 -1.4387  0.6049  0.8393
 2738SOL     OW19675   4.284   4.224   8.134  0.2834 -0.0881  0.3621
 2738SOL    HW119676   4.372   4.259   8.120 -0.8687  2.2409 -0.9896
 2738SOL    HW219677   4.258   4.196   8.046  1.1407  0.0706  0.0573
 2739SOL     OW19678   2.025   4.150   3.356  0.2413 -0.1416  0.1466
 2739SOL    HW119679   2.096   4.214   3.364 -0.5499  0.3820  2.9491
 2739SOL    HW219680   1.965   4.192   3.417  0.9284 -0.7486  1.2627
 2740SOL     OW19681   2.325   4.626   8.848 -0.2301  0.0841 -0.3218
 2740SOL    HW119682   2.370   4.699   8.891 -1.8163  0.1059  1.2736
 2740SOL    HW219683   2.267   4.596   8.918  0.4422  0.0529  0.2191
 2741SOL     OW19684   0.067   1.824   4.119 -0.6501  0.3354 -0.2827
 2741SOL    HW119685   0.101   1.779   4.196  1.7186  0.8441 -1.0160
 2741SOL    HW219686   0.152   1.863   4.096  0.1954 -2.0176 -1.1214
 2742SOL     OW19687   1.991   0.731   5.038  0.1117 -0.1697  0.4622
 2742SOL    HW119688   1.994   0.825   5.021 -3.7361 -0.2038 -0.3927
 2742SOL    HW219689   1.923   0.715   4.972  1.9797  0.6439 -1.6730
 2743SOL     OW19690   0.711   2.362   7.285  0.2324  0.0350  0.4482
 2743SOL    HW119691   0.737   2.454   7.281  0.6045 -0.1077 -0.4509
 2743SOL    HW219692   0.663   2.352   7.367  1.2647  1.0871  1.1880
 2744SOL     OW19693   3.661   3.906   3.630  0.5177 -0.2784  0.1789
 2744SOL    HW119694   3.573   3.868   3.621  0.2008  0.4546  0.1787
 2744SOL    HW219695   3.650   4.001   3.626 -1.7879 -0.4343  2.6031
 2745SOL     OW19696   0.258   3.916   0.328 -0.2237  0.0885 -0.7101
 2745SOL    HW119697   0.276   3.895   0.236 -0.6057 -2.3681 -0.2050
 2745SOL    HW219698   0.215   3.833   0.350  2.1638 -0.4999  1.6890
 2746SOL     OW19699   3.115   2.284   9.132  0.5155  0.5345 -0.2656
 2746SOL    HW119700   3.196   2.240   9.155 -1.2145 -2.3525  0.3006
 2746SOL    HW219701   3.135   2.327   9.048  0.0027 -1.2517 -1.3044
 2747SOL     OW19702   3.680   0.620  10.107  0.3925  0.1741 -0.1415
 2747SOL    HW119703   3.682   0.529  10.134 -0.8820  0.1702 -0.0542
 2747SOL    HW219704   3.652   0.625  10.015 -0.7626  0.3945  0.2225
 2748SOL     OW19705   3.141   0.852   4.138 -0.7909 -0.0661  0.0732
 2748SOL    HW119706   3.080   0.802   4.083  0.2100 -0.3691 -0.7589
 2748SOL    HW219707   3.187   0.899   4.068 -0.6387 -2.3007 -1.3557
 2749SOL     OW19708   0.619   4.376   4.375  0.2707  0.1495 -1.2936
 2749SOL    HW119709   0.674   4.443   4.416 -1.4746  0.1524  1.0554
 2749SOL    HW219710   0.539   4.395   4.424  0.3671  0.5718 -1.2980
 2750SOL     OW19711   4.621   3.493   6.086  0.4271 -0.1670  0.3498
 2750SOL    HW119712   4.592   3.449   6.005 -0.6155  0.8063  0.1952
 2750SOL    HW219713   4.711   3.520   6.066  1.1248 -1.9837  0.9946
 2751SOL     OW19714   3.454   2.818   3.755  0.1419  0.1026 -0.2173
 2751SOL    HW119715   3.388   2.864   3.704  0.6777  2.8582  1.5713
 2751SOL    HW219716   3.401   2.787   3.829 -0.1691  0.4442 -0.2998
 2752SOL     OW19717   3.405   2.482   1.979 -0.4568 -0.1831 -0.6786
 2752SOL    HW119718   3.492   2.480   2.018 -2.6134  1.3988  4.3100
 2752SOL    HW219719   3.399   2.565   1.930 -1.6834 -0.5616 -1.1641
 2753SOL     OW19720   3.496   1.941  16.742 -0.4964  0.1543  0.9410
 2753SOL    HW119721   3.456   2.022  16.773  0.3810  1.1537 -0.5410
 2753SOL    HW219722   3.562   1.981  16.685 -0.4295 -0.4403  0.6029
 2754SOL     OW19723   1.760   2.626   5.388  0.0456  0.0658 -0.4120
 2754SOL    HW119724   1.772   2.718   5.412 -0.8269 -0.1091  0.7213
 2754SOL    HW219725   1.681   2.606   5.437  0.7751  0.4400  0.9114
 2755SOL     OW19726   1.917   3.243   2.332 -0.0156  0.3516 -0.2270
 2755SOL    HW119727   1.901   3.250   2.238  1.2184 -0.7893 -0.5349
 2755SOL    HW219728   2.004   3.281   2.347 -0.2578 -0.2831  2.6843
 2756SOL     OW19729   2.391   0.150   4.687 -0.5614  0.3844 -0.0997
 2756SOL    HW119730   2.413   0.243   4.700  1.3715  0.2114 -2.1494
 2756SOL    HW219731   2.406   0.153   4.592  1.0142  1.0813  0.1776
 2757SOL     OW19732   4.223   2.186   5.088 -0.0371 -0.9867 -0.0127
 2757SOL    HW119733   4.198   2.272   5.054 -0.4857 -1.9624 -2.1288
 2757SOL    HW219734   4.308   2.163   5.051  0.2393 -0.0445  0.0363
 2758SOL     OW19735   0.204   3.581   5.814 -0.2810 -0.3174 -0.1255
 2758SOL    HW119736   0.180   3.543   5.899  3.6550 -1.7696  0.3311
 2758SOL    HW219737   0.151   3.660   5.816  0.4595  0.1752 -0.0075
 2759SOL     OW19738   2.247   0.812  16.459  0.1354  0.1192  0.4539
 2759SOL    HW119739   2.327   0.862  16.447  0.6528 -0.8252 -0.0362
 2759SOL    HW219740   2.251   0.770  16.373 -1.4077 -1.1159  0.9669
 2760SOL     OW19741   4.034   3.544   5.060  0.9584 -0.2719 -0.1657
 2760SOL    HW119742   3.943   3.515   5.063  0.7897  0.2818  0.0343
 2760SOL    HW219743   4.073   3.477   5.117  1.2709 -0.9798 -1.2110
 2761SOL     OW19744   0.410   2.359   9.437 -0.4285 -0.1478  0.6035
 2761SOL    HW119745   0.436   2.297   9.505 -1.6325 -2.2156 -0.8069
 2761SOL    HW219746   0.474   2.345   9.368 -0.5528 -2.2354  0.9134
 2762SOL     OW19747   3.635   1.900   8.423 -0.3808 -0.1667 -0.2838
 2762SOL    HW119748   3.723   1.903   8.386 -0.5924  0.8251 -0.7210
 2762SOL    HW219749   3.579   1.932   8.351 -0.7834 -4.2091 -1.7615
 2763SOL     OW19750   0.613   2.017  13.879  0.0485  0.1307  0.1566
 2763SOL    HW119751   0.524   2.049  13.869  1.1713  2.5563 -2.2254
 2763SOL    HW219752   0.611   1.951  13.948  2.7971  0.0033  0.1479
 2764SOL     OW19753   1.227   0.528   5.972 -0.0205  0.3224  0.4508
 2764SOL    HW119754   1.316   0.516   6.003 -0.1457 -0.8312  0.3748
 2764SOL    HW219755   1.177   0.495   6.047 -0.8258 -0.9684 -0.6361
 2765SOL     OW19756   1.143   3.897   2.191  0.6191 -0.2704 -0.3508
 2765SOL    HW119757   1.238   3.907   2.198  0.4881  0.3832  0.4720
 2765SOL    HW219758   1.128   3.963   2.123 -1.6616  2.6263  2.9581
 2766SOL     OW19759   2.765   2.072  12.999  0.6865 -0.1782 -0.0944
 2766SOL    HW119760   2.754   2.085  12.905  1.8028  1.3010 -0.0265
 2766SOL    HW219761   2.755   2.161  13.035  1.5970 -0.6837  1.4118
 2767SOL     OW19762   1.746   0.117  16.407  0.2425 -0.3263 -0.2305
 2767SOL    HW119763   1.771   0.048  16.346  0.4932 -0.2054 -0.2617
 2767SOL    HW219764   1.706   0.178  16.345 -0.1342 -0.9534 -0.6096
 2768SOL     OW19765   3.813   0.313  16.469 -0.5197 -0.0277 -0.5091
 2768SOL    HW119766   3.718   0.303  16.466 -0.5333 -0.0275 -0.0305
 2768SOL    HW219767   3.830   0.248  16.537 -3.5660 -0.6910 -0.3668
 2769SOL     OW19768   1.890   1.653   6.039 -0.0773  0.0620 -0.1589
 2769SOL    HW119769   1.841   1.600   6.102  0.5568  0.2184  0.4571
 2769SOL    HW219770   1.974   1.635   6.081 -0.8561  0.5409  1.6014
 2770SOL     OW19771   0.858   3.205   1.474 -0.4971  0.1838  0.1215
 2770SOL    HW119772   0.831   3.279   1.420 -1.8385  0.6558  1.4721
 2770SOL    HW219773   0.893   3.148   1.405  1.0775 -0.7394  1.6923
 2771SOL     OW19774   0.850   4.635   2.451 -0.4104 -0.2717  0.2629
 2771SOL    HW119775   0.910   4.661   2.381 -1.8541  0.1676 -0.8152
 2771SOL    HW219776   0.784   4.703   2.436 -1.3165 -1.1945  0.0225
 2772SOL     OW19777   0.367   2.552   4.588  0.4079 -0.0077  0.7954
 2772SOL    HW119778   0.415   2.600   4.520 -1.0071  2.3712  1.4566
 2772SOL    HW219779   0.328   2.622   4.641  1.9924  0.5656  1.2233
 2773SOL     OW19780   0.190   3.329   5.723  0.1303  0.0095  0.2685
 2773SOL    HW119781   0.210   3.421   5.742 -1.1396 -0.1632  2.3812
 2773SOL    HW219782   0.159   3.334   5.633  3.9420 -1.5516 -1.1538
 2774SOL     OW19783   0.514   2.379   4.747  0.0999  0.4007  0.6630
 2774SOL    HW119784   0.457   2.325   4.802  1.6959 -0.4062  1.5369
 2774SOL    HW219785   0.452   2.421   4.688 -1.0329 -1.8485  0.2665
 2775SOL     OW19786   2.331   3.992   2.749  0.3628  0.0666  0.3053
 2775SOL    HW119787   2.260   3.940   2.712 -0.3626  0.1502  1.5503
 2775SOL    HW219788   2.294   4.003   2.837  0.8770 -2.0504  0.7948
 2776SOL     OW19789   1.968   4.303  15.472  0.0242 -0.3678 -0.2717
 2776SOL    HW119790   2.037   4.315  15.536 -1.1539  2.6736  0.4247
 2776SOL    HW219791   2.020   4.280  15.396 -2.8365  0.3392 -2.4581
 2777SOL     OW19792   0.048   1.778   4.460 -0.5524 -0.2804  0.1432
 2777SOL    HW119793   0.144   1.785   4.455 -0.7494  1.8580 -0.3688
 2777SOL    HW219794   0.027   1.869   4.480 -2.1023  0.0210 -2.8516
 2778SOL     OW19795   4.193   2.912   5.917 -0.2591 -0.4319  0.0324
 2778SOL    HW119796   4.256   2.859   5.868  0.6991 -0.1836  0.9727
 2778SOL    HW219797   4.238   2.997   5.914 -1.6469  0.3138  0.2070
 2779SOL     OW19798   1.434   3.853   0.179 -0.1414  0.4274  0.0929
 2779SOL    HW119799   1.389   3.845   0.263  0.0585  1.5463  0.3013
 2779SOL    HW219800   1.460   3.945   0.173  0.3834  0.2177 -0.7910
 2780SOL     OW19801   3.410   0.102  14.072 -0.3972 -0.5448  0.3031
 2780SOL    HW119802   3.421   0.147  13.988  2.2305  0.5227  1.2333
 2780SOL    HW219803   3.501   0.078  14.086 -0.2528  0.5369  1.2314
 2781SOL     OW19804   1.444   0.928  12.208 -0.1841 -0.1335 -0.5687
 2781SOL    HW119805   1.530   0.903  12.174 -0.3317 -2.1183  0.4821
 2781SOL    HW219806   1.396   0.960  12.132  0.2004  2.1025  0.1417
 2782SOL     OW19807   3.283   4.662   3.918 -0.1327  0.4724  0.1860
 2782SOL    HW119808   3.375   4.670   3.891 -0.0495  0.1945  0.3921
 2782SOL    HW219809   3.243   4.699   3.839 -1.6650  0.8662  1.1612
 2783SOL     OW19810   3.952   3.458  10.513 -0.0126 -1.2007 -0.4124
 2783SOL    HW119811   3.942   3.394  10.583 -1.5093  0.6968  1.1096
 2783SOL    HW219812   4.039   3.434  10.483  1.1160  2.8704 -0.4288
 2784SOL     OW19813   3.210   3.288   2.926 -0.0917 -0.6534 -0.0095
 2784SOL    HW119814   3.186   3.299   3.018 -2.0372 -1.6697 -0.3837
 2784SOL    HW219815   3.127   3.266   2.883 -0.2364 -1.8575  0.9061
 2785SOL     OW19816   0.911   3.463   2.397 -0.3255  0.1270  0.0619
 2785SOL    HW119817   0.976   3.422   2.454  2.0793  0.3492 -2.5269
 2785SOL    HW219818   0.979   3.496   2.337 -1.2869  1.9217 -0.0468
 2786SOL     OW19819   1.818   0.563  15.783  0.3381  0.2818 -0.3320
 2786SOL    HW119820   1.734   0.608  15.790 -0.5605 -1.5341  0.4583
 2786SOL    HW219821   1.878   0.637  15.796  1.7760 -0.5466 -2.3182
 2787SOL     OW19822   2.462   0.480   2.720 -0.1309  0.5776  0.0575
 2787SOL    HW119823   2.478   0.419   2.648  1.6530  1.8423 -0.6089
 2787SOL    HW219824   2.485   0.561   2.675  0.1039  0.1588 -0.5764
 2788SOL     OW19825   4.599   1.796   9.057 -0.1162 -0.1948  0.7762
 2788SOL    HW119826   4.587   1.732   9.127  2.4205 -0.0466  1.3378
 2788SOL    HW219827   4.508   1.808   9.028 -0.1154 -1.2689  0.3279
 2789SOL     OW19828   1.924   2.125  11.537  0.2760  0.0244  0.6462
 2789SOL    HW119829   1.839   2.092  11.566  0.3925 -2.2975 -1.6181
 2789SOL    HW219830   1.963   2.049  11.493  0.4877  0.1744  0.5737
 2790SOL     OW19831   0.351   4.166   0.372 -0.3511 -0.4298 -0.0573
 2790SOL    HW119832   0.332   4.073   0.369 -0.6286 -0.4595  2.7733
 2790SOL    HW219833   0.416   4.162   0.442 -1.2630  0.0389  0.8203
 2791SOL     OW19834   0.289   1.631   2.029 -0.3062 -0.0185  0.6261
 2791SOL    HW119835   0.315   1.585   2.109  2.0561  0.2060 -0.0269
 2791SOL    HW219836   0.357   1.699   2.026 -0.8558  0.4666 -0.7500
 2792SOL     OW19837   1.270   2.079  10.150  0.3330  0.0930  0.0541
 2792SOL    HW119838   1.299   2.066  10.240  1.4486 -0.1024 -0.3274
 2792SOL    HW219839   1.181   2.103  10.175  0.4025 -0.1015  0.4746
 2793SOL     OW19840   2.470   2.821  11.591  0.3090  0.1522  0.2508
 2793SOL    HW119841   2.529   2.838  11.517 -0.0086  0.9887  0.1899
 2793SOL    HW219842   2.421   2.750  11.549  0.7146  0.7586 -1.2571
 2794SOL     OW19843   4.161   0.077   7.801 -0.0271  0.0347 -0.4175
 2794SOL    HW119844   4.146   0.116   7.886 -1.8810 -1.6330  0.0295
 2794SOL    HW219845   4.248   0.107   7.773  0.7757 -0.8136  1.1841
 2795SOL     OW19846   2.943   4.327  12.548  0.6516 -0.1184 -0.4230
 2795SOL    HW119847   3.033   4.309  12.520  0.7590 -1.3008  0.6826
 2795SOL    HW219848   2.931   4.414  12.511  1.1747 -0.0878 -0.5193
 2796SOL     OW19849   3.419   4.053  15.275 -0.0473 -0.2805  0.4580
 2796SOL    HW119850   3.380   3.996  15.209 -0.0243  0.1648  0.0691
 2796SOL    HW219851   3.335   4.091  15.298  1.3900  3.0381  0.1451
 2797SOL     OW19852   2.988   1.894   8.256  0.4550 -0.0890  0.3693
 2797SOL    HW119853   3.017   1.978   8.219 -0.1184  0.2414  0.6579
 2797SOL    HW219854   2.900   1.916   8.288 -0.0242  0.6441 -1.4544
 2798SOL     OW19855   3.660   4.062   5.245  0.4989 -0.3009 -0.0622
 2798SOL    HW119856   3.648   4.078   5.339 -1.1355  3.0147 -0.8136
 2798SOL    HW219857   3.674   4.149   5.208 -1.1248 -0.5027 -1.1451
 2799SOL     OW19858   3.147   3.653  16.040 -1.1480  0.1854 -0.5567
 2799SOL    HW119859   3.186   3.590  15.979  1.2637  0.1559  1.0355
 2799SOL    HW219860   3.161   3.740  16.002 -2.0064  0.8125  0.5457
 2800SOL     OW19861   4.531   3.817  14.701  0.0462  0.0927  0.0210
 2800SOL    HW119862   4.482   3.849  14.625 -1.5598  0.0059  1.0188
 2800SOL    HW219863   4.494   3.879  14.764  1.2865  0.5739  0.2804
 2801SOL     OW19864   1.929   1.601   9.453 -0.0866 -0.2138  0.7459
 2801SOL    HW119865   1.943   1.513   9.418  0.2094  0.8456 -1.8852
 2801SOL    HW219866   1.836   1.597   9.472 -0.5523 -0.9334 -1.6480
 2802SOL     OW19867   4.507   1.012  10.068  0.3331 -0.0809  0.0839
 2802SOL    HW119868   4.489   0.996  10.160  1.8215  0.3604  0.4516
 2802SOL    HW219869   4.602   1.006  10.057  0.3229 -0.6465  0.3037
 2803SOL     OW19870   3.803   2.441  11.176  0.5855  0.4492  0.0493
 2803SOL    HW119871   3.790   2.405  11.264  0.6314  1.0631  0.3093
 2803SOL    HW219872   3.711   2.443  11.151  0.0499  1.5558  2.1161
 2804SOL     OW19873   2.218   2.242   5.098  0.2191  0.2180  0.2914
 2804SOL    HW119874   2.222   2.311   5.164 -2.0347  2.3301 -1.8099
 2804SOL    HW219875   2.211   2.290   5.016  0.5209 -0.9741 -0.4266
 2805SOL     OW19876   4.415   2.704   4.495  0.7987 -0.6150  0.0260
 2805SOL    HW119877   4.422   2.753   4.577 -0.2599  0.0631 -0.2916
 2805SOL    HW219878   4.467   2.762   4.440 -0.1133  0.7663  0.6350
 2806SOL     OW19879   4.205   3.967   6.858 -0.3092  0.5266  0.0782
 2806SOL    HW119880   4.278   3.910   6.883 -0.7547 -0.9631 -2.0376
 2806SOL    HW219881   4.191   3.949   6.765 -3.1251  4.1334 -0.2116
 2807SOL     OW19882   0.164   2.353  12.721  0.1347 -0.3611 -0.4070
 2807SOL    HW119883   0.220   2.333  12.796  1.6643 -2.5549 -2.1484
 2807SOL    HW219884   0.218   2.412  12.668  1.2389 -1.7589 -0.8300
 2808SOL     OW19885   4.500   0.279   4.840 -0.2452  0.2644  0.2405
 2808SOL    HW119886   4.416   0.233   4.855 -0.9319  1.7972  1.0802
 2808SOL    HW219887   4.478   0.349   4.779 -0.1233  0.0583 -0.0412
 2809SOL     OW19888   2.257   3.965   6.197 -0.2758 -0.0141  0.1868
 2809SOL    HW119889   2.192   4.036   6.196 -2.1121 -1.7236 -0.9489
 2809SOL    HW219890   2.199   3.890   6.209 -0.7808  0.3130 -0.1643
 2810SOL     OW19891   2.712   3.063   4.390  0.8174  1.0362  0.0247
 2810SOL    HW119892   2.796   3.017   4.400 -0.7907 -2.0157 -0.5484
 2810SOL    HW219893   2.657   3.029   4.460 -0.5069 -1.4159 -2.1768
 2811SOL     OW19894   2.426   0.174   2.644 -0.1758 -0.8965  0.2977
 2811SOL    HW119895   2.423   0.233   2.719  1.5484 -0.4056 -0.0129
 2811SOL    HW219896   2.475   0.237   2.590  0.6557  0.8401  3.1253
 2812SOL     OW19897   4.030   0.235   2.986 -1.3887 -0.4951 -0.1801
 2812SOL    HW119898   4.047   0.143   3.007 -1.5506 -0.2434  1.0948
 2812SOL    HW219899   4.120   0.254   2.960 -2.0937  3.3123  0.1812
 2813SOL     OW19900   3.711   1.455   8.694  0.3617  0.2699 -0.4115
 2813SOL    HW119901   3.776   1.420   8.633 -1.2013 -0.5565 -1.6001
 2813SOL    HW219902   3.693   1.542   8.659 -1.8928  1.1284  2.8921
 2814SOL     OW19903   0.650   3.535   2.138 -0.6178 -0.4121 -0.2497
 2814SOL    HW119904   0.663   3.526   2.043 -0.8501 -3.0816 -0.0311
 2814SOL    HW219905   0.662   3.627   2.160  0.4159 -0.8547  1.0075
 2815SOL     OW19906   2.366   2.112   3.443 -0.2388  0.5271 -0.1532
 2815SOL    HW119907   2.366   2.208   3.436 -1.3230  0.7640  3.2395
 2815SOL    HW219908   2.304   2.096   3.514  0.9356  1.0120  0.9879
 2816SOL     OW19909   2.827   0.087   9.187  0.1546  0.3927 -0.0324
 2816SOL    HW119910   2.886   0.161   9.200 -0.9714  1.1139  0.9059
 2816SOL    HW219911   2.881   0.020   9.230 -1.6634 -1.2289 -0.2810
 2817SOL     OW19912   0.275   4.401   3.121  0.7891  0.2280  0.4235
 2817SOL    HW119913   0.315   4.438   3.199 -1.7981  0.7778  1.5000
 2817SOL    HW219914   0.334   4.329   3.098  1.4053  0.0208  2.6408
 2818SOL     OW19915   3.491   2.640  15.233  0.1059 -0.6211  0.4391
 2818SOL    HW119916   3.483   2.715  15.292 -0.2592  0.2001 -0.6647
 2818SOL    HW219917   3.562   2.673  15.178  0.3793 -2.8861 -0.5425
 2819SOL     OW19918   0.572   3.259  11.231 -0.4356 -0.4579  0.6301
 2819SOL    HW119919   0.589   3.297  11.144  0.5389  0.7685  1.3582
 2819SOL    HW219920   0.505   3.191  11.218 -0.3819 -0.1902 -1.1080
 2820SOL     OW19921   3.847   1.369   3.941 -0.0760 -0.3507  0.2475
 2820SOL    HW119922   3.937   1.359   3.910 -0.9916 -0.0093 -2.5091
 2820SOL    HW219923   3.859   1.310   4.015 -0.5480 -0.0134  0.5912
 2821SOL     OW19924   2.323   0.309   6.296 -0.1215  0.1849  0.1451
 2821SOL    HW119925   2.334   0.385   6.239  0.4191 -0.2100 -0.2808
 2821SOL    HW219926   2.249   0.341   6.347  0.0495  2.6490 -1.1901
 2822SOL     OW19927   4.469   1.076  14.442 -0.3466 -0.5396  0.2879
 2822SOL    HW119928   4.461   1.169  14.419 -1.3276 -0.7480 -0.1950
 2822SOL    HW219929   4.552   1.086  14.489 -0.5903 -0.1686  0.6480
 2823SOL     OW19930   3.247   0.917   2.766  0.4504  0.2863  0.1264
 2823SOL    HW119931   3.212   0.876   2.845  2.8725  0.1390  1.1012
 2823SOL    HW219932   3.206   1.002   2.784 -2.4574 -0.6214 -2.1569
 2824SOL     OW19933   2.942   2.753   8.858 -0.1662  0.7875 -0.5677
 2824SOL    HW119934   3.008   2.815   8.887 -0.0882  0.0866  0.7232
 2824SOL    HW219935   2.944   2.776   8.765  0.5892  1.6226 -0.3349
 2825SOL     OW19936   0.152   4.359  15.182 -0.2688  0.2516 -0.3086
 2825SOL    HW119937   0.132   4.430  15.120  0.4786 -0.2800 -1.1658
 2825SOL    HW219938   0.208   4.405  15.245  1.5785 -1.2553 -0.8515
 2826SOL     OW19939   0.923   1.391  12.716 -0.4273  0.2318  0.0431
 2826SOL    HW119940   0.925   1.313  12.772  3.1335 -0.2808 -0.8279
 2826SOL    HW219941   0.994   1.443  12.753  0.2257  0.2403 -1.2567
 2827SOL     OW19942   3.700   2.792  17.405  0.0063 -0.9806 -0.4980
 2827SOL    HW119943   3.772   2.829  17.353  0.0083 -1.6032 -0.9473
 2827SOL    HW219944   3.688   2.870  17.458 -1.1766 -1.8021  0.4404
 2828SOL     OW19945   1.653   3.463   8.821 -0.2844  0.2195  0.1087
 2828SOL    HW119946   1.656   3.498   8.910 -0.1295  1.0966 -0.2428
 2828SOL    HW219947   1.748   3.458   8.809 -0.0694  2.1921  1.1870
 2829SOL     OW19948   0.459   3.153  17.066  0.5336 -0.3687  0.7704
 2829SOL    HW119949   0.527   3.086  17.068  1.9970  1.0787 -0.5147
 2829SOL    HW219950   0.379   3.107  17.092  1.1236 -0.5157  2.3177
 2830SOL     OW19951   3.398   0.844   7.760  0.3199 -0.2411  0.3281
 2830SOL    HW119952   3.393   0.865   7.667  0.2912 -1.9588 -0.0712
 2830SOL    HW219953   3.376   0.750   7.760 -1.6441  0.2127 -0.0525
 2831SOL     OW19954   0.677   4.052   7.914 -0.7480  0.6721 -0.5287
 2831SOL    HW119955   0.681   3.956   7.920  0.5873  0.7004 -0.9501
 2831SOL    HW219956   0.766   4.072   7.884 -0.1975  1.1816  1.4994
 2832SOL     OW19957   0.420   1.650   6.401  0.0981 -0.0387  0.1453
 2832SOL    HW119958   0.377   1.629   6.318  0.3000  0.0005  0.0276
 2832SOL    HW219959   0.352   1.682   6.460  1.0700  1.5581  0.4151
 2833SOL     OW19960   0.536   3.814   1.040 -0.5414 -0.4464 -0.0904
 2833SOL    HW119961   0.464   3.876   1.035 -0.6452 -0.5118  0.6545
 2833SOL    HW219962   0.623   3.855   1.040 -0.6161 -0.2860 -0.6261
 2834SOL     OW19963   1.522   4.208  11.076  0.0067 -0.0044 -0.6648
 2834SOL    HW119964   1.453   4.252  11.126  2.4708  2.8661  0.2447
 2834SOL    HW219965   1.580   4.166  11.140  1.5347 -1.4406 -2.9941
 2835SOL     OW19966   4.630   2.850   2.756  0.2060  0.2242  0.2404
 2835SOL    HW119967   4.721   2.837   2.729 -0.2385 -1.0793 -0.6276
 2835SOL    HW219968   4.607   2.759   2.772 -1.6349 -0.0656 -4.0388
 2836SOL     OW19969   0.069   2.055   2.593 -0.2697 -0.2308 -0.5870
 2836SOL    HW119970   0.030   2.110   2.661  1.1236  0.0461  0.0020
 2836SOL    HW219971   0.081   1.972   2.638  0.5513  0.7648  1.0389
 2837SOL     OW19972   1.919   0.782   9.719 -0.2373  0.2116  0.0478
 2837SOL    HW119973   1.915   0.878   9.717  2.1269  0.2558 -1.8148
 2837SOL    HW219974   1.948   0.771   9.629  0.2300 -0.1802  0.2474
 2838SOL     OW19975   3.483   1.111   5.429  0.2163 -0.3394 -0.0019
 2838SOL    HW119976   3.462   1.204   5.422 -2.5423 -0.8096  2.0855
 2838SOL    HW219977   3.542   1.100   5.354  0.7850 -1.2628  0.5850
 2839SOL     OW19978   2.040   3.347   7.479  0.2346 -0.2651 -0.1600
 2839SOL    HW119979   1.956   3.325   7.440 -0.3027  0.4013  0.5988
 2839SOL    HW219980   2.110   3.328   7.417 -0.7826  2.3485 -2.1247
 2840SOL     OW19981   4.276   4.684  12.446  0.3821  0.3091  0.4071
 2840SOL    HW119982   4.352   4.682  12.388  0.3056 -0.0087  0.3218
 2840SOL    HW219983   4.258   4.590  12.449  0.8905  0.1717 -0.8221
 2841SOL     OW19984   4.402   0.648   8.081  0.3549 -0.3534 -0.2687
 2841SOL    HW119985   4.450   0.716   8.034 -0.2972 -0.0674 -0.5262
 2841SOL    HW219986   4.421   0.676   8.170  0.0093  0.9177 -0.5996
 2842SOL     OW19987   4.624   3.028   8.761  0.3937  0.4922  0.1481
 2842SOL    HW119988   4.557   2.964   8.736  0.1493  0.5028  0.7982
 2842SOL    HW219989   4.593   3.051   8.848 -1.0073 -0.7193 -0.0399
 2843SOL     OW19990   3.795   1.328   7.743  0.0839 -0.0838  0.2617
 2843SOL    HW119991   3.710   1.368   7.723  0.3307 -0.2805 -1.2217
 2843SOL    HW219992   3.830   1.325   7.654  3.1630 -1.7537  1.5460
 2844SOL     OW19993   1.762   0.602   5.829  0.4444 -0.2851  0.6686
 2844SOL    HW119994   1.686   0.623   5.774 -0.7222  1.7740  3.1105
 2844SOL    HW219995   1.744   0.655   5.906 -0.9340 -0.6907  0.6374
 2845SOL     OW19996   4.061   2.994   3.653 -0.0730 -0.1234 -0.2097
 2845SOL    HW119997   3.994   2.934   3.622  1.0865 -1.1317 -0.7790
 2845SOL    HW219998   4.143   2.951   3.628  0.8932  0.9209  1.1124
 2846SOL     OW19999   3.720   4.416   2.464  0.2707  0.0807  0.0641
 2846SOL    HW120000   3.680   4.336   2.430 -0.2080  1.9179 -3.6731
 2846SOL    HW220001   3.755   4.382   2.546 -0.5244  0.6649  0.6382
 2847SOL     OW20002   3.934   3.864   5.886 -0.2058 -0.5163  0.6324
 2847SOL    HW120003   3.838   3.854   5.886 -0.1659 -0.9033 -2.1858
 2847SOL    HW220004   3.937   3.955   5.857 -1.0501 -0.5012  0.5694
 2848SOL     OW20005   1.427   2.334   1.930 -0.7629  0.2343  0.2212
 2848SOL    HW120006   1.419   2.362   1.838 -0.2207  0.6703  0.3032
 2848SOL    HW220007   1.422   2.416   1.980 -0.5076 -0.4236  1.3167
 2849SOL     OW20008   0.052   1.289  15.797 -0.0304  0.5704  0.1243
 2849SOL    HW120009   4.680   1.270  15.800 -0.1375  1.3116  1.2948
 2849SOL    HW220010   0.090   1.215  15.843  1.2856 -0.6810 -2.9771
 2850SOL     OW20011   2.990   1.669  12.570 -0.1670  0.4623  0.0908
 2850SOL    HW120012   2.973   1.759  12.598  0.6591  0.1882  1.4547
 2850SOL    HW220013   2.901   1.633  12.570 -0.8830  2.1971 -3.5627
 2851SOL     OW20014   0.364   1.181  10.142  0.0087 -0.3445  0.0257
 2851SOL    HW120015   0.427   1.142  10.081  0.9892  1.6108 -0.1896
 2851SOL    HW220016   0.291   1.187  10.081  0.6506 -1.5047 -0.8543
 2852SOL     OW20017   0.593   1.076   2.746 -0.0826 -0.3232  0.1672
 2852SOL    HW120018   0.549   1.132   2.682  0.0489  0.4702  0.7790
 2852SOL    HW220019   0.658   1.138   2.780 -1.4945  1.4334 -0.3059
 2853SOL     OW20020   0.473   1.403   3.083 -0.9254 -0.1054 -0.2193
 2853SOL    HW120021   0.508   1.314   3.078 -0.3726  0.0791  0.4377
 2853SOL    HW220022   0.386   1.387   3.047 -1.8280  0.5571  1.7001
 2854SOL     OW20023   3.519   4.166   1.724 -0.4048  0.5114  0.1253
 2854SOL    HW120024   3.585   4.232   1.704  2.1347 -1.7366  1.0661
 2854SOL    HW220025   3.471   4.225   1.782 -1.9559 -1.4518  0.8490
 2855SOL     OW20026   0.589   2.778   7.133  0.8197 -0.0381 -0.2116
 2855SOL    HW120027   0.526   2.849   7.132 -0.9080 -1.5346  1.6305
 2855SOL    HW220028   0.572   2.752   7.224  0.3318  1.2409  0.0568
 2856SOL     OW20029   3.921   1.006  13.600 -0.0354  0.9351 -0.2849
 2856SOL    HW120030   3.912   0.987  13.507 -3.3019  0.9851  0.0329
 2856SOL    HW220031   3.834   1.037  13.622  0.4941  0.7916  2.0325
 2857SOL     OW20032   4.273   2.884  11.289  0.3144 -1.0317  0.0828
 2857SOL    HW120033   4.222   2.823  11.341 -1.3010 -0.6485 -1.0428
 2857SOL    HW220034   4.215   2.939  11.236 -0.8005  0.1703  2.5523
 2858SOL     OW20035   3.351   3.109   7.739  0.4027  0.5808 -0.1524
 2858SOL    HW120036   3.431   3.061   7.717  1.5529  2.3558  0.1058
 2858SOL    HW220037   3.294   3.041   7.773  1.8475  0.7730  2.6962
 2859SOL     OW20038   3.506   2.407   3.353 -0.0581 -0.4208  0.3344
 2859SOL    HW120039   3.524   2.323   3.311  2.0266 -0.1777  0.7294
 2859SOL    HW220040   3.434   2.382   3.410 -0.8890 -2.4728 -1.6017
 2860SOL     OW20041   0.888   3.575   1.308  0.6304  0.0669  0.2266
 2860SOL    HW120042   0.932   3.647   1.354 -0.8836  2.2034 -1.6394
 2860SOL    HW220043   0.856   3.518   1.378 -1.1402 -0.3148 -0.8979
 2861SOL     OW20044   4.435   4.615   1.876 -0.0741  0.1638 -0.5343
 2861SOL    HW120045   4.510   4.567   1.910 -1.5963 -2.1794 -0.5014
 2861SOL    HW220046   4.474   4.676   1.813  2.3790 -0.4638  0.3878
 2862SOL     OW20047   0.164   1.636  16.148  0.2265 -0.3099  0.0464
 2862SOL    HW120048   0.205   1.554  16.120  1.5358  0.2490  0.3116
 2862SOL    HW220049   0.108   1.657  16.073  0.7004 -2.4717 -0.9206
 2863SOL     OW20050   0.520   4.190  10.981  0.4881  0.0848  0.5047
 2863SOL    HW120051   0.536   4.284  10.976 -2.9649  0.6022 -0.2657
 2863SOL    HW220052   0.557   4.149  10.903 -2.2683  1.9603 -1.7488
 2864SOL     OW20053   4.345   1.240   4.715  0.3666 -0.0105  0.0910
 2864SOL    HW120054   4.284   1.192   4.659  0.2679  0.2899 -0.0599
 2864SOL    HW220055   4.285   1.295   4.765 -0.2688 -1.9095  1.4043
 2865SOL     OW20056   2.704   3.819  14.981  0.4807 -0.2129  0.3667
 2865SOL    HW120057   2.608   3.819  14.976  0.4884  2.3142  0.3005
 2865SOL    HW220058   2.719   3.911  15.002 -0.4669  0.1266 -0.4597
 2866SOL     OW20059   4.104   4.673   1.761 -0.1683  0.3067 -0.1280
 2866SOL    HW120060   4.110   0.020   1.827 -1.2584  1.2846 -1.0548
 2866SOL    HW220061   4.129   4.591   1.803 -1.7977  1.3849  3.0138
 2867SOL     OW20062   2.493   3.102   7.980  0.0394  0.1045 -0.1369
 2867SOL    HW120063   2.412   3.147   8.002  0.7566  0.9120  0.8572
 2867SOL    HW220064   2.563   3.166   7.996 -1.2947  0.6772  3.4418
 2868SOL     OW20065   2.417   3.515  13.085  0.9635  0.0593 -0.3071
 2868SOL    HW120066   2.433   3.591  13.141  2.5765 -0.1458 -0.4703
 2868SOL    HW220067   2.491   3.467  13.123  0.3702 -0.6679 -0.0870
 2869SOL     OW20068   2.177   3.386   3.006  0.3082  0.0824  0.5499
 2869SOL    HW120069   2.145   3.372   2.917  0.3258 -0.8566  0.6944
 2869SOL    HW220070   2.120   3.451   3.047 -0.4525  0.1370 -0.5810
 2870SOL     OW20071   2.135   3.288  15.143  0.1040 -0.1160  0.7071
 2870SOL    HW120072   2.203   3.220  15.142 -0.2269 -0.4092 -1.6676
 2870SOL    HW220073   2.070   3.244  15.087 -0.2661 -0.0825  1.1066
 2871SOL     OW20074   3.415   2.865   6.614  0.2681  0.5750  0.0904
 2871SOL    HW120075   3.461   2.786   6.586 -1.9669 -1.4342  2.0506
 2871SOL    HW220076   3.451   2.867   6.703  1.0703 -0.6782 -0.1990
 2872SOL     OW20077   3.241   0.392   6.952 -0.2208 -0.3801 -0.1279
 2872SOL    HW120078   3.199   0.353   7.029  0.7176  1.6968  1.4340
 2872SOL    HW220079   3.328   0.401   6.991 -0.4905 -0.2886  0.4561
 2873SOL     OW20080   3.080   0.664   5.705  0.4636 -0.2248  0.9179
 2873SOL    HW120081   3.074   0.656   5.800 -0.3551 -0.8633  0.8139
 2873SOL    HW220082   3.041   0.751   5.695  0.3098 -0.2309  1.4762
 2874SOL     OW20083   0.001   2.696  13.460  0.2357 -0.1829  0.4321
 2874SOL    HW120084   0.034   2.642  13.388 -0.5072  1.5005 -1.1647
 2874SOL    HW220085   0.082   2.716  13.507  0.6401 -2.6118  0.7690
 2875SOL     OW20086   0.692   1.463   3.835  0.3059 -0.6857 -0.0669
 2875SOL    HW120087   0.599   1.455   3.854  0.1484  0.9314 -0.1952
 2875SOL    HW220088   0.703   1.558   3.839  0.2562 -0.6755 -0.1917
 2876SOL     OW20089   1.963   1.826  11.738  0.0547  0.1960  0.8431
 2876SOL    HW120090   1.989   1.889  11.805  0.5633  2.6179 -1.5994
 2876SOL    HW220091   1.891   1.773  11.769  0.3601 -1.7621 -1.8033
 2877SOL     OW20092   3.274   3.356  16.186 -0.3004 -0.9161  0.1846
 2877SOL    HW120093   3.329   3.427  16.152 -1.6778 -0.2182 -0.5915
 2877SOL    HW220094   3.264   3.398  16.271  2.4726  2.4079 -1.1475
 2878SOL     OW20095   3.724   1.288   4.340 -0.0195  0.4174  0.1297
 2878SOL    HW120096   3.686   1.227   4.277  1.5854 -0.6209  0.1740
 2878SOL    HW220097   3.741   1.229   4.413  1.8936 -2.7048 -2.8091
 2879SOL     OW20098   3.877   3.610   8.731 -0.4028 -0.4129  0.9733
 2879SOL    HW120099   3.819   3.545   8.690  0.0711 -1.7403  2.4249
 2879SOL    HW220100   3.939   3.554   8.776  2.1320  2.8179  1.5366
 2880SOL     OW20101   1.091   3.568   5.977  0.1996  0.6431  0.0729
 2880SOL    HW120102   1.160   3.591   6.039  2.4966 -1.4939 -1.6657
 2880SOL    HW220103   1.054   3.491   6.020  0.0226  0.9616  0.4901
 2881SOL     OW20104   3.544   4.568   5.953  0.3448 -0.3218 -0.0222
 2881SOL    HW120105   3.556   4.634   6.020  0.0418 -2.3744  2.0713
 2881SOL    HW220106   3.451   4.545   5.951  0.5787 -1.0527 -3.4901
 2882SOL     OW20107   4.301   3.790   6.167  0.2230  0.0290  0.0532
 2882SOL    HW120108   4.266   3.714   6.212  0.1678  0.9135  1.4901
 2882SOL    HW220109   4.222   3.832   6.135 -0.4410 -2.3169 -1.3791
 2883SOL     OW20110   0.553   4.500   8.691  0.6801  0.3462 -0.0793
 2883SOL    HW120111   0.483   4.504   8.756  0.4269  2.7562 -0.4670
 2883SOL    HW220112   0.615   4.441   8.733  0.4305  0.7303  0.8225
 2884SOL     OW20113   2.029   1.075  10.666  0.3518 -0.0067  0.3158
 2884SOL    HW120114   1.955   1.091  10.724  0.9176  0.8437  0.8054
 2884SOL    HW220115   2.051   1.167  10.648 -0.0079 -0.1125 -0.6855
 2885SOL     OW20116   4.565   3.708   4.488 -0.0249  0.4359 -0.3363
 2885SOL    HW120117   4.550   3.760   4.567 -0.5179 -0.2410  0.0136
 2885SOL    HW220118   4.488   3.736   4.440 -1.8599 -3.0353  0.5551
 2886SOL     OW20119   3.936   1.167   4.099 -0.7377  0.0119  0.2855
 2886SOL    HW120120   3.929   1.084   4.146 -0.2484  0.4633  1.1513
 2886SOL    HW220121   4.024   1.199   4.116 -0.3237 -0.1301 -1.6432
 2887SOL     OW20122   2.692   4.116  12.918  0.0715 -0.1235 -0.2194
 2887SOL    HW120123   2.778   4.148  12.890 -1.1146  3.2298  0.0540
 2887SOL    HW220124   2.708   4.036  12.868  0.3159 -0.3148  0.1610
 2888SOL     OW20125   3.285   3.744   6.835  0.5095  0.2548  0.3799
 2888SOL    HW120126   3.279   3.807   6.763  0.6959 -0.2699 -0.0959
 2888SOL    HW220127   3.366   3.695   6.821  0.7817  0.0490  2.6850
 2889SOL     OW20128   0.641   4.714  11.144  0.7153  0.3380  0.2643
 2889SOL    HW120129   0.583   0.061  11.175 -2.5385 -1.5642 -1.5376
 2889SOL    HW220130   0.705   0.027  11.083 -1.7049 -2.3560 -3.8890
 2890SOL     OW20131   1.478   2.657  16.247  0.2036 -0.0718  0.2538
 2890SOL    HW120132   1.496   2.743  16.209 -0.4913 -0.0751 -0.0935
 2890SOL    HW220133   1.387   2.639  16.224  0.9812 -3.6765  0.0891
 2891SOL     OW20134   1.112   3.562   9.269 -0.4128  0.2768 -0.5847
 2891SOL    HW120135   1.055   3.535   9.341 -0.6853  1.6750 -0.2596
 2891SOL    HW220136   1.153   3.478   9.251 -1.6389 -0.2772 -0.8002
 2892SOL     OW20137   3.883   3.356   4.767  0.0987  0.1206  0.1160
 2892SOL    HW120138   3.805   3.411   4.761  1.4042  2.1282  1.6217
 2892SOL    HW220139   3.885   3.323   4.857  0.4960  0.3935  0.2078
 2893SOL     OW20140   2.588   2.214   1.069  0.1401 -0.5690 -0.3255
 2893SOL    HW120141   2.621   2.302   1.085 -1.3052  0.1664 -1.3016
 2893SOL    HW220142   2.633   2.159   1.132  0.9635  0.0223 -0.3952
 2894SOL     OW20143   0.101   2.311  10.890  0.5946 -0.4235 -0.3331
 2894SOL    HW120144   0.047   2.252  10.837  1.1879 -0.3507 -1.0192
 2894SOL    HW220145   0.066   2.397  10.868  1.1608  0.4363  2.1375
 2895SOL     OW20146   1.324   0.043   2.483 -0.3036 -0.2172  0.4532
 2895SOL    HW120147   1.242   0.088   2.503 -1.1503 -1.3379 -0.5010
 2895SOL    HW220148   1.358   0.030   2.572 -1.1758  0.4830  0.8947
 2896SOL     OW20149   1.368   4.332  15.233  0.5190 -0.7240  0.1613
 2896SOL    HW120150   1.402   4.332  15.144  2.1085 -1.2410  0.7655
 2896SOL    HW220151   1.341   4.422  15.251 -0.0934 -1.2248  1.7925
 2897SOL     OW20152   4.190   4.406  13.873 -0.4718  0.2003  0.0730
 2897SOL    HW120153   4.221   4.422  13.962 -1.3779 -0.2847  0.4749
 2897SOL    HW220154   4.203   4.311  13.867 -0.2866  0.2096  0.2926
 2898SOL     OW20155   2.127   3.832   3.792  0.4412 -0.8513 -0.2521
 2898SOL    HW120156   2.064   3.899   3.768  2.0290  0.6585 -0.1492
 2898SOL    HW220157   2.152   3.804   3.704 -0.9094 -0.9323 -0.6177
 2899SOL     OW20158   0.574   2.985   6.554 -0.9916  0.5749 -0.2805
 2899SOL    HW120159   0.620   3.015   6.632 -3.0571 -0.9846  1.5043
 2899SOL    HW220160   0.575   2.891   6.574 -0.0549  0.4050 -1.0890
 2900SOL     OW20161   2.127   0.663   5.704 -0.3185  0.4249 -0.4952
 2900SOL    HW120162   2.050   0.632   5.657 -2.5852  0.6403  3.1200
 2900SOL    HW220163   2.148   0.584   5.755  1.5332  1.1748 -0.0915
 2901SOL     OW20164   2.074   2.199  11.731 -0.3025 -0.0633  0.3413
 2901SOL    HW120165   2.057   2.293  11.722 -1.6502 -0.2870  0.5421
 2901SOL    HW220166   2.008   2.169  11.668 -2.0397  2.0139  1.1448
 2902SOL     OW20167   4.456   0.840  13.742  0.5242 -0.4687 -0.1744
 2902SOL    HW120168   4.504   0.922  13.727  0.1111 -0.5678 -2.1169
 2902SOL    HW220169   4.402   0.838  13.663  3.0423  0.7499 -1.9206
 2903SOL     OW20170   3.732   4.403   6.897  0.3570  0.0996  0.4200
 2903SOL    HW120171   3.715   4.420   6.989 -1.0816 -1.1059  0.3932
 2903SOL    HW220172   3.675   4.326   6.890 -1.0949  1.1583  0.3936
 2904SOL     OW20173   1.104   3.313  10.655 -0.1552  0.0370  0.4416
 2904SOL    HW120174   1.032   3.254  10.678  0.8382 -0.5910  1.9441
 2904SOL    HW220175   1.134   3.266  10.578  2.3184  0.2512  1.2887
 2905SOL     OW20176   1.781   3.429   1.852 -0.0099  0.1326  0.0058
 2905SOL    HW120177   1.843   3.444   1.781 -0.8076  1.8846 -0.3360
 2905SOL    HW220178   1.749   3.519   1.867  1.2868  0.9983 -2.4460
 2906SOL     OW20179   2.636   0.299   2.829 -0.5775  0.1171  0.3008
 2906SOL    HW120180   2.678   0.292   2.743  1.3243 -0.8159  1.3232
 2906SOL    HW220181   2.590   0.380   2.805 -0.8610 -0.0278  0.3499
 2907SOL     OW20182   4.402   1.449   7.970  0.2801 -0.5826 -0.3137
 2907SOL    HW120183   4.371   1.479   7.885  0.3187 -0.8208 -0.4115
 2907SOL    HW220184   4.465   1.379   7.951  1.0007 -0.4387  1.4757
 2908SOL     OW20185   0.853   1.464   4.575  0.0239 -0.2494  0.4682
 2908SOL    HW120186   0.920   1.530   4.590 -1.7402  1.9350 -1.2913
 2908SOL    HW220187   0.896   1.382   4.598 -1.4526 -1.2389 -0.2849
 2909SOL     OW20188   0.701   2.202   8.181 -0.2650 -0.1057 -0.5850
 2909SOL    HW120189   0.716   2.296   8.171  0.0419  0.0023  0.9970
 2909SOL    HW220190   0.782   2.171   8.220 -1.3098  0.2743  1.8477
 2910SOL     OW20191   1.551   3.692  16.273  0.8016 -0.4062  0.2399
 2910SOL    HW120192   1.518   3.672  16.360 -0.0981 -1.0672 -0.2556
 2910SOL    HW220193   1.463   3.701  16.237  0.6984 -0.1258  0.5679
 2911SOL     OW20194   0.652   1.721   7.349 -0.0659 -0.2481 -0.4253
 2911SOL    HW120195   0.665   1.721   7.254 -0.4558  0.4456 -0.4791
 2911SOL    HW220196   0.620   1.631   7.359  0.3636 -0.2233  1.1761
 2912SOL     OW20197   0.136   3.304  12.071 -0.5966 -0.1944  0.3607
 2912SOL    HW120198   0.064   3.344  12.121 -0.5469 -2.4645  2.2484
 2912SOL    HW220199   0.120   3.331  11.981 -0.1326  1.4491  0.7658
 2913SOL     OW20200   2.309   2.700   2.340  0.6504  0.1131 -0.1491
 2913SOL    HW120201   2.243   2.648   2.385 -1.1602  1.7830 -0.8663
 2913SOL    HW220202   2.259   2.742   2.270  1.0549  0.2470 -0.3628
 2914SOL     OW20203   3.860   4.160  16.005  0.1491  0.0441 -0.0502
 2914SOL    HW120204   3.823   4.073  15.987  0.9438  0.1493 -2.1818
 2914SOL    HW220205   3.806   4.178  16.082  0.0499 -1.2021  0.1722
 2915SOL     OW20206   3.860   0.923   5.353 -0.0791 -0.3248  0.0931
 2915SOL    HW120207   3.788   0.920   5.416  0.5434 -0.5328  0.8028
 2915SOL    HW220208   3.939   0.917   5.407  1.1018  0.9301 -1.5074
 2916SOL     OW20209   2.317   0.874   0.113  0.5789 -0.1527 -0.5820
 2916SOL    HW120210   2.225   0.871   0.087 -0.2551  4.1177  1.7518
 2916SOL    HW220211   2.311   0.866   0.209  1.3875  0.0731 -0.5080
 2917SOL     OW20212   4.440   3.178   3.007  0.4145 -0.1832  0.3131
 2917SOL    HW120213   4.490   3.239   2.954 -3.8336  3.5871  0.6460
 2917SOL    HW220214   4.486   3.100   2.977  0.7790 -0.6912  2.1724
 2918SOL     OW20215   0.286   1.715   5.532 -0.0392 -0.5846  0.4274
 2918SOL    HW120216   0.243   1.708   5.618  0.2701 -0.5330  0.5874
 2918SOL    HW220217   0.213   1.719   5.471  2.3564 -0.0924 -2.4056
 2919SOL     OW20218   2.812   2.093  14.098  0.1843 -0.3740  0.1713
 2919SOL    HW120219   2.726   2.059  14.076 -0.1879  0.1361  0.8244
 2919SOL    HW220220   2.814   2.181  14.060 -0.2170  0.1594  1.3635
 2920SOL     OW20221   2.103   1.236  13.484 -0.3398 -0.3748  0.3325
 2920SOL    HW120222   2.151   1.153  13.490  0.7154  0.1534 -0.9944
 2920SOL    HW220223   2.132   1.267  13.399  1.1820  1.0819  1.3742
 2921SOL     OW20224   0.262   2.527   7.535 -0.1979  0.4716  0.3542
 2921SOL    HW120225   0.217   2.444   7.552  1.1359 -0.0202  1.4964
 2921SOL    HW220226   0.206   2.577   7.594 -0.2162  1.8551 -0.8400
 2922SOL     OW20227   1.258   3.899   3.167 -0.2139 -0.7442 -0.7581
 2922SOL    HW120228   1.311   3.930   3.240 -0.1413 -1.3267 -0.5599
 2922SOL    HW220229   1.188   3.856   3.217 -0.0413  0.7358  0.7499
 2923SOL     OW20230   3.532   3.331   3.959  0.7126  0.4638  0.4156
 2923SOL    HW120231   3.560   3.280   3.883 -2.9821  1.5333 -1.6884
 2923SOL    HW220232   3.616   3.356   3.997 -0.5929  0.3046  3.4049
 2924SOL     OW20233   3.715   2.910   3.749 -0.1978 -0.5983 -0.3862
 2924SOL    HW120234   3.630   2.877   3.719 -1.1015 -0.0967  1.6255
 2924SOL    HW220235   3.763   2.881   3.672  2.1922  0.8198  0.5880
 2925SOL     OW20236   2.057   0.842   2.354 -0.1006 -0.2165  0.0202
 2925SOL    HW120237   1.994   0.901   2.314  0.2902  0.9997  1.1780
 2925SOL    HW220238   2.019   0.830   2.441 -1.1558 -1.9270 -0.6719
 2926SOL     OW20239   1.725   3.331   5.547  0.0409 -0.4068  0.2912
 2926SOL    HW120240   1.682   3.382   5.478  1.1662  0.5092  0.2557
 2926SOL    HW220241   1.809   3.362   5.513 -1.2812  0.7347 -2.0141
 2927SOL     OW20242   4.047   2.404   2.195  0.0656  0.3342 -0.2408
 2927SOL    HW120243   4.065   2.494   2.169 -0.2600  0.7274  0.8708
 2927SOL    HW220244   4.074   2.356   2.117  0.0972 -0.6090  0.3459
 2928SOL     OW20245   4.130   2.098   3.312 -0.4138  0.3141 -0.2981
 2928SOL    HW120246   4.045   2.072   3.347 -0.3446  0.7803  0.2036
 2928SOL    HW220247   4.111   2.167   3.249  0.9201  1.0005  0.0487
 2929SOL     OW20248   3.530   4.023   4.545 -0.0061 -0.4755 -0.0713
 2929SOL    HW120249   3.502   3.996   4.633  2.6422  2.2265  1.6161
 2929SOL    HW220250   3.618   3.987   4.535  0.9093  1.4036  1.2670
 2930SOL     OW20251   3.640   0.453   3.328 -0.5109  0.5910  0.2579
 2930SOL    HW120252   3.584   0.493   3.260 -1.1909  2.2913  1.8171
 2930SOL    HW220253   3.594   0.478   3.408  1.2552 -0.4648  1.5832
 2931SOL     OW20254   3.206   4.002   5.823 -0.4021  0.5500 -0.4771
 2931SOL    HW120255   3.181   4.018   5.732  2.3518  2.5392 -0.8674
 2931SOL    HW220256   3.118   3.982   5.855 -0.3176  0.0689 -0.5381
 2932SOL     OW20257   2.200   3.516  11.015  0.3533 -0.9628 -0.2376
 2932SOL    HW120258   2.152   3.434  11.024  0.5019 -0.9433  0.7603
 2932SOL    HW220259   2.129   3.579  11.006  0.4038 -0.4852  2.7350
 2933SOL     OW20260   4.657   4.256   5.373  0.2037 -0.1102  0.1035
 2933SOL    HW120261   4.664   4.160   5.373  3.7848  0.1873 -1.3219
 2933SOL    HW220262   0.021   4.279   5.407  1.4451 -1.9823 -1.7677
 2934SOL     OW20263   1.092   1.995  13.581 -0.2801  0.3504 -0.4609
 2934SOL    HW120264   1.170   1.951  13.616  1.4197  2.2897 -1.8097
 2934SOL    HW220265   1.132   2.056  13.519 -2.5790  1.4006 -0.9090
 2935SOL     OW20266   1.729   1.400   4.797 -0.0135 -0.3808 -0.0697
 2935SOL    HW120267   1.759   1.490   4.813 -1.3141  0.4082 -2.0209
 2935SOL    HW220268   1.810   1.365   4.761 -0.0707 -0.6771  0.0927
 2936SOL     OW20269   4.328   3.091   2.665  0.3969 -0.0552  0.3087
 2936SOL    HW120270   4.272   3.169   2.663  2.8251  1.7572  2.7842
 2936SOL    HW220271   4.344   3.084   2.571 -1.4305 -0.6471  0.0489
 2937SOL     OW20272   3.171   0.541  16.264  0.0253  0.0562 -0.4235
 2937SOL    HW120273   3.124   0.624  16.270  0.3306  0.1784  0.2016
 2937SOL    HW220274   3.197   0.541  16.172 -2.6171  0.0937 -1.1889
 2938SOL     OW20275   3.250   0.662   0.008  0.5273 -0.3251 -1.4672
 2938SOL    HW120276   3.284   0.580  17.662  0.0172 -0.9385 -0.5598
 2938SOL    HW220277   3.162   0.632   0.032  0.3488  0.5829 -1.0072
 2939SOL     OW20278   0.780   2.158   1.981 -0.1161  0.1280 -0.5990
 2939SOL    HW120279   0.731   2.240   1.983 -0.0465  0.1138  1.8830
 2939SOL    HW220280   0.840   2.173   2.054 -0.2747 -1.0680 -0.2108
 2940SOL     OW20281   0.446   2.370   2.296 -0.5972  0.0344  0.2459
 2940SOL    HW120282   0.371   2.413   2.256  0.5014  1.5017 -0.2243
 2940SOL    HW220283   0.413   2.308   2.361 -0.1250 -0.3189  0.1450
 2941SOL     OW20284   0.379   0.813   7.802 -0.4129  0.1335  0.0139
 2941SOL    HW120285   0.460   0.784   7.844 -0.6400 -0.1158  0.2716
 2941SOL    HW220286   0.411   0.855   7.722 -0.2816 -0.1974 -0.1055
 2942SOL     OW20287   1.156   0.089   7.867  0.5763  0.1464 -0.0578
 2942SOL    HW120288   1.088   0.061   7.929  1.3928  1.2291  1.3492
 2942SOL    HW220289   1.120   0.170   7.829 -2.8006 -0.6173  1.5327
 2943SOL     OW20290   1.746   1.256   3.764  0.2560 -0.2427  0.6792
 2943SOL    HW120291   1.825   1.216   3.728 -0.0313  1.5167 -1.9536
 2943SOL    HW220292   1.777   1.313   3.834 -0.3555  1.3374 -0.3056
 2944SOL     OW20293   2.282   1.674   1.038 -0.2748 -0.3797 -0.0432
 2944SOL    HW120294   2.265   1.662   0.944  0.4866  2.5087 -0.5402
 2944SOL    HW220295   2.354   1.736   1.049  0.1426 -0.8910  0.0744
 2945SOL     OW20296   4.467   0.097   4.094  0.4490  0.1464  0.1290
 2945SOL    HW120297   4.432   0.013   4.125  0.0693 -0.2899 -1.4321
 2945SOL    HW220298   4.555   0.077   4.123  0.8198 -1.6752 -2.1951
 2946SOL     OW20299   1.144   2.852   3.682  0.2147  0.2475  0.6978
 2946SOL    HW120300   1.219   2.870   3.627 -0.2212  1.0947  0.3839
 2946SOL    HW220301   1.107   2.940   3.692 -0.3492  0.1593 -0.6315
 2947SOL     OW20302   2.908   3.308  11.963  0.0744  0.1336 -0.0924
 2947SOL    HW120303   2.878   3.304  12.054 -0.3385 -0.9381 -0.2790
 2947SOL    HW220304   2.928   3.215  11.963 -0.4246  0.0317  2.1064
 2948SOL     OW20305   4.332   2.481   5.497  0.3332  0.4082 -0.3902
 2948SOL    HW120306   4.426   2.463   5.496  0.0767 -1.1960  3.2337
 2948SOL    HW220307   4.290   2.411   5.548 -0.3360  0.3095 -1.0815
 2949SOL     OW20308   3.538   0.926   3.154 -0.1557  0.0431 -0.0088
 2949SOL    HW120309   3.621   0.894   3.119 -0.3081  0.0781 -0.4137
 2949SOL    HW220310   3.472   0.882   3.099 -2.1753  0.3842  2.1157
 2950SOL     OW20311   1.376   0.474   1.118  0.0388 -0.0717  0.9045
 2950SOL    HW120312   1.390   0.563   1.152  1.7884  0.0732 -0.1640
 2950SOL    HW220313   1.400   0.423   1.195 -2.4848  2.6220  3.4235
 2951SOL     OW20314   1.163   2.685   6.332 -0.6297  0.3973  0.1853
 2951SOL    HW120315   1.176   2.634   6.411 -2.4059  2.1210  1.5859
 2951SOL    HW220316   1.068   2.692   6.325 -0.2607  3.5861 -1.9117
 2952SOL     OW20317   1.488   3.952   7.330 -0.6542 -0.1616  0.7572
 2952SOL    HW120318   1.439   3.998   7.397  1.0033  0.2479  1.7025
 2952SOL    HW220319   1.521   4.024   7.276 -1.0771  1.7242  3.0387
 2953SOL     OW20320   2.842   0.788   1.755  0.1031  0.6451 -0.5574
 2953SOL    HW120321   2.829   0.834   1.672 -1.1144  1.7590  0.2513
 2953SOL    HW220322   2.910   0.729   1.721 -1.1867 -2.0359  1.4966
 2954SOL     OW20323   4.166   1.558  13.994 -0.2832 -0.0478  0.3623
 2954SOL    HW120324   4.127   1.619  14.056  0.2590  1.5526 -0.8787
 2954SOL    HW220325   4.139   1.477  14.037  1.4655 -0.6057  0.4310
 2955SOL     OW20326   4.113   0.693  10.102  0.3417 -0.7706 -0.1631
 2955SOL    HW120327   4.202   0.723  10.084 -0.9782  3.9145  1.1606
 2955SOL    HW220328   4.087   0.733  10.185  1.8044 -1.7105  0.7358
 2956SOL     OW20329   1.379   2.147  13.551  0.4645 -0.3061 -0.1821
 2956SOL    HW120330   1.325   2.223  13.574  0.8992 -0.5376  1.5807
 2956SOL    HW220331   1.468   2.179  13.566  0.7013 -1.4158  0.7699
 2957SOL     OW20332   3.737   4.545   5.762  0.0537  0.3399  0.1104
 2957SOL    HW120333   3.672   4.553   5.832 -2.3510 -0.7743 -1.9921
 2957SOL    HW220334   3.813   4.514   5.810 -0.0489  1.2205  0.8386
 2958SOL     OW20335   1.831   3.928   2.351  0.1365 -0.2352 -0.1913
 2958SOL    HW120336   1.796   3.901   2.436  2.2118 -1.8797  0.1222
 2958SOL    HW220337   1.755   3.912   2.294 -0.0235  0.9075 -0.3162
 2959SOL     OW20338   0.101   0.790   6.180 -0.4683  0.2881 -0.0800
 2959SOL    HW120339   0.008   0.811   6.191 -0.4682  1.4583 -2.2055
 2959SOL    HW220340   0.105   0.695   6.189  0.0290  0.4184  1.1414
 2960SOL     OW20341   2.606   0.266   8.034 -0.1001  0.4680  0.3624
 2960SOL    HW120342   2.630   0.347   7.989  1.6249  0.2291  0.8505
 2960SOL    HW220343   2.693   0.227   8.035  0.1530  1.0483  0.9775
 2961SOL     OW20344   3.002   3.020   6.988 -0.0548  0.7922  0.2945
 2961SOL    HW120345   3.019   2.935   6.946 -1.6736  0.8817 -0.5402
 2961SOL    HW220346   2.930   2.993   7.044  0.3097  0.9824  0.8473
 2962SOL     OW20347   3.252   0.359   7.395 -0.0275  0.0633  0.2098
 2962SOL    HW120348   3.284   0.274   7.425  2.3267  0.9167  0.1476
 2962SOL    HW220349   3.158   0.342   7.395 -0.1166  0.5468  0.8671
 2963SOL     OW20350   3.701   4.248  16.552 -0.1537  0.3802 -0.3210
 2963SOL    HW120351   3.641   4.298  16.497  0.4745  0.6923 -0.7304
 2963SOL    HW220352   3.729   4.320  16.608  2.2933 -2.3854  2.0570
 2964SOL     OW20353   1.867   2.451   5.208  0.0265  0.3792 -0.2676
 2964SOL    HW120354   1.819   2.514   5.261 -2.2928  0.7888 -2.8261
 2964SOL    HW220355   1.832   2.471   5.121  1.6901 -1.1093 -1.2811
 2965SOL     OW20356   4.143   1.165   9.444 -0.2312  0.5938  0.3369
 2965SOL    HW120357   4.050   1.148   9.461 -0.3296 -1.0905 -1.7977
 2965SOL    HW220358   4.133   1.233   9.377 -0.1772 -1.4685 -1.7942
 2966SOL     OW20359   0.599   0.605   7.463 -0.4879  0.4064  0.0847
 2966SOL    HW120360   0.605   0.648   7.548 -1.2964 -0.1099  0.3966
 2966SOL    HW220361   0.511   0.634   7.438 -1.7380 -1.9079  1.7882
 2967SOL     OW20362   3.866   0.105  16.640  0.0840  0.3894 -0.9942
 2967SOL    HW120363   3.896   0.024  16.599  1.4801  0.2759  0.2672
 2967SOL    HW220364   3.871   0.087  16.734 -0.4534 -0.9400 -1.2239
 2968SOL     OW20365   1.296   4.348  14.085 -0.1602  0.3093  0.1311
 2968SOL    HW120366   1.263   4.410  14.150 -1.6006  0.0467 -0.3654
 2968SOL    HW220367   1.386   4.380  14.075 -0.4806  0.7084 -1.4859
 2969SOL     OW20368   2.695   0.211   9.490  0.5909 -0.3670 -0.3684
 2969SOL    HW120369   2.741   0.228   9.408  0.7640  0.6187 -0.0641
 2969SOL    HW220370   2.625   0.276   9.488  0.5478 -0.3525  1.2310
 2970SOL     OW20371   4.604   3.789  12.644  0.1994  0.4171  0.6749
 2970SOL    HW120372   4.547   3.759  12.715 -0.7214  2.1971  0.6767
 2970SOL    HW220373   4.551   3.850  12.593 -0.4267 -1.3967 -0.8519
 2971SOL     OW20374   4.445   0.108   5.956  0.3462 -0.0577 -0.0680
 2971SOL    HW120375   4.441   0.026   5.907  1.5933  0.4984 -1.1210
 2971SOL    HW220376   4.450   0.159   5.874  0.2780  0.4960  0.2697
 2972SOL     OW20377   0.883   2.515   7.074  0.2474  0.3163 -0.1195
 2972SOL    HW120378   0.964   2.541   7.118 -0.1831  1.3211  0.0638
 2972SOL    HW220379   0.914   2.435   7.030  1.8337  0.2360  1.1586
 2973SOL     OW20380   1.874   2.274   7.034  0.4381 -0.1885 -0.5347
 2973SOL    HW120381   1.946   2.232   7.081  1.7990  0.6320 -1.8642
 2973SOL    HW220382   1.902   2.266   6.943  1.5651  3.4238 -0.4823
 2974SOL     OW20383   4.277   0.634   8.662  0.3880  0.1256 -0.3207
 2974SOL    HW120384   4.221   0.695   8.614 -0.4642 -0.0683  0.4278
 2974SOL    HW220385   4.361   0.677   8.642 -0.1863  0.5061 -1.8872
 2975SOL     OW20386   0.599   0.105  11.620 -0.0414  0.3265  0.5805
 2975SOL    HW120387   0.667   0.159  11.578  0.2226 -2.1291 -2.0909
 2975SOL    HW220388   0.544   0.173  11.660 -1.6117 -0.2926 -0.5486
 2976SOL     OW20389   0.013   2.032   7.789  0.3186 -0.6105  0.5684
 2976SOL    HW120390   0.035   2.021   7.696 -2.0135 -3.2422  0.3322
 2976SOL    HW220391   0.097   2.061   7.823  0.2242 -0.1744  0.4304
 2977SOL     OW20392   4.209   4.550  16.482 -0.1133 -0.5131 -0.3868
 2977SOL    HW120393   4.269   4.598  16.424 -0.9102  1.5268  0.4768
 2977SOL    HW220394   4.127   4.598  16.488 -0.6545 -1.5143  0.1084
 2978SOL     OW20395   4.463   2.235   1.746  0.6758  0.2814  0.0954
 2978SOL    HW120396   4.531   2.277   1.798  0.5384 -1.0156  1.2884
 2978SOL    HW220397   4.412   2.307   1.707 -0.7412  0.4622  2.2786
 2979SOL     OW20398   1.374   1.467  13.934 -0.5602  0.8685 -0.1399
 2979SOL    HW120399   1.383   1.406  14.008 -0.5540  1.2981  0.2166
 2979SOL    HW220400   1.283   1.451  13.911 -0.6052  2.5473 -1.0671
 2980SOL     OW20401   3.378   4.358   6.923 -0.2748  0.1465  0.2975
 2980SOL    HW120402   3.426   4.312   6.854 -1.3239  0.1867 -0.4545
 2980SOL    HW220403   3.307   4.394   6.869 -0.1229 -0.8495 -0.5753
 2981SOL     OW20404   0.304   2.584   8.075 -0.4876  0.5009  0.3007
 2981SOL    HW120405   0.376   2.625   8.029  1.0235 -0.7814  1.5217
 2981SOL    HW220406   0.293   2.630   8.158  0.5675  1.4859 -0.1062
 2982SOL     OW20407   1.123   3.227   2.068 -0.2591  0.3433 -0.6949
 2982SOL    HW120408   1.141   3.189   2.154  1.4210  1.9597 -0.3239
 2982SOL    HW220409   1.191   3.289   2.043  0.0427  0.0203 -0.6757
 2983SOL     OW20410   3.203   0.444   8.337  0.2252  0.3924 -0.7867
 2983SOL    HW120411   3.264   0.436   8.410  0.6217 -3.5441 -1.5245
 2983SOL    HW220412   3.143   0.374   8.364  0.2998  0.5279 -0.2610
 2984SOL     OW20413   4.497   3.401  16.477 -1.2970 -0.5042 -0.0790
 2984SOL    HW120414   4.538   3.341  16.415  1.3567  0.3858  0.7979
 2984SOL    HW220415   4.575   3.446  16.509 -1.6708  0.8754 -1.0832
 2985SOL     OW20416   0.213   0.058  10.901 -0.1440 -0.2299 -0.3600
 2985SOL    HW120417   0.133   0.111  10.898 -0.3029 -0.4614 -0.2068
 2985SOL    HW220418   0.199   0.027  10.991 -0.1277  2.1931  0.4811
 2986SOL     OW20419   4.715   0.203   6.291 -0.3758 -0.1033  0.0574
 2986SOL    HW120420   4.716   0.193   6.196  1.4888 -0.7945  0.1407
 2986SOL    HW220421   0.007   0.111   6.312  2.4875 -0.6636 -4.2907
 2987SOL     OW20422   0.619   0.728   6.150  0.6785  0.3976 -0.1504
 2987SOL    HW120423   0.532   0.762   6.130 -0.1571 -0.8006  1.3310
 2987SOL    HW220424   0.630   0.657   6.087  0.7997 -0.2616  0.6117
 2988SOL     OW20425   0.129   2.252   5.027  0.3472  0.1865  0.3435
 2988SOL    HW120426   0.132   2.159   5.049  0.9872  0.4184  1.2240
 2988SOL    HW220427   0.136   2.293   5.113 -1.3412 -1.1363  1.0962
 2989SOL     OW20428   1.267   1.762   2.365 -0.0764 -0.5809 -0.4761
 2989SOL    HW120429   1.267   1.857   2.360  2.7943 -0.4209  2.2650
 2989SOL    HW220430   1.362   1.747   2.369  0.4621  2.6420 -1.5535
 2990SOL     OW20431   0.607   2.309  11.629 -0.8489 -0.1241 -0.0122
 2990SOL    HW120432   0.630   2.363  11.553  1.7624 -0.9305  0.2254
 2990SOL    HW220433   0.672   2.241  11.615 -0.8934  0.0605 -1.1034
 2991SOL     OW20434   0.275   1.503   1.710  0.1498 -0.3687  0.0409
 2991SOL    HW120435   0.336   1.431   1.698  0.9306  0.1985  0.6136
 2991SOL    HW220436   0.252   1.500   1.803 -1.7448  0.2713 -0.4025
 2992SOL     OW20437   0.869   3.776   3.165 -0.4261  0.0504  0.2495
 2992SOL    HW120438   0.793   3.750   3.112 -2.2905  0.4983  2.7235
 2992SOL    HW220439   0.948   3.742   3.123 -0.2417  0.2877  0.4094
 2993SOL     OW20440   3.338   2.490   0.883  0.3688  0.0062 -0.5832
 2993SOL    HW120441   3.324   2.584   0.881 -0.1562  0.0285  2.6209
 2993SOL    HW220442   3.432   2.483   0.900  0.2302  2.3020  1.0709
 2994SOL     OW20443   2.573   2.862   5.503  0.1858  0.1800 -0.4556
 2994SOL    HW120444   2.529   2.897   5.581  1.1528  1.8394 -0.6522
 2994SOL    HW220445   2.500   2.840   5.445  1.7152 -0.5197 -2.1049
 2995SOL     OW20446   1.641   1.384   7.426  0.0390  0.6025  0.2465
 2995SOL    HW120447   1.705   1.337   7.480  0.4161  2.5452  1.4725
 2995SOL    HW220448   1.588   1.427   7.493  0.5371 -0.1122  1.1114
 2996SOL     OW20449   2.062   3.696  10.094 -0.4830 -0.4847  0.1859
 2996SOL    HW120450   2.079   3.641  10.171  0.0828  1.6088  1.5498
 2996SOL    HW220451   2.125   3.767  10.106 -0.0310 -0.7128 -0.8434
 2997SOL     OW20452   3.366   3.529  17.615  0.0358  0.5030  0.0969
 2997SOL    HW120453   3.299   3.496  17.554  0.8537  0.5422 -0.8344
 2997SOL    HW220454   3.424   3.584  17.562  2.4098 -0.6962  1.4307
 2998SOL     OW20455   3.032   1.621  11.410 -0.2653 -0.2434 -0.3289
 2998SOL    HW120456   2.985   1.695  11.449 -0.1044  0.9819 -2.4394
 2998SOL    HW220457   3.123   1.649  11.420 -0.3027  0.3880 -1.8283
 2999SOL     OW20458   3.101   1.420   7.404 -0.2591  0.1528 -0.1591
 2999SOL    HW120459   3.147   1.501   7.381  1.4648 -1.0924 -1.1147
 2999SOL    HW220460   3.170   1.376   7.455  1.4577  2.1221 -0.7436
 3000SOL     OW20461   1.384   4.513  11.801 -0.0238 -0.3122 -0.2972
 3000SOL    HW120462   1.379   4.418  11.795  1.1775 -0.3400 -0.6530
 3000SOL    HW220463   1.292   4.532  11.780  0.6540  2.7610 -0.4785
 3001SOL     OW20464   3.039   1.652   4.677  0.0765 -0.5188 -0.0149
 3001SOL    HW120465   3.100   1.718   4.711 -1.2763  0.9775 -0.5097
 3001SOL    HW220466   3.027   1.682   4.587 -1.2274  2.1450  1.0392
 3002SOL     OW20467   3.040   3.666   1.270  0.5601  0.6407 -0.1413
 3002SOL    HW120468   3.076   3.721   1.200  1.0658  0.1757 -0.2518
 3002SOL    HW220469   2.988   3.729   1.321 -0.9854 -0.4847 -0.3465
 3003SOL     OW20470   3.304   0.574   5.172 -0.3166 -0.0950 -0.2135
 3003SOL    HW120471   3.394   0.603   5.187 -0.4683  1.2061 -1.9364
 3003SOL    HW220472   3.265   0.597   5.257  1.6349  0.4111  0.5447
 3004SOL     OW20473   2.977   3.694   8.524  0.7119 -0.4467 -0.0217
 3004SOL    HW120474   3.026   3.748   8.462 -0.1433 -0.8313 -1.0418
 3004SOL    HW220475   2.992   3.747   8.601 -1.5563  1.0537 -0.6111
 3005SOL     OW20476   0.162   1.686   3.505  0.4758 -0.4116  0.0495
 3005SOL    HW120477   0.119   1.607   3.536  1.0594  0.4872  3.1202
 3005SOL    HW220478   0.251   1.666   3.534  0.7419  2.2289  1.1030
 3006SOL     OW20479   1.200   0.658  11.475  0.5175  0.2470 -0.0572
 3006SOL    HW120480   1.235   0.572  11.455 -1.6945 -0.7905  0.4854
 3006SOL    HW220481   1.148   0.676  11.396  0.7322 -0.3896 -0.3440
 3007SOL     OW20482   0.032   1.319   1.551 -0.5515 -0.3693 -0.1000
 3007SOL    HW120483   0.109   1.336   1.496  0.2370 -1.1577  0.7549
 3007SOL    HW220484   4.687   1.385   1.533 -0.0800  0.1610  0.0903
 3008SOL     OW20485   3.918   2.102   7.402 -0.1926  0.1161  0.3007
 3008SOL    HW120486   3.874   2.116   7.487 -4.2872 -0.5075 -1.7110
 3008SOL    HW220487   3.840   2.110   7.347  0.0204  0.8565  0.1028
 3009SOL     OW20488   2.249   3.705   6.885  0.4562 -0.6635 -0.2694
 3009SOL    HW120489   2.308   3.632   6.869  0.8753  0.1546 -2.4774
 3009SOL    HW220490   2.309   3.778   6.899  1.9648 -1.7670 -1.0105
 3010SOL     OW20491   1.569   0.110   8.569  0.0933 -0.0609 -0.1834
 3010SOL    HW120492   1.591   0.072   8.483 -0.6517 -2.2116  0.5899
 3010SOL    HW220493   1.655   0.150   8.586  0.1815 -0.5602  0.5413
 3011SOL     OW20494   0.700   2.475   8.188 -0.1689  0.2731  0.3395
 3011SOL    HW120495   0.729   2.557   8.230 -0.6244  0.8121 -0.3979
 3011SOL    HW220496   0.630   2.456   8.251 -0.6626  1.0966  0.0341
 3012SOL     OW20497   4.574   3.527  10.487  0.3583 -0.5350 -0.0178
 3012SOL    HW120498   4.588   3.485  10.572  1.2893  0.4916  0.3335
 3012SOL    HW220499   4.644   3.593  10.493 -0.0080 -0.1508  0.0258
 3013SOL     OW20500   0.232   3.247   2.348  0.0078  0.0669  0.2826
 3013SOL    HW120501   0.292   3.309   2.305 -0.2838  0.7699  0.9117
 3013SOL    HW220502   0.153   3.229   2.297  0.1856 -0.0089  0.0324
 3014SOL     OW20503   0.824   2.616  15.312 -0.5211 -0.5936 -0.6266
 3014SOL    HW120504   0.889   2.640  15.377 -2.0928  1.6566  0.0847
 3014SOL    HW220505   0.756   2.577  15.367  1.3805 -1.6908  0.9422
 3015SOL     OW20506   3.582   3.111   8.549 -0.4256 -0.2423  0.2602
 3015SOL    HW120507   3.540   3.167   8.484 -0.9286 -1.6949 -0.6641
 3015SOL    HW220508   3.563   3.161   8.629 -0.4740  0.3486 -0.1164
 3016SOL     OW20509   4.264   1.357   8.393  0.2005 -0.0200 -0.3667
 3016SOL    HW120510   4.259   1.447   8.424  0.3828  0.3026 -1.2569
 3016SOL    HW220511   4.233   1.302   8.464  0.6345 -0.0938 -0.2361
 3017SOL     OW20512   3.012   0.906   7.999  0.2899 -0.1265 -0.5259
 3017SOL    HW120513   3.033   0.818   7.969  2.8431  0.5434 -0.6868
 3017SOL    HW220514   3.098   0.946   7.990  0.9294 -1.5624 -0.7596
 3018SOL     OW20515   3.880   2.968   4.452 -0.3413  0.0454 -0.4034
 3018SOL    HW120516   3.930   3.005   4.380 -1.2934 -0.6990 -1.4409
 3018SOL    HW220517   3.898   3.042   4.509 -2.3799  1.3955 -1.5226
 3019SOL     OW20518   2.632   2.390  15.483  0.0010  0.4710  0.3703
 3019SOL    HW120519   2.709   2.446  15.486  0.2311  0.1722  0.1289
 3019SOL    HW220520   2.663   2.306  15.516  0.1462 -0.1675 -1.3899
 3020SOL     OW20521   4.154   1.492   3.722  0.2473 -0.2837  0.0110
 3020SOL    HW120522   4.100   1.562   3.685 -0.1524 -0.4843  0.2179
 3020SOL    HW220523   4.246   1.519   3.717  0.5491 -1.1329  0.9971
 3021SOL     OW20524   4.597   0.132   2.211  0.1280 -0.2178 -0.5496
 3021SOL    HW120525   4.651   0.074   2.159  0.8261 -1.6010  1.7478
 3021SOL    HW220526   4.645   0.215   2.211  0.2542 -0.2977 -1.5520
 3022SOL     OW20527   0.980   0.489  12.927 -0.5992 -0.2375  0.8223
 3022SOL    HW120528   0.929   0.502  13.007  1.4414  0.0480  2.0802
 3022SOL    HW220529   0.908   0.463  12.869 -0.3589 -0.3161  0.5572
 3023SOL     OW20530   1.948   4.075   3.086  0.8407  0.3247 -0.6115
 3023SOL    HW120531   1.988   4.111   3.165  3.0233 -0.4269 -1.3553
 3023SOL    HW220532   1.894   4.002   3.115 -2.3356  3.3743  1.1313
 3024SOL     OW20533   0.071   3.573   1.102 -0.5011  0.4529  0.1551
 3024SOL    HW120534   0.076   3.532   1.188  2.3606  0.3847 -0.0421
 3024SOL    HW220535   4.717   3.533   1.061  0.5401 -0.7580 -0.5920
 3025SOL     OW20536   1.476   0.389   2.609 -0.3291 -0.2670  0.1839
 3025SOL    HW120537   1.396   0.411   2.561 -1.4967 -1.6876  1.5045
 3025SOL    HW220538   1.462   0.428   2.695 -1.9608  1.3297 -0.8056
 3026SOL     OW20539   0.134   2.639   7.776  0.2717  0.0919  0.4988
 3026SOL    HW120540   0.086   2.702   7.722  1.7979  1.2874  0.5248
 3026SOL    HW220541   0.094   2.643   7.863  1.6309 -0.3122  1.1429
 3027SOL     OW20542   0.700   2.121   5.683 -0.0010  0.0849  0.3102
 3027SOL    HW120543   0.666   2.038   5.715  1.2932  0.2150  2.0442
 3027SOL    HW220544   0.656   2.185   5.739 -1.2305  2.0220 -2.8667
 3028SOL     OW20545   3.167   3.839   8.394 -0.8535  0.3865 -0.0493
 3028SOL    HW120546   3.234   3.837   8.463 -0.2721 -2.8918 -0.7239
 3028SOL    HW220547   3.213   3.859   8.313  1.6541 -0.9356  1.0662
 3029SOL     OW20548   0.135   3.136  16.847 -0.3971  0.7906  0.1405
 3029SOL    HW120549   0.047   3.101  16.838 -0.4562  1.5758 -2.1948
 3029SOL    HW220550   0.147   3.114  16.940  1.9677 -2.1829 -0.8945
 3030SOL     OW20551   0.409   1.149   5.496  0.0664  0.3394 -0.4641
 3030SOL    HW120552   0.487   1.146   5.551  0.1241 -1.1131 -0.6435
 3030SOL    HW220553   0.421   1.215   5.428  0.8237  0.5519 -0.1279
 3031SOL     OW20554   4.345   0.368   7.011 -0.6506  0.0413  0.5872
 3031SOL    HW120555   4.264   0.376   6.962 -0.1518 -0.6433 -0.3247
 3031SOL    HW220556   4.312   0.306   7.076  0.2528 -0.9430  0.0951
 3032SOL     OW20557   3.803   1.453   2.908  0.3283  0.3394  0.2336
 3032SOL    HW120558   3.753   1.514   2.853 -1.4984 -2.0430 -0.7478
 3032SOL    HW220559   3.893   1.473   2.884  0.1421  0.2630 -0.5112
 3033SOL     OW20560   0.966   1.657   7.494 -0.0459 -0.0120  0.4474
 3033SOL    HW120561   0.959   1.745   7.529  0.0718  0.0921  0.2115
 3033SOL    HW220562   0.962   1.677   7.400  1.4384 -0.3650  0.3002
 3034SOL     OW20563   4.160   3.703   2.198  0.1114 -0.4826  0.6765
 3034SOL    HW120564   4.202   3.700   2.284 -0.2103  0.8378  0.8622
 3034SOL    HW220565   4.210   3.770   2.152  1.0543 -1.0565  0.8461
 3035SOL     OW20566   2.242   0.685   5.063  0.6497  0.2900 -0.2174
 3035SOL    HW120567   2.250   0.711   4.971 -0.9098  1.0345 -0.1381
 3035SOL    HW220568   2.149   0.701   5.078  0.6351 -0.0038 -0.0124
 3036SOL     OW20569   3.490   4.196   8.741  0.4793  0.3369 -0.0010
 3036SOL    HW120570   3.480   4.201   8.646 -0.1050 -1.2123 -0.0318
 3036SOL    HW220571   3.402   4.165   8.764 -0.3862  2.9738  0.1702
 3037SOL     OW20572   0.281   3.056   4.902  0.4834  0.1074 -0.2469
 3037SOL    HW120573   0.315   3.102   4.979  0.7775 -0.1993 -0.1970
 3037SOL    HW220574   0.297   3.119   4.831  1.7802  1.8368  1.5745
 3038SOL     OW20575   4.363   3.359   4.620  0.6032  0.0014  0.1770
 3038SOL    HW120576   4.275   3.396   4.631  1.6926  1.7263  3.0505
 3038SOL    HW220577   4.338   3.287   4.562  3.1200  0.6469 -1.6964
 3039SOL     OW20578   0.564   1.844   3.586 -0.1756 -0.5678 -0.3476
 3039SOL    HW120579   0.576   1.875   3.496 -1.7823 -1.0028 -0.7054
 3039SOL    HW220580   0.576   1.922   3.640 -0.7033  1.0291 -2.5388
 3040SOL     OW20581   3.646   2.312   8.206 -0.6851  0.4045 -0.2855
 3040SOL    HW120582   3.689   2.372   8.145 -0.9286 -0.5159 -1.3730
 3040SOL    HW220583   3.638   2.354   8.291 -1.7082 -1.1989  0.4150
 3041SOL     OW20584   4.640   1.684   8.723 -0.1282 -0.0658 -0.4823
 3041SOL    HW120585   4.677   1.767   8.752 -0.4723  1.0411 -3.2111
 3041SOL    HW220586   4.634   1.701   8.629 -2.0512 -1.0294 -0.5351
 3042SOL     OW20587   4.557   1.385   5.243 -0.8386 -0.0663 -0.7029
 3042SOL    HW120588   4.472   1.427   5.229 -0.6999 -0.2155 -2.0049
 3042SOL    HW220589   4.614   1.453   5.279  1.1515 -3.1661  2.0226
 3043SOL     OW20590   1.470   4.138   8.253 -0.3488  0.3702  0.4228
 3043SOL    HW120591   1.409   4.066   8.237  1.1178 -0.6210 -0.6425
 3043SOL    HW220592   1.547   4.099   8.213  0.0022  2.1773 -0.6912
 3044SOL     OW20593   1.494   3.164   4.622  0.5240 -0.1626 -0.2474
 3044SOL    HW120594   1.502   3.075   4.656  0.7309  0.2210  0.6991
 3044SOL    HW220595   1.410   3.148   4.578  1.2779 -2.6512 -0.7826
 3045SOL     OW20596   4.523   3.892   4.695  0.4262 -0.0400 -0.4314
 3045SOL    HW120597   4.496   3.984   4.687  1.4336  0.2730 -0.2089
 3045SOL    HW220598   4.527   3.881   4.790 -0.0269  3.9662  0.0448
 3046SOL     OW20599   2.756   2.523   0.934 -0.1727  0.2719  0.2686
 3046SOL    HW120600   2.813   2.530   1.011  0.2419  1.0159 -0.1093
 3046SOL    HW220601   2.782   2.435   0.906 -2.9553 -0.0839 -1.1564
 3047SOL     OW20602   0.193   3.980  10.525  0.0653 -0.2497 -0.6938
 3047SOL    HW120603   0.282   3.984  10.489 -0.2430  1.0834 -1.3235
 3047SOL    HW220604   0.141   3.989  10.445  1.3153 -6.1077 -2.1575
 3048SOL     OW20605   3.677   2.043   7.283 -0.1771  0.4293 -0.1336
 3048SOL    HW120606   3.625   2.001   7.215 -1.4936  4.4218 -1.5878
 3048SOL    HW220607   3.620   2.101   7.333 -0.2644  0.4677 -0.2778
 3049SOL     OW20608   0.692   2.500   3.702 -0.2764 -0.3654  0.6036
 3049SOL    HW120609   0.781   2.504   3.738 -0.2145 -2.6160  0.7163
 3049SOL    HW220610   0.665   2.589   3.724 -1.1410 -0.1076 -1.4680
 3050SOL     OW20611   1.860   2.759  15.077 -0.2643  0.9367 -0.0530
 3050SOL    HW120612   1.944   2.800  15.062  1.2139 -1.9725  0.2882
 3050SOL    HW220613   1.838   2.720  14.993 -3.7431  1.2958  0.6631
 3051SOL     OW20614   1.109   0.783   4.536  0.7601 -0.2417  0.0526
 3051SOL    HW120615   1.056   0.831   4.598 -0.2514  1.1756 -1.9101
 3051SOL    HW220616   1.173   0.848   4.506  3.1096 -2.5555 -0.0666
 3052SOL     OW20617   3.767   2.572   3.444 -0.0764  0.1698 -0.1340
 3052SOL    HW120618   3.714   2.529   3.510 -1.1058  0.3065 -0.8803
 3052SOL    HW220619   3.795   2.490   3.402  0.0295 -1.1695  2.5438
 3053SOL     OW20620   4.135   0.414   2.170 -0.1189 -0.3306 -0.5836
 3053SOL    HW120621   4.040   0.416   2.162 -0.2512  0.4193  0.9720
 3053SOL    HW220622   4.159   0.504   2.145 -1.3333 -0.8694 -3.7194
 3054SOL     OW20623   2.636   1.529  13.646 -0.4005  0.3069  0.4801
 3054SOL    HW120624   2.714   1.487  13.610 -2.1954 -0.3861 -2.5755
 3054SOL    HW220625   2.571   1.460  13.652  1.0299 -1.1991 -1.4646
 3055SOL     OW20626   0.127   0.469   6.949 -0.7683 -0.4061 -0.5507
 3055SOL    HW120627   0.221   0.469   6.935 -1.2750  0.1856 -3.8072
 3055SOL    HW220628   0.101   0.377   6.950  1.7167 -1.0805  3.3061
 3056SOL     OW20629   4.577   0.626  12.936  0.1527 -0.4008  0.3288
 3056SOL    HW120630   4.625   0.648  13.016  1.3771  0.5991 -0.6674
 3056SOL    HW220631   4.509   0.563  12.961  1.3262 -0.9462  2.1464
 3057SOL     OW20632   0.991   2.841  15.617 -0.0837  0.1289 -0.7062
 3057SOL    HW120633   0.999   2.809  15.527 -1.4098  2.4804 -1.6601
 3057SOL    HW220634   0.895   2.839  15.622  0.0348  0.3693  2.0074
 3058SOL     OW20635   0.354   1.004   4.646 -0.8692  0.2114  0.6951
 3058SOL    HW120636   0.260   1.001   4.665 -1.2835  0.4212 -1.2879
 3058SOL    HW220637   0.378   1.069   4.713 -1.8337 -0.1427  1.3945
 3059SOL     OW20638   3.401   3.282   7.929 -0.1633 -0.2229 -0.0433
 3059SOL    HW120639   3.353   3.235   7.861  1.1211 -1.3726 -0.1647
 3059SOL    HW220640   3.480   3.230   7.942  1.4487  1.7826 -1.8190
 3060SOL     OW20641   1.996   3.008   7.481  0.0448 -0.3007  0.0817
 3060SOL    HW120642   2.051   3.075   7.521  0.9438  0.3851 -2.2935
 3060SOL    HW220643   1.918   3.017   7.535 -1.4086 -2.0506 -1.7437
 3061SOL     OW20644   4.550   0.587  12.649 -0.3378 -0.4330  0.0355
 3061SOL    HW120645   4.607   0.548  12.582 -1.0814  0.5312 -1.1758
 3061SOL    HW220646   4.535   0.518  12.713 -1.7558 -0.7422 -0.6444
 3062SOL     OW20647   0.493   2.407  16.076 -0.1509  1.1848 -0.2467
 3062SOL    HW120648   0.407   2.447  16.081  0.3289  2.1252  0.4218
 3062SOL    HW220649   0.507   2.376  16.166  1.4308  0.0260 -0.8876
 3063SOL     OW20650   3.753   3.748  16.938  0.2093 -0.0448 -0.1125
 3063SOL    HW120651   3.771   3.840  16.920 -1.4077  0.7116  2.0291
 3063SOL    HW220652   3.658   3.739  16.930  0.0862 -0.1575  1.4187
 3064SOL     OW20653   4.345   4.106   2.647  0.7255 -0.8513 -0.0381
 3064SOL    HW120654   4.430   4.145   2.625  0.1508 -0.0250 -0.7409
 3064SOL    HW220655   4.295   4.117   2.567  2.2678 -3.0962 -1.3072
 3065SOL     OW20656   0.271   0.703   4.417  1.1936  0.0462  0.3891
 3065SOL    HW120657   0.343   0.741   4.367  1.3897  0.3838  0.9291
 3065SOL    HW220658   0.196   0.761   4.403 -1.0272 -2.6202  1.2578
 3066SOL     OW20659   2.692   3.890  14.394  0.5867  0.5179  0.3174
 3066SOL    HW120660   2.660   3.851  14.476 -1.2906 -0.8141 -1.0737
 3066SOL    HW220661   2.687   3.985  14.409 -0.5258  0.4916  0.1286
 3067SOL     OW20662   4.369   4.115  16.699 -0.8548  0.2916  0.5039
 3067SOL    HW120663   4.295   4.175  16.686 -1.1377  0.4241  2.7581
 3067SOL    HW220664   4.442   4.171  16.671 -1.1423  0.6084  0.3857
 3068SOL     OW20665   3.379   0.937   7.102 -0.4479  0.2112  0.0855
 3068SOL    HW120666   3.400   0.971   7.016 -1.1603 -2.3226 -1.0862
 3068SOL    HW220667   3.464   0.895   7.108 -0.2665  0.7561  1.6224
 3069SOL     OW20668   1.742   1.461   4.260  0.5527 -0.0582 -0.3914
 3069SOL    HW120669   1.783   1.547   4.267  2.6566 -1.1547  0.5907
 3069SOL    HW220670   1.800   1.411   4.316  0.1248 -1.2609 -1.0256
 3070SOL     OW20671   3.319   1.746   8.530  0.1279  0.4268  0.2838
 3070SOL    HW120672   3.335   1.707   8.616 -3.3070  0.6724  1.0216
 3070SOL    HW220673   3.374   1.690   8.476 -0.0722 -0.0907  0.6202
 3071SOL     OW20674   4.384   2.579   9.903 -0.3537  0.1846  0.1527
 3071SOL    HW120675   4.366   2.561   9.995 -1.6877  1.2035  0.0902
 3071SOL    HW220676   4.429   2.663   9.910  0.0387  0.3121 -3.5444
 3072SOL     OW20677   1.248   3.954   2.890 -0.3980  0.2648  0.2660
 3072SOL    HW120678   1.165   3.909   2.874  0.1796 -0.1710 -1.4352
 3072SOL    HW220679   1.252   3.955   2.986 -0.8840  2.8823  0.2646
 3073SOL     OW20680   0.726   3.478   8.284  0.2219 -0.1750  0.2685
 3073SOL    HW120681   0.814   3.502   8.314 -0.1500  0.1584  1.1285
 3073SOL    HW220682   0.662   3.488   8.355 -0.7636  1.1447 -0.8003
 3074SOL     OW20683   3.463   1.722  14.366  0.5792  0.0229 -0.4993
 3074SOL    HW120684   3.485   1.814  14.378 -2.2229  0.8962 -1.9534
 3074SOL    HW220685   3.369   1.733  14.348  0.8460  0.6446 -1.5101
 3075SOL     OW20686   4.478   3.419   6.305 -0.0371 -0.3592  0.5511
 3075SOL    HW120687   4.523   3.472   6.370 -0.0561  1.5722 -1.0049
 3075SOL    HW220688   4.507   3.469   6.229 -2.2229  0.4880  0.2705
 3076SOL     OW20689   4.180   0.413   2.565  0.1519  0.8038  0.1708
 3076SOL    HW120690   4.191   0.508   2.566  0.8063  0.7143  2.4783
 3076SOL    HW220691   4.090   0.396   2.537 -0.9332  0.8311  3.5455
 3077SOL     OW20692   3.359   1.260   5.088 -0.6243 -0.2262 -0.2275
 3077SOL    HW120693   3.407   1.343   5.089 -0.2071 -0.4457 -3.7142
 3077SOL    HW220694   3.423   1.192   5.065  0.7960  0.7893  0.7076
 3078SOL     OW20695   4.550   1.781  13.935 -0.5679  0.2083 -0.5180
 3078SOL    HW120696   4.583   1.694  13.914 -0.9664 -0.1403  0.2977
 3078SOL    HW220697   4.469   1.786  13.884 -0.4130 -0.7273 -0.8526
 3079SOL     OW20698   0.865   2.010   6.005  0.6531  0.1656  0.1319
 3079SOL    HW120699   0.940   1.970   5.960  0.0805  0.8193 -1.4090
 3079SOL    HW220700   0.894   1.997   6.096  0.7784 -2.7159 -0.3151
 3080SOL     OW20701   3.949   2.029   1.818  0.7300 -0.5675  0.2245
 3080SOL    HW120702   3.867   2.062   1.783  1.5540 -0.3092 -1.4479
 3080SOL    HW220703   4.011   2.065   1.754 -0.4896  0.7467 -0.2294
 3081SOL     OW20704   4.544   4.204   4.187 -0.0361 -0.1158  0.0090
 3081SOL    HW120705   4.616   4.222   4.126 -2.0089 -1.4118 -2.6611
 3081SOL    HW220706   4.588   4.192   4.271  3.5707  0.1746 -1.8445
 3082SOL     OW20707   3.957   1.560   5.828  1.0030  0.0417  0.1352
 3082SOL    HW120708   3.989   1.471   5.847 -1.7875 -1.1293 -0.6334
 3082SOL    HW220709   4.006   1.609   5.893  2.2861 -0.0507 -0.7516
 3083SOL     OW20710   2.096   1.851   4.413  0.3364  0.6639  0.0169
 3083SOL    HW120711   2.033   1.916   4.381 -2.0051 -1.7794 -0.4097
 3083SOL    HW220712   2.055   1.765   4.403 -0.7887  1.2603 -0.5655
 3084SOL     OW20713   4.087   0.920   7.799 -0.0887  0.1414  0.4048
 3084SOL    HW120714   4.170   0.966   7.811  0.9555 -2.0875  1.7735
 3084SOL    HW220715   4.041   0.990   7.753  0.6754  2.2639  2.8895
 3085SOL     OW20716   4.711   2.020   1.274  0.2016  0.0791  0.1457
 3085SOL    HW120717   0.060   2.083   1.291  2.0046 -2.3760  1.7296
 3085SOL    HW220718   4.630   2.070   1.279  0.4843  0.6192 -0.5905
 3086SOL     OW20719   0.599   0.274  12.499 -0.2328 -0.2025 -0.2458
 3086SOL    HW120720   0.668   0.327  12.458 -1.2931  0.7554 -0.7875
 3086SOL    HW220721   0.646   0.196  12.528  0.4737  0.3060 -0.0243
 3087SOL     OW20722   0.791   1.367   8.845  0.0178 -0.2208  0.2191
 3087SOL    HW120723   0.730   1.369   8.919 -0.3876 -2.6920 -0.0711
 3087SOL    HW220724   0.865   1.388   8.902 -0.0486  1.1820 -0.1997
 3088SOL     OW20725   0.721   0.621   4.700  0.0076  0.0944  0.1862
 3088SOL    HW120726   0.795   0.673   4.670 -1.0493  2.5539  1.7502
 3088SOL    HW220727   0.654   0.688   4.716  1.4811  1.7563 -0.6323
 3089SOL     OW20728   0.387   0.352   4.184 -0.0422  0.0876  0.0715
 3089SOL    HW120729   0.450   0.408   4.230 -0.1400 -0.0164  0.3324
 3089SOL    HW220730   0.312   0.367   4.242 -1.3338 -2.6107 -0.8729
 3090SOL     OW20731   3.758   0.483   7.979 -0.2250 -0.1021 -0.0049
 3090SOL    HW120732   3.797   0.402   7.946  1.5195  1.0049 -0.6793
 3090SOL    HW220733   3.833   0.538   7.954 -0.2591  0.5269  1.2709
 3091SOL     OW20734   2.192   0.402   6.521 -0.3625 -0.0960 -0.4567
 3091SOL    HW120735   2.104   0.390   6.485 -0.5810  0.8679 -0.2495
 3091SOL    HW220736   2.191   0.348   6.600 -1.8665  1.6571  0.7317
 3092SOL     OW20737   1.765   3.039   4.070 -0.8677  0.4371  0.1079
 3092SOL    HW120738   1.857   3.060   4.085 -0.7685  0.4378 -0.4939
 3092SOL    HW220739   1.758   2.958   4.121  4.3217 -0.0754  0.0344
 3093SOL     OW20740   2.454   2.050   6.617 -0.1703 -0.0819  0.1927
 3093SOL    HW120741   2.511   2.060   6.541  1.6588 -1.5870  1.3678
 3093SOL    HW220742   2.369   2.050   6.575 -0.9464  0.8709  1.7417
 3094SOL     OW20743   1.194   3.293   0.938  0.0929 -0.0654 -0.7465
 3094SOL    HW120744   1.153   3.347   0.870  0.1975 -0.6397 -1.2640
 3094SOL    HW220745   1.286   3.306   0.916  0.1344  2.0387  0.6259
 3095SOL     OW20746   3.441   2.093   5.408 -0.3059  0.1735  0.5419
 3095SOL    HW120747   3.509   2.026   5.417 -0.3794  0.3609  2.5783
 3095SOL    HW220748   3.424   2.092   5.314  1.6419 -0.5646  0.1970
 3096SOL     OW20749   2.769   1.666   7.429  0.0136  0.6913 -0.1136
 3096SOL    HW120750   2.825   1.707   7.364 -1.3843 -0.4932 -2.0471
 3096SOL    HW220751   2.772   1.575   7.399 -1.1506  0.5190  0.2737
 3097SOL     OW20752   1.090   0.371  15.202 -0.2317 -0.1459  0.7543
 3097SOL    HW120753   1.123   0.456  15.230 -0.6688 -0.3525  1.8748
 3097SOL    HW220754   1.046   0.395  15.120  0.2744  0.5389  0.6830
 3098SOL     OW20755   1.639   0.228   2.764 -0.5954  0.3679 -0.3778
 3098SOL    HW120756   1.585   0.277   2.703 -1.6208  0.4841  0.6227
 3098SOL    HW220757   1.577   0.164   2.798  0.6789  0.1605  1.5358
 3099SOL     OW20758   1.688   2.642   8.177  0.5211  0.4335  0.2742
 3099SOL    HW120759   1.622   2.651   8.245  0.8671  2.2863  0.3534
 3099SOL    HW220760   1.733   2.558   8.191 -1.4723 -0.9726 -1.8084
 3100SOL     OW20761   2.395   2.339   7.613 -0.1790 -0.3019  0.1018
 3100SOL    HW120762   2.480   2.299   7.632  0.9418  1.1593 -1.7210
 3100SOL    HW220763   2.337   2.316   7.685 -1.8810  0.8491 -0.8837
 3101SOL     OW20764   1.226   2.711   3.391  0.1604  0.2173 -0.3559
 3101SOL    HW120765   1.318   2.691   3.374  1.1027  2.0933  2.4576
 3101SOL    HW220766   1.231   2.805   3.413  2.0844  0.1973 -0.7736
 3102SOL     OW20767   2.333   0.250  16.869 -0.5907 -0.4176  0.0783
 3102SOL    HW120768   2.273   0.220  16.802 -0.5339  0.3136 -0.2958
 3102SOL    HW220769   2.280   0.322  16.902  0.3291  0.6146 -0.6982
 3103SOL     OW20770   1.818   4.507   7.086 -0.2657 -0.1982 -0.1794
 3103SOL    HW120771   1.735   4.524   7.041  1.9287  3.1251 -3.0058
 3103SOL    HW220772   1.860   4.462   7.013  0.1616  0.3206 -0.2555
 3104SOL     OW20773   3.528   1.914   4.403 -0.5954  0.1977  0.2407
 3104SOL    HW120774   3.578   1.987   4.367  0.5587 -1.6982 -2.0372
 3104SOL    HW220775   3.494   1.866   4.327  0.2278  1.2222 -0.7799
 3105SOL     OW20776   1.608   0.334   7.140  0.5241 -0.0119  0.2287
 3105SOL    HW120777   1.647   0.265   7.086 -1.3149 -0.0035 -1.1232
 3105SOL    HW220778   1.546   0.297   7.203 -1.1307  3.2132  0.4862
 3106SOL     OW20779   1.681   2.420  14.354 -0.1209  0.5271 -0.2673
 3106SOL    HW120780   1.706   2.356  14.420 -3.5159  0.2315  0.7480
 3106SOL    HW220781   1.760   2.472  14.341  0.7725 -0.5050  1.0108
 3107SOL     OW20782   3.512   1.623   1.110  0.6228 -0.1738 -0.6001
 3107SOL    HW120783   3.445   1.625   1.179  0.1523  1.1357 -1.0855
 3107SOL    HW220784   3.580   1.579   1.160 -1.6171  1.2785  3.7121
 3108SOL     OW20785   1.303   3.603  12.027  0.3812 -0.2094 -0.5657
 3108SOL    HW120786   1.254   3.567  11.953 -1.5424  0.5671  0.3353
 3108SOL    HW220787   1.386   3.557  12.012 -0.4569 -1.0788 -2.4901
 3109SOL     OW20788   4.190   4.447   1.874 -0.5056 -0.0950  0.0585
 3109SOL    HW120789   4.283   4.466   1.859 -0.9478  0.5399 -1.8761
 3109SOL    HW220790   4.186   4.382   1.945 -0.9464 -0.2464 -0.1063
 3110SOL     OW20791   1.885   3.826   6.688  0.2572 -0.4520  0.0536
 3110SOL    HW120792   1.821   3.757   6.708  1.0525 -1.3739 -0.6031
 3110SOL    HW220793   1.946   3.804   6.759  1.9753  0.1179 -1.2668
 3111SOL     OW20794   2.675   4.148   7.614  0.1025  0.0287 -0.5003
 3111SOL    HW120795   2.678   4.096   7.534 -1.4412 -1.1203  0.1979
 3111SOL    HW220796   2.589   4.127   7.651  0.8394 -2.4992 -0.2117
 3112SOL     OW20797   2.984   2.970   6.129  0.4384 -0.2844  0.4511
 3112SOL    HW120798   3.055   2.910   6.108 -0.3016 -2.0421  2.9947
 3112SOL    HW220799   2.920   2.917   6.082  1.7592 -0.4494 -1.1653
 3113SOL     OW20800   2.868   0.332   5.583 -0.5000  0.5488  0.0127
 3113SOL    HW120801   2.858   0.427   5.583  0.5813  0.6633 -0.7819
 3113SOL    HW220802   2.776   0.307   5.578 -1.0550  2.8047 -1.1979
 3114SOL     OW20803   4.546   2.603  11.557  0.3501  0.6596 -0.3865
 3114SOL    HW120804   4.451   2.605  11.568  0.4970  1.6862  0.6927
 3114SOL    HW220805   4.566   2.588  11.464 -2.8066  0.0686 -0.9775
 3115SOL     OW20806   2.304   3.364   4.870  0.4680 -0.4705  0.1357
 3115SOL    HW120807   2.270   3.345   4.783  0.5698 -0.5178  0.1052
 3115SOL    HW220808   2.375   3.299   4.872  0.1107 -0.8395  0.8517
 3116SOL     OW20809   1.902   4.490   7.346 -0.1995 -0.5965  0.5464
 3116SOL    HW120810   1.963   4.563   7.354 -1.6580  0.3795  2.6796
 3116SOL    HW220811   1.884   4.497   7.252 -0.4773 -2.7083  0.4249
 3117SOL     OW20812   4.511   0.073   7.378  0.7748  0.7812 -0.2959
 3117SOL    HW120813   4.602   0.089   7.354  0.4559 -0.3593 -2.2733
 3117SOL    HW220814   4.499   0.150   7.434 -0.1592  1.9305 -2.0783
 3118SOL     OW20815   3.592   4.338  11.148 -0.0070 -0.1117 -0.4503
 3118SOL    HW120816   3.525   4.363  11.084 -1.1705  0.8543  1.1411
 3118SOL    HW220817   3.637   4.271  11.097  0.4373  2.2511 -3.1580
 3119SOL     OW20818   2.920   0.445   4.938 -0.1759  0.4466 -0.2834
 3119SOL    HW120819   2.993   0.479   4.887  0.2826  0.0220  0.1002
 3119SOL    HW220820   2.968   0.363   4.945 -0.7142  0.0295 -1.4059
 3120SOL     OW20821   2.031   2.957   4.583 -0.0726  0.2492 -0.0462
 3120SOL    HW120822   2.040   2.955   4.488 -0.2252  2.6315 -0.1130
 3120SOL    HW220823   1.938   2.937   4.593 -0.2008  1.2264  0.7932
 3121SOL     OW20824   1.157   1.318   5.615  0.2484 -0.0346  0.3041
 3121SOL    HW120825   1.227   1.254   5.624 -0.5665 -0.7207  1.7956
 3121SOL    HW220826   1.105   1.301   5.694  0.4232 -0.3110  0.3600
 3122SOL     OW20827   3.534   2.463   2.745 -0.5570  0.7574 -0.2499
 3122SOL    HW120828   3.586   2.524   2.692 -1.4609  2.0689  0.3740
 3122SOL    HW220829   3.461   2.459   2.684 -0.9510  0.8150  0.2176
 3123SOL     OW20830   1.786   3.462   9.454  0.3075 -0.1734 -0.4070
 3123SOL    HW120831   1.713   3.523   9.440 -0.8176 -0.3411  4.6108
 3123SOL    HW220832   1.764   3.428   9.541 -1.7546  2.5173  0.1460
 3124SOL     OW20833   1.300   0.990   2.459 -0.4147 -0.4741  0.2836
 3124SOL    HW120834   1.220   0.946   2.429 -0.1765 -0.4512 -0.3789
 3124SOL    HW220835   1.321   0.931   2.532 -0.8429 -1.7017 -0.5723
 3125SOL     OW20836   0.371   2.114  10.681  0.5416 -0.0928  0.6102
 3125SOL    HW120837   0.386   2.118  10.776 -3.2605  0.1416  1.2005
 3125SOL    HW220838   0.372   2.209  10.669  2.3713 -0.1603  0.1011
 3126SOL     OW20839   1.876   0.937   5.786  0.5133  0.2070  0.0974
 3126SOL    HW120840   1.833   0.962   5.704 -1.4640 -2.1358  0.4225
 3126SOL    HW220841   1.864   0.842   5.780 -1.3399  0.4692 -0.3716
 3127SOL     OW20842   2.696   1.508   8.437  0.5210 -0.7995  0.0012
 3127SOL    HW120843   2.779   1.531   8.479 -0.6696  1.3009  1.1997
 3127SOL    HW220844   2.722   1.416   8.424 -1.8404 -1.6157  1.0590
 3128SOL     OW20845   0.809   4.037   9.745 -0.6526  0.4599  0.6579
 3128SOL    HW120846   0.865   3.988   9.686 -0.3266  0.6536  0.8003
 3128SOL    HW220847   0.867   4.062   9.818  0.6814  0.1760 -0.3109
 3129SOL     OW20848   3.275   1.021   7.934  0.0326 -0.3948  0.1974
 3129SOL    HW120849   3.307   1.091   7.877  1.4179 -1.3233 -0.1594
 3129SOL    HW220850   3.309   0.947   7.884  0.5943 -0.2128  0.3125
 3130SOL     OW20851   0.766   1.461   9.370 -0.0594 -0.0754 -0.3748
 3130SOL    HW120852   0.741   1.396   9.304  2.3954 -2.4137  0.9882
 3130SOL    HW220853   0.685   1.482   9.416  0.7981  0.0033  1.0937
 3131SOL     OW20854   2.402   1.451   6.156 -0.7220 -0.8020 -0.2950
 3131SOL    HW120855   2.362   1.538   6.150  1.0519  0.1023  0.6407
 3131SOL    HW220856   2.482   1.454   6.104 -0.7983  0.9374 -0.3351
 3132SOL     OW20857   0.884   4.038  11.656 -0.0194  0.0148 -0.3709
 3132SOL    HW120858   0.931   4.109  11.612 -2.0922  1.3619 -0.4270
 3132SOL    HW220859   0.833   4.010  11.580 -0.3625 -0.8489  0.1718
 3133SOL     OW20860   1.690   0.532   7.450 -0.3781 -0.0861  0.3078
 3133SOL    HW120861   1.653   0.605   7.500  2.2133 -0.5324  2.9339
 3133SOL    HW220862   1.681   0.564   7.360  1.3596 -0.7585 -0.1133
 3134SOL     OW20863   3.544   2.711   9.944 -0.1118 -0.2009 -0.4169
 3134SOL    HW120864   3.598   2.668  10.010 -1.3664  1.7892  1.8941
 3134SOL    HW220865   3.457   2.690   9.977  0.3332 -0.1924  0.7540
 3135SOL     OW20866   0.757   0.274  14.682 -0.2305  0.4075 -0.1658
 3135SOL    HW120867   0.763   0.191  14.634 -1.3046 -0.4364  1.1549
 3135SOL    HW220868   0.849   0.300  14.682 -0.2061  0.3214 -0.5848
 3136SOL     OW20869   3.846   2.023   8.874  0.5478 -0.4540  0.9134
 3136SOL    HW120870   3.773   2.051   8.929 -0.7640 -0.4687 -0.8061
 3136SOL    HW220871   3.828   1.929   8.871  0.6187 -0.4426  0.1628
 3137SOL     OW20872   1.636   4.466   0.833  0.4963  0.0088  0.0787
 3137SOL    HW120873   1.610   4.553   0.862 -0.8070 -1.0282  2.0265
 3137SOL    HW220874   1.634   4.413   0.913  0.9704  2.3841  1.6531
 3138SOL     OW20875   1.642   2.505  15.034 -0.2979 -0.0713 -0.1319
 3138SOL    HW120876   1.619   2.554  14.955  2.1920  0.3059 -0.6204
 3138SOL    HW220877   1.590   2.551  15.100 -0.5460  1.7968 -1.6508
 3139SOL     OW20878   0.752   4.673  14.411  0.2955  0.0118  0.0769
 3139SOL    HW120879   0.822   0.013  14.387  1.1958  0.1730  3.1962
 3139SOL    HW220880   0.756   4.684  14.506  0.5671  0.5975 -0.0036
 3140SOL     OW20881   0.929   4.363   6.057  0.3873  0.0513 -0.5937
 3140SOL    HW120882   0.867   4.374   6.129  1.8914 -0.1520  0.7181
 3140SOL    HW220883   0.901   4.282   6.014  1.0395 -0.9184  0.8179
 3141SOL     OW20884   0.952   0.948   1.839 -0.0148 -0.2336  0.1107
 3141SOL    HW120885   0.934   1.037   1.809  1.9034 -0.5447 -2.0178
 3141SOL    HW220886   1.000   0.910   1.765 -0.3990  0.7565 -0.6582
 3142SOL     OW20887   1.594   4.204   6.094  0.1836  0.2299  0.2677
 3142SOL    HW120888   1.619   4.290   6.126 -0.5401  0.0872  1.2003
 3142SOL    HW220889   1.632   4.160   6.170  0.4541 -2.3721 -1.3489
 3143SOL     OW20890   3.070   1.284  17.406 -0.3791  0.5318  0.3165
 3143SOL    HW120891   3.086   1.370  17.445  2.1926  1.0877 -1.9702
 3143SOL    HW220892   2.976   1.281  17.421 -0.6867  2.2612 -1.3278
 3144SOL     OW20893   0.190   0.248  14.080 -0.5191 -0.2056 -0.1028
 3144SOL    HW120894   0.232   0.305  14.144 -0.1589 -1.0205  0.3897
 3144SOL    HW220895   0.104   0.287  14.065  0.5882  0.7722 -3.9340
 3145SOL     OW20896   2.448   2.604   8.004 -0.3240 -0.2360  0.2376
 3145SOL    HW120897   2.513   2.671   8.026 -1.2751  0.5899  0.5152
 3145SOL    HW220898   2.386   2.648   7.946 -0.4959  1.8114  1.9629
 3146SOL     OW20899   0.507   1.453  15.825 -0.3261 -0.3723 -0.1309
 3146SOL    HW120900   0.413   1.451  15.810 -0.3540 -0.8187  0.1196
 3146SOL    HW220901   0.523   1.529  15.769  2.1078 -1.1240 -0.4598
 3147SOL     OW20902   2.316   1.676   3.602 -0.4101  0.3707  0.4026
 3147SOL    HW120903   2.410   1.692   3.613 -0.6045 -0.1519  2.7139
 3147SOL    HW220904   2.307   1.686   3.507 -1.5740  0.9396  0.5708
 3148SOL     OW20905   3.450   3.697  17.388 -0.1827  0.1924 -0.1865
 3148SOL    HW120906   3.392   3.771  17.368 -0.4882  0.0461  0.1482
 3148SOL    HW220907   3.530   3.748  17.404  0.4912 -0.0211 -3.0420
 3149SOL     OW20908   0.500   1.402   6.713 -0.4044  0.0606  0.2940
 3149SOL    HW120909   0.568   1.464   6.687 -0.5278 -0.3086 -0.9109
 3149SOL    HW220910   0.448   1.389   6.633  0.7657  1.8933 -0.7505
 3150SOL     OW20911   4.382   4.145  10.497 -0.4731 -1.2424 -0.5896
 3150SOL    HW120912   4.453   4.207  10.478 -1.1438 -0.3928 -0.2820
 3150SOL    HW220913   4.366   4.092  10.419 -0.0215 -1.4409 -0.5491
 3151SOL     OW20914   0.171   1.467  12.195 -0.3771 -0.6327 -0.3068
 3151SOL    HW120915   0.162   1.546  12.141  1.9149 -1.1914 -1.4863
 3151SOL    HW220916   0.221   1.417  12.131  1.3614 -0.6844  1.1017
 3152SOL     OW20917   3.938   4.370   4.055 -0.1582 -0.4930 -0.1146
 3152SOL    HW120918   3.966   4.379   4.146  0.2183  1.0792 -0.3839
 3152SOL    HW220919   3.981   4.449   4.020  3.3679 -2.5541 -0.4785
 3153SOL     OW20920   4.636   4.321  16.868  0.3315 -0.2028  0.0008
 3153SOL    HW120921   4.573   4.355  16.933 -1.1615 -2.7294 -0.1154
 3153SOL    HW220922   4.592   4.341  16.786 -3.2676  0.4929  2.0971
 3154SOL     OW20923   0.724   4.233   7.267  0.0025 -0.0432 -0.0511
 3154SOL    HW120924   0.781   4.309   7.268 -2.2334  1.6134  0.8635
 3154SOL    HW220925   0.707   4.211   7.359 -0.7043 -0.6287 -0.3143
 3155SOL     OW20926   4.453   2.718   3.326 -0.4410 -0.1395 -0.4410
 3155SOL    HW120927   4.455   2.813   3.322 -0.6602 -0.1382 -0.5313
 3155SOL    HW220928   4.401   2.698   3.247 -1.9870 -1.2180  0.8553
 3156SOL     OW20929   1.847   0.222   8.235  0.5439  0.3474 -0.7999
 3156SOL    HW120930   1.871   0.314   8.245  1.5777  0.2885 -2.6693
 3156SOL    HW220931   1.776   0.234   8.172  0.2572  0.4528 -0.4554
 3157SOL     OW20932   4.286   3.186   8.178  0.1384  0.0726  0.1054
 3157SOL    HW120933   4.311   3.119   8.242 -0.1146  0.6993  0.8647
 3157SOL    HW220934   4.360   3.181   8.117  0.1575 -0.3083  0.1643
 3158SOL     OW20935   4.111   0.025   3.746 -0.1908 -0.3241  0.0518
 3158SOL    HW120936   4.185   0.084   3.758 -0.4554 -0.3043  1.6115
 3158SOL    HW220937   4.158   4.677   3.701  0.2320  0.5454 -0.8591
 3159SOL     OW20938   1.596   4.218   7.223  0.3145  0.7726 -0.0357
 3159SOL    HW120939   1.612   4.271   7.302 -0.4725  1.3863 -0.2828
 3159SOL    HW220940   1.519   4.265   7.189  0.1991  1.0495  0.6043
 3160SOL     OW20941   2.248   1.671  14.975  0.6265 -0.0052  0.2471
 3160SOL    HW120942   2.193   1.750  14.981  2.1305  1.1017 -0.3622
 3160SOL    HW220943   2.240   1.644  15.067 -1.6711 -0.1592  0.0090
 3161SOL     OW20944   4.220   0.795  15.454  0.1367  0.3957 -0.0974
 3161SOL    HW120945   4.189   0.754  15.374 -0.1487 -0.4137  0.4312
 3161SOL    HW220946   4.181   0.882  15.449  1.5263  0.9332 -1.6290
 3162SOL     OW20947   0.897   1.676   4.197 -0.2587  0.5027 -0.3768
 3162SOL    HW120948   0.827   1.612   4.208 -1.2352  2.0074  2.1265
 3162SOL    HW220949   0.972   1.621   4.223  0.5391  1.8171  0.0968
 3163SOL     OW20950   0.144   2.874   8.579 -0.7522 -0.2331  0.1347
 3163SOL    HW120951   0.106   2.878   8.667  0.4493 -2.8059  0.7914
 3163SOL    HW220952   0.231   2.838   8.601 -0.4449  0.8120  0.6229
 3164SOL     OW20953   1.369   3.514   7.717  0.0883 -0.2619  1.0771
 3164SOL    HW120954   1.329   3.596   7.747  1.8511  1.1643 -0.4230
 3164SOL    HW220955   1.377   3.523   7.622  1.2800 -0.2179  1.1838
 3165SOL     OW20956   0.774   4.658   2.080  0.5350  0.0298  0.0291
 3165SOL    HW120957   0.858   4.623   2.049 -0.5255 -0.8296 -1.8268
 3165SOL    HW220958   0.775   0.023   2.040  0.8984 -0.2730 -0.6181
 3166SOL     OW20959   0.215   4.196   1.585  0.5096 -0.0537  0.5650
 3166SOL    HW120960   0.260   4.130   1.532  0.9238  3.4841 -3.5663
 3166SOL    HW220961   0.288   4.258   1.596  0.7340  0.2360 -2.3898
 3167SOL     OW20962   3.122   4.467   3.369  0.1982  0.3473  0.2477
 3167SOL    HW120963   3.130   4.372   3.360 -1.3984  0.3515 -1.3020
 3167SOL    HW220964   3.098   4.471   3.461  2.7872  2.0196  0.8367
 3168SOL     OW20965   1.037   3.120   6.467 -0.0788 -0.1192 -0.2784
 3168SOL    HW120966   1.123   3.092   6.498 -1.2971 -3.1529  0.3718
 3168SOL    HW220967   1.038   3.208   6.503 -0.0688 -0.5778  0.8407
 3169SOL     OW20968   2.645   1.613  13.331 -0.9829 -0.0923  0.2240
 3169SOL    HW120969   2.732   1.577  13.349 -0.9057 -0.4977 -0.9514
 3169SOL    HW220970   2.635   1.678  13.401 -2.7074 -3.6295  3.2660
 3170SOL     OW20971   1.010   0.993  14.800  0.0713  0.2619 -0.1121
 3170SOL    HW120972   0.973   0.952  14.878 -1.2557  0.5558 -0.5860
 3170SOL    HW220973   1.003   1.087  14.818  2.9961  0.4018  0.3827
 3171SOL     OW20974   2.888   3.328   0.841 -0.1708 -1.1829 -0.6902
 3171SOL    HW120975   2.878   3.421   0.858  0.6196 -1.6579  2.3182
 3171SOL    HW220976   2.919   3.324   0.750  0.1323  0.8548 -0.6860
 3172SOL     OW20977   1.840   3.959   2.869  0.2294  0.2280  0.3779
 3172SOL    HW120978   1.875   4.042   2.901  1.1415 -0.5072  1.2960
 3172SOL    HW220979   1.753   3.980   2.836  0.0356  1.0486  1.4416
 3173SOL     OW20980   2.213   4.006   4.330  0.0253  0.1297  0.0976
 3173SOL    HW120981   2.145   4.007   4.398 -2.6371  0.3607 -2.5976
 3173SOL    HW220982   2.213   3.916   4.297 -1.2462  0.7664 -1.6011
 3174SOL     OW20983   0.915   1.466   1.368  0.0157  0.3438 -0.1521
 3174SOL    HW120984   0.864   1.509   1.299  1.3257  0.0009 -1.3449
 3174SOL    HW220985   0.859   1.389   1.376 -0.0416  0.3909 -0.1047
 3175SOL     OW20986   2.418   0.417   3.524 -0.7662 -0.0530 -0.1223
 3175SOL    HW120987   2.424   0.489   3.587  1.7699 -1.0924  0.8342
 3175SOL    HW220988   2.416   0.468   3.443  1.1376  0.4586  0.1733
 3176SOL     OW20989   2.811   1.586   3.149 -0.3259 -0.3338  0.1368
 3176SOL    HW120990   2.804   1.581   3.244  0.5252  1.2755  0.2846
 3176SOL    HW220991   2.884   1.647   3.137 -1.2323  0.1657 -2.8373
 3177SOL     OW20992   3.558   4.190   3.697  0.1846 -0.2206 -0.0718
 3177SOL    HW120993   3.550   4.248   3.621  0.4972  0.4860  0.4331
 3177SOL    HW220994   3.633   4.223   3.747 -0.2208  0.2371  0.2404
 3178SOL     OW20995   4.529   1.486   1.507 -0.1572 -1.0226 -0.4704
 3178SOL    HW120996   4.503   1.552   1.443 -0.4717 -0.3882  0.3189
 3178SOL    HW220997   4.516   1.536   1.588 -1.8241 -2.6786  0.2598
 3179SOL     OW20998   1.824   4.590   4.445 -0.3206  0.2195  0.6701
 3179SOL    HW120999   1.852   4.639   4.522  0.1798  0.2197  0.4942
 3179SOL    HW221000   1.859   4.501   4.455 -0.1581  0.2449  0.3604
 3180SOL     OW21001   1.434   4.538   7.377 -0.2855 -0.3453 -0.0014
 3180SOL    HW121002   1.492   4.474   7.417 -0.4797  1.0718  2.5686
 3180SOL    HW221003   1.484   4.617   7.396 -2.1412  1.4190 -2.3822
 3181SOL     OW21004   2.027   0.987   8.940 -0.4434  0.0179  0.1960
 3181SOL    HW121005   2.078   0.907   8.926  0.7274  0.6945  0.5528
 3181SOL    HW221006   1.937   0.958   8.949 -0.3662 -0.4647 -0.5968
 3182SOL     OW21007   3.698   1.223   6.331  0.1988  0.6733 -0.0090
 3182SOL    HW121008   3.721   1.311   6.359  2.9795 -0.3243  0.7984
 3182SOL    HW221009   3.744   1.210   6.248  0.0398  2.1882 -0.3294
 3183SOL     OW21010   2.674   1.700   6.856 -0.5999  0.2768  0.7236
 3183SOL    HW121011   2.671   1.711   6.951  2.2251  0.8160  0.7500
 3183SOL    HW221012   2.636   1.612   6.849  1.0938 -0.5495  1.6027
 3184SOL     OW21013   2.101   3.849   2.617  0.5826 -0.2419 -0.1534
 3184SOL    HW121014   2.090   3.841   2.523 -0.4069 -1.8112  0.0779
 3184SOL    HW221015   2.141   3.764   2.635  0.5232 -1.0473 -3.8458
 3185SOL     OW21016   4.616   0.770  15.925 -0.2748 -0.1737 -0.2237
 3185SOL    HW121017   4.624   0.851  15.977  0.8985 -0.3033 -0.1977
 3185SOL    HW221018   4.637   0.802  15.837 -1.5186  1.3404  0.0315
 3186SOL     OW21019   1.488   2.376   9.484  0.1537  0.1324  0.0509
 3186SOL    HW121020   1.452   2.288   9.472 -2.1577  0.8430  1.7909
 3186SOL    HW221021   1.401   2.415   9.495  0.4450  0.8422 -0.1796
 3187SOL     OW21022   4.445   4.185  11.756 -0.2756  0.1912 -0.1953
 3187SOL    HW121023   4.458   4.201  11.663  2.1257  2.4344  0.5387
 3187SOL    HW221024   4.422   4.276  11.776  1.8011  1.2201 -2.4596
 3188SOL     OW21025   0.663   1.362   2.309  0.1809 -0.4699 -0.0302
 3188SOL    HW121026   0.657   1.457   2.318  0.9586 -0.3171 -1.1996
 3188SOL    HW221027   0.676   1.359   2.215 -3.7605 -0.5209 -0.5924
 3189SOL     OW21028   0.891   3.389   9.043  0.4211  0.4025  0.0204
 3189SOL    HW121029   0.965   3.346   9.000  1.3645  2.7721 -0.7182
 3189SOL    HW221030   0.937   3.409   9.125  0.2727  2.2069 -0.3405
 3190SOL     OW21031   4.700   4.304   3.987 -0.0924 -0.0509 -0.1759
 3190SOL    HW121032   4.656   4.380   3.949 -1.5782 -0.5694  0.4678
 3190SOL    HW221033   0.043   4.335   4.050  1.2297 -1.7253 -0.7217
 3191SOL     OW21034   1.790   1.843   6.346 -0.3326  0.2869 -0.0305
 3191SOL    HW121035   1.804   1.925   6.298 -0.1147  0.7314  0.8024
 3191SOL    HW221036   1.696   1.830   6.340 -0.4894  0.9009  1.1534
 3192SOL     OW21037   2.276   4.626   1.566  0.5539  0.1930 -0.6849
 3192SOL    HW121038   2.308   4.716   1.578 -0.1971  0.6010 -1.6923
 3192SOL    HW221039   2.352   4.592   1.518  1.5145 -2.3282  2.6393
 3193SOL     OW21040   3.902   3.522  16.921  0.1428 -0.4890 -0.5220
 3193SOL    HW121041   3.912   3.488  17.010 -0.8921  0.1823 -0.1424
 3193SOL    HW221042   3.878   3.613  16.936 -0.4465 -0.6079 -0.7360
 3194SOL     OW21043   0.240   1.905  15.783  0.0454 -0.5889 -0.4807
 3194SOL    HW121044   0.201   1.935  15.865 -2.2071 -0.2341 -1.6889
 3194SOL    HW221045   0.218   1.982  15.731  1.4132 -0.0213 -0.2320
 3195SOL     OW21046   3.730   2.376   1.065 -0.2113 -0.0121 -0.1281
 3195SOL    HW121047   3.804   2.378   1.125 -0.8572  0.9297  0.6326
 3195SOL    HW221048   3.769   2.437   1.002  0.0721 -1.4505 -1.3403
 3196SOL     OW21049   2.879   2.151   6.303 -0.1293 -0.4514  0.4170
 3196SOL    HW121050   2.824   2.157   6.225 -0.6691  0.6653  0.8881
 3196SOL    HW221051   2.955   2.095   6.286  0.0400  0.3204 -1.4130
 3197SOL     OW21052   3.869   3.432   3.261 -0.3077  0.0943 -0.4329
 3197SOL    HW121053   3.930   3.369   3.223  0.5224  1.2670 -1.0152
 3197SOL    HW221054   3.896   3.421   3.352 -0.2407  1.3565 -0.3056
 3198SOL     OW21055   3.322   3.737   2.605  0.3083  0.1228  0.4559
 3198SOL    HW121056   3.270   3.700   2.675  1.1422 -0.0700  0.9680
 3198SOL    HW221057   3.380   3.665   2.581  0.0927  0.6643 -1.7086
 3199SOL     OW21058   1.776   2.913   4.600 -0.2948 -0.0751 -0.1987
 3199SOL    HW121059   1.698   2.946   4.557 -0.6443  0.7433  1.0517
 3199SOL    HW221060   1.734   2.861   4.669  3.7402 -0.4218  2.0142
 3200SOL     OW21061   2.594   4.421   4.377 -0.2941  0.2405 -0.1490
 3200SOL    HW121062   2.688   4.436   4.365  0.2379 -3.6043 -0.8581
 3200SOL    HW221063   2.606   4.410   4.472 -1.3355  2.0578  0.1753
 3201SOL     OW21064   0.205   3.208   3.492  0.0126 -0.3350  0.4129
 3201SOL    HW121065   0.219   3.300   3.512  0.5684 -1.0552  3.3645
 3201SOL    HW221066   0.110   3.201   3.479  0.3180  0.3227 -2.1619
 3202SOL     OW21067   0.116   0.930   2.918 -0.3806 -1.3007 -0.2480
 3202SOL    HW121068   0.092   1.010   2.966  0.6563 -2.2841  1.8851
 3202SOL    HW221069   0.033   0.920   2.871 -0.3664 -3.9737  0.3064
 3203SOL     OW21070   1.292   3.051   8.313 -0.0293 -0.3989  0.0949
 3203SOL    HW121071   1.316   3.143   8.322  0.7470 -0.4858 -1.0268
 3203SOL    HW221072   1.356   3.029   8.244 -1.3098 -1.5727 -0.7038
 3204SOL     OW21073   2.695   3.222  14.243 -0.7609 -0.4909 -0.0349
 3204SOL    HW121074   2.698   3.318  14.237 -0.8375 -0.5803 -1.5109
 3204SOL    HW221075   2.695   3.196  14.151 -1.1210 -0.8131  0.0535
 3205SOL     OW21076   2.275   0.014   6.657 -0.0347 -0.5898  0.1091
 3205SOL    HW121077   2.238   4.652   6.630 -2.1483  0.6936 -0.9617
 3205SOL    HW221078   2.327   4.702   6.730 -0.6004  0.0581  0.8086
 3206SOL     OW21079   0.398   3.359   6.608 -0.4197  0.7703  0.6037
 3206SOL    HW121080   0.457   3.417   6.656 -0.0127  1.1947 -0.4105
 3206SOL    HW221081   0.366   3.308   6.683  0.0558 -0.7027 -0.1958
 3207SOL     OW21082   4.182   0.349   6.387 -0.2236 -0.2356  0.2069
 3207SOL    HW121083   4.249   0.412   6.412  1.6344 -0.6615 -3.6460
 3207SOL    HW221084   4.211   0.317   6.301  1.6195 -1.6093  1.3558
 3208SOL     OW21085   0.902   0.357  11.730  0.3765 -0.4410 -0.3514
 3208SOL    HW121086   0.825   0.414  11.725 -0.3058 -1.3272  0.0771
 3208SOL    HW221087   0.922   0.360  11.637 -1.0221  0.9211 -0.6103
 3209SOL     OW21088   1.280   0.160   3.186 -0.6575  0.7223  0.2850
 3209SOL    HW121089   1.297   0.097   3.116  0.1193  0.5607  0.6206
 3209SOL    HW221090   1.351   0.221   3.171 -0.5259  0.9316  1.7489
 3210SOL     OW21091   0.074   4.663   6.336  0.5028  0.2623  0.0898
 3210SOL    HW121092   0.156   4.703   6.366  0.0928 -0.4351  2.0846
 3210SOL    HW221093   0.102   4.571   6.341  2.2343  0.7730 -0.2652
 3211SOL     OW21094   2.660   0.217   9.012  0.2911 -0.0119  0.6349
 3211SOL    HW121095   2.703   0.154   9.069  1.6438  1.3120  1.0994
 3211SOL    HW221096   2.568   0.192   9.016  0.7411 -1.7494  0.3013
 3212SOL     OW21097   4.589   0.892   6.161  0.1322 -0.1780 -0.4305
 3212SOL    HW121098   4.501   0.906   6.127  0.2976 -0.3760 -0.9422
 3212SOL    HW221099   4.614   0.984   6.167  1.9810 -0.8130  1.4268
 3213SOL     OW21100   4.503   4.415  16.169 -0.1055 -0.5791  0.1005
 3213SOL    HW121101   4.475   4.360  16.096  2.5608  0.4180 -1.6966
 3213SOL    HW221102   4.471   4.499  16.138 -0.5910 -1.2456 -1.1642
 3214SOL     OW21103   0.149   2.371   7.125 -0.0114 -0.0066  0.1575
 3214SOL    HW121104   0.118   2.461   7.112  0.3894 -0.2689 -2.6279
 3214SOL    HW221105   0.066   2.330   7.102  0.7445 -1.4445  0.0550
 3215SOL     OW21106   3.128   4.396  13.714 -0.1028  0.0589 -0.3855
 3215SOL    HW121107   3.072   4.350  13.776 -0.2480 -2.2996 -2.2622
 3215SOL    HW221108   3.130   4.480  13.760  0.0563  0.0875 -0.4451
 3216SOL     OW21109   0.469   1.566   5.376  0.4454  0.0977 -0.1480
 3216SOL    HW121110   0.382   1.607   5.383  1.0348  1.2427  0.3569
 3216SOL    HW221111   0.502   1.571   5.465 -3.7654 -1.4481  1.5165
 3217SOL     OW21112   0.927   1.715   8.733  0.1297  0.2387 -0.0843
 3217SOL    HW121113   0.980   1.644   8.767  0.7613  1.2737  1.1142
 3217SOL    HW221114   0.939   1.787   8.795 -1.7602 -0.5682  1.2101
 3218SOL     OW21115   1.039   3.806   0.947 -0.0422  0.7019  0.0497
 3218SOL    HW121116   1.062   3.730   1.001  0.0053 -0.3699 -1.4742
 3218SOL    HW221117   1.100   3.786   0.877  1.4642 -1.9415  2.1287
 3219SOL     OW21118   3.124   0.329  17.339  0.1915 -0.0265 -0.1771
 3219SOL    HW121119   3.120   0.243  17.296  3.7143 -0.1462 -0.2741
 3219SOL    HW221120   3.074   0.321  17.420  0.6510 -1.2531 -0.0074
 3220SOL     OW21121   4.580   1.253  11.772 -0.2573 -0.0524  0.3841
 3220SOL    HW121122   4.501   1.204  11.754  0.8935 -0.9439 -2.2988
 3220SOL    HW221123   4.545   1.342  11.775  0.6578  0.3650 -1.0719
 3221SOL     OW21124   1.028   0.717   8.617  0.3405 -0.1319  0.0134
 3221SOL    HW121125   1.073   0.801   8.610  0.4600 -0.1448  0.6647
 3221SOL    HW221126   1.034   0.708   8.712 -2.3607  4.1588  0.6072
 3222SOL     OW21127   2.813   0.871   6.625  0.2911 -0.5390 -0.0030
 3222SOL    HW121128   2.831   0.782   6.596 -0.6867 -0.1618 -1.7679
 3222SOL    HW221129   2.885   0.924   6.591  0.0487 -0.6923 -0.7719
 3223SOL     OW21130   1.243   0.647   0.520  0.4713 -0.8548  0.6205
 3223SOL    HW121131   1.323   0.617   0.563  1.2570  1.6913  0.9534
 3223SOL    HW221132   1.266   0.638   0.427  0.9072  0.1476  0.6270
 3224SOL     OW21133   0.748   4.525   8.949 -0.0551 -0.6563  0.4241
 3224SOL    HW121134   0.666   4.535   8.996  0.0193 -0.1529  0.4436
 3224SOL    HW221135   0.790   4.453   8.997  0.5913 -0.0425  0.7707
 3225SOL     OW21136   2.684   3.363   5.800 -0.0631  0.9720  0.5778
 3225SOL    HW121137   2.628   3.375   5.877  1.0037  2.1477  1.1677
 3225SOL    HW221138   2.634   3.297   5.751  3.0585  0.0966 -1.4668
 3226SOL     OW21139   0.994   1.604   2.208 -0.2489 -0.0057 -0.1851
 3226SOL    HW121140   0.944   1.547   2.150 -1.0642 -1.5472  2.0128
 3226SOL    HW221141   1.083   1.576   2.185  0.1598 -1.9584  3.7963
 3227SOL     OW21142   3.334   2.527  12.133  0.5433  0.7080  0.4736
 3227SOL    HW121143   3.307   2.546  12.223  1.4656  4.0829  0.0451
 3227SOL    HW221144   3.308   2.436  12.122  1.7546  0.6523 -1.9875
 3228SOL     OW21145   1.139   2.732   3.953  0.4986 -0.4421 -0.4385
 3228SOL    HW121146   1.092   2.813   3.973 -0.9907 -1.2112 -0.8002
 3228SOL    HW221147   1.134   2.742   3.858 -0.3241  0.0793 -0.3379
 3229SOL     OW21148   3.140   1.069  10.496  0.3495 -0.2377 -0.4433
 3229SOL    HW121149   3.165   0.990  10.544  1.9569  0.2307 -0.5071
 3229SOL    HW221150   3.157   1.135  10.563  1.7531  0.4177 -1.4385
 3230SOL     OW21151   2.315   3.055   4.856 -0.3376  1.0239  0.5151
 3230SOL    HW121152   2.410   3.056   4.869 -0.3421 -0.3251  0.6451
 3230SOL    HW221153   2.284   2.981   4.909  2.3704 -1.5614 -1.4894
 3231SOL     OW21154   4.539   2.753  12.846  0.0593  0.5068  0.6962
 3231SOL    HW121155   4.594   2.684  12.809 -1.9338 -0.7516  0.0559
 3231SOL    HW221156   4.570   2.754  12.936  0.0655  2.9307  0.6633
 3232SOL     OW21157   4.586   2.105   1.564  0.0237 -0.0778 -0.1109
 3232SOL    HW121158   4.546   2.167   1.625 -0.3655  1.3156 -1.8028
 3232SOL    HW221159   4.679   2.127   1.571 -0.2712  0.3901  2.5606
 3233SOL     OW21160   1.553   0.338   1.276 -0.2730 -0.1350  0.4600
 3233SOL    HW121161   1.607   0.275   1.325 -0.1777  0.5197  1.1934
 3233SOL    HW221162   1.535   0.409   1.337 -0.4705  0.4144 -0.2340
 3234SOL     OW21163   2.977   0.979  17.376 -0.4787 -0.1525 -0.0434
 3234SOL    HW121164   3.039   1.018  17.313 -0.8487 -1.9241 -1.4908
 3234SOL    HW221165   3.028   0.983  17.457  0.5931  0.9183 -0.7652
 3235SOL     OW21166   1.563   1.729   5.144 -0.1532  0.5444  0.1601
 3235SOL    HW121167   1.544   1.795   5.211 -0.1006 -0.0682  0.7666
 3235SOL    HW221168   1.494   1.664   5.161  0.1557  0.4096  0.8949
 3236SOL     OW21169   3.021   2.216   6.602 -0.0022  0.3332  0.7383
 3236SOL    HW121170   3.093   2.157   6.622  0.4410  0.0143 -1.8564
 3236SOL    HW221171   3.055   2.253   6.521 -0.2600 -1.0582 -0.0115
 3237SOL     OW21172   0.357   3.866   7.040 -0.3731 -0.0376 -0.0303
 3237SOL    HW121173   0.357   3.841   6.947  0.4993  0.2365 -0.1021
 3237SOL    HW221174   0.451   3.866   7.059 -0.5697 -0.6008  0.9143
 3238SOL     OW21175   1.820   0.769   3.954  0.2673 -0.0873  0.7017
 3238SOL    HW121176   1.746   0.725   3.997 -0.6933  1.5879  0.7986
 3238SOL    HW221177   1.791   0.772   3.863 -1.5662 -0.4069  1.2666
 3239SOL     OW21178   1.576   4.666   1.006  0.0065 -0.6913  0.4731
 3239SOL    HW121179   1.484   4.642   0.998 -0.7779  1.8629  1.6441
 3239SOL    HW221180   1.583   4.698   1.096 -3.5489  1.4350  0.0062
 3240SOL     OW21181   3.244   0.274  11.720  0.7389 -0.5978  0.2003
 3240SOL    HW121182   3.298   0.341  11.761  1.3511  0.0512 -1.6435
 3240SOL    HW221183   3.307   0.206  11.695 -0.3340 -2.1548  1.7798
 3241SOL     OW21184   2.844   1.376  16.242 -0.2289  0.7370 -0.9755
 3241SOL    HW121185   2.860   1.419  16.158  1.0573 -0.3717 -1.3084
 3241SOL    HW221186   2.899   1.430  16.299 -0.3467  0.9906 -1.1047
 3242SOL     OW21187   0.656   0.305   4.430  0.0289 -0.5536 -0.3753
 3242SOL    HW121188   0.667   0.389   4.385 -1.6093  0.2199  0.6651
 3242SOL    HW221189   0.636   0.331   4.520  0.5401 -1.6435  0.0452
 3243SOL     OW21190   2.331   3.004   1.331 -0.2408 -0.4066  0.4397
 3243SOL    HW121191   2.306   3.089   1.368  1.5919  0.9655 -1.5188
 3243SOL    HW221192   2.244   2.972   1.308 -1.3708  1.5452  2.0112
 3244SOL     OW21193   0.014   2.634   6.092  0.1861 -0.6197  0.1639
 3244SOL    HW121194   4.719   2.653   5.999 -1.9655  1.9001  1.0856
 3244SOL    HW221195   0.107   2.613   6.081  0.5890  0.7495  0.9640
 3245SOL     OW21196   0.948   2.302   3.372  0.0328 -0.6081 -0.2973
 3245SOL    HW121197   1.023   2.284   3.316 -1.4619 -0.0790 -2.4474
 3245SOL    HW221198   0.953   2.398   3.374  4.1678 -0.8082 -0.0017
 3246SOL     OW21199   2.063   0.462   3.922  0.2270 -0.4353 -0.0174
 3246SOL    HW121200   2.120   0.529   3.961  0.0682 -0.7429  0.7424
 3246SOL    HW221201   2.122   0.403   3.875  0.6436 -0.1068  0.0956
 3247SOL     OW21202   4.491   0.658   5.083  0.4522 -0.3906  0.4586
 3247SOL    HW121203   4.515   0.726   5.146 -0.8363  0.0939  0.4303
 3247SOL    HW221204   4.422   0.708   5.041 -0.0452 -1.5106 -0.0432
 3248SOL     OW21205   1.227   1.221   8.400  0.8517  0.2760 -0.1600
 3248SOL    HW121206   1.301   1.162   8.383  0.8649  0.3054 -0.2066
 3248SOL    HW221207   1.229   1.238   8.494  0.9634 -1.6623  0.1831
 3249SOL     OW21208   0.823   2.729   7.789 -0.2365  0.1618 -0.2863
 3249SOL    HW121209   0.738   2.769   7.769 -1.0154 -1.0079  0.6801
 3249SOL    HW221210   0.810   2.652   7.735 -0.1628  0.3471 -0.5711
 3250SOL     OW21211   2.741   2.483   0.659  0.3301 -0.3474  0.0449
 3250SOL    HW121212   2.756   2.405   0.713 -0.6633  0.2096  1.1311
 3250SOL    HW221213   2.699   2.543   0.721 -0.0076 -1.4099  0.8555
 3251SOL     OW21214   1.800   2.044   7.550 -0.0960 -0.5743 -0.5311
 3251SOL    HW121215   1.774   2.125   7.507  1.7404  0.9123  1.1773
 3251SOL    HW221216   1.873   2.079   7.601  0.4732 -1.8446 -0.4747
 3252SOL     OW21217   2.215   2.587   8.669  0.0969 -0.3401  0.1026
 3252SOL    HW121218   2.277   2.658   8.684 -1.5477  1.2733 -0.7525
 3252SOL    HW221219   2.155   2.596   8.743  1.0271 -2.7190  1.1249
 3253SOL     OW21220   3.538   1.797   5.825  0.0281  0.0261 -0.6263
 3253SOL    HW121221   3.612   1.847   5.789  0.4585 -0.6484 -0.6760
 3253SOL    HW221222   3.580   1.713   5.842  1.9556  1.5078  1.9032
 3254SOL     OW21223   2.187   0.388   3.168 -0.0876 -0.0755  0.0824
 3254SOL    HW121224   2.259   0.444   3.198  1.4724 -0.5346 -2.8483
 3254SOL    HW221225   2.222   0.373   3.081  0.4986  0.9465  0.1440
 3255SOL     OW21226   0.966   4.027  10.007 -0.0202  0.0629  0.8095
 3255SOL    HW121227   0.994   3.952  10.058 -0.8151 -0.4140  0.5394
 3255SOL    HW221228   1.039   4.087  10.023  0.5001 -1.0664  2.5884
 3256SOL     OW21229   2.942   4.561   7.492 -0.1514  0.2586 -0.0440
 3256SOL    HW121230   2.974   4.471   7.498  0.6389  0.5121 -0.4774
 3256SOL    HW221231   2.848   4.550   7.508  0.1332 -1.8330  0.1870
 3257SOL     OW21232   3.891   0.170   3.772  0.1264 -0.4681  0.1652
 3257SOL    HW121233   3.973   0.120   3.768  0.6201  0.4441 -1.7341
 3257SOL    HW221234   3.905   0.220   3.691 -0.9180  0.9005  0.8385
 3258SOL     OW21235   3.110   3.956   4.896  0.7218  0.5612 -0.3022
 3258SOL    HW121236   3.117   4.042   4.937  1.6863  0.1199  0.4498
 3258SOL    HW221237   3.150   3.901   4.963  1.4634  0.0351 -1.1750
 3259SOL     OW21238   4.037   0.276   6.103  0.3801 -0.1271 -0.5080
 3259SOL    HW121239   4.130   0.277   6.126  0.5011 -1.5739 -0.9588
 3259SOL    HW221240   4.017   0.369   6.092 -1.7260 -0.5657 -0.3378
 3260SOL     OW21241   3.313   1.420   2.783  0.0298  0.0001 -0.2986
 3260SOL    HW121242   3.286   1.450   2.696 -0.9557  0.5315  0.1982
 3260SOL    HW221243   3.383   1.359   2.761 -1.4475 -1.4224 -1.0581
 3261SOL     OW21244   1.538   1.532  11.676  0.8632  0.0575 -0.4498
 3261SOL    HW121245   1.518   1.438  11.669 -0.3432  0.4221 -1.8081
 3261SOL    HW221246   1.460   1.577  11.643 -1.4436 -1.3804  3.0137
 3262SOL     OW21247   0.643   0.620  16.613  0.2716 -0.1996  0.2700
 3262SOL    HW121248   0.646   0.639  16.707  0.3625 -1.4902  0.5224
 3262SOL    HW221249   0.665   0.705  16.574  0.2426  1.0856  3.0824
 3263SOL     OW21250   0.914   2.727   4.259 -0.1097 -0.3015 -0.4153
 3263SOL    HW121251   0.838   2.674   4.284 -1.7181  2.6894  1.0350
 3263SOL    HW221252   0.888   2.742   4.169 -1.3712  0.8160  0.1363
 3264SOL     OW21253   0.492   3.583   0.531  0.7237  0.0718 -0.1855
 3264SOL    HW121254   0.488   3.489   0.515  0.3525 -0.0375  0.5372
 3264SOL    HW221255   0.464   3.586   0.623  0.4056  0.3466 -0.2878
 3265SOL     OW21256   2.912   2.134   2.857 -0.2893 -0.4057 -0.2357
 3265SOL    HW121257   2.891   2.226   2.840 -0.1872 -0.2274  0.5969
 3265SOL    HW221258   2.820   2.109   2.864 -0.0119 -1.1091  0.8232
 3266SOL     OW21259   0.714   3.079  15.521  0.1928  0.4667  0.5282
 3266SOL    HW121260   0.707   3.169  15.553  0.7796  1.0568 -0.9782
 3266SOL    HW221261   0.621   3.058  15.513  0.0539  0.6683  1.6878
 3267SOL     OW21262   2.337   1.316   5.043  0.4637  0.5709  0.4383
 3267SOL    HW121263   2.258   1.275   5.007 -0.2560  1.6156  0.8179
 3267SOL    HW221264   2.402   1.263   4.997  1.2556  0.8615  1.2144
 3268SOL     OW21265   0.973   3.548   6.312  0.1657  0.0365 -0.0736
 3268SOL    HW121266   1.067   3.567   6.320  0.4246 -0.8024 -1.0710
 3268SOL    HW221267   0.941   3.553   6.401 -2.9502 -0.0230 -1.2072
 3269SOL     OW21268   3.128   2.456   6.771  0.5725 -0.0263 -0.0475
 3269SOL    HW121269   3.174   2.397   6.831  0.5542  0.3389  0.3255
 3269SOL    HW221270   3.161   2.425   6.687  0.5770 -0.4914  0.1256
 3270SOL     OW21271   0.413   2.079   2.031  0.7143 -0.1430  1.2955
 3270SOL    HW121272   0.451   2.066   1.944 -0.2749 -3.2152  1.3183
 3270SOL    HW221273   0.467   2.145   2.073  0.6048 -0.5646  2.1071
 3271SOL     OW21274   1.210   3.891   4.849  0.2382 -0.3526  0.1079
 3271SOL    HW121275   1.264   3.823   4.810 -0.9863 -0.6478 -1.1054
 3271SOL    HW221276   1.134   3.872   4.793 -1.2780 -1.3150  2.5194
 3272SOL     OW21277   4.648   1.374   5.915 -0.3664  0.4795 -0.2213
 3272SOL    HW121278   4.638   1.323   5.835  1.1745 -0.9125  0.4675
 3272SOL    HW221279   4.706   1.311   5.958 -0.5708 -0.0718 -0.7609
 3273SOL     OW21280   0.596   4.183   9.681 -0.4414 -0.5634 -0.4486
 3273SOL    HW121281   0.579   4.201   9.773 -0.2429 -2.0230 -0.1253
 3273SOL    HW221282   0.661   4.113   9.691  1.8070  1.6407  0.3199
 3274SOL     OW21283   1.133   4.154  12.381 -0.1639  0.6948  0.0782
 3274SOL    HW121284   1.226   4.131  12.380 -0.1062  0.9304 -0.0274
 3274SOL    HW221285   1.127   4.221  12.314 -2.0349  0.3696 -0.0879
 3275SOL     OW21286   3.889   2.429   1.635  0.4692 -0.0244  0.4087
 3275SOL    HW121287   3.879   2.497   1.701 -1.8649  1.7321 -1.8061
 3275SOL    HW221288   3.975   2.439   1.593  0.0205 -1.2421 -0.7732
 3276SOL     OW21289   2.423   0.553   8.341  0.0472 -0.3744  0.4579
 3276SOL    HW121290   2.468   0.491   8.284 -0.8844 -0.3391 -0.2994
 3276SOL    HW221291   2.340   0.512   8.319  0.2975 -0.1338 -0.9521
 3277SOL     OW21292   4.059   2.212  14.188 -0.1043  0.2021  0.5028
 3277SOL    HW121293   3.980   2.162  14.168 -0.3192  0.3249  1.0332
 3277SOL    HW221294   4.071   2.195  14.282  0.9894  2.2193  0.7278
 3278SOL     OW21295   4.679   0.376   7.272  0.2934 -0.0370 -0.0743
 3278SOL    HW121296   4.694   0.419   7.356  0.4587  0.0962 -0.1724
 3278SOL    HW221297   4.721   0.290   7.282  0.0368 -0.1240  0.2621
 3279SOL     OW21298   1.134   3.259   7.908  0.3327 -0.0972  0.2268
 3279SOL    HW121299   1.116   3.166   7.897 -1.6432  0.3388 -0.2141
 3279SOL    HW221300   1.149   3.278   7.815 -1.5714 -0.2788 -0.1150
 3280SOL     OW21301   2.356   2.286   3.805  0.3874  0.6318  0.3234
 3280SOL    HW121302   2.260   2.286   3.801  0.4923  2.4481 -2.1038
 3280SOL    HW221303   2.381   2.349   3.737  0.3487 -1.4992 -1.6567
 3281SOL     OW21304   1.942   3.801   4.094 -0.0488  0.3066  0.0508
 3281SOL    HW121305   1.929   3.850   4.012 -0.2789  2.1089  1.1704
 3281SOL    HW221306   1.860   3.821   4.139  0.2405  1.6843 -0.0241
 3282SOL     OW21307   0.308   4.270   6.133 -0.3380  0.0383  0.3682
 3282SOL    HW121308   0.219   4.239   6.123  0.8686 -3.9891  2.0771
 3282SOL    HW221309   0.356   4.234   6.059 -0.5415 -0.8941  0.6957
 3283SOL     OW21310   2.459   3.443   3.568 -0.0461  0.5632 -1.2100
 3283SOL    HW121311   2.404   3.503   3.618  0.8304  1.5862 -1.4706
 3283SOL    HW221312   2.487   3.368   3.620 -3.2097 -0.0893 -0.4907
 3284SOL     OW21313   3.842   2.827   3.528 -0.1824  0.3080  0.3434
 3284SOL    HW121314   3.849   2.732   3.519  1.1390  0.4883 -0.4446
 3284SOL    HW221315   3.764   2.832   3.473 -0.6115  2.0398  1.1166
 3285SOL     OW21316   1.155   2.614  15.883  0.0030  0.5174 -0.2467
 3285SOL    HW121317   1.147   2.535  15.830  2.6425 -2.2106  3.4049
 3285SOL    HW221318   1.083   2.662  15.843 -0.7480  1.0281  1.7283
 3286SOL     OW21319   3.298   3.144   2.365 -0.1077 -0.1055 -0.0378
 3286SOL    HW121320   3.203   3.156   2.365 -0.0143  0.6033 -3.4099
 3286SOL    HW221321   3.288   3.053   2.336 -1.5841  0.1931 -0.4407
 3287SOL     OW21322   1.494   1.550   4.142  0.0192  0.5236  0.1472
 3287SOL    HW121323   1.580   1.510   4.153  0.2705  1.3305  1.1798
 3287SOL    HW221324   1.441   1.512   4.212 -1.4340  3.5673  0.7289
 3288SOL     OW21325   1.902   0.597   2.249  0.2449  0.2444 -0.8630
 3288SOL    HW121326   1.905   0.583   2.344 -0.0716 -2.2867 -1.2189
 3288SOL    HW221327   1.995   0.613   2.233 -0.4853  2.4206 -2.9091
 3289SOL     OW21328   3.586   3.966  11.928  0.2483  0.3409  0.1211
 3289SOL    HW121329   3.519   3.978  11.996 -1.1292 -1.0135 -0.9779
 3289SOL    HW221330   3.566   4.043  11.875  1.1851  1.8178  1.9121
 3290SOL     OW21331   4.057   3.976   0.225 -0.0770 -0.0162 -0.0031
 3290SOL    HW121332   4.064   3.889   0.187  1.4316  0.1095 -0.0312
 3290SOL    HW221333   4.137   4.012   0.185  1.5429  0.3875  3.5273
 3291SOL     OW21334   3.714   4.298   5.128 -0.0274 -0.0398  0.4553
 3291SOL    HW121335   3.638   4.323   5.075 -0.1679 -1.6117 -0.1028
 3291SOL    HW221336   3.784   4.348   5.086 -0.2984 -0.3614 -0.3921
 3292SOL     OW21337   0.958   2.793   6.754 -0.0664 -0.0684 -0.1964
 3292SOL    HW121338   0.902   2.797   6.831 -1.1279  2.6240 -1.0889
 3292SOL    HW221339   0.899   2.843   6.697  0.3445  0.4370 -0.1757
 3293SOL     OW21340   3.422   0.542  12.007  0.2341 -0.1492 -0.4824
 3293SOL    HW121341   3.372   0.622  12.020 -0.4615 -1.0521  2.3047
 3293SOL    HW221342   3.447   0.527  12.098 -0.4484  0.7443 -0.1607
 3294SOL     OW21343   2.488   0.385   9.504  0.5589  0.1662 -0.2617
 3294SOL    HW121344   2.417   0.432   9.548  1.9250 -0.0356  2.1781
 3294SOL    HW221345   2.536   0.455   9.460  3.1657 -2.2138 -1.2162
 3295SOL     OW21346   0.071   2.573   3.658 -0.1095  0.6927  0.2954
 3295SOL    HW121347   0.058   2.596   3.566 -2.3542 -0.0597  0.4183
 3295SOL    HW221348   4.712   2.609   3.694 -1.0041 -0.6899 -0.3165
 3296SOL     OW21349   2.649   2.203   7.605  0.5359 -0.8579  0.1579
 3296SOL    HW121350   2.622   2.123   7.559  0.9613 -0.9290  0.0264
 3296SOL    HW221351   2.693   2.165   7.681  0.4536  0.2233  0.7479
 3297SOL     OW21352   1.249   0.224   4.523 -0.2183 -0.0917  0.1462
 3297SOL    HW121353   1.192   0.169   4.469  0.2825  1.5869 -2.1031
 3297SOL    HW221354   1.219   0.193   4.608  0.2021 -1.0262 -0.0429
 3298SOL     OW21355   3.809   1.719   8.119  0.4722 -0.4846  0.4846
 3298SOL    HW121356   3.854   1.642   8.085  2.1989  0.4884  0.5293
 3298SOL    HW221357   3.731   1.718   8.064 -0.0699  2.4764  1.2035
 3299SOL     OW21358   3.775   1.018   2.712  0.1569  0.0763  0.2967
 3299SOL    HW121359   3.743   0.995   2.625 -1.0052  1.3922  0.3720
 3299SOL    HW221360   3.692   1.019   2.759 -0.3973  0.1437 -0.6740
 3300SOL     OW21361   2.186   4.054   6.875  0.1501 -0.0206 -0.1558
 3300SOL    HW121362   2.243   3.982   6.900 -0.3285 -0.9024 -1.6341
 3300SOL    HW221363   2.153   4.078   6.962 -1.1275 -0.0502 -0.6318
 3301SOL     OW21364   1.401   0.898  16.577 -0.3155  0.2615 -0.3101
 3301SOL    HW121365   1.390   0.993  16.581  1.5533  0.5087 -0.9969
 3301SOL    HW221366   1.497   0.888  16.576 -0.4596 -1.0141 -1.2461
 3302SOL     OW21367   1.514   0.415   1.770  0.1141  0.7082 -0.0147
 3302SOL    HW121368   1.610   0.420   1.774  0.1753 -1.5382  1.4761
 3302SOL    HW221369   1.488   0.447   1.856  0.7616  1.8453 -0.2411
 3303SOL     OW21370   2.214   4.528   4.120 -0.0737  0.3072 -0.6454
 3303SOL    HW121371   2.191   4.543   4.212  1.5624 -0.6159 -0.0925
 3303SOL    HW221372   2.237   4.616   4.091  1.2660 -0.2910 -1.3609
 3304SOL     OW21373   1.837   2.678   1.761 -0.4414 -0.4301  0.3690
 3304SOL    HW121374   1.762   2.680   1.821 -1.0984 -0.0481 -0.4658
 3304SOL    HW221375   1.900   2.662   1.831  0.0511  0.5934  0.1645
 3305SOL     OW21376   1.404   1.045   3.955  0.0384  0.2052 -0.4542
 3305SOL    HW121377   1.489   1.001   3.946 -1.5023 -2.1945 -3.0213
 3305SOL    HW221378   1.392   1.086   3.869  1.1698  2.2065  0.3311
 3306SOL     OW21379   1.524   2.604  12.405 -0.4911 -0.5010 -0.0109
 3306SOL    HW121380   1.541   2.694  12.377 -2.6339  0.1880  0.9254
 3306SOL    HW221381   1.603   2.560  12.373 -0.3835  0.4628 -1.0467
 3307SOL     OW21382   4.496   0.519  14.499 -0.1957 -0.4220  0.4399
 3307SOL    HW121383   4.590   0.531  14.512 -0.3296  3.1949 -2.0767
 3307SOL    HW221384   4.492   0.522  14.404  1.7331 -1.0231  0.3338
 3308SOL     OW21385   1.108   3.959   5.143  0.4208 -0.6319 -0.2585
 3308SOL    HW121386   1.048   3.884   5.139  0.5703 -0.6912 -1.3438
 3308SOL    HW221387   1.063   4.025   5.091 -0.1871 -0.6417  0.2456
 3309SOL     OW21388   1.185   0.621   2.301 -0.0731 -0.2558 -0.6252
 3309SOL    HW121389   1.257   0.588   2.355 -0.0019  0.8836 -0.0116
 3309SOL    HW221390   1.170   0.715   2.315  0.6596 -0.4057  1.2385
 3310SOL     OW21391   1.645   0.726   5.373 -0.0817  0.8920  0.0296
 3310SOL    HW121392   1.629   0.685   5.458  3.6981  0.2053  0.3790
 3310SOL    HW221393   1.644   0.648   5.317 -0.8933  1.3061 -0.5443
 3311SOL     OW21394   0.964   0.058   1.747  0.5022 -0.2920  0.5684
 3311SOL    HW121395   0.953   0.151   1.726 -0.3933 -0.2816  1.0919
 3311SOL    HW221396   1.057   0.061   1.766  0.4951 -2.1084  0.8573
 3312SOL     OW21397   2.965   2.982   2.601 -0.9350  0.3691 -0.3622
 3312SOL    HW121398   2.972   3.030   2.518  1.2128 -0.4988 -0.6787
 3312SOL    HW221399   2.871   2.985   2.621 -1.0657 -0.4491 -0.8586
 3313SOL     OW21400   1.853   2.871   8.145  0.0765  0.3579 -0.0142
 3313SOL    HW121401   1.834   2.908   8.231  1.1847 -1.0087  0.8266
 3313SOL    HW221402   1.790   2.798   8.148 -1.8608  2.1250  1.9126
 3314SOL     OW21403   3.719   3.454  10.380 -0.1512  0.3415 -0.1091
 3314SOL    HW121404   3.677   3.387  10.433 -2.5980  2.4933  0.7128
 3314SOL    HW221405   3.804   3.454  10.425 -2.5091 -0.5994  4.3703
 3315SOL     OW21406   3.603   0.941  10.829 -0.1083 -0.8381  0.4367
 3315SOL    HW121407   3.649   0.986  10.900  0.0849  0.8137 -0.7424
 3315SOL    HW221408   3.604   0.851  10.862 -0.6903 -1.4615 -1.2533
 3316SOL     OW21409   1.119   2.401  12.516  0.2122 -0.5824 -0.5101
 3316SOL    HW121410   1.083   2.445  12.439  1.7970  1.5431 -0.0379
 3316SOL    HW221411   1.209   2.434  12.524  0.2358 -0.9807  0.9833
 3317SOL     OW21412   1.599   1.987   4.379 -0.1285 -0.1922 -0.8274
 3317SOL    HW121413   1.637   1.905   4.410  1.0267  0.5130 -0.3895
 3317SOL    HW221414   1.613   2.054   4.446 -2.6731  0.6122 -1.1080
 3318SOL     OW21415   2.917   0.939  12.802  0.1648 -0.0044 -0.4509
 3318SOL    HW121416   2.850   0.969  12.740  1.3740  0.0908 -1.7021
 3318SOL    HW221417   2.960   0.867  12.756  2.3525 -0.0414  1.6642
 3319SOL     OW21418   3.790   3.036  13.120 -0.5683 -0.3712  0.0561
 3319SOL    HW121419   3.744   2.985  13.186  0.2249  1.6128  2.1493
 3319SOL    HW221420   3.864   2.983  13.090 -0.2678  1.1678 -1.8762
 3320SOL     OW21421   2.116   2.826   2.760  0.5268 -0.4583  0.9670
 3320SOL    HW121422   2.137   2.896   2.822 -0.6818 -0.4736  1.3877
 3320SOL    HW221423   2.117   2.748   2.816 -0.9163 -1.7250 -0.7872
 3321SOL     OW21424   1.980   0.664   8.007 -0.5827  0.2022 -0.0788
 3321SOL    HW121425   2.035   0.722   8.061  0.8897 -1.4722  0.2418
 3321SOL    HW221426   2.032   0.584   7.995 -1.1209 -0.4036  1.6555
 3322SOL     OW21427   1.510   1.066  10.385 -0.1252  0.0740  0.3361
 3322SOL    HW121428   1.492   0.994  10.324 -1.9201 -0.5875  1.6199
 3322SOL    HW221429   1.536   1.133  10.322 -1.9075  0.6757  0.2210
 3323SOL     OW21430   3.113   3.755   5.984 -0.4161 -0.1363 -0.0598
 3323SOL    HW121431   3.055   3.830   5.974 -1.0545 -0.3057  2.2165
 3323SOL    HW221432   3.081   3.698   5.914 -2.5745  1.7538 -0.6167
 3324SOL     OW21433   1.222   2.122   9.785  0.3479  0.2033 -0.5175
 3324SOL    HW121434   1.292   2.148   9.845 -1.8309  2.8266  0.8734
 3324SOL    HW221435   1.145   2.164   9.822 -0.4260  0.6386 -2.6304
 3325SOL     OW21436   1.739   0.513   2.816 -0.3516  0.2806  0.2661
 3325SOL    HW121437   1.817   0.478   2.859 -0.1914 -0.7512 -0.8611
 3325SOL    HW221438   1.746   0.482   2.725 -3.5673  1.6525 -0.4469
 3326SOL     OW21439   0.954   2.326   5.873 -0.3576  0.1285 -0.1927
 3326SOL    HW121440   0.941   2.238   5.837 -0.0766  0.0858 -0.1880
 3326SOL    HW221441   0.871   2.344   5.917 -0.5428 -1.4965  0.1363
 3327SOL     OW21442   4.384   2.140   3.319  0.1680  0.0302 -0.4915
 3327SOL    HW121443   4.294   2.108   3.313  0.4846 -0.9339 -0.1173
 3327SOL    HW221444   4.368   2.232   3.298  0.3289 -0.6739 -3.6695
 3328SOL     OW21445   3.345   1.983   2.133 -0.0580 -0.0166 -1.0633
 3328SOL    HW121446   3.411   1.971   2.064  0.4332  1.7914 -0.8998
 3328SOL    HW221447   3.282   2.027   2.076 -2.1109  0.0902  1.2838
 3329SOL     OW21448   3.800   2.941   8.495  0.1982 -0.6144  0.6938
 3329SOL    HW121449   3.719   2.989   8.510  0.1694 -0.4693  0.0784
 3329SOL    HW221450   3.867   3.003   8.524  0.2027  0.5396 -1.8147
 3330SOL     OW21451   0.588   3.228  16.850  0.3657  0.1166 -0.5054
 3330SOL    HW121452   0.575   3.257  16.941  0.9088 -1.1368 -0.0206
 3330SOL    HW221453   0.497   3.216  16.824  0.3183 -0.5187 -0.0478
 3331SOL     OW21454   0.025   1.336   0.854  0.5059  0.4421  0.5687
 3331SOL    HW121455   0.018   1.390   0.933  0.8608  2.9757 -1.1161
 3331SOL    HW221456   0.081   1.262   0.879 -1.4522 -1.5075 -0.8361
 3332SOL     OW21457   3.504   2.140  16.315 -0.1117 -0.7373 -0.1757
 3332SOL    HW121458   3.428   2.181  16.356 -1.2561 -1.4222 -1.6036
 3332SOL    HW221459   3.529   2.203  16.247  2.1468  0.0274  1.3487
 3333SOL     OW21460   4.421   2.914   9.148 -0.2283  0.5476 -0.1175
 3333SOL    HW121461   4.380   2.829   9.127 -1.5845  0.7954  1.4598
 3333SOL    HW221462   4.350   2.966   9.186 -0.3559  0.2181  0.0936
 3334SOL     OW21463   0.428   4.610  10.767 -0.0235 -0.3244  0.4143
 3334SOL    HW121464   0.363   4.666  10.810  0.0226  2.4884 -3.1675
 3334SOL    HW221465   0.380   4.547  10.713  0.2269 -0.1564  0.0022
 3335SOL     OW21466   1.055   3.339   2.612  0.3538  0.1232  0.2961
 3335SOL    HW121467   1.006   3.264   2.647 -1.0914  0.3262 -1.2952
 3335SOL    HW221468   1.011   3.409   2.660 -0.2764  0.6125 -0.9897
 3336SOL     OW21469   0.058   2.416   2.746  0.1627 -0.3437  0.0370
 3336SOL    HW121470   0.141   2.463   2.751 -0.7455  1.2775 -0.1494
 3336SOL    HW221471   4.719   2.479   2.709  0.5566  0.3270  0.5319
 3337SOL     OW21472   0.607   2.735  13.379  0.2525  0.4063 -0.0285
 3337SOL    HW121473   0.682   2.681  13.356 -0.2404 -0.2028 -0.1906
 3337SOL    HW221474   0.560   2.743  13.296  0.2768 -1.2727 -0.1962
 3338SOL     OW21475   1.333   2.362  12.870  0.2437 -0.3620  0.8962
 3338SOL    HW121476   1.355   2.432  12.809  0.6901 -0.7219  0.6463
 3338SOL    HW221477   1.237   2.362  12.866  0.2164  0.4904  1.6107
 3339SOL     OW21478   4.398   0.999   3.313 -0.0708 -0.0171  0.3685
 3339SOL    HW121479   4.400   0.914   3.269  1.1981  0.1029  0.1914
 3339SOL    HW221480   4.308   1.032   3.308  0.4727  1.0458 -2.2305
 3340SOL     OW21481   2.057   2.208  11.312 -0.4140  0.2058  0.2286
 3340SOL    HW121482   2.090   2.285  11.358 -0.0434  0.6578 -0.7845
 3340SOL    HW221483   1.972   2.201  11.356  0.6052 -2.3106  1.7444
 3341SOL     OW21484   2.869   3.824   7.719 -0.4193 -0.2997 -0.6572
 3341SOL    HW121485   2.908   3.905   7.684 -0.9163 -0.3349 -1.2821
 3341SOL    HW221486   2.847   3.781   7.636  0.7574 -1.2996 -0.4553
 3342SOL     OW21487   0.788   2.570  13.263  0.0871 -0.5480 -0.2228
 3342SOL    HW121488   0.881   2.574  13.284  0.0315 -0.0368 -0.0645
 3342SOL    HW221489   0.773   2.476  13.260 -3.1738 -0.0439  0.2249
 3343SOL     OW21490   0.846   1.138   5.416  0.0819  0.6955 -0.1386
 3343SOL    HW121491   0.817   1.225   5.389 -0.5499  0.5319  0.0138
 3343SOL    HW221492   0.870   1.106   5.329 -0.7568 -0.2772 -0.0174
 3344SOL     OW21493   4.498   0.309  17.052 -0.1840  0.0726 -0.8968
 3344SOL    HW121494   4.578   0.276  17.012  0.1364  0.2569 -0.4116
 3344SOL    HW221495   4.475   0.388  17.002  1.8659  2.1332  1.4537
 3345SOL     OW21496   2.101   2.827   3.413 -0.8257 -0.0874  0.6527
 3345SOL    HW121497   2.078   2.774   3.489  0.3164  1.3820  2.0242
 3345SOL    HW221498   2.019   2.815   3.365 -0.7858  0.1966  0.5115
 3346SOL     OW21499   1.800   4.348   2.767  0.5994 -0.3325  0.3503
 3346SOL    HW121500   1.844   4.372   2.849  1.0633  0.0092  0.0006
 3346SOL    HW221501   1.862   4.284   2.734  2.0659  0.7936  0.9451
 3347SOL     OW21502   1.602   4.693   6.656  0.4122 -0.1664  0.1827
 3347SOL    HW121503   1.619   4.610   6.701 -0.0441 -1.2689 -1.6646
 3347SOL    HW221504   1.684   0.020   6.656 -0.9711  2.1554 -0.3541
 3348SOL     OW21505   3.276   0.595  15.519  0.2615 -0.2143 -0.1342
 3348SOL    HW121506   3.236   0.521  15.565 -1.1191 -0.2388 -1.3684
 3348SOL    HW221507   3.221   0.665  15.553  0.9593  0.8726 -1.2377
 3349SOL     OW21508   1.177   1.390   6.310 -0.9465 -0.3966  0.3641
 3349SOL    HW121509   1.095   1.424   6.346 -1.0499  1.5038 -1.6559
 3349SOL    HW221510   1.147   1.366   6.222  1.7317 -1.1561 -0.3119
 3350SOL     OW21511   0.424   4.149   7.166  0.0417 -1.0217 -0.5545
 3350SOL    HW121512   0.333   4.142   7.137 -0.5273  0.0977  1.0099
 3350SOL    HW221513   0.450   4.227   7.115  0.6412 -1.1891 -0.5021
 3351SOL     OW21514   0.214   4.569  10.373  0.2387 -0.1015 -0.4605
 3351SOL    HW121515   0.273   4.613  10.312 -0.8541  1.3294 -0.4952
 3351SOL    HW221516   0.189   4.508  10.303 -0.6710  0.4386 -0.6173
 3352SOL     OW21517   3.214   4.367   6.476 -0.4843  0.0941  0.1512
 3352SOL    HW121518   3.219   4.383   6.570 -0.9010  0.9140  0.0271
 3352SOL    HW221519   3.122   4.386   6.461 -0.3519  1.2697  0.8522
 3353SOL     OW21520   0.374   2.732   9.951 -0.1346  0.4606 -0.6305
 3353SOL    HW121521   0.292   2.704   9.992  0.7042 -0.4011  0.4493
 3353SOL    HW221522   0.398   2.671   9.882  1.8594 -1.0201  1.4064
 3354SOL     OW21523   0.441   3.976   9.170 -0.0818 -0.5098 -0.6440
 3354SOL    HW121524   0.535   3.990   9.178  0.0074 -2.0741  1.1492
 3354SOL    HW221525   0.406   4.017   9.249  1.3717  3.5689 -2.1295
 3355SOL     OW21526   2.786   2.281   0.456 -0.0258 -0.1488  0.6226
 3355SOL    HW121527   2.822   2.202   0.495 -1.2088 -2.5504 -3.1632
 3355SOL    HW221528   2.799   2.351   0.520  0.8127  0.5510 -0.3187
 3356SOL     OW21529   3.312   2.158   6.597 -0.4244  0.0806 -0.0927
 3356SOL    HW121530   3.403   2.151   6.625  0.2885  3.0077 -1.6686
 3356SOL    HW221531   3.319   2.230   6.534  1.6840 -0.8450 -0.9388
 3357SOL     OW21532   3.250   1.345  13.426 -0.4638 -0.2410  0.1829
 3357SOL    HW121533   3.259   1.431  13.385  1.9938  0.4622  2.2208
 3357SOL    HW221534   3.163   1.340  13.466 -0.6481 -1.7038 -0.3825
 3358SOL     OW21535   0.685   2.319  11.059 -0.5995 -0.6549  0.2378
 3358SOL    HW121536   0.738   2.313  10.979 -0.4675 -0.0012  0.2791
 3358SOL    HW221537   0.655   2.408  11.042 -1.3383 -1.0364 -0.4569
 3359SOL     OW21538   0.025   0.253   9.006 -0.0673 -0.2421 -0.6731
 3359SOL    HW121539   4.705   0.268   9.091 -0.0080  0.3948 -0.7518
 3359SOL    HW221540   0.085   0.328   9.001 -2.5591  1.9960  2.6338
 3360SOL     OW21541   4.254   4.294   5.258  0.2080 -0.0777  0.7542
 3360SOL    HW121542   4.219   4.220   5.307 -2.2533  0.0689 -0.7503
 3360SOL    HW221543   4.209   4.286   5.174  0.4019 -0.3074  0.6711
 3361SOL     OW21544   4.455   1.395   3.299  0.3344 -0.0934 -0.9861
 3361SOL    HW121545   4.378   1.452   3.311  0.2832 -0.0943 -1.3126
 3361SOL    HW221546   4.408   1.330   3.247 -1.3126  0.7786 -0.6211
 3362SOL     OW21547   0.736   2.343   9.591 -0.0310 -0.5357 -0.0613
 3362SOL    HW121548   0.698   2.354   9.678  1.1580  0.9547  0.2592
 3362SOL    HW221549   0.700   2.256   9.571 -1.5082  0.0489  0.0355
 3363SOL     OW21550   0.441   1.512   1.334 -0.1352  0.7701  0.4524
 3363SOL    HW121551   0.455   1.514   1.239  1.1651  0.9472  0.6453
 3363SOL    HW221552   0.350   1.485   1.344  0.0994 -0.5957 -0.9817
 3364SOL     OW21553   2.860   1.911   2.012 -0.2100  0.6403 -0.4179
 3364SOL    HW121554   2.781   1.940   2.058 -1.2462 -3.5536  0.4513
 3364SOL    HW221555   2.909   1.994   2.012 -1.7677  1.5635  0.1806
 3365SOL     OW21556   1.554   4.166  14.250 -0.0642 -0.0890  0.3767
 3365SOL    HW121557   1.459   4.153  14.251 -0.2413  1.3005  1.5196
 3365SOL    HW221558   1.584   4.101  14.185  0.6948 -1.0657  1.7121
 3366SOL     OW21559   2.474   4.245   3.868  0.0993  0.0085  0.0111
 3366SOL    HW121560   2.465   4.290   3.952  0.1162  1.2865 -0.6764
 3366SOL    HW221561   2.561   4.206   3.879  0.4745  0.7779 -0.2628
 3367SOL     OW21562   1.719   4.485  15.244 -0.5100  0.5238  0.5465
 3367SOL    HW121563   1.704   4.523  15.331  0.5847 -2.2131  1.9205
 3367SOL    HW221564   1.653   4.527  15.189 -1.0241  0.2178  0.9314
 3368SOL     OW21565   1.635   3.616  11.663 -0.5975 -0.0986  0.1057
 3368SOL    HW121566   1.556   3.566  11.688 -0.3147  0.1213  1.4380
 3368SOL    HW221567   1.694   3.547  11.633 -1.8716 -0.6185 -1.2443
 3369SOL     OW21568   0.723   4.146   6.697  0.2011  0.4852  0.1513
 3369SOL    HW121569   0.752   4.093   6.622  0.8103 -1.0948  1.5088
 3369SOL    HW221570   0.808   4.177   6.729  1.0908 -0.1518 -1.5512
 3370SOL     OW21571   0.543   3.746   6.051 -0.0314 -0.1115 -0.5284
 3370SOL    HW121572   0.599   3.822   6.068  0.0786 -0.3029 -0.0314
 3370SOL    HW221573   0.536   3.734   5.957 -1.8841 -1.7267 -0.1768
 3371SOL     OW21574   2.812   2.233   9.810  0.4260 -0.5092 -0.3530
 3371SOL    HW121575   2.833   2.323   9.835 -0.1434 -0.1623 -1.1457
 3371SOL    HW221576   2.792   2.209   9.900 -0.4824 -0.8539 -0.6501
 3372SOL     OW21577   4.379   0.687   6.810 -0.4448 -0.1489  0.0269
 3372SOL    HW121578   4.298   0.636   6.807  1.2692 -2.8400  0.3074
 3372SOL    HW221579   4.432   0.630   6.755 -0.2839 -0.5759  0.6220
 3373SOL     OW21580   4.461   4.410  14.239  0.2693 -0.3164  0.4607
 3373SOL    HW121581   4.411   4.426  14.319 -0.4447 -1.0196  0.1656
 3373SOL    HW221582   4.400   4.356  14.187  2.5301 -0.2626 -2.2683
 3374SOL     OW21583   3.995   1.048   3.513 -0.2020 -0.2623  0.1160
 3374SOL    HW121584   4.006   1.141   3.536  1.4236 -0.4950  0.2751
 3374SOL    HW221585   4.000   1.019   3.604 -1.8052  0.4564  0.4286
 3375SOL     OW21586   0.704   4.659   1.020 -0.0573 -0.0720  0.3241
 3375SOL    HW121587   0.711   0.029   1.047  1.5838  0.6433 -2.5765
 3375SOL    HW221588   0.673   4.668   0.930 -0.7768 -0.7394  0.5012
 3376SOL     OW21589   0.002   1.286  15.142  0.4291 -0.9862 -0.8471
 3376SOL    HW121590   4.638   1.254  15.117  0.3129 -0.1479 -1.5533
 3376SOL    HW221591   0.053   1.226  15.088  2.0481 -0.5559  0.1927
 3377SOL     OW21592   0.930   2.852   7.472 -0.1223 -0.2730  0.5815
 3377SOL    HW121593   0.987   2.781   7.502 -0.1776  0.1327  1.6318
 3377SOL    HW221594   0.984   2.926   7.499  1.9991 -0.7247 -2.4707
 3378SOL     OW21595   0.341   3.096   6.813  0.2629 -0.7296  0.2730
 3378SOL    HW121596   0.316   3.009   6.781  1.3026 -1.7405  2.2093
 3378SOL    HW221597   0.257   3.132   6.843  0.5271 -0.7386  1.0153
 3379SOL     OW21598   0.784   1.269  16.637  0.0548 -0.0092  0.6623
 3379SOL    HW121599   0.856   1.270  16.574 -1.5904  0.6522 -1.2353
 3379SOL    HW221600   0.768   1.363  16.650 -0.6404 -0.9316  6.1488
 3380SOL     OW21601   1.251   0.940   1.328 -0.9481 -0.3283  0.4415
 3380SOL    HW121602   1.166   0.964   1.367 -0.5226 -0.2243  1.3057
 3380SOL    HW221603   1.257   0.998   1.253  1.2279  2.6297  2.9122
 3381SOL     OW21604   1.027   2.791  12.761  0.3495  0.1040 -0.3686
 3381SOL    HW121605   1.119   2.788  12.735 -0.0339 -0.1487 -1.6722
 3381SOL    HW221606   1.031   2.723  12.829 -1.0957  0.1959 -0.1907
 3382SOL     OW21607   0.835   4.604  14.096  0.4689  0.4873  0.1668
 3382SOL    HW121608   0.757   4.616  14.150 -0.1046 -1.2703 -0.2679
 3382SOL    HW221609   0.907   4.599  14.160  0.1051  2.2271  0.7134
 3383SOL     OW21610   0.000   1.663   9.874 -0.1401  0.2467 -0.2179
 3383SOL    HW121611   0.044   1.615   9.805  1.0070  1.5505 -0.4019
 3383SOL    HW221612   4.631   1.653   9.846  0.1261 -0.2879 -0.8699
 3384SOL     OW21613   0.973   2.975   8.552 -0.1609 -0.3525 -0.0811
 3384SOL    HW121614   1.004   2.984   8.462 -1.5236 -0.1624 -0.5373
 3384SOL    HW221615   0.883   3.008   8.546  0.2808  0.8992  0.3986
 3385SOL     OW21616   3.923   2.340   8.982 -0.0386 -0.3323 -0.6259
 3385SOL    HW121617   3.959   2.318   9.069  2.0504  1.3011 -1.0576
 3385SOL    HW221618   3.951   2.261   8.936  1.9535 -0.1840  0.3004
 3386SOL     OW21619   2.712   2.408  17.660 -0.1209  0.0172  0.6077
 3386SOL    HW121620   2.791   2.358  17.641  0.0657  0.5180  0.0807
 3386SOL    HW221621   2.718   2.409   0.066  0.3909  2.8751  0.5595
 3387SOL     OW21622   2.621   4.428   9.003 -0.0916 -0.5718  0.1226
 3387SOL    HW121623   2.559   4.430   8.930 -1.6382 -0.1774  1.4464
 3387SOL    HW221624   2.563   4.407   9.076  1.8845  0.1336  1.8819
 3388SOL     OW21625   0.697   4.138   2.386  0.0326 -0.2963  0.5525
 3388SOL    HW121626   0.744   4.112   2.465  0.3830 -0.7783  0.1895
 3388SOL    HW221627   0.771   4.139   2.325 -2.0188 -1.8489 -1.9492
 3389SOL     OW21628   1.183   4.444   5.924  0.0014  0.4293 -0.1701
 3389SOL    HW121629   1.121   4.386   5.970  0.9062 -0.0236  0.4835
 3389SOL    HW221630   1.197   4.389   5.847 -0.1058 -0.9967  0.8329
 3390SOL     OW21631   2.429   3.874   3.589 -0.0628  0.2465  0.7520
 3390SOL    HW121632   2.372   3.799   3.571  0.5623 -0.2383  0.7840
 3390SOL    HW221633   2.352   3.931   3.584 -0.6713 -0.3426  3.5023
 3391SOL     OW21634   3.712   1.408  16.776 -0.1646  0.1509  0.2420
 3391SOL    HW121635   3.740   1.316  16.766 -1.1304  0.2136 -2.8930
 3391SOL    HW221636   3.695   1.421  16.683  0.8546 -0.8047 -0.0796
 3392SOL     OW21637   0.834   1.604   9.078  0.1316  0.3381 -0.3883
 3392SOL    HW121638   0.879   1.687   9.064  0.4267  0.2299 -0.0765
 3392SOL    HW221639   0.909   1.546   9.066 -1.0143 -0.9877 -1.1935
 3393SOL     OW21640   2.942   3.236  14.352  0.0486 -0.0115 -0.3852
 3393SOL    HW121641   2.857   3.231  14.308 -0.2355  1.6667 -0.0107
 3393SOL    HW221642   3.005   3.241  14.280  1.6943  2.5348  1.2364
 3394SOL     OW21643   3.213   4.602   7.935 -0.0260  0.2853  0.2517
 3394SOL    HW121644   3.186   4.518   7.897  0.0793  0.3866 -0.0516
 3394SOL    HW221645   3.235   4.658   7.861  0.2949  0.3713  0.4149
 3395SOL     OW21646   0.910   3.217   5.273 -0.1060 -0.3018 -0.1420
 3395SOL    HW121647   0.951   3.293   5.313 -2.5586  1.1492 -0.3785
 3395SOL    HW221648   0.859   3.182   5.347  1.3966 -2.3008 -0.0554
 3396SOL     OW21649   2.072   2.345  13.493  0.4278  0.3324 -0.4448
 3396SOL    HW121650   2.168   2.341  13.495  0.4403  0.1763 -1.5863
 3396SOL    HW221651   2.070   2.429  13.541  0.2554  1.6871 -2.8195
 3397SOL     OW21652   2.327   2.904   3.564  0.3084 -0.0625  0.3485
 3397SOL    HW121653   2.239   2.904   3.528  0.2835  1.8767  0.4312
 3397SOL    HW221654   2.306   2.942   3.649  0.1765  0.5011  0.0640
 3398SOL     OW21655   4.687   1.310  16.254 -0.3954  0.3154 -0.0946
 3398SOL    HW121656   0.027   1.312  16.182 -0.3419 -1.2335 -0.0994
 3398SOL    HW221657   0.007   1.242  16.307 -0.7493  1.3230  1.4622
 3399SOL     OW21658   3.401   3.285   4.239  0.5850 -0.0530  0.1156
 3399SOL    HW121659   3.334   3.347   4.271 -0.1879 -1.3299  0.9679
 3399SOL    HW221660   3.407   3.322   4.151  1.3233 -0.3953  0.0206
 3400SOL     OW21661   4.119   0.311   4.599  0.0927 -0.4313 -0.1411
 3400SOL    HW121662   4.190   0.375   4.597 -0.0767 -0.2743 -1.0488
 3400SOL    HW221663   4.171   0.237   4.631 -0.5813 -0.4833  0.8359
 3401SOL     OW21664   0.539   0.241  10.445 -0.2117  0.3703  0.0812
 3401SOL    HW121665   0.559   0.235  10.538  0.4585 -0.1928 -0.0957
 3401SOL    HW221666   0.565   0.153  10.417 -0.2062  0.5961 -0.6456
 3402SOL     OW21667   4.010   4.546  16.921 -0.1600  0.6472  0.1290
 3402SOL    HW121668   3.963   4.525  17.002 -0.0678 -0.8475 -0.2064
 3402SOL    HW221669   3.975   4.633  16.903  0.2694  0.5742 -1.0352
 3403SOL     OW21670   1.063   0.361   1.808 -0.1863 -0.3852 -0.0112
 3403SOL    HW121671   1.065   0.354   1.904  3.0005 -1.8555 -0.1573
 3403SOL    HW221672   1.144   0.315   1.784  1.7060  3.3585 -0.8768
 3404SOL     OW21673   2.463   4.157   4.762  0.3437 -0.5747  0.5146
 3404SOL    HW121674   2.390   4.112   4.719  0.8123 -1.0202  0.1865
 3404SOL    HW221675   2.418   4.173   4.844 -0.0888 -0.2430  0.2155
 3405SOL     OW21676   0.486   4.261   8.982  0.2383 -0.1261 -0.7170
 3405SOL    HW121677   0.394   4.276   8.959 -0.0298 -1.9156 -0.7768
 3405SOL    HW221678   0.511   4.348   9.013  1.5723 -0.3926 -1.0384
 3406SOL     OW21679   1.072   2.292   8.794  0.0602 -0.5325 -0.0836
 3406SOL    HW121680   1.015   2.343   8.852 -0.6032 -1.0478 -0.2870
 3406SOL    HW221681   1.114   2.231   8.854 -0.0351 -2.1415 -1.6649
 3407SOL     OW21682   1.543   0.692   5.673  0.6669 -0.1305  0.6211
 3407SOL    HW121683   1.448   0.689   5.683  0.4191 -1.9492 -2.4211
 3407SOL    HW221684   1.561   0.608   5.630 -2.4416  0.5868 -2.0619
 3408SOL     OW21685   4.416   3.978   6.347 -0.5603 -0.1985  0.0689
 3408SOL    HW121686   4.348   3.946   6.288  0.0863 -2.0380  0.3082
 3408SOL    HW221687   4.463   3.895   6.360 -1.4449 -0.4094  2.0245
 3409SOL     OW21688   2.427   3.980   8.587 -0.1303  0.1121  0.0834
 3409SOL    HW121689   2.467   4.059   8.550 -0.3637 -0.2633 -0.9599
 3409SOL    HW221690   2.366   4.010   8.654 -1.8618 -0.5483 -1.2296
 3410SOL     OW21691   1.046   1.572  12.887 -0.2073  0.1201  0.2057
 3410SOL    HW121692   1.033   1.662  12.916  1.1253  1.2489 -2.7624
 3410SOL    HW221693   0.983   1.519  12.936 -1.5759  2.2670  0.7916
 3411SOL     OW21694   1.341   2.515   9.100  0.1541  0.1063 -0.5033
 3411SOL    HW121695   1.278   2.494   9.169  1.1554 -0.5853  0.2162
 3411SOL    HW221696   1.290   2.546   9.026 -1.5066  1.6898  1.3130
 3412SOL     OW21697   3.887   2.973  17.257  0.1297  0.5490  0.4582
 3412SOL    HW121698   3.834   2.950  17.180  2.3008  0.3726 -0.9961
 3412SOL    HW221699   3.913   3.060  17.225 -0.3374 -0.6639 -3.2910
 3413SOL     OW21700   4.130   0.504  11.780  0.2036  0.1946 -0.4603
 3413SOL    HW121701   4.089   0.428  11.820 -0.3148  1.9988  2.4819
 3413SOL    HW221702   4.220   0.471  11.778 -0.3216 -1.1064 -2.3122
 3414SOL     OW21703   0.275   2.370   5.959  0.4531 -0.4094 -0.2581
 3414SOL    HW121704   0.244   2.292   6.004 -1.0384 -0.5990 -1.5897
 3414SOL    HW221705   0.196   2.386   5.906 -0.1482 -3.7414 -0.3376
 3415SOL     OW21706   2.098   3.694   8.484  0.4105  0.3567  0.1185
 3415SOL    HW121707   2.164   3.740   8.537 -0.3235  0.8047  0.6360
 3415SOL    HW221708   2.067   3.630   8.548  1.1457 -0.2183 -0.0992
 3416SOL     OW21709   4.085   0.250   0.825  0.0644 -0.1491  0.1359
 3416SOL    HW121710   4.112   0.339   0.803  0.6152 -1.1915 -3.4090
 3416SOL    HW221711   4.079   0.215   0.736  1.5818  1.0682 -0.4523
 3417SOL     OW21712   3.876   0.513   2.803 -0.1641  0.0047 -1.0348
 3417SOL    HW121713   3.946   0.579   2.800  0.7653 -1.0375 -2.3455
 3417SOL    HW221714   3.885   0.461   2.882 -2.5121  0.1544 -0.6703
 3418SOL     OW21715   2.952   0.955   9.153  0.8645 -0.4914  0.1693
 3418SOL    HW121716   2.877   0.965   9.212  3.5197  1.3080  3.2548
 3418SOL    HW221717   3.001   1.037   9.161  2.0792 -1.0389 -1.6938
 3419SOL     OW21718   2.133   1.271   2.516 -0.1062  0.0133  0.1841
 3419SOL    HW121719   2.208   1.328   2.535 -1.3746  1.1411  1.7665
 3419SOL    HW221720   2.097   1.305   2.434 -1.0545  2.3624  1.5905
 3420SOL     OW21721   0.998   3.716   5.101  0.6409 -0.0633  0.1023
 3420SOL    HW121722   1.077   3.674   5.067  0.8984 -1.0033  1.8510
 3420SOL    HW221723   0.936   3.648   5.074  0.6668  0.5376 -1.4458
 3421SOL     OW21724   3.695   0.900   8.082  0.3914 -0.3609  0.8000
 3421SOL    HW121725   3.692   0.992   8.056  0.9210 -0.2074  1.2680
 3421SOL    HW221726   3.607   0.901   8.119 -0.9051  0.6937 -2.3503
 3422SOL     OW21727   3.647   2.910   8.129 -0.4125  0.4775  0.0260
 3422SOL    HW121728   3.614   2.892   8.217 -0.7093 -1.1959 -0.4235
 3422SOL    HW221729   3.699   2.833   8.104  1.1400  0.8092  2.2545
 3423SOL     OW21730   2.805   4.623  15.624  0.0972  0.0246  0.6661
 3423SOL    HW121731   2.877   4.671  15.665  0.2338 -0.2979  0.8076
 3423SOL    HW221732   2.800   4.539  15.669 -0.9892 -0.7130 -0.8233
 3424SOL     OW21733   1.134   4.664   8.183 -0.0741  0.2309 -0.0434
 3424SOL    HW121734   1.066   4.660   8.115  0.3423  0.9305 -0.5112
 3424SOL    HW221735   1.072   4.655   8.256  1.1961  1.5631  1.1955
 3425SOL     OW21736   3.090   1.197   5.481 -0.1482  0.1165  0.3563
 3425SOL    HW121737   3.081   1.150   5.397  1.2797 -1.1820  0.9451
 3425SOL    HW221738   3.094   1.285   5.443 -1.1708  0.6310  1.4451
 3426SOL     OW21739   3.428   1.463   6.857  0.2046  0.3397  0.1194
 3426SOL    HW121740   3.375   1.385   6.874 -1.2961  1.3748  0.1709
 3426SOL    HW221741   3.516   1.432   6.879 -0.5947 -1.7674  0.3336
 3427SOL     OW21742   0.673   4.621   6.689 -0.2674 -0.3387 -0.0778
 3427SOL    HW121743   0.651   4.689   6.753 -1.9901 -0.7545 -0.2233
 3427SOL    HW221744   0.584   4.608   6.656 -0.3937  1.3616 -0.3785
 3428SOL     OW21745   2.241   3.444   3.899  0.4474  0.3782  0.5939
 3428SOL    HW121746   2.197   3.438   3.815  0.9966  2.0572  0.2009
 3428SOL    HW221747   2.298   3.521   3.901  0.5157  0.3631 -1.3244
 3429SOL     OW21748   0.807   4.105  11.167  0.2319  0.1411  0.1902
 3429SOL    HW121749   0.821   4.200  11.161  1.3661  0.1747  3.7959
 3429SOL    HW221750   0.718   4.094  11.134  1.9968 -3.0651 -3.4862
 3430SOL     OW21751   4.530   4.106  15.729  0.3810 -0.3400  0.1475
 3430SOL    HW121752   4.512   4.012  15.735 -0.3870 -0.1904  0.1719
 3430SOL    HW221753   4.467   4.135  15.663  1.9901 -0.4238 -1.4335
 3431SOL     OW21754   1.505   3.887   3.036 -0.4341 -0.0849  0.2823
 3431SOL    HW121755   1.428   3.875   3.091 -1.4748  2.1676 -0.6912
 3431SOL    HW221756   1.520   3.798   3.004  2.7081  0.2702  0.7054
 3432SOL     OW21757   1.394   0.400  11.487 -0.4064 -0.1803  0.3079
 3432SOL    HW121758   1.362   0.342  11.555  0.1444 -3.1459 -1.9459
 3432SOL    HW221759   1.344   0.372  11.410 -0.7880  1.9683 -0.2096
 3433SOL     OW21760   3.893   4.244  11.410  0.0364  0.2986 -0.4356
 3433SOL    HW121761   3.930   4.247  11.322  1.1245  0.8155  0.0351
 3433SOL    HW221762   3.975   4.214  11.450  1.0368  2.0105 -1.1711
 3434SOL     OW21763   2.843   4.605   8.995 -0.1244  0.0177  0.1616
 3434SOL    HW121764   2.779   4.537   9.018  0.6834 -0.5659  0.7069
 3434SOL    HW221765   2.819   4.678   9.052 -0.0592 -0.0001  0.2119
 3435SOL     OW21766   3.799   4.554   6.511 -0.0449  0.3223 -0.3935
 3435SOL    HW121767   3.774   4.519   6.425 -4.0753 -0.4261  1.0659
 3435SOL    HW221768   3.882   4.508   6.523 -0.4794 -1.3801 -4.0436
 3436SOL     OW21769   1.519   3.930  15.421  0.3175  0.6941 -0.0445
 3436SOL    HW121770   1.455   3.870  15.459  2.2667 -2.3884 -1.5594
 3436SOL    HW221771   1.553   3.962  15.504  0.5128  1.9856 -0.6171
 3437SOL     OW21772   2.191   0.575   9.404 -0.7469 -0.3919 -0.0205
 3437SOL    HW121773   2.242   0.564   9.484 -0.8164  3.1154  0.5006
 3437SOL    HW221774   2.130   0.642   9.434  0.0978  0.3311  0.0812
 3438SOL     OW21775   2.888   0.878   2.011 -0.1534 -0.2219 -0.0563
 3438SOL    HW121776   2.976   0.864   2.045 -0.4214  0.7395  1.0381
 3438SOL    HW221777   2.883   0.842   1.923  0.2143  0.4997 -0.3689
 3439SOL     OW21778   0.821   1.044   7.682  0.2578 -0.0306 -0.5867
 3439SOL    HW121779   0.913   1.024   7.665  0.0970 -0.6149 -0.7537
 3439SOL    HW221780   0.826   1.080   7.771 -0.9367 -1.2889 -0.0094
 3440SOL     OW21781   1.699   1.931  13.592 -0.7751 -0.3776 -0.1926
 3440SOL    HW121782   1.778   1.896  13.551  0.4332  0.2465  1.6292
 3440SOL    HW221783   1.677   1.852  13.641 -2.4630  0.6207  0.6876
 3441SOL     OW21784   3.620   1.428  15.794 -0.0542  0.0191  0.0982
 3441SOL    HW121785   3.632   1.343  15.751 -0.8866  0.1335 -0.3585
 3441SOL    HW221786   3.526   1.445  15.784 -0.1978 -0.8413  0.0205
 3442SOL     OW21787   0.074   4.084   6.624  0.1667 -0.4611 -0.0840
 3442SOL    HW121788   0.086   3.991   6.601 -0.3152 -0.0550 -2.0293
 3442SOL    HW221789   0.166   4.104   6.605  0.1558  0.8200  1.2410
 3443SOL     OW21790   0.008   2.043   9.362 -0.7698 -0.6288 -0.5328
 3443SOL    HW121791   4.644   2.005   9.376 -1.7622  1.8245  0.1118
 3443SOL    HW221792   0.002   2.097   9.283  2.8668  0.1848 -0.2968
 3444SOL     OW21793   1.355   2.876   0.617  0.4246  0.4860 -0.2886
 3444SOL    HW121794   1.302   2.956   0.621 -1.3428 -0.6485 -1.0837
 3444SOL    HW221795   1.359   2.854   0.710 -0.1196 -2.4749 -0.9745
 3445SOL     OW21796   3.718   1.448   4.720  0.0169  0.6053 -0.4545
 3445SOL    HW121797   3.798   1.443   4.669  1.5427 -1.4726  2.1288
 3445SOL    HW221798   3.690   1.356   4.723  1.6980  0.0364 -2.2858
 3446SOL     OW21799   2.428   2.603   4.972 -0.0967  0.2865 -0.6331
 3446SOL    HW121800   2.403   2.624   5.062 -3.1646  0.2287 -1.4723
 3446SOL    HW221801   2.515   2.568   4.993 -1.9948 -3.8178  0.3443
 3447SOL     OW21802   2.452   4.329   1.738  0.6050  0.3427 -0.0601
 3447SOL    HW121803   2.520   4.272   1.774  1.1174  1.0884  0.1746
 3447SOL    HW221804   2.513   4.398   1.711 -0.3934  1.5557  0.7256
 3448SOL     OW21805   2.190   3.691   5.078 -0.0956 -0.2196  0.5395
 3448SOL    HW121806   2.273   3.644   5.069  0.0367 -0.0530  0.9201
 3448SOL    HW221807   2.130   3.645   5.018 -0.1376 -0.8994  1.1009
 3449SOL     OW21808   4.519   1.378   8.281 -0.1854  0.2226  0.2576
 3449SOL    HW121809   4.522   1.306   8.218 -1.1730  2.2454 -2.1183
 3449SOL    HW221810   4.430   1.406   8.260 -0.0164  0.7967  0.2955
 3450SOL     OW21811   2.231   0.857   8.646 -0.5399  0.0217 -0.0699
 3450SOL    HW121812   2.159   0.795   8.663 -0.4300 -0.2189 -0.4938
 3450SOL    HW221813   2.184   0.934   8.615  0.0229 -0.1299 -1.2651
 3451SOL     OW21814   2.333   0.622  15.820  0.0354 -0.1998  0.4984
 3451SOL    HW121815   2.281   0.681  15.765  1.7047 -0.8758 -1.8292
 3451SOL    HW221816   2.372   0.683  15.883 -0.4705  1.9006 -1.2389
 3452SOL     OW21817   0.783   3.943   0.990  0.1776  0.4962 -0.0450
 3452SOL    HW121818   0.817   3.950   1.079  0.3897  0.4498 -0.1224
 3452SOL    HW221819   0.866   3.908   0.957 -0.1806 -1.2943  0.9528
 3453SOL     OW21820   1.926   3.441   5.145 -0.1274  0.2499 -0.0151
 3453SOL    HW121821   1.935   3.522   5.195 -0.1849 -0.6874  1.5249
 3453SOL    HW221822   1.888   3.385   5.213 -0.6963  0.1228 -0.4423
 3454SOL     OW21823   0.510   3.820   1.488 -0.6372 -0.3852  0.7392
 3454SOL    HW121824   0.584   3.827   1.549  0.4937 -0.4186 -0.6314
 3454SOL    HW221825   0.506   3.729   1.457  1.2917 -0.6616  1.2768
 3455SOL     OW21826   2.882   1.407   4.338  0.2138  0.0883  0.8240
 3455SOL    HW121827   2.966   1.452   4.327 -0.7759  1.5513 -0.7488
 3455SOL    HW221828   2.907   1.315   4.343  0.7977 -0.0046 -3.2926
 3456SOL     OW21829   0.377   2.735  14.203 -0.7438  0.3531 -0.2943
 3456SOL    HW121830   0.388   2.824  14.169 -0.9247  0.2950 -0.5051
 3456SOL    HW221831   0.461   2.712  14.243 -0.6299  0.6653 -0.3535
 3457SOL     OW21832   1.326   3.232   3.246  0.0805 -1.1114  0.0660
 3457SOL    HW121833   1.374   3.264   3.322  3.2073 -0.7258 -2.0809
 3457SOL    HW221834   1.310   3.140   3.269 -0.4219 -1.5173 -1.8316
 3458SOL     OW21835   1.034   0.301   2.082 -0.1796  1.1454 -0.0223
 3458SOL    HW121836   1.027   0.305   2.178  0.0305  1.0902 -0.0061
 3458SOL    HW221837   1.126   0.274   2.084 -0.8249 -1.1573 -1.4204
 3459SOL     OW21838   3.403   0.242   6.033  0.8551  0.1960  0.1681
 3459SOL    HW121839   3.430   0.323   6.075 -0.5548  1.6972 -1.8167
 3459SOL    HW221840   3.380   0.180   6.102  0.4622 -1.3483 -1.3594
 3460SOL     OW21841   2.128   3.885   4.642 -0.8507  0.2197  0.2762
 3460SOL    HW121842   2.064   3.869   4.711  1.1951 -4.2508  1.1207
 3460SOL    HW221843   2.131   3.802   4.594  0.3823  1.2678 -1.4771
 3461SOL     OW21844   2.765   3.587   1.013  0.0611  0.3142  0.0649
 3461SOL    HW121845   2.762   3.676   1.047  1.2104  0.3343  0.1276
 3461SOL    HW221846   2.674   3.570   0.991  0.0776  0.4392 -0.0934
 3462SOL     OW21847   4.696   4.494  12.457  0.2769 -0.3084 -0.8176
 3462SOL    HW121848   0.052   4.442  12.477  0.8833  0.0984 -2.1134
 3462SOL    HW221849   4.663   4.521  12.542  0.2437 -0.8575 -0.6524
 3463SOL     OW21850   0.701   4.250   4.121 -0.0048  0.3195 -0.0868
 3463SOL    HW121851   0.642   4.177   4.143 -1.5407  0.8778 -2.2881
 3463SOL    HW221852   0.691   4.309   4.196 -0.6595 -0.6204  0.5615
 3464SOL     OW21853   4.310   4.638   4.410 -0.4017 -0.3958 -0.4411
 3464SOL    HW121854   4.292   0.010   4.398 -1.7224 -0.4469  1.1804
 3464SOL    HW221855   4.324   4.607   4.321 -0.8725 -0.4645 -0.4888
 3465SOL     OW21856   2.319   1.110   3.390 -0.5603  0.4352 -0.0689
 3465SOL    HW121857   2.337   1.170   3.317  1.2016  0.4280  0.3423
 3465SOL    HW221858   2.364   1.156   3.461  0.9325 -1.7115  0.3637
 3466SOL     OW21859   1.150   3.772   7.952 -0.5340  0.1721  0.0751
 3466SOL    HW121860   1.226   3.735   7.996 -0.6706  0.9895  1.0057
 3466SOL    HW221861   1.173   3.865   7.954 -0.6504  0.2358 -2.0863
 3467SOL     OW21862   3.922   2.913   3.062 -0.0962  0.1624  0.2003
 3467SOL    HW121863   4.015   2.935   3.060 -0.4057  1.4271 -0.6869
 3467SOL    HW221864   3.909   2.937   3.154 -0.9569 -1.3193  0.4725
 3468SOL     OW21865   2.037   3.064   4.049 -0.4486  0.5307 -0.3091
 3468SOL    HW121866   2.019   3.121   3.974  0.7217  0.4306 -0.6653
 3468SOL    HW221867   2.125   3.099   4.063  0.4944 -2.1268  0.5536
 3469SOL     OW21868   3.522   4.281  12.613  0.0418 -0.5529 -0.3011
 3469SOL    HW121869   3.509   4.362  12.661 -1.1198  0.0159 -1.5673
 3469SOL    HW221870   3.618   4.281  12.607 -0.0567  1.6303 -1.9456
 3470SOL     OW21871   4.302   3.855   0.344  0.2866 -0.2793 -0.3537
 3470SOL    HW121872   4.337   3.913   0.277  0.3640  0.4341  0.3091
 3470SOL    HW221873   4.287   3.913   0.419 -1.7648 -1.4042  0.1199
 3471SOL     OW21874   3.248   0.848   9.720 -0.5962  0.6279  0.0250
 3471SOL    HW121875   3.332   0.804   9.734  0.6400  2.7188 -0.8557
 3471SOL    HW221876   3.186   0.789   9.764  1.3020 -0.5639  1.1168
 3472SOL     OW21877   0.513   1.801   3.979 -0.1742  0.3910  0.1628
 3472SOL    HW121878   0.513   1.754   4.063  0.9149 -0.6350 -0.4223
 3472SOL    HW221879   0.599   1.785   3.942 -1.8595 -1.4351 -2.9424
 3473SOL     OW21880   4.163   3.341   5.182  0.0313  0.3689 -0.0215
 3473SOL    HW121881   4.119   3.306   5.259  0.2159 -0.9095 -0.4801
 3473SOL    HW221882   4.161   3.270   5.117  2.7476 -0.2848  0.6261
 3474SOL     OW21883   1.976   1.224   4.758 -0.0577  0.1875  0.0948
 3474SOL    HW121884   1.971   1.158   4.827 -0.2927 -0.7904 -0.8433
 3474SOL    HW221885   1.963   1.175   4.676  0.0449 -0.9817  0.7712
 3475SOL     OW21886   3.374   1.134   9.588 -0.6397 -0.6975  0.1655
 3475SOL    HW121887   3.350   1.078   9.662 -1.5326  0.6162  0.8726
 3475SOL    HW221888   3.291   1.183   9.584  0.3380  0.7420 -2.1079
 3476SOL     OW21889   3.252   1.811   9.582  0.3508 -0.4553  0.8503
 3476SOL    HW121890   3.262   1.783   9.673  1.6559  1.3674  1.2710
 3476SOL    HW221891   3.157   1.805   9.571  0.5160  0.4741 -1.0610
 3477SOL     OW21892   1.144   3.211   4.167  0.1219 -0.4550  0.6624
 3477SOL    HW121893   1.117   3.123   4.194 -0.4071 -0.6114 -0.3426
 3477SOL    HW221894   1.212   3.217   4.233  0.2257 -1.4408  0.6547
 3478SOL     OW21895   1.388   0.387  12.079  0.4050  0.0201  0.1169
 3478SOL    HW121896   1.333   0.356  12.152  0.0419 -2.3591 -1.1454
 3478SOL    HW221897   1.377   0.318  12.013 -0.5196  0.9768 -0.7192
 3479SOL     OW21898   3.535   3.427  11.079 -0.2121 -0.6611 -0.5638
 3479SOL    HW121899   3.464   3.402  11.018 -1.1312 -1.7702  0.9681
 3479SOL    HW221900   3.579   3.347  11.106  3.5380  1.2830 -0.9491
 3480SOL     OW21901   1.264   0.553   7.487 -0.2746 -0.2751 -0.6038
 3480SOL    HW121902   1.200   0.482   7.491  1.4732 -1.8277  0.1178
 3480SOL    HW221903   1.320   0.526   7.560 -1.9328 -0.0076  0.7602
 3481SOL     OW21904   3.954   0.908   7.347 -0.1993  0.4321  0.1070
 3481SOL    HW121905   4.036   0.936   7.389  0.9110 -0.4864 -1.4911
 3481SOL    HW221906   3.888   0.972   7.376 -1.5057 -0.9820  0.2154
 3482SOL     OW21907   1.065   4.694   5.883 -0.0568 -0.4886  0.0295
 3482SOL    HW121908   1.102   4.608   5.862 -1.9912 -1.7105  1.7179
 3482SOL    HW221909   1.149   0.016   5.898 -2.1398  2.6284  2.6464
 3483SOL     OW21910   2.961   0.219   3.656 -0.1890  0.3105  0.8021
 3483SOL    HW121911   2.872   0.255   3.653 -0.4133 -0.3155 -0.1930
 3483SOL    HW221912   3.021   0.285   3.621 -1.8395  1.1672 -0.4276
 3484SOL     OW21913   4.265   1.225  10.289 -0.0188  0.0455  0.5095
 3484SOL    HW121914   4.320   1.148  10.302 -0.3761 -0.1984  0.5595
 3484SOL    HW221915   4.202   1.177  10.236 -0.1964 -0.6169  1.3280
 3485SOL     OW21916   3.271   3.838   1.392 -0.0955  0.3682  0.4833
 3485SOL    HW121917   3.263   3.815   1.300  1.0719  0.3387  0.3829
 3485SOL    HW221918   3.223   3.921   1.386 -1.3433 -0.2866  1.6596
 3486SOL     OW21919   0.740   2.187   7.881 -0.4956 -0.1091 -0.6182
 3486SOL    HW121920   0.706   2.160   7.966 -0.2300  0.4502 -0.3360
 3486SOL    HW221921   0.810   2.127   7.859 -0.4081 -0.5869  0.9832
 3487SOL     OW21922   0.419   1.433  11.412 -0.8795  0.0094 -0.1039
 3487SOL    HW121923   0.350   1.496  11.391 -0.4420  0.0935 -1.2911
 3487SOL    HW221924   0.366   1.379  11.471 -0.5535 -2.8614 -2.4024
 3488SOL     OW21925   0.842   1.812   3.427  0.6012 -0.1824 -0.3774
 3488SOL    HW121926   0.785   1.888   3.417  1.4551 -0.0632 -4.1870
 3488SOL    HW221927   0.862   1.795   3.335 -2.0238  1.4263 -1.2327
 3489SOL     OW21928   1.957   0.910  13.415  0.1634 -0.4289 -0.3442
 3489SOL    HW121929   2.032   0.966  13.395 -0.2987  0.8142  1.2977
 3489SOL    HW221930   1.963   0.844  13.347  1.1513 -0.4125 -0.2702
 3490SOL     OW21931   2.215   2.488   6.280 -0.2402  0.0076 -0.0900
 3490SOL    HW121932   2.156   2.534   6.220 -0.7072 -0.2003  0.2068
 3490SOL    HW221933   2.241   2.563   6.335  2.5368 -2.6896  2.2778
 3491SOL     OW21934   3.330   2.030   8.461 -0.2777  0.3223 -0.2980
 3491SOL    HW121935   3.245   2.071   8.444  0.5552  1.3099 -2.0425
 3491SOL    HW221936   3.291   1.946   8.484  0.1477 -0.1331 -1.2567
 3492SOL     OW21937   1.845   1.420   5.301 -0.0846  0.1207  0.2688
 3492SOL    HW121938   1.751   1.403   5.294  0.3191 -1.3241 -1.8776
 3492SOL    HW221939   1.841   1.506   5.260  2.3791 -0.3117 -0.9306
 3493SOL     OW21940   2.839   0.177   4.184  0.5350 -0.4089  0.4484
 3493SOL    HW121941   2.931   0.181   4.211  0.2325  3.7075  0.9457
 3493SOL    HW221942   2.844   0.170   4.089  0.8168 -0.8589  0.4990
 3494SOL     OW21943   4.662   2.623   3.054  0.1052  0.4507 -0.5563
 3494SOL    HW121944   4.701   2.557   3.111 -1.8584  0.6275  0.9888
 3494SOL    HW221945   4.587   2.575   3.018 -1.1582  1.2596  0.9997
 3495SOL     OW21946   2.207   1.989   8.341  0.0942  0.1706  0.2369
 3495SOL    HW121947   2.300   2.002   8.321 -0.4444  1.7873 -1.2545
 3495SOL    HW221948   2.220   1.933   8.417 -0.3610  0.5055  0.5597
 3496SOL     OW21949   0.483   0.881  16.701  0.0623 -0.1306  1.0369
 3496SOL    HW121950   0.551   0.870  16.768  0.4583 -0.0322  0.6503
 3496SOL    HW221951   0.534   0.936  16.641 -1.6180  0.4949  0.2042
 3497SOL     OW21952   0.451   2.954  14.082 -0.1194  0.4327 -0.9279
 3497SOL    HW121953   0.369   2.992  14.051 -0.2037  0.9206 -0.1086
 3497SOL    HW221954   0.489   2.952  13.994 -0.3814  0.8304 -1.0478
 3498SOL     OW21955   0.874   1.813   5.714 -0.3615 -0.0909  0.2588
 3498SOL    HW121956   0.907   1.745   5.656  0.4676 -1.2378  2.0795
 3498SOL    HW221957   0.791   1.780   5.748 -0.2548  0.2201  0.8253
 3499SOL     OW21958   4.680   2.531   1.483  0.0031  0.4010 -0.4265
 3499SOL    HW121959   4.601   2.534   1.538  2.2338  1.0987  2.7052
 3499SOL    HW221960   4.689   2.626   1.470 -0.5342  0.4271 -0.6417
 3500SOL     OW21961   4.078   4.190   5.030 -0.1340  0.2483  0.0561
 3500SOL    HW121962   4.118   4.137   4.962  1.1599  1.0394  0.1980
 3500SOL    HW221963   4.011   4.129   5.062 -0.7780  2.0798  2.2033
 3501SOL     OW21964   1.484   2.444   3.840  0.1534 -0.2554 -0.2222
 3501SOL    HW121965   1.509   2.369   3.786  0.7648  0.1126 -0.4478
 3501SOL    HW221966   1.451   2.501   3.771 -3.4917 -2.0123  0.0844
 3502SOL     OW21967   3.573   2.848   6.879 -0.5609  0.0142  0.2259
 3502SOL    HW121968   3.579   2.934   6.921  0.2677 -0.7260  1.6027
 3502SOL    HW221969   3.531   2.801   6.950  0.2135  0.5560  1.0456
 3503SOL     OW21970   2.450   1.844   8.556 -0.0534  0.0872  0.0857
 3503SOL    HW121971   2.504   1.923   8.564 -0.0243  0.0449  0.2885
 3503SOL    HW221972   2.374   1.854   8.613 -1.4725 -1.7632 -1.5052
 3504SOL     OW21973   0.748   4.134   7.551  0.5641 -0.1924 -0.4333
 3504SOL    HW121974   0.676   4.087   7.509 -0.0322  1.8223 -1.7026
 3504SOL    HW221975   0.793   4.052   7.572 -2.3436 -1.1352  2.1293
 3505SOL     OW21976   4.282   3.966  10.313 -1.0572 -0.2689  0.1869
 3505SOL    HW121977   4.199   3.935  10.277 -0.3423  0.7951 -2.3625
 3505SOL    HW221978   4.307   3.880  10.346  0.7181 -0.5438 -1.8350
 3506SOL     OW21979   3.205   0.393   3.742 -0.1844 -0.0430  0.1086
 3506SOL    HW121980   3.250   0.319   3.702 -0.5285 -1.3112  2.0982
 3506SOL    HW221981   3.226   0.461   3.677 -1.8274 -0.6063 -1.0148
 3507SOL     OW21982   2.931   1.207   8.710 -0.1330  0.8878 -0.1782
 3507SOL    HW121983   2.918   1.113   8.725  0.7842  0.7687 -0.1490
 3507SOL    HW221984   3.024   1.216   8.730 -0.0825 -0.8441  0.4156
 3508SOL     OW21985   1.912   0.513   7.644  0.4734 -0.0362  0.5737
 3508SOL    HW121986   1.982   0.467   7.597 -1.4219 -1.8013 -0.5172
 3508SOL    HW221987   1.847   0.522   7.574 -0.8439 -0.9421  1.7064
 3509SOL     OW21988   4.303   4.312   4.201  0.0649  0.2181  0.2319
 3509SOL    HW121989   4.253   4.235   4.173  0.2118  0.1845  0.0629
 3509SOL    HW221990   4.388   4.270   4.211 -0.9884 -1.2741  2.8332
 3510SOL     OW21991   1.316   1.916   0.912  0.6185 -0.3175  0.3714
 3510SOL    HW121992   1.224   1.893   0.908  0.6183 -0.8902  3.6145
 3510SOL    HW221993   1.325   1.964   0.995 -1.0898  0.2515  0.2177
 3511SOL     OW21994   0.268   1.738  15.568  0.7678  0.2127 -0.1778
 3511SOL    HW121995   0.287   1.791  15.645  0.1595  0.5133 -0.2363
 3511SOL    HW221996   0.193   1.790  15.540  1.4566  0.5912 -1.3140
 3512SOL     OW21997   2.805   0.709   4.209  0.6004 -0.3923  0.9444
 3512SOL    HW121998   2.821   0.765   4.284 -0.7943  0.1808  0.8270
 3512SOL    HW221999   2.799   0.625   4.256  0.7429 -2.1160 -2.1114
 3513SOL     OW22000   1.921   3.697   2.904  0.0774  0.4240  0.5171
 3513SOL    HW122001   1.985   3.713   2.835  1.1879 -0.7293  1.2824
 3513SOL    HW222002   1.875   3.781   2.908  1.7592  1.3236  0.8879
 3514SOL     OW22003   4.586   0.880   8.026  0.5474  0.5111  0.0271
 3514SOL    HW122004   4.623   0.800   7.989 -0.1697  0.1482  0.0849
 3514SOL    HW222005   4.671   0.914   8.054 -0.1230  1.0799  1.3837
 3515SOL     OW22006   2.326   4.442   7.191  0.5364 -0.3080  0.4318
 3515SOL    HW122007   2.270   4.471   7.119  1.5861  0.1962 -0.1805
 3515SOL    HW222008   2.404   4.468   7.142 -1.7177  1.1346 -2.3920
 3516SOL     OW22009   1.311   2.166   9.166  0.2994 -0.2397 -0.1978
 3516SOL    HW122010   1.250   2.149   9.094  0.6237  0.8750 -0.7482
 3516SOL    HW222011   1.258   2.236   9.205  1.1259 -0.9669  2.1925
 3517SOL     OW22012   2.232   4.044  12.228 -0.0754  0.0133 -0.1891
 3517SOL    HW122013   2.252   4.118  12.286  2.0019 -0.1640 -0.6954
 3517SOL    HW222014   2.162   4.086  12.178  1.0593  2.1101 -0.0265
 3518SOL     OW22015   2.570   4.392   5.899 -0.7584 -0.0360  0.3564
 3518SOL    HW122016   2.538   4.433   5.819  0.7641  0.6038  0.0734
 3518SOL    HW222017   2.524   4.445   5.964 -0.5404 -0.2296  0.6650
 3519SOL     OW22018   4.144   3.290   9.741 -0.1456 -0.8747 -0.7601
 3519SOL    HW122019   4.173   3.307   9.830  1.3999  0.6190 -1.5467
 3519SOL    HW222020   4.195   3.355   9.692 -0.1427 -0.3312 -0.0399
 3520SOL     OW22021   3.304   1.995  15.095  0.1439 -0.0357 -0.1510
 3520SOL    HW122022   3.250   2.074  15.092  0.5145  0.2572  0.7210
 3520SOL    HW222023   3.264   1.938  15.160 -1.7300  1.6314  0.1355
 3521SOL     OW22024   3.700   2.570   9.535 -0.2113 -0.1538  0.3156
 3521SOL    HW122025   3.733   2.636   9.596  2.8582 -2.8810  1.5709
 3521SOL    HW222026   3.634   2.525   9.588 -1.0366 -0.7723 -1.2122
 3522SOL     OW22027   3.020   0.421   4.410 -0.2717  0.8416  0.3989
 3522SOL    HW122028   3.011   0.347   4.470  0.0054  1.3315  1.0516
 3522SOL    HW222029   3.030   0.377   4.326  1.9876 -0.4436  1.3491
 3523SOL     OW22030   0.117   1.139   8.595  0.6438 -0.6587 -0.3937
 3523SOL    HW122031   0.206   1.141   8.559 -0.1349  0.6434 -2.2121
 3523SOL    HW222032   0.109   1.055   8.641 -2.0253  0.0985  0.5241
 3524SOL     OW22033   2.552   4.662  15.569 -0.5382  0.3006  0.1528
 3524SOL    HW122034   2.502   0.020  15.581 -0.6597  0.6079 -2.4996
 3524SOL    HW222035   2.641   4.695  15.586  0.2152 -1.3510 -0.5597
 3525SOL     OW22036   1.689   1.703  13.752 -0.6129  0.2891  0.0916
 3525SOL    HW122037   1.630   1.650  13.805 -1.7001 -0.9349 -2.3323
 3525SOL    HW222038   1.768   1.658  13.780 -0.9359 -0.5442 -0.3343
 3526SOL     OW22039   2.724   4.363   2.340 -0.2963 -0.2286  0.1944
 3526SOL    HW122040   2.711   4.425   2.269 -0.4167 -0.3810  0.0815
 3526SOL    HW222041   2.635   4.346   2.371 -0.4708  0.2888 -0.0297
 3527SOL     OW22042   2.438   1.497  10.306  0.4080  0.0448 -0.3513
 3527SOL    HW122043   2.418   1.403  10.309  0.4242  0.1153  1.6704
 3527SOL    HW222044   2.468   1.513  10.216  0.6562 -0.4454 -0.3557
 3528SOL     OW22045   4.436   1.521   3.950 -0.0757  0.0314  0.6645
 3528SOL    HW122046   4.477   1.560   4.027  0.6952  0.5407  0.0022
 3528SOL    HW222047   4.356   1.573   3.956  0.0905  0.1432  1.9161
 3529SOL     OW22048   3.441   3.837   4.325 -0.0165  0.0172  0.1560
 3529SOL    HW122049   3.367   3.782   4.353  1.1387 -2.4975 -1.6758
 3529SOL    HW222050   3.494   3.772   4.278 -0.2857  0.5818 -0.9278
 3530SOL     OW22051   1.870   0.782   3.601  0.3005  0.1888  0.1737
 3530SOL    HW122052   1.958   0.747   3.613 -0.2963 -0.3325  2.9891
 3530SOL    HW222053   1.825   0.738   3.673  0.9236 -1.7844 -0.6506
 3531SOL     OW22054   3.325   1.654   3.651 -0.2707  0.0256 -0.2645
 3531SOL    HW122055   3.320   1.647   3.747 -1.9322 -1.5968 -0.4716
 3531SOL    HW222056   3.286   1.738   3.626 -1.3903 -0.6588 -0.8054
 3532SOL     OW22057   3.842   0.088   6.605  0.0816 -0.2371  0.4795
 3532SOL    HW122058   3.782   0.023   6.570  1.1509 -0.6418 -0.6128
 3532SOL    HW222059   3.919   0.031   6.613  0.6107  0.6200  1.3903
 3533SOL     OW22060   1.510   1.113   8.868 -0.1600 -0.2311 -0.1068
 3533SOL    HW122061   1.527   1.133   8.776  0.3185  1.7836  0.4191
 3533SOL    HW222062   1.509   1.019   8.851  2.1430 -0.4020  0.5657
 3534SOL     OW22063   1.923   0.893   8.352 -0.3169 -0.1469 -0.3868
 3534SOL    HW122064   1.834   0.858   8.356 -0.8010  1.0750 -0.5363
 3534SOL    HW222065   1.931   0.943   8.433  0.2905 -0.1304 -0.4575
 3535SOL     OW22066   1.660   0.766   0.730 -0.4291 -0.4027 -0.5920
 3535SOL    HW122067   1.715   0.748   0.807 -0.2343 -1.0343 -0.8810
 3535SOL    HW222068   1.645   0.859   0.745  3.0751  0.5540 -2.9068
 3536SOL     OW22069   2.385   2.512  11.518 -0.8173 -0.1993 -0.2739
 3536SOL    HW122070   2.405   2.518  11.424 -0.4874  1.6142 -0.0839
 3536SOL    HW222071   2.313   2.449  11.515 -1.7006  0.8561 -1.1383
 3537SOL     OW22072   4.305   4.651   6.960 -0.2679 -0.3999  0.8642
 3537SOL    HW122073   4.325   4.646   6.867  0.9828 -1.1727  1.1759
 3537SOL    HW222074   4.343   4.577   7.006  2.2880  0.7882  0.6726
 3538SOL     OW22075   4.115   2.480   0.476  0.5735 -0.6326 -0.3875
 3538SOL    HW122076   4.150   2.520   0.556  0.8039  0.6427 -1.1300
 3538SOL    HW222077   4.163   2.525   0.406 -0.2387 -0.9008 -1.1207
 3539SOL     OW22078   0.834   4.513   4.123 -0.4043  0.0700  0.3223
 3539SOL    HW122079   0.753   4.554   4.092 -0.1067 -1.0791 -1.9709
 3539SOL    HW222080   0.830   4.427   4.082 -0.1028 -1.0760  2.7491
 3540SOL     OW22081   1.534   0.860   8.766  0.1299  0.0484  0.3838
 3540SOL    HW122082   1.550   0.781   8.818 -1.8299  0.2225  1.2874
 3540SOL    HW222083   1.447   0.835   8.733 -1.1611  1.3466  2.7695
 3541SOL     OW22084   2.157   0.492   2.228 -0.4928  0.5491  0.1587
 3541SOL    HW122085   2.192   0.478   2.140  1.2438  0.6522  0.8364
 3541SOL    HW222086   2.234   0.462   2.277  0.8474 -0.1168 -2.3886
 3542SOL     OW22087   4.341   4.022   1.838  0.3953 -0.2387  0.1565
 3542SOL    HW122088   4.429   4.037   1.803 -0.3063 -1.0561 -1.9791
 3542SOL    HW222089   4.295   4.029   1.754 -2.0077  2.0214  1.6347
 3543SOL     OW22090   0.023   2.828  15.019  0.1886 -0.1045  0.0520
 3543SOL    HW122091   4.711   2.778  14.944  2.0038  1.0495 -1.5408
 3543SOL    HW222092   0.027   2.752  15.078 -0.7742 -1.1362 -1.2141
 3544SOL     OW22093   2.246   4.496  17.020 -0.7469  0.1401  0.5759
 3544SOL    HW122094   2.169   4.552  17.010 -0.1658  1.0815  1.3536
 3544SOL    HW222095   2.298   4.530  16.947 -2.0892  0.4706 -0.2230
 3545SOL     OW22096   2.662   3.967  15.529 -0.7060 -0.0811 -0.0646
 3545SOL    HW122097   2.585   3.935  15.482 -1.1585 -0.6517  1.0842
 3545SOL    HW222098   2.638   4.059  15.541 -2.6169 -0.3970 -1.3845
 3546SOL     OW22099   1.617   0.594   3.460  0.2544  0.8646  0.9861
 3546SOL    HW122100   1.566   0.556   3.388  2.0438 -0.6685  0.5225
 3546SOL    HW222101   1.545   0.650   3.490 -0.9327 -0.0067 -0.2419
 3547SOL     OW22102   0.147   1.469   5.113 -0.2611 -0.4418  0.2601
 3547SOL    HW122103   0.200   1.527   5.167 -1.3042  1.3445 -0.6542
 3547SOL    HW222104   0.077   1.530   5.091  1.3642  1.9638  1.7222
 3548SOL     OW22105   1.720   4.557   0.584 -0.3775  1.0232 -0.7626
 3548SOL    HW122106   1.679   4.503   0.651 -1.0248  0.9151 -1.2416
 3548SOL    HW222107   1.652   4.602   0.535  1.2371  0.1851 -3.7953
 3549SOL     OW22108   0.431   4.515   9.944  0.1650  0.2737  0.3294
 3549SOL    HW122109   0.510   4.479   9.984  0.8369  0.0003 -1.2558
 3549SOL    HW222110   0.448   4.610   9.946 -0.3143  0.3974 -1.0535
 3550SOL     OW22111   3.818   4.335   2.703  0.4147 -0.8213  0.2648
 3550SOL    HW122112   3.877   4.343   2.778  1.1744 -0.7983 -0.3365
 3550SOL    HW222113   3.778   4.251   2.722 -0.8023 -0.0260  1.1990
 3551SOL     OW22114   0.755   3.406   3.821  0.9836 -0.6564 -0.1155
 3551SOL    HW122115   0.685   3.452   3.868 -0.2182 -2.9997  0.4139
 3551SOL    HW222116   0.730   3.422   3.730 -1.0377 -0.9904  0.3848
 3552SOL     OW22117   4.354   1.299   5.688  0.0356  0.4795 -0.3302
 3552SOL    HW122118   4.331   1.380   5.643 -2.4384  0.6732  1.3360
 3552SOL    HW222119   4.449   1.308   5.699  0.3465 -2.2668 -0.7375
 3553SOL     OW22120   4.656   0.141   5.512 -0.1546 -0.6674  0.4241
 3553SOL    HW122121   4.686   0.213   5.567  0.8287 -2.2655  1.9761
 3553SOL    HW222122   4.719   0.154   5.441 -1.7719 -0.2785 -0.9426
 3554SOL     OW22123   4.385   3.059   0.326  0.1963 -0.0539  0.4057
 3554SOL    HW122124   4.293   3.042   0.346  0.0627 -0.7992 -0.7930
 3554SOL    HW222125   4.405   2.987   0.266 -0.2951 -0.8507  1.2106
 3555SOL     OW22126   4.435   4.137   8.553 -0.0153  0.1744 -0.0322
 3555SOL    HW122127   4.454   4.123   8.646 -0.5525 -0.9668 -0.0917
 3555SOL    HW222128   4.458   4.230   8.547 -1.0764  0.4461 -0.0123
 3556SOL     OW22129   4.567   2.296   6.111 -0.2996  0.2194 -0.4373
 3556SOL    HW122130   4.609   2.253   6.037  2.7445  1.2399  0.6757
 3556SOL    HW222131   4.633   2.340   6.164 -2.1549  1.9609  0.4153
 3557SOL     OW22132   0.658   0.067   2.326 -0.2433 -0.2954  0.4336
 3557SOL    HW122133   0.644   0.105   2.239 -1.4106  0.2347  0.8485
 3557SOL    HW222134   0.582   0.008   2.328 -0.9014  0.6303  2.3354
 3558SOL     OW22135   2.036   2.105   0.530  0.1826  0.1714 -0.0584
 3558SOL    HW122136   1.955   2.152   0.551  0.8348  1.5161 -0.5463
 3558SOL    HW222137   2.073   2.113   0.618  0.8633 -0.6113 -0.2726
 3559SOL     OW22138   0.916   4.265  15.828  0.0680  0.2488  0.1392
 3559SOL    HW122139   0.869   4.314  15.895 -1.6565 -0.0385 -0.8452
 3559SOL    HW222140   0.936   4.177  15.861 -0.6619  0.6561  1.6743
 3560SOL     OW22141   2.749   4.095   2.313  0.0642 -0.3434  0.3124
 3560SOL    HW122142   2.748   4.190   2.319 -0.6025 -0.4414  1.7548
 3560SOL    HW222143   2.836   4.073   2.280  1.0250  0.4753  2.3342
 3561SOL     OW22144   3.932   0.051   3.457  0.1758 -0.0693 -0.2484
 3561SOL    HW122145   3.937   0.145   3.470 -1.2338 -0.3253  2.1081
 3561SOL    HW222146   3.983   0.017   3.531 -2.3214 -1.3226  0.8849
 3562SOL     OW22147   0.369   2.499  16.493  0.5006 -0.2585 -0.5959
 3562SOL    HW122148   0.378   2.592  16.513  1.9032 -1.0996  2.7246
 3562SOL    HW222149   0.444   2.500  16.433  1.5032 -2.1786  0.6326
 3563SOL     OW22150   0.321   1.370   2.616 -0.9083 -0.4050 -0.8364
 3563SOL    HW122151   0.269   1.420   2.553 -0.5775  1.3314  0.2746
 3563SOL    HW222152   0.352   1.293   2.569 -2.0982 -1.8975  0.7706
 3564SOL     OW22153   2.959   3.022   7.915 -0.2081  0.2590  0.2190
 3564SOL    HW122154   2.941   3.115   7.899 -1.4419 -0.3184 -1.7076
 3564SOL    HW222155   3.026   3.003   7.849 -0.8490 -1.1632 -0.0048
 3565SOL     OW22156   1.280   0.477   8.282 -0.0633  0.0831  0.2215
 3565SOL    HW122157   1.221   0.552   8.274 -0.3682 -0.2001 -0.2026
 3565SOL    HW222158   1.230   0.425   8.345  0.4075 -0.2482  0.3218
 3566SOL     OW22159   4.347   0.477  12.981 -0.0902  0.0058 -0.2371
 3566SOL    HW122160   4.275   0.487  12.918 -2.1772 -3.0055  1.6923
 3566SOL    HW222161   4.312   0.400  13.026 -2.5051  1.8394  1.0507
 3567SOL     OW22162   3.766   2.735   2.347 -0.2805 -0.2383 -0.5125
 3567SOL    HW122163   3.830   2.688   2.292 -0.9325 -0.3369 -1.1916
 3567SOL    HW222164   3.754   2.671   2.417  0.9755  0.9246  0.7563
 3568SOL     OW22165   3.171   2.617   8.305 -0.7127 -0.4981  0.0479
 3568SOL    HW122166   3.178   2.546   8.241 -1.3966  1.0809 -1.7810
 3568SOL    HW222167   3.130   2.683   8.249  3.8599 -0.0385 -2.8055
 3569SOL     OW22168   0.371   4.531   3.349  0.4718 -0.6650 -0.0820
 3569SOL    HW122169   0.345   4.553   3.438 -1.8395 -1.9778 -0.4470
 3569SOL    HW222170   0.461   4.500   3.359  0.2072 -1.8982 -1.4411
 3570SOL     OW22171   1.085   2.197   3.779  0.2541 -0.3060 -0.2218
 3570SOL    HW122172   1.019   2.206   3.709  0.7221 -0.1038 -0.6337
 3570SOL    HW222173   1.073   2.273   3.835 -1.7325 -0.6087 -0.2075
 3571SOL     OW22174   3.771   2.538   0.829  0.4033  0.4212  0.2329
 3571SOL    HW122175   3.837   2.608   0.831  1.9629 -1.0990  1.1215
 3571SOL    HW222176   3.769   2.520   0.735 -0.6858  1.8966 -0.0432
 3572SOL     OW22177   3.128   2.270   0.882 -0.4799  0.1372  0.1246
 3572SOL    HW122178   3.195   2.337   0.868  0.8683 -1.5913 -1.6511
 3572SOL    HW222179   3.113   2.278   0.976 -1.4270 -1.6011  0.1138
 3573SOL     OW22180   2.012   3.873   3.386 -0.3811 -0.1531  0.0860
 3573SOL    HW122181   2.029   3.966   3.370  0.8848 -0.3094  0.5922
 3573SOL    HW222182   1.943   3.858   3.321 -0.8484 -2.5985  1.1468
 3574SOL     OW22183   3.280   0.232   4.597 -0.6772 -0.3774 -0.1627
 3574SOL    HW122184   3.294   0.184   4.678 -0.9904  1.7242  1.1430
 3574SOL    HW222185   3.185   0.243   4.591 -0.5858  1.5922  1.7086
 3575SOL     OW22186   4.094   1.954  12.122  0.3088  0.1377 -0.1581
 3575SOL    HW122187   4.081   2.047  12.139  1.4598  0.3615 -0.4821
 3575SOL    HW222188   4.048   1.941  12.040 -0.6682  0.5923  0.3242
 3576SOL     OW22189   1.514   1.711   8.879 -0.5589  0.4396  0.4916
 3576SOL    HW122190   1.532   1.619   8.901 -0.8109 -0.0825 -1.4435
 3576SOL    HW222191   1.553   1.757   8.953 -1.2229  3.4554 -1.0602
 3577SOL     OW22192   4.529   3.086   3.617  0.2525 -0.6569 -0.7434
 3577SOL    HW122193   4.580   3.127   3.687  1.2196 -1.7243 -0.8245
 3577SOL    HW222194   4.488   3.165   3.582 -1.5837 -1.5492 -0.6038
 3578SOL     OW22195   1.799   3.364   7.795  0.1681 -0.5400 -0.7317
 3578SOL    HW122196   1.847   3.351   7.878  0.6195 -1.5891 -1.1626
 3578SOL    HW222197   1.826   3.450   7.762 -0.8368  0.2707  0.5842
 3579SOL     OW22198   0.614   1.281   8.612 -0.1708  0.6284  0.5564
 3579SOL    HW122199   0.623   1.212   8.678 -0.7476 -0.8336 -0.8903
 3579SOL    HW222200   0.646   1.356   8.662 -0.0966  1.9823 -1.5311
 3580SOL     OW22201   3.875   2.662  10.977  0.1421 -0.2011  0.7337
 3580SOL    HW122202   3.787   2.645  11.010 -0.0592 -0.5863 -0.0155
 3580SOL    HW222203   3.894   2.575  10.944  2.9727  0.7756 -0.2324
 3581SOL     OW22204   4.709   3.192   9.876 -0.3900 -0.5598  0.0208
 3581SOL    HW122205   0.075   3.225   9.896 -0.1852 -0.9339 -0.2706
 3581SOL    HW222206   4.670   3.278   9.859 -1.8353 -0.9894  1.2204
 3582SOL     OW22207   4.021   2.369   9.242 -0.0564 -0.6108 -0.0439
 3582SOL    HW122208   3.999   2.315   9.318 -1.2652 -0.8805 -0.5966
 3582SOL    HW222209   3.994   2.458   9.265 -1.2992 -0.9566 -0.1719
 3583SOL     OW22210   1.910   3.448   8.084  0.3616  0.3730  0.0542
 3583SOL    HW122211   1.887   3.518   8.024  1.8979  0.6550 -0.1922
 3583SOL    HW222212   2.005   3.440   8.086  0.2686 -1.0765 -2.0645
 3584SOL     OW22213   1.548   0.716  15.758 -0.8251 -0.1830 -0.1362
 3584SOL    HW122214   1.485   0.768  15.709  0.4451  2.2819  0.8277
 3584SOL    HW222215   1.532   0.739  15.849 -0.8014 -0.0632 -0.1619
 3585SOL     OW22216   4.113   4.675   5.688 -0.1116 -0.2354  0.5355
 3585SOL    HW122217   4.117   4.619   5.765  1.4630  1.3649  1.6079
 3585SOL    HW222218   4.130   0.036   5.732  2.1908 -0.0379 -0.7616
 3586SOL     OW22219   0.176   4.500   7.589 -0.3028 -0.1373  0.7426
 3586SOL    HW122220   0.103   4.451   7.626 -0.8482  1.1484  1.3585
 3586SOL    HW222221   0.253   4.452   7.620 -1.4858 -2.3877  0.2551
 3587SOL     OW22222   3.762   3.523   6.435 -0.2370  0.1478  0.3938
 3587SOL    HW122223   3.741   3.439   6.477 -0.7920  0.2112  0.2355
 3587SOL    HW222224   3.792   3.499   6.347 -0.3610  3.2748 -0.4972
 3588SOL     OW22225   2.566   2.088   4.947  0.1972  0.1264 -0.1757
 3588SOL    HW122226   2.534   2.172   4.915  0.0632  0.3953  0.6809
 3588SOL    HW222227   2.636   2.063   4.886  0.1793 -1.8282  0.6004
 3589SOL     OW22228   3.769   4.697   7.001  0.3296  0.1961  0.5076
 3589SOL    HW122229   3.798   4.625   7.057 -1.8354 -0.4621  0.7824
 3589SOL    HW222230   3.849   4.703   6.948 -0.8638  0.8318 -1.2259
 3590SOL     OW22231   3.489   3.460   2.911  0.3333 -0.4201  0.5449
 3590SOL    HW122232   3.517   3.550   2.896 -0.2517 -0.4680 -0.8170
 3590SOL    HW222233   3.570   3.420   2.943  1.8214  1.0787 -1.2808
 3591SOL     OW22234   3.866   2.432  17.359  0.2813 -0.1394  0.5271
 3591SOL    HW122235   3.952   2.443  17.401  1.8800  1.4107 -3.1037
 3591SOL    HW222236   3.886   2.472  17.275  1.4934  1.1955  1.4393
 3592SOL     OW22237   2.378   2.720   7.222 -0.5478 -0.8762 -0.4868
 3592SOL    HW122238   2.378   2.634   7.265 -0.3670  0.5385  2.3002
 3592SOL    HW222239   2.289   2.747   7.247 -0.3329 -0.1888 -0.4826
 3593SOL     OW22240   1.812   3.148   4.387 -0.0879 -0.6158  0.3127
 3593SOL    HW122241   1.831   3.230   4.341 -1.8275 -0.5524 -0.3101
 3593SOL    HW222242   1.895   3.102   4.375  1.0101  1.5058 -0.2648
 3594SOL     OW22243   2.011   0.894  16.042  0.0815 -0.3343  0.1659
 3594SOL    HW122244   1.957   0.857  16.112 -2.2442  0.4700 -1.1878
 3594SOL    HW222245   1.981   0.984  16.054 -0.5490 -0.4301 -0.6913
 3595SOL     OW22246   1.410   2.243   6.157  0.1825 -0.0035  0.3071
 3595SOL    HW122247   1.381   2.257   6.067 -0.3304 -2.8363  0.0313
 3595SOL    HW222248   1.490   2.193   6.142  0.7349  1.2484 -0.8484
 3596SOL     OW22249   4.505   1.529   6.123  0.0060  0.3928 -0.0707
 3596SOL    HW122250   4.554   1.523   6.205 -1.8284 -0.1898  0.9962
 3596SOL    HW222251   4.560   1.477   6.066 -1.8693 -2.7183  0.9692
 3597SOL     OW22252   1.393   0.089   8.126 -0.3107 -0.2378  0.0966
 3597SOL    HW122253   1.471   0.106   8.179 -1.0956  1.8165  0.5995
 3597SOL    HW222254   1.343   0.039   8.191  1.6922  0.5688  2.2733
 3598SOL     OW22255   2.293   0.096   4.079 -0.6417 -0.2284 -0.0474
 3598SOL    HW122256   2.295   0.157   4.006  0.0114  2.0087  1.8443
 3598SOL    HW222257   2.387   0.075   4.078 -0.2197  1.7003 -0.4292
 3599SOL     OW22258   4.125   3.140  12.061 -0.2924  0.1241  0.0605
 3599SOL    HW122259   4.168   3.092  11.990 -1.6800  0.7203 -1.2021
 3599SOL    HW222260   4.194   3.180  12.114 -0.0739 -0.9130  0.5559
 3600SOL     OW22261   3.994   2.036  11.872  0.1188  0.1887 -0.0653
 3600SOL    HW122262   4.063   2.102  11.863  0.3597  0.0850  1.0006
 3600SOL    HW222263   4.041   1.975  11.815  2.5117  1.0052  1.0133
 3601SOL     OW22264   3.552   1.748   7.337 -0.5407 -0.4222  0.0028
 3601SOL    HW122265   3.501   1.730   7.415 -0.9870  0.7514 -0.0169
 3601SOL    HW222266   3.491   1.809   7.296  0.9428  0.6925 -0.5734
 3602SOL     OW22267   1.539   1.264  17.452 -0.0938  0.2430 -0.0813
 3602SOL    HW122268   1.497   1.179  17.466 -0.1232  0.0476 -1.2672
 3602SOL    HW222269   1.630   1.245  17.429 -0.2022 -2.1156  1.4745
 3603SOL     OW22270   0.603   3.662   3.438 -0.6339  0.4793 -0.6507
 3603SOL    HW122271   0.541   3.617   3.379 -0.3524 -0.9088  0.1033
 3603SOL    HW222272   0.677   3.613   3.402  1.2933  1.8324  1.5637
 3604SOL     OW22273   0.131   3.736   6.255  0.2815 -0.1809 -0.0692
 3604SOL    HW122274   0.164   3.650   6.228  0.5412  1.0030 -3.4551
 3604SOL    HW222275   0.207   3.788   6.281 -1.0250  1.8080 -0.1989
 3605SOL     OW22276   1.848   0.098   3.195 -0.5083 -0.0211 -0.0690
 3605SOL    HW122277   1.782   0.099   3.264 -1.2810 -1.3428 -0.7917
 3605SOL    HW222278   1.933   0.125   3.227 -1.3602  0.8351  1.4308
 3606SOL     OW22279   4.488   2.195  15.492  0.6799 -0.5954 -0.3618
 3606SOL    HW122280   4.506   2.219  15.584  1.6575 -1.5193 -0.3109
 3606SOL    HW222281   4.497   2.103  15.516 -1.2624 -0.4518  0.9172
 3607SOL     OW22282   2.204   2.245   1.477  0.4350  0.1423  0.5416
 3607SOL    HW122283   2.267   2.292   1.531  1.8651  0.7611 -1.6612
 3607SOL    HW222284   2.165   2.180   1.536  0.0828 -0.4940 -0.3836
 3608SOL     OW22285   1.564   0.014  15.065 -0.0883  0.5750  0.2851
 3608SOL    HW122286   1.566   4.690  14.981 -2.6116  0.8980  0.0435
 3608SOL    HW222287   1.657   0.032  15.079 -0.1339 -0.7051  2.1894
 3609SOL     OW22288   3.798   3.166  10.836 -0.1935  0.2958 -0.4113
 3609SOL    HW122289   3.815   3.107  10.909  0.5346  0.7196 -0.2427
 3609SOL    HW222290   3.744   3.105  10.785  3.2585 -0.6293 -3.0149
 3610SOL     OW22291   3.096   3.209   8.127  0.5268  0.3231 -0.9132
 3610SOL    HW122292   3.115   3.167   8.211 -0.2905  0.3556 -0.7207
 3610SOL    HW222293   3.007   3.243   8.130  0.3089 -0.2691 -0.7868
 3611SOL     OW22294   0.634   0.242   3.561  0.0974  0.1241  0.2846
 3611SOL    HW122295   0.570   0.255   3.631  0.6126 -0.5928  0.8907
 3611SOL    HW222296   0.584   0.195   3.495 -1.7606  0.6118  1.3406
 3612SOL     OW22297   3.579   3.155   6.348  0.0772  0.3522 -0.6146
 3612SOL    HW122298   3.620   3.192   6.426  0.0739 -0.4334 -0.2374
 3612SOL    HW222299   3.498   3.120   6.386  0.6805 -0.7256 -0.3226
 3613SOL     OW22300   3.321   0.729   3.814 -0.9456  0.2452  0.2004
 3613SOL    HW122301   3.278   0.808   3.780 -1.8930  1.0896  3.3538
 3613SOL    HW222302   3.300   0.664   3.748  1.3931  0.6401 -0.9151
 3614SOL     OW22303   0.119   2.146   5.324 -0.2118 -0.1474 -0.0052
 3614SOL    HW122304   0.200   2.099   5.305 -1.2166 -2.1352  0.5907
 3614SOL    HW222305   0.139   2.168   5.414 -0.2663 -1.2194  0.2674
 3615SOL     OW22306   2.112   4.676   7.729 -0.0023 -0.2265  0.4925
 3615SOL    HW122307   2.078   4.717   7.809  1.7241  0.1911  0.9979
 3615SOL    HW222308   2.074   4.589   7.722 -1.8705  0.6848 -0.7248
 3616SOL     OW22309   3.674   4.085   4.277 -0.1425  0.0352  0.2163
 3616SOL    HW122310   3.719   4.078   4.193 -0.1014  2.2148  0.0483
 3616SOL    HW222311   3.713   4.165   4.314  0.3045  0.2286 -0.6858
 3617SOL     OW22312   2.480   1.480   7.681  0.1484 -0.2251 -0.1641
 3617SOL    HW122313   2.398   1.523   7.656  1.0354  1.6347  0.1270
 3617SOL    HW222314   2.476   1.401   7.627 -0.7789 -0.4713  0.2659
 3618SOL     OW22315   2.229   0.065  17.659 -0.1203 -0.0775 -0.0761
 3618SOL    HW122316   2.233   0.157  17.686 -1.9062 -0.5746  1.8784
 3618SOL    HW222317   2.187   0.080  17.575  1.2481 -0.9716 -0.9183
 3619SOL     OW22318   0.636   4.330   4.889 -0.0604  0.6017 -0.0067
 3619SOL    HW122319   0.573   4.401   4.897 -0.8115 -0.1998  1.0906
 3619SOL    HW222320   0.717   4.381   4.896 -0.2135  0.6845  1.0461
 3620SOL     OW22321   2.383   2.085   7.103  0.5807 -0.1708  0.3186
 3620SOL    HW122322   2.405   1.998   7.070  0.0225 -1.0577  2.3401
 3620SOL    HW222323   2.469   2.115   7.133  0.0268  0.6406  1.0885
 3621SOL     OW22324   2.525   4.323  12.878  0.3061 -0.0437  0.2649
 3621SOL    HW122325   2.531   4.324  12.783  1.2837  1.3213  0.3532
 3621SOL    HW222326   2.591   4.256  12.899 -0.3927  0.2009  3.3155
 3622SOL     OW22327   1.593   3.011  14.656 -0.4313  0.2340 -0.6489
 3622SOL    HW122328   1.528   3.081  14.665 -1.0207 -0.4405  0.4003
 3622SOL    HW222329   1.654   3.052  14.596  0.2747  1.8418  1.1622
 3623SOL     OW22330   0.931   2.158  16.313 -0.0208 -0.4353 -0.1431
 3623SOL    HW122331   1.022   2.186  16.317 -1.0039  2.7081 -0.1698
 3623SOL    HW222332   0.902   2.222  16.248  2.6288  1.2390  0.3526
 3624SOL     OW22333   2.966   3.279   4.124  0.2828 -0.2939  0.3413
 3624SOL    HW122334   2.977   3.304   4.032  1.2631  0.1709  0.5871
 3624SOL    HW222335   2.877   3.306   4.147  0.5429  1.4912 -0.7152
 3625SOL     OW22336   0.415   1.972   2.848  0.1954  0.2581 -0.0885
 3625SOL    HW122337   0.447   2.039   2.788 -1.6462 -0.2596 -1.6629
 3625SOL    HW222338   0.354   2.032   2.892 -0.7215 -0.4786 -0.3617
 3626SOL     OW22339   3.946   4.274   6.060  0.4833  0.8586 -0.2901
 3626SOL    HW122340   3.935   4.279   6.155 -1.2467 -1.5067 -0.3685
 3626SOL    HW222341   3.938   4.365   6.031 -1.4264  0.5304 -0.7764
 3627SOL     OW22342   3.910   0.181   2.298 -0.7033 -0.0574  0.3611
 3627SOL    HW122343   3.877   0.247   2.358 -1.1956  0.2196 -0.2164
 3627SOL    HW222344   3.830   0.154   2.253 -0.9595  1.6642 -0.2057
 3628SOL     OW22345   1.870   2.844   3.661 -0.4626 -0.3937  0.4121
 3628SOL    HW122346   1.800   2.878   3.717  0.6333  2.4509  0.0728
 3628SOL    HW222347   1.816   2.777   3.619  0.3664 -1.1913  0.6244
 3629SOL     OW22348   1.238   3.675   0.750  0.3312  0.0058 -0.0110
 3629SOL    HW122349   1.318   3.660   0.801  0.2917 -0.4375 -0.0767
 3629SOL    HW222350   1.191   3.599   0.784  1.1819 -0.7090 -0.4359
 3630SOL     OW22351   2.445   3.416   5.911 -0.4763 -0.0735  0.0164
 3630SOL    HW122352   2.399   3.393   5.992 -0.0907 -1.5588 -0.1896
 3630SOL    HW222353   2.382   3.406   5.840 -1.1741  1.4658  0.4238
 3631SOL     OW22354   3.099   3.186   3.498  0.4367 -0.0027 -0.6392
 3631SOL    HW122355   3.091   3.192   3.403 -0.6574  1.5436 -0.4441
 3631SOL    HW222356   3.162   3.253   3.524  1.1102 -1.2091  0.8378
 3632SOL     OW22357   3.885   4.523  12.644 -0.1007  0.2390 -0.2051
 3632SOL    HW122358   3.859   4.431  12.647 -0.7076  0.4090 -0.2277
 3632SOL    HW222359   3.979   4.514  12.663 -0.6205 -0.5198  2.0312
 3633SOL     OW22360   1.826   2.900   8.415  0.0441 -0.2536  0.0160
 3633SOL    HW122361   1.769   2.976   8.412  2.5574  1.6359 -0.3926
 3633SOL    HW222362   1.771   2.843   8.469 -0.6313  2.2246  1.9666
 3634SOL     OW22363   1.399   1.779   2.948  0.2007 -0.3939 -0.7602
 3634SOL    HW122364   1.389   1.815   3.036  2.2448  1.6881 -1.3829
 3634SOL    HW222365   1.318   1.728   2.952 -0.5155  0.4578 -4.3437
 3635SOL     OW22366   4.435   2.193   8.127  0.4252  0.3650 -0.3926
 3635SOL    HW122367   4.436   2.163   8.036 -2.0597 -1.6968  0.2801
 3635SOL    HW222368   4.523   2.229   8.142  1.1240 -1.0998 -0.8852
 3636SOL     OW22369   0.134   2.814   3.007 -0.3032  0.0005  0.2749
 3636SOL    HW122370   0.175   2.814   2.920  0.3949 -2.2047  0.5996
 3636SOL    HW222371   0.066   2.747   3.006  0.9887 -1.3271  1.7729
 3637SOL     OW22372   1.225   3.254   2.332  0.2919  0.2312 -0.4260
 3637SOL    HW122373   1.174   3.267   2.413 -1.7750 -2.0287 -1.3580
 3637SOL    HW222374   1.238   3.159   2.333 -1.5865  0.0031  2.6675
 3638SOL     OW22375   1.469   2.486   6.301 -0.2814 -0.6456  0.0205
 3638SOL    HW122376   1.437   2.409   6.254  1.6035 -0.5866 -1.3231
 3638SOL    HW222377   1.442   2.474   6.392 -0.7502  0.1123 -0.0197
 3639SOL     OW22378   1.889   3.085   5.612 -0.4166 -0.3782 -0.3849
 3639SOL    HW122379   1.923   3.113   5.698 -2.3045 -3.6001  1.3883
 3639SOL    HW222380   1.846   3.163   5.577  1.3795  0.1411 -1.4901
 3640SOL     OW22381   2.214   4.539   5.810 -0.9277  0.0611  0.2557
 3640SOL    HW122382   2.258   4.547   5.895 -1.1370  0.0292  0.3648
 3640SOL    HW222383   2.136   4.586   5.839 -0.8595  0.1144  0.3559
 3641SOL     OW22384   2.221   3.525   5.323 -0.2865 -0.3073  0.8688
 3641SOL    HW122385   2.257   3.522   5.234 -1.4156 -1.4979  0.4487
 3641SOL    HW222386   2.299   3.489   5.365 -1.7068 -2.4147  1.7033
 3642SOL     OW22387   0.612   1.001   4.525  0.3817 -0.3473  0.1624
 3642SOL    HW122388   0.604   0.938   4.454 -0.7446 -1.0174  0.8839
 3642SOL    HW222389   0.523   0.981   4.555  1.2397 -1.4516  1.9992
 3643SOL     OW22390   4.272   1.712   4.559 -0.6749  0.1889  0.0826
 3643SOL    HW122391   4.315   1.627   4.548 -1.3556  0.0186 -1.2418
 3643SOL    HW222392   4.178   1.694   4.560 -0.2556 -2.1335 -0.4253
 3644SOL     OW22393   0.210   0.445   8.982 -0.8359  0.7461 -0.4593
 3644SOL    HW122394   0.285   0.493   9.018  1.2557 -3.4160  0.7053
 3644SOL    HW222395   0.189   0.497   8.904 -0.0402  1.3149 -0.2989
 3645SOL     OW22396   3.060   4.659   4.085  0.1683 -0.0702  0.5562
 3645SOL    HW122397   3.132   4.617   4.038  0.4744 -0.3627  1.2850
 3645SOL    HW222398   3.093   0.026   4.100 -1.7787  0.2994  2.5476
 3646SOL     OW22399   0.341   0.231   3.883  0.0627 -0.5895  0.4712
 3646SOL    HW122400   0.268   0.170   3.887 -0.4333 -0.0463 -0.1238
 3646SOL    HW222401   0.328   0.270   3.969 -0.1459 -0.0481  0.1992
 3647SOL     OW22402   3.984   2.952   3.322 -0.1394 -0.2572 -0.2984
 3647SOL    HW122403   3.911   2.907   3.363 -0.0407  0.0917  0.2665
 3647SOL    HW222404   3.990   3.022   3.387 -1.1934  0.3184 -0.8350
 3648SOL     OW22405   0.622   4.432   0.710  0.0368 -0.2008 -0.1221
 3648SOL    HW122406   0.578   4.359   0.667 -0.0279  0.0004 -0.3956
 3648SOL    HW222407   0.673   4.381   0.774 -0.2018  0.8843  0.9354
 3649SOL     OW22408   2.149   0.107   4.750  0.0898  0.2342  0.0860
 3649SOL    HW122409   2.133   0.198   4.776  0.6247  0.6483 -1.0320
 3649SOL    HW222410   2.240   0.117   4.722  0.0469 -0.7547 -0.3969
 3650SOL     OW22411   0.571   0.069  11.916  0.6748  0.2847  0.5544
 3650SOL    HW122412   0.589   0.061  11.822  1.6694 -1.1064  0.8563
 3650SOL    HW222413   0.497   0.013  11.939 -0.1893  1.0479 -0.3776
 3651SOL     OW22414   0.383   3.056   3.011  0.2999 -0.2763 -0.0542
 3651SOL    HW122415   0.451   2.992   3.030  0.1334  0.2258  2.2833
 3651SOL    HW222416   0.357   3.080   3.100 -1.0014  0.9880 -0.7665
 3652SOL     OW22417   2.439   0.867   3.468  0.4036 -0.3918 -0.4843
 3652SOL    HW122418   2.446   0.838   3.377 -2.5087 -1.5134 -0.3817
 3652SOL    HW222419   2.405   0.955   3.454 -0.7668 -0.5033  1.6422
 3653SOL     OW22420   4.602   2.852  17.445  0.2292 -0.4977 -0.7559
 3653SOL    HW122421   4.514   2.883  17.462 -0.5475 -2.3123 -1.4221
 3653SOL    HW222422   4.625   2.813  17.530 -0.1689 -0.1265 -0.4781
 3654SOL     OW22423   3.113   0.420  10.895 -0.1570 -0.0192  0.1827
 3654SOL    HW122424   3.022   0.400  10.871 -0.2196  0.3333  0.1271
 3654SOL    HW222425   3.147   0.484  10.833 -1.3411 -0.9792 -1.4363
 3655SOL     OW22426   3.069   4.307   7.240  0.7072  0.3227 -0.2323
 3655SOL    HW122427   3.094   4.360   7.316 -1.1277 -1.1066  1.3663
 3655SOL    HW222428   3.154   4.267   7.221  0.9835  0.6433  0.3446
 3656SOL     OW22429   4.139   2.143  10.699 -0.2191  0.0197  0.1159
 3656SOL    HW122430   4.103   2.129  10.786 -1.5354 -0.2598 -0.4645
 3656SOL    HW222431   4.228   2.114  10.720 -0.9129 -2.9676 -1.0102
 3657SOL     OW22432   2.764   4.671  12.799  0.1854  0.1565  0.3603
 3657SOL    HW122433   2.836   0.002  12.766  0.1526 -1.2174 -1.9293
 3657SOL    HW222434   2.806   4.656  12.884 -1.3094  1.4958  1.3435
 3658SOL     OW22435   4.235   0.439   0.654 -0.1058 -0.1251  0.1883
 3658SOL    HW122436   4.303   0.467   0.593  1.3994  0.3320  2.0889
 3658SOL    HW222437   4.157   0.430   0.599 -0.0428 -1.0073  0.2374
 3659SOL     OW22438   1.254   4.715  12.020 -0.5030  0.2350  0.2637
 3659SOL    HW122439   1.317   0.058  11.989 -0.1078  0.1077  0.7946
 3659SOL    HW222440   1.209   4.672  11.947  0.0013  0.2225 -0.0411
 3660SOL     OW22441   2.098   4.048   5.388  0.0202 -0.0048  0.2056
 3660SOL    HW122442   2.006   4.035   5.365  0.5116 -1.6014 -0.8682
 3660SOL    HW222443   2.125   3.957   5.402 -1.1572 -0.3674  0.1324
 3661SOL     OW22444   2.250   4.458   7.553 -0.3851 -0.0031  1.0475
 3661SOL    HW122445   2.178   4.518   7.571  0.7376  0.7444  3.0092
 3661SOL    HW222446   2.195   4.386   7.523 -2.2220  1.9184 -0.1254
 3662SOL     OW22447   3.933   3.356   8.391 -0.5059 -0.6821  0.4793
 3662SOL    HW122448   3.922   3.437   8.440  1.4478  0.2417 -0.6239
 3662SOL    HW222449   3.842   3.327   8.376 -0.4834 -0.1301 -0.6712
 3663SOL     OW22450   2.998   2.488   9.240 -0.0191  0.2761 -0.2858
 3663SOL    HW122451   2.903   2.480   9.235 -0.1232 -0.8845  3.3220
 3663SOL    HW222452   3.028   2.416   9.185 -1.4355 -0.8100  0.3633
 3664SOL     OW22453   1.847   3.759   7.660  0.2913  0.2402 -0.1889
 3664SOL    HW122454   1.787   3.726   7.593  1.0608 -0.6365 -0.4481
 3664SOL    HW222455   1.904   3.823   7.618 -0.2436  1.0165  0.2742
 3665SOL     OW22456   0.838   0.060   2.695  0.5711 -0.2402  0.1047
 3665SOL    HW122457   0.804   0.135   2.647  0.1435  0.9261  2.2396
 3665SOL    HW222458   0.845   4.720   2.622  1.1665  2.4639 -2.1385
 3666SOL     OW22459   3.548   1.765  16.355  0.1769  0.1194 -0.2692
 3666SOL    HW122460   3.473   1.770  16.414 -0.9680  1.0084 -1.8112
 3666SOL    HW222461   3.526   1.692  16.297  1.7650 -0.8081  0.2988
 3667SOL     OW22462   0.013   2.374  10.392 -0.0927 -0.6802  0.7408
 3667SOL    HW122463   0.077   2.304  10.406 -0.1605 -1.0948 -1.1329
 3667SOL    HW222464   4.656   2.339  10.434 -2.3128  0.4010 -2.5781
 3668SOL     OW22465   4.543   0.014  11.188 -1.1161 -0.5542  0.4759
 3668SOL    HW122466   4.514   4.645  11.180  0.1571 -0.8714 -0.3864
 3668SOL    HW222467   4.463   0.055  11.222 -0.6275  0.2529  0.6556
 3669SOL     OW22468   0.759   2.991  11.433  0.3781  0.3009 -0.3201
 3669SOL    HW122469   0.818   3.049  11.385 -0.0317 -0.5366 -1.8473
 3669SOL    HW222470   0.707   3.051  11.486  0.1103  0.0881 -0.3425
 3670SOL     OW22471   4.297   4.505  14.438 -0.5183  0.7785 -0.8951
 3670SOL    HW122472   4.296   4.599  14.424  1.8269  0.6248 -2.0010
 3670SOL    HW222473   4.215   4.497  14.487  0.5751  0.5509  0.9078
 3671SOL     OW22474   2.480   2.961   2.277 -0.2524  0.2458 -0.1175
 3671SOL    HW122475   2.423   3.014   2.332 -0.5887 -0.8690  0.5861
 3671SOL    HW222476   2.508   3.021   2.207  1.0524  1.8103  1.7353
 3672SOL     OW22477   2.542   2.404   7.088 -0.5221  0.1245 -0.1953
 3672SOL    HW122478   2.570   2.331   7.144 -1.8362  0.1522  0.5026
 3672SOL    HW222479   2.521   2.464   7.159 -2.2073  0.6668 -1.1597
 3673SOL     OW22480   4.425   1.010   2.465 -0.4205 -0.4494  0.2380
 3673SOL    HW122481   4.431   1.011   2.369  1.3121  1.2362  0.3675
 3673SOL    HW222482   4.463   1.094   2.490 -0.3434 -0.1464 -0.8646
 3674SOL     OW22483   0.006   1.218   1.811 -0.3642 -0.5162  0.1396
 3674SOL    HW122484   4.642   1.260   1.805 -0.7142 -1.1543  0.5842
 3674SOL    HW222485   0.049   1.248   1.732 -1.9670 -1.8944 -1.2657
 3675SOL     OW22486   0.709   0.801   5.333 -0.4384  0.0027 -0.2006
 3675SOL    HW122487   0.649   0.748   5.385  1.2280 -1.6645  0.0204
 3675SOL    HW222488   0.777   0.737   5.313 -1.8439 -1.8078  0.8430
 3676SOL     OW22489   0.505   0.823   4.280 -0.1228 -0.3103 -0.3782
 3676SOL    HW122490   0.496   0.815   4.185 -1.6959 -0.4353 -0.2321
 3676SOL    HW222491   0.437   0.890   4.291  0.0307 -0.6690  2.6955
 3677SOL     OW22492   3.511   0.243   0.508  0.3498 -0.2388 -0.0275
 3677SOL    HW122493   3.519   0.161   0.556  0.0919  0.5953  1.4533
 3677SOL    HW222494   3.477   0.209   0.425  1.4198  0.2088 -0.6534
 3678SOL     OW22495   2.660   3.388   4.292  0.1592 -0.6617  0.3770
 3678SOL    HW122496   2.635   3.309   4.341 -1.2741  0.8486  2.0856
 3678SOL    HW222497   2.594   3.443   4.334 -0.3083 -0.3434 -0.7719
 3679SOL     OW22498   0.977   0.838   5.069 -0.1369  0.5706 -0.0363
 3679SOL    HW122499   0.889   0.877   5.070  1.8690  5.1337  0.7056
 3679SOL    HW222500   0.960   0.776   4.998  2.4335  1.1582 -1.1946
 3680SOL     OW22501   2.890   2.712   8.592  0.3385  0.1066  0.1554
 3680SOL    HW122502   2.901   2.724   8.498 -1.2416 -0.6157 -0.1359
 3680SOL    HW222503   2.796   2.693   8.593  0.6596 -1.4706 -0.8870
 3681SOL     OW22504   1.037   1.340   6.079 -0.3793  0.2526 -0.4929
 3681SOL    HW122505   0.961   1.291   6.051  0.4511 -0.2861 -1.7852
 3681SOL    HW222506   1.090   1.339   5.999 -0.5654  1.9532 -0.6511
 3682SOL     OW22507   2.462   3.056   5.850 -0.2939  0.1270  0.4062
 3682SOL    HW122508   2.372   3.078   5.875 -0.5217  1.5973 -1.7029
 3682SOL    HW222509   2.481   3.108   5.772 -0.1498 -1.9590 -0.9477
 3683SOL     OW22510   0.237   3.356   1.247 -0.8042 -0.0847 -0.2620
 3683SOL    HW122511   0.293   3.292   1.292  0.0345  0.8917  0.0968
 3683SOL    HW222512   0.222   3.421   1.316  1.5773  0.2644 -0.0405
 3684SOL     OW22513   2.730   2.636   5.404 -0.7104 -0.0455  0.4181
 3684SOL    HW122514   2.672   2.705   5.437 -0.2742  0.4827  0.1004
 3684SOL    HW222515   2.694   2.563   5.454 -0.3263 -1.0189 -0.7165
 3685SOL     OW22516   2.533   1.647  15.052 -0.1646 -1.0016  0.0567
 3685SOL    HW122517   2.616   1.611  15.084  0.7502  0.1854 -0.9827
 3685SOL    HW222518   2.480   1.613  15.124  1.7207  0.3161  2.0448
 3686SOL     OW22519   3.353   2.131   1.873  0.2877  0.3224 -0.0359
 3686SOL    HW122520   3.396   2.050   1.843 -1.0612 -0.4272  0.0708
 3686SOL    HW222521   3.345   2.180   1.791  0.5180 -0.8395 -0.7705
 3687SOL     OW22522   2.500   1.861   5.621  0.3132 -0.5464  0.1724
 3687SOL    HW122523   2.527   1.913   5.546 -0.2075  1.4803  1.3930
 3687SOL    HW222524   2.413   1.896   5.640 -0.0242 -0.6620 -1.2129
 3688SOL     OW22525   1.760   3.863   7.912  0.3726 -0.3403 -0.4509
 3688SOL    HW122526   1.823   3.934   7.926 -0.0386 -0.5839  2.6767
 3688SOL    HW222527   1.786   3.831   7.826  1.1795  1.1001 -0.7460
 3689SOL     OW22528   3.923   3.928   4.687 -0.2962 -0.1607  0.2591
 3689SOL    HW122529   3.980   3.991   4.643 -0.0858 -0.0497  0.6841
 3689SOL    HW222530   3.981   3.892   4.754 -0.3486 -1.1913 -0.2539
 3690SOL     OW22531   0.106   3.840   5.615 -0.1501  0.4169  0.3717
 3690SOL    HW122532   0.044   3.790   5.668 -0.8232  1.4605  0.5887
 3690SOL    HW222533   0.126   3.909   5.678 -0.5556 -0.5134  1.5238
 3691SOL     OW22534   0.445   3.882  11.617  0.2076 -0.4560  0.5942
 3691SOL    HW122535   0.484   3.816  11.675 -1.0587 -3.3704 -1.8968
 3691SOL    HW222536   0.397   3.827  11.555  2.3768 -1.3722 -0.2507
 3692SOL     OW22537   0.277   1.419   8.256  0.4216  0.1463  0.3598
 3692SOL    HW122538   0.297   1.379   8.341  0.7605 -0.1297  0.1518
 3692SOL    HW222539   0.190   1.450   8.279 -0.4370 -1.7459 -0.3229
 3693SOL     OW22540   1.958   3.200  10.378 -0.4892 -0.2077  0.0549
 3693SOL    HW122541   1.998   3.282  10.349 -1.4658 -0.0069 -0.7161
 3693SOL    HW222542   1.894   3.231  10.442 -1.2109  0.5959 -1.0509
 3694SOL     OW22543   2.548   1.232   8.187 -0.0246  0.1624 -0.0320
 3694SOL    HW122544   2.525   1.239   8.095  1.1253  1.6509 -0.2054
 3694SOL    HW222545   2.597   1.150   8.185 -2.3009 -1.2748  2.6520
 3695SOL     OW22546   1.897   4.338   3.040 -0.0821  0.6919 -0.3862
 3695SOL    HW122547   1.907   4.246   3.064 -0.3224  0.6971 -0.2593
 3695SOL    HW222548   1.820   4.361   3.093  1.2579  1.3535  1.2941
 3696SOL     OW22549   0.810   1.212   1.820 -0.4950  0.0704  0.4221
 3696SOL    HW122550   0.836   1.246   1.906  0.0410  1.5612 -0.3310
 3696SOL    HW222551   0.767   1.285   1.775 -0.5246 -0.9063 -1.1188
 3697SOL     OW22552   0.999   0.951   8.114 -0.5148 -0.6803  0.1310
 3697SOL    HW122553   0.993   0.944   8.209 -1.7727  1.7043  0.2191
 3697SOL    HW222554   1.060   1.024   8.109  0.9469 -1.8977  0.3384
 3698SOL     OW22555   0.964   1.574  14.142  0.0681 -0.4025  0.1979
 3698SOL    HW122556   0.959   1.628  14.063 -0.0103  0.8279  1.0358
 3698SOL    HW222557   0.877   1.536  14.143 -0.4182  0.6630 -1.9854
 3699SOL     OW22558   4.398   1.719   5.285  0.2609  0.0367  0.3327
 3699SOL    HW122559   4.448   1.676   5.355 -1.2652 -0.3386  1.1775
 3699SOL    HW222560   4.362   1.643   5.240  1.0254 -0.2866  0.2575
 3700SOL     OW22561   3.857   2.330   4.288 -0.6037  0.6206  0.2001
 3700SOL    HW122562   3.893   2.359   4.372 -1.0245  1.6715  0.0260
 3700SOL    HW222563   3.903   2.377   4.219 -3.4447  1.5890 -1.0623
 3701SOL     OW22564   4.544   1.159   7.501  0.2141 -0.2696 -0.5455
 3701SOL    HW122565   4.559   1.211   7.422  3.3013 -0.0793  0.1544
 3701SOL    HW222566   4.603   1.087   7.480 -0.3041 -1.3141  1.5443
 3702SOL     OW22567   1.999   0.195   4.116 -0.0116  0.1607 -0.3606
 3702SOL    HW122568   1.980   0.160   4.029 -3.3324 -2.0964  1.2562
 3702SOL    HW222569   2.089   0.166   4.127 -0.6327 -1.5464  0.2766
 3703SOL     OW22570   3.246   2.988   3.615  0.0507 -0.2646 -0.2225
 3703SOL    HW122571   3.278   3.037   3.691 -2.2882  0.4168  0.3361
 3703SOL    HW222572   3.183   3.048   3.574  1.4101 -0.3594 -2.4766
 3704SOL     OW22573   2.601   0.867   7.135  0.2065 -0.2516  0.4303
 3704SOL    HW122574   2.696   0.862   7.120  0.1729  2.3313 -0.6425
 3704SOL    HW222575   2.581   0.859   7.042 -0.8883  0.4021  0.6117
 3705SOL     OW22576   1.698   3.867   6.978 -0.2422  0.0287  0.1117
 3705SOL    HW122577   1.655   3.792   7.019 -0.0325  0.4255  1.0600
 3705SOL    HW222578   1.633   3.881   6.909  0.8977  0.1927 -0.9261
 3706SOL     OW22579   4.344   4.217  15.232  0.0992 -0.1093 -0.2238
 3706SOL    HW122580   4.410   4.268  15.185  1.4739 -1.6451  0.0358
 3706SOL    HW222581   4.358   4.134  15.186 -3.7091 -1.7208  1.4890
 3707SOL     OW22582   1.154   1.754   7.998  0.0213 -0.0608 -0.0711
 3707SOL    HW122583   1.195   1.772   7.913 -0.1737 -0.4152 -0.2421
 3707SOL    HW222584   1.203   1.820   8.047 -0.3080  1.0084 -1.1465
 3708SOL     OW22585   1.328   4.460   4.783 -0.5358 -0.3503 -0.5409
 3708SOL    HW122586   1.377   4.538   4.758 -1.7637 -0.0838 -2.1137
 3708SOL    HW222587   1.397   4.399   4.813 -0.3464  0.0719 -0.1136
 3709SOL     OW22588   2.598   0.172   1.469  0.6883 -0.0829 -0.3391
 3709SOL    HW122589   2.647   0.253   1.480  0.6719 -0.5066  2.8460
 3709SOL    HW222590   2.601   0.153   1.375 -0.7289 -1.0999 -0.1926
 3710SOL     OW22591   3.833   0.838   6.221 -0.1140  0.3118  0.0602
 3710SOL    HW122592   3.926   0.822   6.240 -0.8406 -1.7619  1.8562
 3710SOL    HW222593   3.832   0.866   6.129  2.3391 -0.5481 -0.2469
 3711SOL     OW22594   0.681   1.448  14.451 -0.4715 -0.0137 -0.4640
 3711SOL    HW122595   0.742   1.462  14.523  1.9653  0.6997 -2.6727
 3711SOL    HW222596   0.720   1.379  14.396  0.7409  0.3860 -0.1147
 3712SOL     OW22597   4.538   0.197  10.522 -0.5482 -0.2850  0.5833
 3712SOL    HW122598   4.580   0.111  10.517 -0.7569 -0.4058  0.9193
 3712SOL    HW222599   4.596   0.241  10.584 -0.0796 -0.8972  0.5838
 3713SOL     OW22600   0.621   4.651   1.449  0.2341  0.0148  0.2182
 3713SOL    HW122601   0.553   4.705   1.408  0.3145 -0.1474 -0.1289
 3713SOL    HW222602   0.635   4.590   1.377 -1.0192 -1.0143  0.8439
 3714SOL     OW22603   4.626   3.015  13.105  0.0126  0.0670 -0.0991
 3714SOL    HW122604   4.566   3.058  13.044  0.5964  0.1772 -0.5995
 3714SOL    HW222605   4.695   3.082  13.110 -0.0574  0.0757  0.6276
 3715SOL     OW22606   0.043   0.855   4.404 -0.1500 -0.1631 -0.0729
 3715SOL    HW122607   0.046   0.946   4.376  0.9641 -0.0076  0.5790
 3715SOL    HW222608   4.699   0.818   4.345 -0.1536 -0.8902  0.3804
 3716SOL     OW22609   0.474   2.455   3.175  0.0317  0.6480 -0.3567
 3716SOL    HW122610   0.415   2.515   3.128 -2.1879 -1.3330 -0.1524
 3716SOL    HW222611   0.418   2.414   3.242  1.0784 -0.8840 -0.4123
 3717SOL     OW22612   1.606   4.482   4.123 -0.7379 -0.3511 -0.3115
 3717SOL    HW122613   1.677   4.534   4.161 -1.7762  1.0805 -0.3187
 3717SOL    HW222614   1.627   4.395   4.155  0.2710  0.0840  0.2109
 3718SOL     OW22615   4.278   1.648   4.234 -0.7277  0.2941  0.2542
 3718SOL    HW122616   4.343   1.716   4.255 -2.6344  2.4919 -0.9458
 3718SOL    HW222617   4.274   1.593   4.311 -1.4796  1.8706  1.3449
 3719SOL     OW22618   1.605   4.418  12.067  0.7451  0.1314  0.6237
 3719SOL    HW122619   1.593   4.513  12.063  0.1110  0.0290  0.2809
 3719SOL    HW222620   1.514   4.391  12.077  0.1343  1.6847 -0.8299
 3720SOL     OW22621   0.896   3.119   7.016 -0.4746  0.9522  0.0791
 3720SOL    HW122622   0.882   3.025   7.031 -0.8448  0.7374 -1.5317
 3720SOL    HW222623   0.828   3.163   7.068  0.6335  1.6559  0.9127
 3721SOL     OW22624   3.211   0.901   8.614  0.1743 -0.4022  0.7902
 3721SOL    HW122625   3.248   0.984   8.583 -0.4267 -0.4549 -0.0668
 3721SOL    HW222626   3.279   0.838   8.591 -1.1193 -0.9731 -1.3707
 3722SOL     OW22627   0.872   3.680   3.778  0.1006  0.3609  0.0821
 3722SOL    HW122628   0.789   3.724   3.762 -0.4251  0.1746  2.3065
 3722SOL    HW222629   0.936   3.747   3.757 -0.6166  1.0708  0.1822
 3723SOL     OW22630   2.552   3.305  15.702  0.0181  0.0591  0.8205
 3723SOL    HW122631   2.480   3.359  15.669  2.5122  1.9957 -1.5268
 3723SOL    HW222632   2.547   3.226  15.649  0.8159 -0.0722  0.9397
 3724SOL     OW22633   0.755   1.861  11.505  0.3680 -0.1573  0.3071
 3724SOL    HW122634   0.727   1.797  11.440 -0.8669 -0.4039  1.0740
 3724SOL    HW222635   0.773   1.815  11.587 -0.2346 -1.9600 -0.5763
 3725SOL     OW22636   2.660   0.375  16.092 -0.3905  0.4804  0.1138
 3725SOL    HW122637   2.571   0.340  16.094 -0.3561  0.2941 -1.3323
 3725SOL    HW222638   2.670   0.388  15.997  1.3800  2.5894  0.5772
 3726SOL     OW22639   0.787   1.268   3.657 -0.0491  0.4957  0.0538
 3726SOL    HW122640   0.782   1.184   3.703 -0.3884 -0.1204 -1.0972
 3726SOL    HW222641   0.737   1.323   3.717 -2.0833 -0.4145 -0.8108
 3727SOL     OW22642   2.106   1.536   8.424 -0.2367  0.0493  0.1000
 3727SOL    HW122643   2.200   1.547   8.436 -0.1098 -0.4969 -0.3418
 3727SOL    HW222644   2.091   1.463   8.485  0.4561  0.9684  1.3487
 3728SOL     OW22645   0.969   1.238   5.187  0.0455 -0.0304  0.3376
 3728SOL    HW122646   1.049   1.194   5.159 -0.6576 -1.5561  0.7760
 3728SOL    HW222647   1.006   1.307   5.242 -0.7697  0.9975 -0.4083
 3729SOL     OW22648   4.338   2.060   8.332 -0.2714  0.2635  0.0418
 3729SOL    HW122649   4.381   2.104   8.259 -0.1855 -0.9753 -0.6605
 3729SOL    HW222650   4.327   2.145   8.373  1.1659  1.0301 -1.1762
 3730SOL     OW22651   4.253   3.806   6.630  0.0420  0.3935  0.4066
 3730SOL    HW122652   4.181   3.799   6.567 -0.8492 -0.4604  1.5265
 3730SOL    HW222653   4.250   3.722   6.676  1.2618 -1.8180 -3.4562
 3731SOL     OW22654   4.496   1.310   2.527  0.1736 -0.7192  0.3570
 3731SOL    HW122655   4.465   1.399   2.508  0.4140 -0.2577  2.1328
 3731SOL    HW222656   4.572   1.321   2.469  0.4648  0.1895  0.8970
 3732SOL     OW22657   3.462   0.948  11.692 -0.6327  0.0420 -0.0999
 3732SOL    HW122658   3.415   0.974  11.612  0.6625  0.4486 -0.7314
 3732SOL    HW222659   3.505   0.869  11.661 -0.9750 -0.6646  1.2153
 3733SOL     OW22660   0.381   3.415   3.776  0.2332 -0.0798  0.0708
 3733SOL    HW122661   0.348   3.441   3.690 -0.9057 -2.0899 -0.0893
 3733SOL    HW222662   0.415   3.332   3.744 -0.5892 -0.8885  1.3324
 3734SOL     OW22663   1.160   3.688   3.574  0.2562  0.1121 -0.0011
 3734SOL    HW122664   1.208   3.737   3.640 -0.1959  0.0829  0.3549
 3734SOL    HW222665   1.153   3.752   3.504 -0.0981  1.4351  1.2566
 3735SOL     OW22666   2.626   0.591   1.125  0.3902 -0.3667  0.7658
 3735SOL    HW122667   2.562   0.552   1.066  0.0776  1.5493 -0.1532
 3735SOL    HW222668   2.592   0.680   1.124  4.0671  1.0443  0.8467
 3736SOL     OW22669   3.198   2.949   5.895  0.4609  0.0904  0.3064
 3736SOL    HW122670   3.137   3.016   5.867  0.3909  0.7037  1.8895
 3736SOL    HW222671   3.161   2.883   5.837  1.9688  0.6030 -1.2383
 3737SOL     OW22672   3.577   0.897   3.609 -0.2681 -0.3258  0.1061
 3737SOL    HW122673   3.656   0.918   3.559  0.1320 -1.7898  0.1046
 3737SOL    HW222674   3.516   0.948   3.557 -1.3001  0.3405  1.9721
 3738SOL     OW22675   4.326   2.926   5.213 -0.1898 -0.1277 -0.1064
 3738SOL    HW122676   4.323   2.974   5.296  0.1799  0.9523 -0.7132
 3738SOL    HW222677   4.245   2.876   5.224 -0.4207  0.3820  0.5490
 3739SOL     OW22678   0.157   3.194   5.295 -0.0781 -0.4028 -0.0552
 3739SOL    HW122679   0.142   3.235   5.210 -3.4548 -1.9621 -0.2189
 3739SOL    HW222680   0.154   3.101   5.273 -0.2266 -0.7281  1.3117
 3740SOL     OW22681   1.735   1.077   4.016  0.5649 -0.1023 -0.0718
 3740SOL    HW122682   1.755   1.159   3.972 -1.5137  1.0235  1.0967
 3740SOL    HW222683   1.774   1.080   4.104  0.9022 -1.6744 -0.1602
 3741SOL     OW22684   3.920   0.328   5.214 -0.0933 -0.2090  0.2151
 3741SOL    HW122685   4.001   0.299   5.255 -1.1746 -1.6691  1.3233
 3741SOL    HW222686   3.878   0.244   5.196 -0.1164 -0.1124 -0.1661
 3742SOL     OW22687   0.870   3.573   4.024  0.4269 -0.2584  0.0120
 3742SOL    HW122688   0.872   3.593   3.930 -3.6242 -1.6530 -0.3632
 3742SOL    HW222689   0.843   3.482   4.008 -1.4643  0.4375 -0.7987
 3743SOL     OW22690   2.225   4.656   1.232 -0.1188  0.2351  0.2440
 3743SOL    HW122691   2.308   4.618   1.262 -1.2485 -1.6548  1.0209
 3743SOL    HW222692   2.185   4.580   1.188  1.8087 -1.5968  1.6639
 3744SOL     OW22693   3.698   4.393   6.281  0.0207  0.1648 -0.4589
 3744SOL    HW122694   3.691   4.344   6.200  0.1629  0.0729 -0.4139
 3744SOL    HW222695   3.661   4.478   6.255 -0.8746  0.3031  1.2354
 3745SOL     OW22696   0.785   2.082   0.997  0.1180 -0.0506 -0.5203
 3745SOL    HW122697   0.727   2.140   0.949 -2.8035 -1.3248  1.4131
 3745SOL    HW222698   0.798   2.121   1.084  0.1046  1.3304 -1.1373
 3746SOL     OW22699   3.679   1.572   5.935  0.2298  0.6555 -0.3166
 3746SOL    HW122700   3.642   1.498   5.983  0.0740 -0.2299 -1.8107
 3746SOL    HW222701   3.762   1.537   5.903  0.0586  1.1985 -1.3497
 3747SOL     OW22702   2.439   2.582   4.677 -0.2224  0.0038 -0.1472
 3747SOL    HW122703   2.439   2.592   4.772 -0.7493  1.5641 -0.3047
 3747SOL    HW222704   2.430   2.674   4.652 -1.8401 -0.9559 -3.2302
 3748SOL     OW22705   0.667   1.538  12.718  0.4865  0.5126  0.1121
 3748SOL    HW122706   0.645   1.615  12.771 -0.5455 -0.2731  0.8377
 3748SOL    HW222707   0.761   1.528  12.732  0.7804  3.2078 -0.0363
 3749SOL     OW22708   4.464   0.246   6.360  0.2408  0.7069  0.3278
 3749SOL    HW122709   4.553   0.221   6.336  0.1223  1.3721 -0.8230
 3749SOL    HW222710   4.486   0.334   6.391 -0.6366 -0.2639  3.7103
 3750SOL     OW22711   1.632   1.766   7.011  0.4533  0.5800 -0.1403
 3750SOL    HW122712   1.637   1.707   7.086  2.3831  0.1552 -0.6004
 3750SOL    HW222713   1.697   1.835   7.025  1.5295 -0.4168 -0.2558
 3751SOL     OW22714   4.193   0.166   8.626  0.0535  0.2184 -0.1737
 3751SOL    HW122715   4.167   0.228   8.557 -1.2664 -0.6286 -0.4403
 3751SOL    HW222716   4.123   0.180   8.689 -1.0087  0.3977 -1.3744
 3752SOL     OW22717   1.026   1.590   2.993 -0.0337 -0.3071 -0.5582
 3752SOL    HW122718   1.120   1.586   3.009 -0.4025 -1.8140  1.2068
 3752SOL    HW222719   1.006   1.624   2.906 -0.2233 -1.7463 -1.0704
 3753SOL     OW22720   1.904   1.537  13.771  0.2359 -0.5700 -0.1061
 3753SOL    HW122721   1.901   1.450  13.732 -0.7879  0.3459 -2.1172
 3753SOL    HW222722   1.901   1.508  13.862  1.2592  0.1905  0.1712
 3754SOL     OW22723   2.974   0.452   5.219  0.0972  0.0107  0.1245
 3754SOL    HW122724   2.909   0.493   5.276  1.6205  0.3783  1.5702
 3754SOL    HW222725   2.926   0.448   5.136 -0.5089  0.8688  0.4252
 3755SOL     OW22726   1.844   2.433   8.270  0.1394 -0.2776 -0.8094
 3755SOL    HW122727   1.886   2.348   8.259 -0.4175 -0.7538  0.6659
 3755SOL    HW222728   1.811   2.429   8.360 -2.5266  0.6017 -1.7371
 3756SOL     OW22729   2.730   0.916   2.247  0.9168 -0.2936 -0.1974
 3756SOL    HW122730   2.790   0.938   2.176  1.6345  0.0458  0.5074
 3756SOL    HW222731   2.752   0.832   2.288 -1.3028 -0.8340 -0.0913
 3757SOL     OW22732   2.361   1.090   2.770 -0.3580 -0.2075  0.0026
 3757SOL    HW122733   2.451   1.056   2.760 -0.0734 -0.3774  3.0471
 3757SOL    HW222734   2.374   1.181   2.796  1.0122 -0.8601  1.6693
 3758SOL     OW22735   2.089   1.523  12.007 -0.0089 -0.8741 -0.8964
 3758SOL    HW122736   2.132   1.474  11.937  0.2606 -2.6743  0.5318
 3758SOL    HW222737   2.026   1.575  11.957  2.6506  1.7381 -1.5117
 3759SOL     OW22738   3.708   0.113  14.028  0.1106  0.4045 -0.3884
 3759SOL    HW122739   3.706   0.208  14.041 -0.8583  0.4479 -0.8956
 3759SOL    HW222740   3.769   0.085  14.097  1.6736 -0.8733 -2.2927
 3760SOL     OW22741   0.417   1.450  17.555  0.2118  0.1103 -0.1379
 3760SOL    HW122742   0.344   1.422  17.500  0.2807 -1.9741  0.8376
 3760SOL    HW222743   0.490   1.423  17.500  2.0293 -0.4726  2.5491
 3761SOL     OW22744   3.480   4.607   6.412  0.1676 -0.0756  0.0148
 3761SOL    HW122745   3.498   4.606   6.506 -0.2620  0.3827  0.1062
 3761SOL    HW222746   3.414   4.537   6.408  0.3743 -0.0648 -3.3000
 3762SOL     OW22747   1.275   4.187   1.388 -0.7217  0.2078 -0.6444
 3762SOL    HW122748   1.257   4.108   1.338  1.6267 -1.0373  0.4982
 3762SOL    HW222749   1.249   4.258   1.329 -0.7899  0.8585  0.1713
 3763SOL     OW22750   3.570   2.393  13.196  0.7903 -0.3498 -0.0762
 3763SOL    HW122751   3.617   2.453  13.255  0.0035  0.3108 -0.1194
 3763SOL    HW222752   3.518   2.339  13.256 -0.9596  2.8334  1.2829
 3764SOL     OW22753   3.741   3.643   0.165  0.3200 -0.2393  0.3476
 3764SOL    HW122754   3.654   3.672   0.138  1.4707  3.0317  0.1015
 3764SOL    HW222755   3.727   3.662   0.258 -1.9736  1.9799 -0.4696
 3765SOL     OW22756   0.065   2.564   9.056 -0.3995  0.6364 -0.0742
 3765SOL    HW122757   0.046   2.657   9.069  0.5192  0.9397 -0.9029
 3765SOL    HW222758   0.035   2.531   9.141 -0.1909 -0.9800 -0.6470
 3766SOL     OW22759   4.410   2.734   0.446 -0.1709 -0.0615 -0.3078
 3766SOL    HW122760   4.463   2.801   0.490 -2.1172  1.1827  0.1192
 3766SOL    HW222761   4.470   2.659   0.443 -1.0490 -0.6302 -3.5496
 3767SOL     OW22762   2.751   2.141  12.751  0.0104  0.0996 -0.0965
 3767SOL    HW122763   2.796   2.223  12.770 -0.9668  0.8124 -0.8412
 3767SOL    HW222764   2.741   2.135  12.656 -1.1434 -0.0365  0.0385
 3768SOL     OW22765   2.344   2.577   3.639 -0.2748 -0.0230  0.2584
 3768SOL    HW122766   2.256   2.610   3.623 -1.2915 -2.2764  1.2645
 3768SOL    HW222767   2.349   2.588   3.734  0.7126  2.1502 -0.0372
 3769SOL     OW22768   1.434   1.706   4.642 -0.2692 -0.3792  0.5088
 3769SOL    HW122769   1.500   1.732   4.706 -0.5508  1.2187  0.1479
 3769SOL    HW222770   1.357   1.757   4.668  0.3181  0.1076  1.2821
 3770SOL     OW22771   3.463   2.434  17.216 -0.5330 -0.0837 -0.8123
 3770SOL    HW122772   3.407   2.466  17.145 -2.7174  2.6429  2.1540
 3770SOL    HW222773   3.468   2.514  17.267 -0.2207 -0.5858 -0.0595
 3771SOL     OW22774   2.311   1.373   8.230 -0.4517 -0.7533 -0.0563
 3771SOL    HW122775   2.399   1.337   8.218  0.7526  2.1394  0.0641
 3771SOL    HW222776   2.271   1.353   8.314  0.4826  0.0925  0.5912
 3772SOL     OW22777   2.432   4.135   7.724  0.6549 -0.4853  0.5449
 3772SOL    HW122778   2.347   4.175   7.703  1.0963 -0.1399 -0.5438
 3772SOL    HW222779   2.441   4.136   7.819 -2.0344  1.1871  0.7789
 3773SOL     OW22780   1.694   4.237  15.341 -0.3478  0.3940 -0.5836
 3773SOL    HW122781   1.787   4.236  15.360 -0.2870  1.9646 -0.8173
 3773SOL    HW222782   1.708   4.314  15.287  2.3469 -0.5683 -1.2375
 3774SOL     OW22783   3.355   0.698   8.484  0.6992 -0.0845 -0.2665
 3774SOL    HW122784   3.346   0.708   8.389  0.3851 -0.2838 -0.2594
 3774SOL    HW222785   3.432   0.642   8.482  1.1352  0.5501 -1.4540
 3775SOL     OW22786   3.847   4.550   0.918  0.8613  0.3474  0.0459
 3775SOL    HW122787   3.912   4.490   0.955  0.3570  0.1970  0.6931
 3775SOL    HW222788   3.869   4.628   0.969 -0.2104 -0.5368  1.8762
 3776SOL     OW22789   1.752   3.838   9.250 -0.6038  0.5249 -0.1217
 3776SOL    HW122790   1.710   3.753   9.259  0.7945 -0.2602 -0.9016
 3776SOL    HW222791   1.843   3.814   9.233 -0.6955  2.5125 -3.4797
 3777SOL     OW22792   1.847   0.084   2.684 -0.2665  0.3731 -0.2231
 3777SOL    HW122793   1.792   0.158   2.711 -1.7866 -1.2840  1.2494
 3777SOL    HW222794   1.786   0.013   2.704 -1.3701  1.8332  1.6396
 3778SOL     OW22795   0.776   0.788  11.491  0.4450 -0.0156  1.2367
 3778SOL    HW122796   0.743   0.866  11.446 -1.2786 -1.5856 -0.2128
 3778SOL    HW222797   0.695   0.772  11.540  0.6735  0.8623  1.9070
 3779SOL     OW22798   0.037   0.380   2.187 -0.6345 -0.2668  0.0700
 3779SOL    HW122799   0.075   0.309   2.135 -1.3861 -0.0325 -0.7969
 3779SOL    HW222800   0.056   0.455   2.132  0.2954 -0.2804  0.3793
 3780SOL     OW22801   0.338   2.360   6.912 -0.3314  0.2766  0.0692
 3780SOL    HW122802   0.402   2.292   6.933  0.0164  0.1432 -1.4894
 3780SOL    HW222803   0.278   2.344   6.985 -0.2725 -0.1050  0.0337
 3781SOL     OW22804   4.272   4.104   2.380  0.0245  0.3182 -0.8362
 3781SOL    HW122805   4.293   4.190   2.344 -1.6506 -0.1887 -3.0237
 3781SOL    HW222806   4.188   4.083   2.340  1.4095 -2.6525 -2.1358
 3782SOL     OW22807   3.812   0.584   4.890 -0.1902 -0.1811  0.3357
 3782SOL    HW122808   3.737   0.525   4.895 -0.2689 -0.1453 -0.4073
 3782SOL    HW222809   3.827   0.617   4.978 -2.0175  0.7458  0.3103
 3783SOL     OW22810   2.309   3.995   3.262  0.1250 -0.2720  0.0276
 3783SOL    HW122811   2.245   4.027   3.198  1.3086  1.1116 -0.4637
 3783SOL    HW222812   2.382   3.960   3.211  0.2859 -1.2634  0.9337
 3784SOL     OW22813   0.432   4.631   2.422  0.1899 -0.2189  0.5195
 3784SOL    HW122814   0.337   4.643   2.425  0.2722  0.5692 -0.2524
 3784SOL    HW222815   0.438   4.537   2.404 -0.1539  0.4589 -3.0223
 3785SOL     OW22816   0.901   4.652   8.334  0.4606 -0.0713 -0.7054
 3785SOL    HW122817   0.953   4.600   8.395  0.5878  0.0394 -0.7209
 3785SOL    HW222818   0.821   4.599   8.340  0.4824  0.0380  0.4354
 3786SOL     OW22819   2.192   2.102  13.668 -0.2554  0.0277  0.9195
 3786SOL    HW122820   2.111   2.132  13.627  0.2676 -0.4746 -0.4652
 3786SOL    HW222821   2.257   2.144  13.612  0.4885 -0.1609  1.6397
 3787SOL     OW22822   1.472   3.191  10.147  0.1418 -0.4615 -0.5693
 3787SOL    HW122823   1.451   3.282  10.125  1.0110  0.7298  3.6212
 3787SOL    HW222824   1.565   3.201  10.169 -0.0244 -2.5967  1.1008
 3788SOL     OW22825   4.536   2.176  10.456  0.3731  0.1356  0.4678
 3788SOL    HW122826   4.464   2.127  10.495  0.1837  0.4635  0.5341
 3788SOL    HW222827   4.555   2.120  10.382  1.0037  1.9054 -0.7080
 3789SOL     OW22828   4.483   1.334   1.852 -0.0084 -0.1152  1.1759
 3789SOL    HW122829   4.417   1.320   1.784  2.4623  0.8751 -1.4307
 3789SOL    HW222830   4.503   1.425   1.832 -0.7982 -0.1327  0.3021
 3790SOL     OW22831   2.062   4.458   2.213 -0.4784 -0.4024  0.1311
 3790SOL    HW122832   2.088   4.478   2.123  0.2169 -0.8019  0.2370
 3790SOL    HW222833   2.014   4.534   2.246 -1.6179 -1.1426  0.1567
 3791SOL     OW22834   2.678   1.066   5.810 -0.1611  0.2631  0.2476
 3791SOL    HW122835   2.620   1.137   5.781  0.0753 -0.1564 -1.2393
 3791SOL    HW222836   2.750   1.114   5.850  0.4959 -0.6252  0.1268
 3792SOL     OW22837   0.463   0.125   3.376 -0.7419 -0.0056  0.4059
 3792SOL    HW122838   0.389   0.092   3.325 -0.2860  2.2586 -1.7104
 3792SOL    HW222839   0.471   0.216   3.346  1.0152 -0.6114 -0.9649
 3793SOL     OW22840   3.709   3.288   6.597 -0.2585 -0.0589 -0.5114
 3793SOL    HW122841   3.624   3.310   6.635  1.1389  1.6347  1.6568
 3793SOL    HW222842   3.726   3.203   6.638 -0.7944  0.1562  0.1633
 3794SOL     OW22843   0.457   4.303  14.597 -0.3711 -0.1462 -0.4427
 3794SOL    HW122844   0.430   4.230  14.653  0.3524  0.5572  0.8342
 3794SOL    HW222845   0.494   4.251  14.525 -0.0636 -0.1690 -0.2728
 3795SOL     OW22846   2.456   0.602   0.851  0.2710  0.2574 -0.1805
 3795SOL    HW122847   2.428   0.550   0.926  0.0652  2.0261  0.9662
 3795SOL    HW222848   2.477   0.685   0.894  0.5589 -0.3278  0.8208
 3796SOL     OW22849   0.433   0.445   1.574  0.0054  0.2129 -0.3666
 3796SOL    HW122850   0.447   0.394   1.654  0.9840  0.9744 -0.0619
 3796SOL    HW222851   0.503   0.510   1.575  0.4036 -0.2402  1.8287
 3797SOL     OW22852   4.696   0.898   9.805 -0.3250 -0.7464 -0.0781
 3797SOL    HW122853   4.638   0.935   9.738 -0.1735  0.2292  0.3278
 3797SOL    HW222854   4.664   0.809   9.790 -1.4115 -0.4610  0.5338
 3798SOL     OW22855   1.984   3.683  13.513  0.6085  0.1756  0.2414
 3798SOL    HW122856   2.061   3.669  13.457  1.0642  0.1445  0.8797
 3798SOL    HW222857   1.930   3.616  13.470 -1.6804  3.0506 -1.4156
 3799SOL     OW22858   1.444   2.202  14.346  0.0083  0.1528 -0.2659
 3799SOL    HW122859   1.526   2.159  14.368  0.2409  0.8641  0.2471
 3799SOL    HW222860   1.390   2.182  14.423 -0.2682 -0.1379 -0.5321
 3800SOL     OW22861   1.182   3.932   7.030 -0.2922 -0.3967  0.3645
 3800SOL    HW122862   1.207   3.846   7.064  0.8649 -0.2094 -0.0078
 3800SOL    HW222863   1.263   3.967   6.992 -1.2149  1.0033 -0.2942
 3801SOL     OW22864   1.157   3.404  11.435  0.6340  0.0785  0.1482
 3801SOL    HW122865   1.251   3.387  11.429  0.8119  0.2377  2.4718
 3801SOL    HW222866   1.144   3.388  11.529 -1.9414  3.2359  0.2980
 3802SOL     OW22867   0.576   3.276   3.370 -0.2692 -0.3599  0.0902
 3802SOL    HW122868   0.655   3.279   3.316  0.0501 -0.2195  0.5639
 3802SOL    HW222869   0.539   3.197   3.330  0.2093  0.6557 -2.3611
 3803SOL     OW22870   3.360   2.859   1.691 -0.8724  0.1229  0.5104
 3803SOL    HW122871   3.367   2.887   1.600  3.1294  1.4366  1.2237
 3803SOL    HW222872   3.435   2.891   1.740 -0.7950  0.5616  0.0975
 3804SOL     OW22873   0.969   3.888   8.188  0.7646 -0.0825  0.0397
 3804SOL    HW122874   0.905   3.956   8.207  0.2921 -0.6552  0.4994
 3804SOL    HW222875   0.922   3.816   8.147 -0.1881 -0.4797  1.8313
 3805SOL     OW22876   4.124   2.767   8.123 -0.2022  0.5724 -0.8808
 3805SOL    HW122877   4.099   2.743   8.212  0.0391  1.8974 -0.4552
 3805SOL    HW222878   4.181   2.845   8.122 -1.4787  1.5730  2.3277
 3806SOL     OW22879   1.536   0.514   8.158 -0.2612  0.7029  0.2935
 3806SOL    HW122880   1.451   0.505   8.202 -0.9935 -0.1021 -1.2866
 3806SOL    HW222881   1.498   0.552   8.078 -1.3908  1.5451  1.2345
 3807SOL     OW22882   4.150   2.252   5.357 -0.1451  0.5763 -0.0412
 3807SOL    HW122883   4.228   2.237   5.304 -1.2190 -4.0364 -0.2763
 3807SOL    HW222884   4.097   2.301   5.294 -0.2251 -1.2034 -1.3567
 3808SOL     OW22885   1.441   0.934   3.440  0.6354  0.3074  0.1508
 3808SOL    HW122886   1.454   0.975   3.525  2.3126 -0.4845  0.2943
 3808SOL    HW222887   1.383   0.993   3.393  0.1802 -1.3847 -1.4108
 3809SOL     OW22888   1.673   4.296   3.182  1.0520 -0.2884  0.6360
 3809SOL    HW122889   1.623   4.327   3.258  0.7314 -2.0010  1.1160
 3809SOL    HW222890   1.614   4.242   3.130 -2.0745  3.7993 -0.0497
 3810SOL     OW22891   1.815   2.955   8.964 -0.0262 -0.0107 -0.2553
 3810SOL    HW122892   1.864   3.038   8.969 -3.0893  1.8268 -0.5290
 3810SOL    HW222893   1.762   2.956   8.885  1.0966 -3.5888 -1.0359
 3811SOL     OW22894   1.584   2.675  17.104 -0.5719 -0.5108 -0.5176
 3811SOL    HW122895   1.632   2.675  17.187 -1.1822  0.5727 -0.1521
 3811SOL    HW222896   1.596   2.765  17.072  1.0076 -1.3319 -2.1918
 3812SOL     OW22897   3.948   3.372   5.959  0.2094  0.4832  0.7724
 3812SOL    HW122898   3.853   3.368   5.952  0.3435 -2.0866  0.2203
 3812SOL    HW222899   3.950   3.460   5.997 -0.6061  0.5872  0.5667
 3813SOL     OW22900   1.516   1.813   7.373 -0.5155  0.1179 -0.5125
 3813SOL    HW122901   1.549   1.799   7.461  1.3178  4.0456 -0.5401
 3813SOL    HW222902   1.460   1.887   7.398 -0.0716  0.1222  0.4443
 3814SOL     OW22903   1.024   0.235   3.511 -0.4258 -0.0124 -0.2333
 3814SOL    HW122904   1.036   0.153   3.463 -1.5749 -0.5307  0.3704
 3814SOL    HW222905   1.059   0.212   3.598 -2.2004 -1.7461  0.0412
 3815SOL     OW22906   1.005   4.193   3.097  0.0185  0.1232 -0.1883
 3815SOL    HW122907   0.999   4.156   3.185 -0.1405  0.1864 -0.1737
 3815SOL    HW222908   1.089   4.238   3.104  0.5114 -0.7847 -0.2764
 3816SOL     OW22909   2.648   0.737  14.389  0.3334 -0.4499  0.3101
 3816SOL    HW122910   2.734   0.773  14.411 -0.3677  1.6527 -0.3867
 3816SOL    HW222911   2.629   0.717  14.480  1.1912  0.9325  0.7917
 3817SOL     OW22912   1.751   1.817  10.142  0.0543  0.0333  0.2688
 3817SOL    HW122913   1.793   1.733  10.124  0.1725 -0.3008  2.0697
 3817SOL    HW222914   1.811   1.887  10.115 -0.5114  1.1136  1.7964
 3818SOL     OW22915   1.284   0.495   8.623  0.1860 -0.2979 -0.6975
 3818SOL    HW122916   1.242   0.432   8.564 -2.5038 -1.1356  2.1650
 3818SOL    HW222917   1.220   0.488   8.693 -1.0924 -0.5945 -1.8952
 3819SOL     OW22918   0.770   3.006   5.729 -0.4830 -0.4441 -0.2411
 3819SOL    HW122919   0.786   2.912   5.717 -0.2569 -0.3664 -0.5496
 3819SOL    HW222920   0.810   3.025   5.814  1.8897 -2.1238 -0.9641
 3820SOL     OW22921   1.992   1.898  14.722 -0.8672 -0.2376  0.2338
 3820SOL    HW122922   2.086   1.912  14.713 -1.3322  3.5791  1.5657
 3820SOL    HW222923   1.988   1.877  14.815  1.6947  0.5227  0.4989
 3821SOL     OW22924   2.881   3.874  15.416  0.0002  0.0041  0.1219
 3821SOL    HW122925   2.801   3.903  15.459 -1.2011 -1.9534 -0.7952
 3821SOL    HW222926   2.861   3.780  15.420 -1.9319  0.4786  1.2778
 3822SOL     OW22927   1.055   4.384   6.582  0.4894  0.1809  0.2108
 3822SOL    HW122928   0.996   4.437   6.636 -0.1347 -0.3951  0.0981
 3822SOL    HW222929   1.044   4.425   6.496  1.5503  2.0150  0.9453
 3823SOL     OW22930   2.998   4.071  16.738 -0.1209 -0.0190  0.0107
 3823SOL    HW122931   3.073   4.102  16.788 -2.8649  1.1195  3.4782
 3823SOL    HW222932   2.958   4.151  16.705  3.0407  1.5171  0.0052
 3824SOL     OW22933   1.384   3.853  11.951 -0.3417  0.5058 -0.1591
 3824SOL    HW122934   1.313   3.866  11.888 -1.1884 -1.0414  0.4799
 3824SOL    HW222935   1.341   3.782  11.998  2.4854 -1.7226 -0.9530
 3825SOL     OW22936   0.631   0.540   9.611 -0.1547  0.0681 -0.3311
 3825SOL    HW122937   0.587   0.515   9.530 -2.8277  0.0093  1.1493
 3825SOL    HW222938   0.641   0.454   9.652 -0.9006 -1.9731 -4.3915
 3826SOL     OW22939   1.962   4.608  12.089 -0.2793  0.2662  0.4560
 3826SOL    HW122940   1.947   4.696  12.124  2.8503  1.2431 -0.7078
 3826SOL    HW222941   1.896   4.552  12.131  0.5744 -0.1793  1.1890
 3827SOL     OW22942   1.880   2.961   0.544  0.5099 -0.1679  0.0615
 3827SOL    HW122943   1.855   2.882   0.592 -0.4584 -0.2569 -0.5721
 3827SOL    HW222944   1.930   2.924   0.471  0.1393 -2.2396  0.8465
 3828SOL     OW22945   3.402   3.400  15.232  0.6191 -0.0279  0.1363
 3828SOL    HW122946   3.374   3.492  15.229  1.2571  0.1804  0.3375
 3828SOL    HW222947   3.409   3.381  15.139 -0.7436 -0.7222  0.1875
 3829SOL     OW22948   1.417   2.446   1.597 -0.0180  0.1322  0.0599
 3829SOL    HW122949   1.394   2.454   1.504 -1.1021  0.1828  0.3287
 3829SOL    HW222950   1.389   2.356   1.615 -0.5545 -0.2017 -2.4066
 3830SOL     OW22951   2.317   0.963   4.844 -0.1667  0.0610 -0.4498
 3830SOL    HW122952   2.354   0.994   4.762 -0.2974  0.1460 -0.4760
 3830SOL    HW222953   2.370   0.883   4.852 -1.6310 -1.0620 -2.1291
 3831SOL     OW22954   2.661   2.375   0.249  0.3416  0.1248 -0.0594
 3831SOL    HW122955   2.631   2.446   0.306  2.1871  0.9705 -0.1709
 3831SOL    HW222956   2.718   2.329   0.311 -0.4147  0.3220  0.7860
 3832SOL     OW22957   1.254   1.835   8.303  0.2210  0.0072 -0.0347
 3832SOL    HW122958   1.315   1.885   8.250  0.0818  0.9717  0.7074
 3832SOL    HW222959   1.308   1.757   8.317 -0.7394 -0.6545  0.0046
 3833SOL     OW22960   2.861   1.068  11.284 -1.0216 -0.2570 -0.0358
 3833SOL    HW122961   2.927   1.074  11.353  0.2169 -0.2082 -1.2236
 3833SOL    HW222962   2.807   1.141  11.315 -1.0021 -0.3871  0.3052
 3834SOL     OW22963   3.186   3.803   7.682 -0.5940  0.6163 -0.0444
 3834SOL    HW122964   3.244   3.817   7.608  1.1883 -0.7432  1.0976
 3834SOL    HW222965   3.139   3.721   7.667 -2.8759  2.0576 -0.7975
 3835SOL     OW22966   1.575   1.781   8.206  0.0764 -0.5252  0.2047
 3835SOL    HW122967   1.495   1.737   8.237 -0.2173  0.1319  0.3783
 3835SOL    HW222968   1.626   1.723   8.262  0.4428 -0.7667 -0.3752
 3836SOL     OW22969   2.516   4.506   7.000  0.0139  0.0587  0.9145
 3836SOL    HW122970   2.576   4.578   6.983  0.3613 -0.1444  1.2674
 3836SOL    HW222971   2.571   4.432   7.026  0.7869 -0.1256 -1.2943
 3837SOL     OW22972   0.642   4.084  10.165  0.0166 -0.1467  0.3167
 3837SOL    HW122973   0.659   4.018  10.098  0.1128 -0.6593  0.8372
 3837SOL    HW222974   0.694   4.044  10.235  2.0331 -1.1933 -1.7866
 3838SOL     OW22975   0.175   1.531   5.751 -0.0844  0.1181  0.6139
 3838SOL    HW122976   0.093   1.576   5.731 -0.3760 -0.4843  0.4268
 3838SOL    HW222977   0.211   1.570   5.830  0.0793 -2.4289  1.8036
 3839SOL     OW22978   1.729   2.776   0.713  0.4185 -0.1353 -0.4193
 3839SOL    HW122979   1.789   2.766   0.786  1.9465  1.4478 -1.4605
 3839SOL    HW222980   1.689   2.857   0.745 -2.5105 -1.0166 -1.8524
 3840SOL     OW22981   1.642   4.697   2.385  0.5444 -0.3728  0.3626
 3840SOL    HW122982   1.637   4.610   2.426  0.2995  0.4628  2.1140
 3840SOL    HW222983   1.563   0.015   2.421 -0.6212 -0.4487 -2.1335
 3841SOL     OW22984   0.233   4.415  10.957  0.1480  0.0617 -0.4677
 3841SOL    HW122985   0.320   4.454  10.952  0.5605 -0.7739  0.2600
 3841SOL    HW222986   0.173   4.489  10.962  0.9436  0.5881  1.1170
 3842SOL     OW22987   3.070   1.982  15.377  0.0572  0.1053  0.4018
 3842SOL    HW122988   3.130   1.923  15.331 -0.6447 -0.4313  0.1614
 3842SOL    HW222989   3.106   2.066  15.349 -0.1750 -0.1990 -0.8524
 3843SOL     OW22990   1.925   3.485   1.623 -0.4145  0.5549 -0.0141
 3843SOL    HW122991   1.927   3.411   1.563  1.3564 -0.4802  1.3244
 3843SOL    HW222992   1.966   3.552   1.568 -1.7924  0.3999 -1.2404
 3844SOL     OW22993   4.064   0.144  12.873  0.2967 -0.0105  0.1503
 3844SOL    HW122994   4.144   0.158  12.822  0.8301 -3.4403  0.0716
 3844SOL    HW222995   4.089   0.178  12.960 -0.4203 -0.6261  0.5947
 3845SOL     OW22996   3.693   0.122   2.118  0.1170 -0.1980 -0.1189
 3845SOL    HW122997   3.603   0.103   2.092  1.2056 -1.2705 -3.1008
 3845SOL    HW222998   3.696   0.214   2.093 -0.5021 -0.3601 -0.7916
 3846SOL     OW22999   2.840   0.899  13.300  0.0013  0.2415  0.4293
 3846SOL    HW123000   2.863   0.855  13.218 -0.0744  0.3230  0.3637
 3846SOL    HW223001   2.821   0.820  13.351 -1.5969  0.2722 -0.1078
 3847SOL     OW23002   3.158   3.987   6.560  0.1990  0.0187 -0.7388
 3847SOL    HW123003   3.229   3.972   6.498  1.8778  1.2309  0.8761
 3847SOL    HW223004   3.115   4.065   6.523 -1.0617 -0.6248 -0.6436
 3848SOL     OW23005   1.521   3.703  12.349 -0.4958 -0.2060  0.0176
 3848SOL    HW123006   1.542   3.614  12.320  1.4325  0.3625 -0.3498
 3848SOL    HW223007   1.598   3.742  12.390  0.7065 -1.7292 -0.7647
 3849SOL     OW23008   2.421   0.564  12.334  0.2707 -0.1748  0.2171
 3849SOL    HW123009   2.409   0.477  12.372  1.0606  0.1543  1.2424
 3849SOL    HW223010   2.332   0.597  12.328  1.7886  3.6614 -1.2621
 3850SOL     OW23011   2.694   3.769   4.452 -0.3591 -0.3767 -0.2901
 3850SOL    HW123012   2.653   3.695   4.408  3.7712 -2.2436 -0.9932
 3850SOL    HW223013   2.734   3.726   4.527  1.4685  1.3450 -0.2865
 3851SOL     OW23014   4.101   3.969   6.141  0.0662 -0.1085  0.3316
 3851SOL    HW123015   4.136   3.985   6.054 -1.2513  0.1717 -0.1425
 3851SOL    HW223016   4.012   3.945   6.117  0.0608 -0.3633  0.6050
 3852SOL     OW23017   0.299   2.732   5.871  0.3084 -0.4479 -0.2342
 3852SOL    HW123018   0.265   2.805   5.821 -1.4941 -1.2921 -0.2265
 3852SOL    HW223019   0.329   2.786   5.944  1.3172 -0.1760 -0.8622
 3853SOL     OW23020   4.439   3.816  13.091  0.5024  1.0684  0.3243
 3853SOL    HW123021   4.477   3.892  13.135 -0.0387  0.9243  1.0401
 3853SOL    HW223022   4.424   3.760  13.167  1.4010  1.2047  0.6029
 3854SOL     OW23023   1.086   2.992   1.329  0.6956  0.3020  0.4048
 3854SOL    HW123024   1.068   2.916   1.274 -1.9037  0.4217  1.0905
 3854SOL    HW223025   1.181   2.981   1.338  0.7900  0.5916 -0.2378
 3855SOL     OW23026   1.817   1.304   6.927 -0.0476 -0.0178 -0.2386
 3855SOL    HW123027   1.781   1.276   7.011  0.1004  0.0305 -0.1602
 3855SOL    HW223028   1.855   1.390   6.946 -1.3357  0.5146 -0.0736
 3856SOL     OW23029   2.272   1.017   2.524 -0.2871  0.6145  0.4165
 3856SOL    HW123030   2.224   1.099   2.522 -1.7183 -0.2369  0.1514
 3856SOL    HW223031   2.321   1.026   2.606  1.6024  0.4232 -0.6848
 3857SOL     OW23032   2.271   3.413   7.278  0.3375  0.1752  0.4182
 3857SOL    HW123033   2.318   3.461   7.210  0.4453  0.1102  0.4477
 3857SOL    HW223034   2.317   3.444   7.356  0.8744  0.0010  0.1656
 3858SOL     OW23035   0.322   4.093  10.253 -0.4624 -0.4221  0.2208
 3858SOL    HW123036   0.406   4.104  10.208 -0.0103 -1.1939  0.8896
 3858SOL    HW223037   0.268   4.117  10.177  0.1768  1.0991  0.2475
 3859SOL     OW23038   2.951   1.491  16.034 -0.2215 -0.3295  0.6958
 3859SOL    HW123039   2.929   1.583  16.022 -0.8236 -0.4585  0.8016
 3859SOL    HW223040   3.023   1.483  15.971  2.3402 -2.2603  3.9076
 3860SOL     OW23041   3.072   1.090   4.806 -0.1845 -0.0836 -0.3261
 3860SOL    HW123042   3.141   1.033   4.772 -1.5370 -0.6971 -2.1067
 3860SOL    HW223043   3.038   1.131   4.726  4.1528  1.8697 -1.1814
 3861SOL     OW23044   1.805   1.268   2.111 -0.1614  0.4741  0.5688
 3861SOL    HW123045   1.718   1.274   2.072 -0.6697 -2.7608  1.1643
 3861SOL    HW223046   1.800   1.354   2.154  1.2266  0.6658  0.3319
 3862SOL     OW23047   0.604   0.521   2.769  0.3998  0.4844  0.4492
 3862SOL    HW123048   0.585   0.431   2.796  1.6587  0.6508  1.9225
 3862SOL    HW223049   0.600   0.562   2.855  0.1223  1.2436  0.0714
 3863SOL     OW23050   2.808   4.493   5.982  0.2029 -0.1297 -0.4599
 3863SOL    HW123051   2.729   4.469   5.934  0.8017 -1.2215 -0.8951
 3863SOL    HW223052   2.806   4.588   5.989 -1.7236 -0.0593 -1.8105
 3864SOL     OW23053   0.076   4.135  10.700 -0.6846  0.1533 -0.0313
 3864SOL    HW123054   0.138   4.129  10.772 -0.2454  1.0131 -0.3348
 3864SOL    HW223055   0.119   4.079  10.636 -2.7639 -2.4078  0.8320
 3865SOL     OW23056   2.099   2.145   8.666  0.2701  0.3155 -0.2802
 3865SOL    HW123057   2.163   2.174   8.731 -0.7842  2.8333 -0.3734
 3865SOL    HW223058   2.137   2.058   8.655  1.0851  0.5506  0.6700
 3866SOL     OW23059   2.232   0.189   5.701 -0.4787 -0.6587 -0.0838
 3866SOL    HW123060   2.233   0.138   5.620 -1.8808 -0.2663 -0.3419
 3866SOL    HW223061   2.323   0.172   5.727 -0.4447 -0.9693 -0.4137
 3867SOL     OW23062   0.541   0.266   2.867 -0.4050  0.4122 -0.0198
 3867SOL    HW123063   0.612   0.238   2.925  2.1585  2.5904 -2.1305
 3867SOL    HW223064   0.502   0.181   2.847  1.2151 -0.7900  1.9417
 3868SOL     OW23065   3.104   1.282   4.596  0.0407 -0.6594 -0.0151
 3868SOL    HW123066   3.097   1.369   4.636 -0.2388 -0.7836  0.2077
 3868SOL    HW223067   3.198   1.268   4.594  0.4071  2.0974 -2.8265
 3869SOL     OW23068   3.892   1.957   6.481  0.6870 -0.2405 -0.1512
 3869SOL    HW123069   3.818   2.017   6.483  0.9103 -0.1266  3.9750
 3869SOL    HW223070   3.863   1.905   6.406 -1.3233 -1.5612  1.5596
 3870SOL     OW23071   1.137   2.134   4.071 -0.0841  0.3217 -0.4020
 3870SOL    HW123072   1.118   2.144   3.977 -0.4919  0.2842 -0.3208
 3870SOL    HW223073   1.216   2.188   4.078  0.4416 -0.5494  0.3567
 3871SOL     OW23074   2.785   4.711   6.194  0.4095  0.9803  0.0608
 3871SOL    HW123075   2.702   0.038   6.198  0.0777  0.4859 -0.7621
 3871SOL    HW223076   2.825   0.041   6.125 -0.9765  0.7951 -0.8797
 3872SOL     OW23077   2.919   3.742  14.442 -0.1085  0.2974  0.4725
 3872SOL    HW123078   2.865   3.686  14.498 -2.2255  0.5837 -1.2764
 3872SOL    HW223079   2.858   3.787  14.383  1.9758  1.5779 -0.7068
 3873SOL     OW23080   4.579   3.738   3.112  0.2092  0.1516 -0.0257
 3873SOL    HW123081   4.670   3.746   3.083 -0.6738  0.8764 -2.5963
 3873SOL    HW223082   4.537   3.710   3.031  1.6666  0.2158 -0.8047
 3874SOL     OW23083   0.348   0.924   6.721 -0.0043 -0.0603 -0.0164
 3874SOL    HW123084   0.349   0.864   6.646  0.7548 -1.0202  0.7801
 3874SOL    HW223085   0.264   0.970   6.713  0.6078  1.8334  4.5436
 3875SOL     OW23086   1.003   0.750  15.980  0.1778  0.3179 -0.2478
 3875SOL    HW123087   1.034   0.755  15.890 -0.2586  0.8856 -0.3693
 3875SOL    HW223088   0.921   0.701  15.970  0.1051  0.1580  1.1116
 3876SOL     OW23089   0.654   3.638  16.182 -0.8253 -0.5689  0.4640
 3876SOL    HW123090   0.677   3.717  16.131  0.0472 -2.5996 -2.3041
 3876SOL    HW223091   0.597   3.670  16.251  1.9629  3.3631  0.9849
 3877SOL     OW23092   4.553   2.320   2.458  0.4926  0.1038 -0.5965
 3877SOL    HW123093   4.613   2.259   2.501  0.5101  0.6457  0.1429
 3877SOL    HW223094   4.509   2.364   2.530 -1.8150  0.0151 -1.9516
 3878SOL     OW23095   0.676   3.778   7.648  0.5814  0.2409 -0.0403
 3878SOL    HW123096   0.693   3.688   7.676  2.9219  0.3986 -0.9475
 3878SOL    HW223097   0.599   3.805   7.698  1.8095 -1.7964  2.9439
 3879SOL     OW23098   4.239   1.368  13.729 -0.4502 -0.6193 -0.1613
 3879SOL    HW123099   4.208   1.291  13.682 -2.0998 -0.1981  0.2350
 3879SOL    HW223100   4.202   1.369  13.817 -0.2986 -2.3671 -0.0790
 3880SOL     OW23101   0.948   1.223  16.995  0.3425  0.0412  0.0704
 3880SOL    HW123102   0.955   1.316  16.973 -1.1015 -0.1003 -1.0487
 3880SOL    HW223103   1.038   1.212  17.025  0.2818 -0.9945 -0.1158
 3881SOL     OW23104   0.478   1.989   7.218  0.1576  0.1685 -0.3648
 3881SOL    HW123105   0.419   2.064   7.210 -1.1232 -0.4572  3.1326
 3881SOL    HW223106   0.449   1.959   7.304  0.9026  1.5444  0.3657
 3882SOL     OW23107   1.789   0.440   1.816 -0.6889 -0.0986  1.0046
 3882SOL    HW123108   1.831   0.525   1.816  0.2566 -0.5644  0.3453
 3882SOL    HW223109   1.809   0.409   1.904  0.2726 -0.8174  0.5324
 3883SOL     OW23110   0.820   1.416   5.767 -0.4473 -0.0379 -0.2837
 3883SOL    HW123111   0.819   1.488   5.830 -0.4266 -0.8164  0.6095
 3883SOL    HW223112   0.728   1.393   5.776 -0.1393 -1.7170 -1.4894
 3884SOL     OW23113   3.465   0.587   2.662 -0.0920 -0.4897 -0.7067
 3884SOL    HW123114   3.527   0.586   2.589  1.8572 -2.2152  0.9982
 3884SOL    HW223115   3.385   0.616   2.616  0.3155  0.6850 -0.6902
 3885SOL     OW23116   3.874   1.457   6.681  0.1447  0.1520 -0.0153
 3885SOL    HW123117   3.866   1.550   6.701  0.5217  0.4293 -1.1904
 3885SOL    HW223118   3.787   1.430   6.711  0.5472 -1.1095  0.0371
 3886SOL     OW23119   0.729   0.910   8.120  0.3417  0.3701  0.4731
 3886SOL    HW123120   0.819   0.939   8.107 -0.1724  1.6389 -0.2420
 3886SOL    HW223121   0.680   0.990   8.102  2.1844  1.5062  0.5435
 3887SOL     OW23122   0.368   2.497   5.494 -0.2785 -0.0840 -0.5606
 3887SOL    HW123123   0.367   2.591   5.479 -0.9505  0.4823  2.9650
 3887SOL    HW223124   0.337   2.497   5.585  1.1371  0.1196 -0.0616
 3888SOL     OW23125   1.961   2.842   8.732  0.1586  0.0028 -0.2611
 3888SOL    HW123126   2.003   2.764   8.768  1.0038  0.7255  0.3608
 3888SOL    HW223127   1.927   2.832   8.643 -0.4439 -1.4249  0.1352
 3889SOL     OW23128   4.476   3.562   5.683  0.9107  0.1819 -0.3280
 3889SOL    HW123129   4.415   3.627   5.647  0.2300  0.2212  0.9058
 3889SOL    HW223130   4.432   3.556   5.767  0.7439 -0.3926 -0.4572
 3890SOL     OW23131   2.272   2.661   4.373 -0.6673 -0.3268 -0.3863
 3890SOL    HW123132   2.224   2.637   4.452  0.9745 -2.3064  0.0184
 3890SOL    HW223133   2.266   2.756   4.383  1.0511 -0.3004  0.3813
 3891SOL     OW23134   0.098   2.419  16.412 -0.7970  0.8198 -0.4767
 3891SOL    HW123135   0.056   2.394  16.494 -0.4111  0.2424 -0.4542
 3891SOL    HW223136   0.184   2.447  16.443 -0.3481 -2.4697  1.2321
 3892SOL     OW23137   1.845   3.292  14.625 -0.2606 -0.6262  0.3741
 3892SOL    HW123138   1.797   3.235  14.565 -0.3424 -0.8827  0.6765
 3892SOL    HW223139   1.934   3.258  14.625 -0.3686 -0.8512 -1.8042
 3893SOL     OW23140   1.582   3.260   9.339  0.1955  0.1348 -0.1070
 3893SOL    HW123141   1.589   3.353   9.316 -0.5169 -0.4177 -2.5772
 3893SOL    HW223142   1.556   3.262   9.431  2.1311 -0.8316  0.4559
 3894SOL     OW23143   1.781   3.863   3.839  0.2632 -0.1201  0.2975
 3894SOL    HW123144   1.747   3.774   3.835 -0.4498  0.2469 -1.6108
 3894SOL    HW223145   1.828   3.879   3.758 -1.5471  2.1672 -0.3070
 3895SOL     OW23146   0.190   1.347   7.896  0.0989 -0.0380  0.4687
 3895SOL    HW123147   0.245   1.283   7.851 -0.5229 -1.5023  1.8016
 3895SOL    HW223148   0.254   1.403   7.940  0.7568 -0.2725 -0.2011
 3896SOL     OW23149   3.148   1.052   7.514  0.1390  0.4586  0.5831
 3896SOL    HW123150   3.205   1.129   7.524 -0.6197  1.0007  0.7388
 3896SOL    HW223151   3.218   0.988   7.503  0.1260  0.6081 -0.4492
 3897SOL     OW23152   3.521   4.535  12.708 -0.1337  0.0776 -0.1543
 3897SOL    HW123153   3.567   4.521  12.791 -1.0714  1.9696  0.6949
 3897SOL    HW223154   3.492   4.626  12.715 -0.3270  0.0419 -0.4826
 3898SOL     OW23155   4.265   2.117   2.112  0.4222  0.1810 -0.6018
 3898SOL    HW123156   4.197   2.058   2.145  0.5823  0.8087  0.8502
 3898SOL    HW223157   4.305   2.136   2.197  2.3359 -0.0480 -1.4616
 3899SOL     OW23158   3.385   1.946   8.933  0.9992  0.1412 -0.3987
 3899SOL    HW123159   3.321   1.884   8.898  0.3782  0.2762  0.5066
 3899SOL    HW223160   3.363   2.030   8.892 -0.1070  0.6156  1.1452
 3900SOL     OW23161   0.067   3.249   4.419 -0.0712 -0.3100 -0.6289
 3900SOL    HW123162   0.025   3.229   4.502 -0.1379 -1.5446 -0.9621
 3900SOL    HW223163   0.106   3.334   4.440 -1.2517  0.0670  0.0322
 3901SOL     OW23164   0.172   4.195   8.137  0.1171 -0.4380 -0.0539
 3901SOL    HW123165   0.229   4.256   8.184 -0.5969  1.0749 -1.1711
 3901SOL    HW223166   0.104   4.193   8.204 -0.3740  0.4595 -0.5301
 3902SOL     OW23167   2.742   4.658   3.230  0.1084 -0.2502  0.2255
 3902SOL    HW123168   2.740   4.608   3.312  0.6448 -1.4707 -0.5037
 3902SOL    HW223169   2.828   4.700   3.240  0.9216 -1.5562 -1.2839
 3903SOL     OW23170   3.650   1.091   7.844  0.4089  0.3863  0.0125
 3903SOL    HW123171   3.672   1.004   7.812 -1.4712  0.0499 -0.3296
 3903SOL    HW223172   3.717   1.144   7.800 -0.8644  0.0443 -2.2824
 3904SOL     OW23173   2.725   2.356   8.591  0.3556  0.6427  0.5164
 3904SOL    HW123174   2.644   2.407   8.587 -0.5841 -0.9634 -1.2975
 3904SOL    HW223175   2.765   2.398   8.667 -1.7138  1.9672  0.8685
 3905SOL     OW23176   1.814   4.097   6.744 -0.2444 -0.2092  0.4575
 3905SOL    HW123177   1.874   4.170   6.730 -1.3540  0.4912 -0.7144
 3905SOL    HW223178   1.866   4.023   6.713  0.7345  0.0264  1.5369
 3906SOL     OW23179   4.232   3.010   3.137  0.1364  0.1464  0.2759
 3906SOL    HW123180   4.268   2.945   3.076  2.8692 -0.2310  2.2990
 3906SOL    HW223181   4.265   3.091   3.099  1.4693  0.4450  2.0519
 3907SOL     OW23182   1.363   3.765   2.715  0.5142 -0.4771 -0.5611
 3907SOL    HW123183   1.349   3.855   2.746  2.0495 -0.1624 -0.7885
 3907SOL    HW223184   1.386   3.730   2.801 -1.7645 -1.7222 -0.4681
 3908SOL     OW23185   4.143   3.589   3.416 -0.2061 -0.1314 -0.2204
 3908SOL    HW123186   4.070   3.646   3.390 -1.3359 -0.1912  2.8944
 3908SOL    HW223187   4.187   3.574   3.332 -2.7629 -1.4568 -1.3331
 3909SOL     OW23188   0.078   4.197   7.326 -0.1463  0.3780  0.0616
 3909SOL    HW123189   0.060   4.114   7.370 -0.5734  0.6442  0.3923
 3909SOL    HW223190   4.716   4.220   7.284  0.8977 -0.9363 -2.7424
 3910SOL     OW23191   1.421   0.865  11.413 -0.1053  0.6133  0.0354
 3910SOL    HW123192   1.333   0.828  11.417  1.0456 -2.3333 -1.9006
 3910SOL    HW223193   1.449   0.850  11.504  0.1313 -1.5709 -0.4066
 3911SOL     OW23194   0.303   2.568   6.150 -0.7056 -0.0567 -0.1155
 3911SOL    HW123195   0.357   2.639   6.114 -1.5810  0.0648 -1.1654
 3911SOL    HW223196   0.294   2.521   6.068  0.1011 -2.3534  1.1310
 3912SOL     OW23197   0.372   3.376   8.746 -0.0873  0.1188 -0.0520
 3912SOL    HW123198   0.334   3.355   8.831 -1.4882  0.1247 -0.6696
 3912SOL    HW223199   0.442   3.311   8.746  1.8869  2.2503 -1.4567
 3913SOL     OW23200   1.100   0.600   0.790 -0.0214  0.5209  0.5943
 3913SOL    HW123201   1.189   0.576   0.818  0.2266  1.0953  0.3047
 3913SOL    HW223202   1.078   0.667   0.855 -0.6371  0.4543  0.4481
 3914SOL     OW23203   1.133   1.676   6.568  0.0551  0.0818  0.3571
 3914SOL    HW123204   1.125   1.682   6.664 -1.0240 -2.1172  0.4059
 3914SOL    HW223205   1.220   1.637   6.558 -0.7590 -1.6159 -0.0837
 3915SOL     OW23206   0.897   0.103   1.403 -0.2098  0.2188  0.4515
 3915SOL    HW123207   0.948   0.046   1.346  1.5630 -0.5376  2.7750
 3915SOL    HW223208   0.867   0.174   1.347  0.2108 -0.1298 -0.2113
 3916SOL     OW23209   1.513   0.038   0.489  0.1207  0.3303  0.5290
 3916SOL    HW123210   1.558   0.069   0.411  1.0164  1.8967  1.6655
 3916SOL    HW223211   1.494   0.125   0.524  2.0539  0.5768  0.9583
 3917SOL     OW23212   3.453   1.917  16.079 -0.0653 -0.2631  0.6582
 3917SOL    HW123213   3.365   1.953  16.087  0.1214  0.2706  0.2796
 3917SOL    HW223214   3.443   1.870  15.996  0.7081 -1.6271  1.3294
 3918SOL     OW23215   3.639   2.628  12.696  0.3893 -0.2882 -0.0683
 3918SOL    HW123216   3.560   2.574  12.692  2.0084 -2.7588  1.2126
 3918SOL    HW223217   3.631   2.662  12.785 -1.2633  1.3473 -0.8413
 3919SOL     OW23218   0.010   4.396  14.308 -0.5902 -0.2013 -0.1295
 3919SOL    HW123219   4.650   4.348  14.294  0.4299 -2.7508  2.7764
 3919SOL    HW223220   0.056   4.322  14.268 -0.8118 -1.1480  1.3713
 3920SOL     OW23221   4.685   2.034  12.221 -0.3929 -0.2769 -0.2652
 3920SOL    HW123222   4.611   2.042  12.161 -0.1197  0.7755 -0.4781
 3920SOL    HW223223   4.691   1.941  12.241 -0.1811 -0.2971 -0.4190
 3921SOL     OW23224   2.524   2.160   0.169 -0.1576 -0.8629 -0.1059
 3921SOL    HW123225   2.547   2.143   0.078 -3.0987 -2.3472 -0.5737
 3921SOL    HW223226   2.580   2.235   0.189 -1.7466 -0.4135  2.8079
 3922SOL     OW23227   4.459   0.416  16.757 -0.1106  0.0211 -0.4903
 3922SOL    HW123228   4.375   0.421  16.711 -0.1380  1.5886 -0.2474
 3922SOL    HW223229   4.482   0.507  16.771  0.3507  0.0753 -1.6498
 3923SOL     OW23230   1.778   3.928   5.986 -0.4336 -0.0098 -0.4559
 3923SOL    HW123231   1.697   3.934   5.936  0.0426  1.8665 -1.0157
 3923SOL    HW223232   1.812   4.014   5.960 -1.1775  0.5639  0.4801
 3924SOL     OW23233   4.541   1.912  10.544 -0.0346  0.0608 -0.4526
 3924SOL    HW123234   4.559   1.830  10.590 -2.5758 -0.8662 -1.1133
 3924SOL    HW223235   4.542   1.890  10.451  0.2302  3.5582 -1.2746
 3925SOL     OW23236   2.217   2.143   7.466  0.5203  0.2062 -0.0044
 3925SOL    HW123237   2.256   2.220   7.507 -1.3980  0.4717  1.2937
 3925SOL    HW223238   2.158   2.200   7.418  0.5894  1.9149  1.9099
 3926SOL     OW23239   0.676   0.930   2.461 -0.4848  0.0537 -0.1349
 3926SOL    HW123240   0.640   0.972   2.539  1.6285  1.2479  0.1933
 3926SOL    HW223241   0.618   0.956   2.389  0.2304  0.3704 -0.5937
 3927SOL     OW23242   2.244   1.578   7.632 -0.5672 -0.3204 -0.2868
 3927SOL    HW123243   2.208   1.613   7.714  0.1641  0.2421 -0.1995
 3927SOL    HW223244   2.161   1.554   7.590 -1.3385 -0.8790  1.5624
 3928SOL     OW23245   4.014   3.882  16.075 -0.2920 -0.1317 -0.6158
 3928SOL    HW123246   3.955   3.817  16.037 -1.1703  1.3376 -1.7607
 3928SOL    HW223247   4.065   3.820  16.128 -3.5584 -0.1803  2.4648
 3929SOL     OW23248   1.136   0.209   4.971 -0.4902 -0.1020 -0.4396
 3929SOL    HW123249   1.162   0.277   4.908  0.0039 -0.2581 -0.3960
 3929SOL    HW223250   1.222   0.172   4.985 -1.1260 -1.5120 -0.2885
 3930SOL     OW23251   2.210   1.749   9.420 -0.2154  0.1736  0.5319
 3930SOL    HW123252   2.282   1.708   9.373 -0.0823  0.2970  0.6260
 3930SOL    HW223253   2.141   1.685   9.406  1.0858 -1.2399  0.5864
 3931SOL     OW23254   4.406   3.464   5.183 -0.2211 -0.2534 -0.7861
 3931SOL    HW123255   4.311   3.457   5.175 -0.1282 -0.2795 -1.7874
 3931SOL    HW223256   4.437   3.383   5.145 -1.1805 -0.6867 -0.6424
 3932SOL     OW23257   3.116   2.300   9.419 -1.0296  0.3122  0.0436
 3932SOL    HW123258   3.207   2.283   9.395  0.0596  1.3743  3.4757
 3932SOL    HW223259   3.082   2.353   9.347 -0.8590  0.5049  0.1053
 3933SOL     OW23260   3.930   0.591   3.654 -0.1783 -0.4711 -0.3337
 3933SOL    HW123261   4.003   0.634   3.610  1.1682 -1.1355  1.2358
 3933SOL    HW223262   3.907   0.658   3.718  1.3825 -0.2682  0.0117
 3934SOL     OW23263   1.282   0.646   1.618  0.2293  0.4402  0.1742
 3934SOL    HW123264   1.207   0.594   1.589  0.4047 -0.1089  0.7067
 3934SOL    HW223265   1.295   0.623   1.710 -0.3109 -1.9821 -0.3486
 3935SOL     OW23266   1.788   3.829  12.347 -0.1505  0.4667  0.1685
 3935SOL    HW123267   1.832   3.811  12.264 -0.7352 -1.5829  0.2977
 3935SOL    HW223268   1.752   3.916  12.333 -0.5888  0.1931 -0.4272
 3936SOL     OW23269   1.712   3.748   8.631  0.1542 -1.0301 -0.3370
 3936SOL    HW123270   1.792   3.795   8.656 -0.6222 -1.6970  3.4536
 3936SOL    HW223271   1.709   3.676   8.694  1.8307 -1.7702 -1.1077
 3937SOL     OW23272   0.350   3.973   7.519 -0.5748 -0.6349  0.1105
 3937SOL    HW123273   0.311   4.060   7.523 -2.1127 -1.3404  0.4743
 3937SOL    HW223274   0.290   3.914   7.565 -1.7870 -0.2668 -1.0100
 3938SOL     OW23275   1.363   0.759  15.335  0.5029 -0.0705 -0.2128
 3938SOL    HW123276   1.420   0.791  15.265  0.5979 -0.5385 -0.3464
 3938SOL    HW223277   1.393   0.788  15.421  2.1997 -1.9812 -0.1788
 3939SOL     OW23278   3.109   2.759   4.601  0.1925  0.1587  0.1275
 3939SOL    HW123279   3.155   2.778   4.682 -1.5888  0.5070  1.0571
 3939SOL    HW223280   3.065   2.679   4.629  0.5078  0.3477  1.1458
 3940SOL     OW23281   4.386   0.839   6.418  0.1717 -0.0344 -0.3350
 3940SOL    HW123282   4.480   0.830   6.436  0.0564 -2.3275 -0.9186
 3940SOL    HW223283   4.389   0.834   6.323 -0.1932  0.6695 -0.3881
 3941SOL     OW23284   3.188   1.584  13.282  0.5092  0.4880  0.3108
 3941SOL    HW123285   3.096   1.559  13.288  0.5987 -0.5348 -2.7019
 3941SOL    HW223286   3.182   1.662  13.227 -2.1380  1.7932  2.4626
 3942SOL     OW23287   4.374   3.752   9.469  0.5601 -0.2898 -0.3250
 3942SOL    HW123288   4.467   3.770   9.464  0.3628  0.4714 -1.2857
 3942SOL    HW223289   4.345   3.840   9.492  0.1105 -0.7300  0.8197
 3943SOL     OW23290   3.373   2.866   7.325  0.0606  0.1370 -0.7128
 3943SOL    HW123291   3.419   2.911   7.396 -1.5086  0.5947  0.0046
 3943SOL    HW223292   3.280   2.880   7.340 -0.1752 -0.2099 -1.8986
 3944SOL     OW23293   1.269   1.186   1.602 -0.1507 -0.3368  0.0760
 3944SOL    HW123294   1.278   1.181   1.507 -0.3448 -1.1553  0.0983
 3944SOL    HW223295   1.175   1.196   1.618 -0.3427  0.7142 -1.7160
 3945SOL     OW23296   0.449   4.006   9.507  0.0374  0.1025  0.0983
 3945SOL    HW123297   0.515   4.058   9.553 -1.3994  0.4360  1.8256
 3945SOL    HW223298   0.501   3.940   9.461 -0.2628  0.3138 -0.5345
 3946SOL     OW23299   3.210   1.442   8.198 -0.3811  0.0546  0.0979
 3946SOL    HW123300   3.130   1.393   8.180 -0.3659  0.1343 -0.1951
 3946SOL    HW223301   3.186   1.493   8.275 -2.5988  1.9542 -1.8336
 3947SOL     OW23302   3.431   1.421   5.735 -0.0078  0.1743 -0.1789
 3947SOL    HW123303   3.432   1.371   5.817 -1.0012 -0.2247 -0.4054
 3947SOL    HW223304   3.365   1.364   5.695  1.9321 -1.6522 -0.7753
 3948SOL     OW23305   3.694   2.060   9.319  0.4407 -0.5106  0.0661
 3948SOL    HW123306   3.653   1.990   9.369  0.5002 -0.3560  0.3287
 3948SOL    HW223307   3.691   2.135   9.378 -0.1172  1.6128 -2.6524
 3949SOL     OW23308   1.322   0.771   7.739 -0.0924 -0.0293 -0.1608
 3949SOL    HW123309   1.371   0.819   7.805 -2.5582  0.0483  1.6080
 3949SOL    HW223310   1.308   0.844   7.679 -2.2772  0.3522  0.8054
 3950SOL     OW23311   4.497   4.175  10.770  0.0099  0.3018  0.0727
 3950SOL    HW123312   4.592   4.171  10.776  0.0807  2.0016  0.1194
 3950SOL    HW223313   4.472   4.130  10.689 -0.2110 -0.0558  0.3408
 3951SOL     OW23314   4.289   3.624  12.509  0.4094  0.1514 -0.4043
 3951SOL    HW123315   4.223   3.631  12.440 -0.2004 -1.0931  0.0543
 3951SOL    HW223316   4.330   3.709  12.494  1.5609 -0.6172 -1.6536
 3952SOL     OW23317   1.016   2.455   2.667 -0.3263  0.6327 -0.0904
 3952SOL    HW123318   1.052   2.510   2.736 -0.3650 -0.4422  0.7853
 3952SOL    HW223319   1.017   2.531   2.608  0.3517 -0.1861 -1.1263
 3953SOL     OW23320   4.449   2.006   6.917 -0.1528  0.5318  0.0203
 3953SOL    HW123321   4.366   2.023   6.962 -0.2850  3.0155 -1.1171
 3953SOL    HW223322   4.430   2.054   6.836  0.6814  1.9155  0.6428
 3954SOL     OW23323   0.861   0.682   1.788  0.4946 -0.0753  0.0794
 3954SOL    HW123324   0.911   0.623   1.844  1.3020  1.7266  1.2937
 3954SOL    HW223325   0.895   0.766   1.822 -1.7831  0.4048  1.1339
 3955SOL     OW23326   1.616   3.759   0.636  0.0052  0.0476  0.2403
 3955SOL    HW123327   1.653   3.825   0.576 -0.4388 -0.8713 -1.0525
 3955SOL    HW223328   1.589   3.815   0.709  0.2514 -2.0151  1.9024
 3956SOL     OW23329   0.832   3.843   1.282 -0.1148  0.3997 -0.0712
 3956SOL    HW123330   0.912   3.802   1.313 -0.4558  0.3064  0.6707
 3956SOL    HW223331   0.862   3.932   1.260 -0.6284  1.1037  2.0806
 3957SOL     OW23332   0.402   1.273   9.126  0.5992 -0.5302  0.2304
 3957SOL    HW123333   0.361   1.295   9.043 -0.3696  1.4599  1.2397
 3957SOL    HW223334   0.485   1.318   9.107 -0.0994  0.7112  0.1310
 3958SOL     OW23335   1.222   4.485   2.643  0.1216 -0.1415  0.7784
 3958SOL    HW123336   1.251   4.435   2.719 -1.6035 -2.5326 -0.1652
 3958SOL    HW223337   1.130   4.507   2.658 -0.3644 -2.8289  1.6804
 3959SOL     OW23338   2.234   2.478  10.300  0.2425 -0.2110 -0.0319
 3959SOL    HW123339   2.188   2.470  10.216 -0.6711  0.4648  0.4034
 3959SOL    HW223340   2.227   2.387  10.329 -1.6037  0.0601  0.3692
 3960SOL     OW23341   0.892   3.078   1.968 -0.0651 -0.6412  0.1686
 3960SOL    HW123342   0.972   3.122   1.997 -0.7519 -0.9012  2.5040
 3960SOL    HW223343   0.872   3.131   1.891 -1.2660  2.1647  2.4362
 3961SOL     OW23344   2.428   0.993   6.013 -0.2251 -0.0727 -0.3924
 3961SOL    HW123345   2.346   0.989   5.963 -0.5782 -0.6991  0.2440
 3961SOL    HW223346   2.494   1.005   5.945 -0.0157 -1.3166 -0.4117
 3962SOL     OW23347   1.121   1.824  16.530  0.5116 -0.4395  0.8125
 3962SOL    HW123348   1.096   1.826  16.623 -1.0818  0.2982  0.3706
 3962SOL    HW223349   1.042   1.868  16.499  0.0382 -0.4743  1.9707
 3963SOL     OW23350   2.556   3.432   6.836 -0.1342 -0.1331  0.3521
 3963SOL    HW123351   2.641   3.414   6.876  0.5098  2.3134  0.1120
 3963SOL    HW223352   2.508   3.356   6.868  0.2606 -0.0120  1.2198
 3964SOL     OW23353   2.937   3.689   5.257 -0.0949 -0.2115  0.2703
 3964SOL    HW123354   2.865   3.724   5.310 -0.6670  0.4100 -0.9091
 3964SOL    HW223355   2.918   3.731   5.173  0.2174  0.8450  0.7142
 3965SOL     OW23356   1.633   0.321  16.249  0.3016  0.1120 -0.5270
 3965SOL    HW123357   1.540   0.336  16.268  0.4305 -0.0238  0.1920
 3965SOL    HW223358   1.663   0.408  16.222  2.1694 -0.2278  0.4662
 3966SOL     OW23359   0.214   0.718   1.666 -0.2523 -0.6646 -0.2683
 3966SOL    HW123360   0.123   0.725   1.641 -1.0201 -1.3936  2.2634
 3966SOL    HW223361   0.253   0.697   1.581 -0.5928 -0.7518 -0.3999
 3967SOL     OW23362   2.122   1.945   9.595  0.2902  0.2540 -0.6202
 3967SOL    HW123363   2.162   1.871   9.550  0.0181 -0.0597 -0.3498
 3967SOL    HW223364   2.162   1.948   9.682  0.2593  1.7562 -0.6577
 3968SOL     OW23365   4.072   0.270   6.639  0.1050  0.2378  0.6894
 3968SOL    HW123366   4.102   0.275   6.548  1.6390 -1.2283  1.1170
 3968SOL    HW223367   3.977   0.262   6.634  0.2419 -1.4406  0.8699
 3969SOL     OW23368   3.674   3.667   5.449  0.5993  0.1458 -0.7140
 3969SOL    HW123369   3.668   3.666   5.544  0.7722  0.5869 -0.6954
 3969SOL    HW223370   3.644   3.758   5.438  2.1104  0.8551  0.9105
 3970SOL     OW23371   1.881   3.014   7.192  0.4591  0.4403 -0.6524
 3970SOL    HW123372   1.948   2.979   7.132  1.1836 -0.6457  0.7920
 3970SOL    HW223373   1.908   2.978   7.276  1.3345 -2.3171 -2.0816
 3971SOL     OW23374   2.852   1.868   3.704 -0.3197  0.1335 -0.1506
 3971SOL    HW123375   2.859   1.924   3.626  3.3887 -0.7155 -0.4347
 3971SOL    HW223376   2.821   1.784   3.671 -1.1375  0.7505 -0.9360
 3972SOL     OW23377   2.716   2.951   8.609  0.5007  0.0032  0.3722
 3972SOL    HW123378   2.786   2.986   8.664  1.0472  1.9168 -1.5181
 3972SOL    HW223379   2.745   2.862   8.590  1.6503  0.6380 -0.9371
 3973SOL     OW23380   2.857   4.155   1.965  0.0503  0.0888 -0.2662
 3973SOL    HW123381   2.874   4.189   2.053 -0.8830 -0.5175  0.1486
 3973SOL    HW223382   2.909   4.226   1.927 -0.9123 -0.6327 -2.9094
 3974SOL     OW23383   1.080   2.633   7.576 -0.5324 -0.1019  0.4329
 3974SOL    HW123384   1.019   2.563   7.601  0.0130 -1.4006 -1.8896
 3974SOL    HW223385   1.158   2.614   7.628 -0.3905 -2.3405 -0.5972
 3975SOL     OW23386   3.413   2.058   3.513  0.5201  0.3214  0.0924
 3975SOL    HW123387   3.373   2.142   3.536  1.1213  0.1180  1.8428
 3975SOL    HW223388   3.468   2.085   3.439 -1.3393 -0.7846 -1.6932
 3976SOL     OW23389   4.335   2.010   2.600  0.1689  0.0997 -0.3069
 3976SOL    HW123390   4.285   1.955   2.661 -0.6834  2.2901  0.9654
 3976SOL    HW223391   4.267   2.063   2.561  0.2247 -1.7659 -2.9217
 3977SOL     OW23392   4.589   3.392   2.900 -0.4801 -0.4914 -0.5631
 3977SOL    HW123393   4.644   3.387   2.822 -1.2158  0.0670 -1.1131
 3977SOL    HW223394   4.545   3.476   2.885  0.3265 -0.1205 -0.8273
 3978SOL     OW23395   3.299   2.312   8.339 -0.8894  0.0777  0.5202
 3978SOL    HW123396   3.250   2.315   8.257 -1.2731  0.4686  0.7601
 3978SOL    HW223397   3.337   2.399   8.328  0.0993 -0.3147  0.8376
 3979SOL     OW23398   0.115   0.113   4.460  0.5019 -0.1772 -0.0666
 3979SOL    HW123399   0.174   0.175   4.503 -0.9976  1.4634 -0.3750
 3979SOL    HW223400   0.039   0.130   4.516 -0.4536  1.8759 -2.0168
 3980SOL     OW23401   0.773   2.288  10.354  0.7936 -0.0551  0.0975
 3980SOL    HW123402   0.691   2.244  10.375  1.0234 -1.9975 -3.1521
 3980SOL    HW223403   0.780   2.350  10.427  0.5582 -1.0165  0.9288
 3981SOL     OW23404   1.452   0.407   2.081  0.0429  0.4328 -0.0974
 3981SOL    HW123405   1.497   0.323   2.072  0.7825  0.8875 -0.6793
 3981SOL    HW223406   1.431   0.408   2.175  0.7165 -0.1353  0.0605
 3982SOL     OW23407   1.341   3.795   5.962 -0.1893  0.0572 -0.2408
 3982SOL    HW123408   1.391   3.714   5.953  1.6323  0.9141  2.1440
 3982SOL    HW223409   1.321   3.788   6.055 -0.1049 -0.1096 -0.2353
 3983SOL     OW23410   3.450   3.186   6.934 -0.0504 -0.0566  0.3218
 3983SOL    HW123411   3.386   3.136   6.884 -2.3216  1.3441  1.8534
 3983SOL    HW223412   3.396   3.239   6.993 -0.5112  0.7118 -0.7787
 3984SOL     OW23413   3.392   4.375  12.366 -0.2443 -0.4191 -0.1111
 3984SOL    HW123414   3.460   4.430  12.327 -0.2207 -1.3908 -1.4552
 3984SOL    HW223415   3.432   4.338  12.445 -2.5521 -2.3858  0.1641
 3985SOL     OW23416   2.570   1.263   4.612  0.8241 -0.6838  0.1039
 3985SOL    HW123417   2.544   1.274   4.521 -0.7038  1.2004  0.7630
 3985SOL    HW223418   2.643   1.323   4.631 -0.3580  0.8333 -0.1633
 3986SOL     OW23419   1.036   0.331   7.795 -0.4674 -0.1909 -1.1497
 3986SOL    HW123420   1.068   0.421   7.791 -1.1362  0.0866  0.0734
 3986SOL    HW223421   0.984   0.340   7.874  0.3550  0.1743 -0.6511
 3987SOL     OW23422   4.084   2.450   7.166 -0.3065  0.4607 -0.1978
 3987SOL    HW123423   4.087   2.409   7.080  0.0263  2.0682 -0.9662
 3987SOL    HW223424   4.113   2.378   7.222  2.1274 -0.4545 -2.6706
 3988SOL     OW23425   0.744   1.910  13.010  0.1485  0.4010  0.9479
 3988SOL    HW123426   0.760   1.990  13.060  1.7708  0.3287  0.5697
 3988SOL    HW223427   0.837   1.886  13.002  0.0465  0.3448 -0.0267
 3989SOL     OW23428   3.247   3.219   9.839  0.0832  0.2172  0.5438
 3989SOL    HW123429   3.311   3.149   9.825  0.1187  0.7941 -2.1947
 3989SOL    HW223430   3.195   3.180   9.910 -0.6076  1.4063  0.6975
 3990SOL     OW23431   3.982   3.255   3.096 -0.0510 -0.5102 -0.1296
 3990SOL    HW123432   4.035   3.188   3.138  2.4483  1.3489 -0.2987
 3990SOL    HW223433   4.032   3.263   3.015  1.0024  0.7441  0.6417
 3991SOL     OW23434   3.310   3.663   4.502  0.0258 -0.0570 -0.0464
 3991SOL    HW123435   3.373   3.677   4.573 -0.4652  1.4074  0.1013
 3991SOL    HW223436   3.239   3.700   4.554 -0.3221  0.2131 -0.7093
 3992SOL     OW23437   3.267   0.611   3.275  0.5427  0.0988 -0.7134
 3992SOL    HW123438   3.238   0.520   3.268 -1.0672  0.6333 -1.0781
 3992SOL    HW223439   3.342   0.609   3.216  1.5043 -0.7029  0.5297
 3993SOL     OW23440   4.094   0.458  14.237 -0.2417 -0.0644  0.3944
 3993SOL    HW123441   4.053   0.391  14.291 -1.6039 -2.2372 -3.2893
 3993SOL    HW223442   4.078   0.547  14.269 -1.3077 -0.3532  0.6748
 3994SOL     OW23443   2.491   3.015   3.255  0.4461 -0.2672 -0.0494
 3994SOL    HW123444   2.498   2.920   3.248 -1.0681 -0.1763 -2.7709
 3994SOL    HW223445   2.397   3.034   3.252  0.2475 -1.6988 -2.3499
 3995SOL     OW23446   2.614   3.996  13.471 -0.8881 -0.3763 -0.2542
 3995SOL    HW123447   2.619   4.079  13.423 -1.0884  0.1343  0.6229
 3995SOL    HW223448   2.666   4.015  13.549  0.0296 -2.7797 -0.2663
 3996SOL     OW23449   0.422   0.931   5.239 -0.4464 -0.4243  0.2760
 3996SOL    HW123450   0.496   0.933   5.299 -0.4355 -0.5721  0.2659
 3996SOL    HW223451   0.441   0.859   5.179  0.4397  0.4789 -0.5231
 3997SOL     OW23452   4.133   3.426  12.237  0.1707 -0.3405 -0.2821
 3997SOL    HW123453   4.086   3.500  12.198 -0.7732 -1.3173 -1.0277
 3997SOL    HW223454   4.066   3.359  12.250  0.2067 -0.7742 -2.2861
 3998SOL     OW23455   2.066   1.458  16.944 -0.3037 -0.3550 -0.0880
 3998SOL    HW123456   2.136   1.400  16.913  0.1380  0.0115  0.2250
 3998SOL    HW223457   2.010   1.391  16.985  0.0654  0.9869  2.6335
 3999SOL     OW23458   3.232   1.095   3.961 -0.5913 -0.0772  0.5199
 3999SOL    HW123459   3.230   1.041   3.882  0.0548  1.2977 -0.4382
 3999SOL    HW223460   3.323   1.097   3.990 -0.5957  0.8776  0.4749
 4000SOL     OW23461   1.920   3.540   6.244  0.5441 -0.1615 -0.1639
 4000SOL    HW123462   1.834   3.505   6.269  0.1645  3.0578  3.1558
 4000SOL    HW223463   1.968   3.505   6.319  0.3912  0.5303  0.2628
 4001SOL     OW23464   0.190   1.921  10.312 -0.2115 -0.0473  0.2002
 4001SOL    HW123465   0.232   1.966  10.239 -1.4466  0.2692 -0.3178
 4001SOL    HW223466   0.224   1.832  10.318 -0.7136 -0.2512 -0.0522
 4002SOL     OW23467   1.784   4.089  12.330 -0.1058  0.2501  0.0148
 4002SOL    HW123468   1.854   4.136  12.376  0.2594 -1.0766  0.8233
 4002SOL    HW223469   1.784   4.146  12.253 -2.3552 -0.3146 -0.4013
 4003SOL     OW23470   0.673   3.445   6.332  0.4216 -0.9114 -0.1546
 4003SOL    HW123471   0.632   3.363   6.358 -0.9663 -0.1419  0.1464
 4003SOL    HW223472   0.684   3.489   6.416 -0.3440 -1.8262  0.4251
 4004SOL     OW23473   1.800   0.099   6.428 -1.1268 -0.3360  0.3760
 4004SOL    HW123474   1.780   0.070   6.339  1.1240  0.7794 -0.4882
 4004SOL    HW223475   1.731   0.160   6.452 -2.1876 -1.3876  0.0067
 4005SOL     OW23476   2.730   4.700  12.327 -0.2559 -0.1576 -0.0488
 4005SOL    HW123477   2.714   4.707  12.233  0.8465  2.3556 -0.0408
 4005SOL    HW223478   2.646   4.701  12.373 -0.3877  1.1909 -0.3230
 4006SOL     OW23479   1.066   3.340   6.600  0.4736 -0.1728 -0.2260
 4006SOL    HW123480   1.106   3.419   6.637  0.0171  0.5578 -1.2913
 4006SOL    HW223481   1.004   3.323   6.670 -1.1924 -1.8079 -2.1139
 4007SOL     OW23482   1.731   0.947   5.515 -0.2127 -0.1322 -0.3169
 4007SOL    HW123483   1.712   0.874   5.456  0.9297 -0.6933 -0.0001
 4007SOL    HW223484   1.700   1.023   5.466  1.1870 -0.1890 -1.2856
 4008SOL     OW23485   0.874   3.167   4.497  0.5949  0.1325  0.3205
 4008SOL    HW123486   0.870   3.088   4.443 -2.7061  1.1839 -0.9894
 4008SOL    HW223487   0.871   3.120   4.581 -0.9846  0.8457  0.6674
 4009SOL     OW23488   2.201   2.469   7.131  0.1320  0.1113 -0.5448
 4009SOL    HW123489   2.168   2.382   7.109  0.2942 -0.7043  2.4564
 4009SOL    HW223490   2.166   2.519   7.058  0.3921 -1.0684 -1.4914
 4010SOL     OW23491   4.700   4.178   3.258 -0.3492 -0.3831  0.5240
 4010SOL    HW123492   4.686   4.105   3.319 -2.6598  0.6927  1.2742
 4010SOL    HW223493   0.050   4.142   3.206  0.2028  0.0226  1.0134
 4011SOL     OW23494   1.116   3.398   0.671  0.3114  0.0132 -0.1234
 4011SOL    HW123495   1.032   3.408   0.715 -1.1162 -1.5898 -2.4872
 4011SOL    HW223496   1.092   3.387   0.579  0.1097  1.2206 -0.2141
 4012SOL     OW23497   3.657   3.222   2.798 -1.1460  0.1802 -0.1878
 4012SOL    HW123498   3.704   3.269   2.729  0.1388 -3.4341 -1.7694
 4012SOL    HW223499   3.682   3.271   2.877 -1.0075 -0.0835 -0.0677
 4013SOL     OW23500   3.541   0.329  16.480 -0.5261 -0.1398 -0.3622
 4013SOL    HW123501   3.467   0.294  16.431 -1.2810  0.0324  0.6498
 4013SOL    HW223502   3.509   0.319  16.570 -2.2314  2.1517 -0.7175
 4014SOL     OW23503   3.034   3.695   5.543 -0.3484  0.6095  0.8382
 4014SOL    HW123504   2.995   3.735   5.466  0.0869 -1.7245 -0.5926
 4014SOL    HW223505   2.955   3.662   5.587 -0.1080  0.9404  1.5210
 4015SOL     OW23506   4.306   1.475   4.464 -0.3012  0.2328 -0.4912
 4015SOL    HW123507   4.242   1.405   4.460 -1.4427  1.2197  0.7818
 4015SOL    HW223508   4.380   1.415   4.450 -0.3934 -0.1673  0.7937
 4016SOL     OW23509   4.604   1.403   2.821  0.6836 -0.1721  0.0569
 4016SOL    HW123510   4.682   1.426   2.872 -0.0259 -1.2672  1.6146
 4016SOL    HW223511   4.638   1.371   2.738  1.1925  2.1685 -0.6463
 4017SOL     OW23512   0.886   2.137   6.430 -0.2157 -0.1885 -0.7610
 4017SOL    HW123513   0.953   2.072   6.449 -0.1544 -0.4293 -1.7718
 4017SOL    HW223514   0.931   2.214   6.463  0.0233 -1.0850  1.0009
 4018SOL     OW23515   1.138   3.069   5.195  0.0205 -0.2705  0.0327
 4018SOL    HW123516   1.045   3.088   5.183 -0.1795 -1.3358 -0.0857
 4018SOL    HW223517   1.156   3.097   5.284  2.0672  0.1703 -0.5097
 4019SOL     OW23518   4.692   3.263   7.459 -0.3723 -0.2151  0.0839
 4019SOL    HW123519   4.669   3.293   7.371 -0.9320 -1.7142 -0.2854
 4019SOL    HW223520   0.054   3.218   7.453  0.7850  1.8627  0.7946
 4020SOL     OW23521   3.357   2.189   1.201  0.4050 -0.5791 -0.2886
 4020SOL    HW123522   3.402   2.149   1.126  1.3987 -1.1360  0.5984
 4020SOL    HW223523   3.431   2.222   1.253 -0.2785 -1.1625  1.0518
 4021SOL     OW23524   0.226   3.473   3.532 -0.1661 -0.4578  0.2278
 4021SOL    HW123525   0.244   3.476   3.439 -2.4240 -0.0519 -0.1937
 4021SOL    HW223526   0.159   3.538   3.553  0.0605 -0.9157  2.4256
 4022SOL     OW23527   3.062   1.493  17.153 -0.0132  0.2063 -0.6190
 4022SOL    HW123528   2.999   1.424  17.170  0.9458 -0.6443 -0.5442
 4022SOL    HW223529   3.053   1.499  17.058  1.5128  0.4018 -0.7575
 4023SOL     OW23530   4.134   4.120   7.362 -0.4293  0.0775 -0.0703
 4023SOL    HW123531   4.197   4.179   7.320  0.0879 -0.2898  0.1835
 4023SOL    HW223532   4.047   4.151   7.339 -0.9984 -0.8179  0.8542
 4024SOL     OW23533   2.754   0.562   5.355  0.7390  0.0068  0.1461
 4024SOL    HW123534   2.765   0.605   5.440 -1.9664  0.0186  0.4768
 4024SOL    HW223535   2.724   0.635   5.302 -0.2617 -0.5646 -0.0582
 4025SOL     OW23536   0.072   3.858   4.796  0.5403 -0.8512  0.2363
 4025SOL    HW123537   0.052   3.895   4.882  1.2586  0.8507 -0.3344
 4025SOL    HW223538   0.155   3.899   4.771  0.9380 -1.3479  0.7216
 4026SOL     OW23539   2.192   4.397   1.676  0.4288 -0.0391  0.5623
 4026SOL    HW123540   2.275   4.368   1.714  0.5050 -1.6629 -0.8594
 4026SOL    HW223541   2.217   4.481   1.639  2.3935 -0.2792  1.3122
 4027SOL     OW23542   4.499   4.458   5.244  0.4142  0.6141  0.1041
 4027SOL    HW123543   4.411   4.421   5.252  0.1808  1.3174  0.7699
 4027SOL    HW223544   4.551   4.399   5.298 -2.7371 -3.0667 -0.8378
 4028SOL     OW23545   3.985   4.382   6.779  0.0270  0.4414  0.0643
 4028SOL    HW123546   3.909   4.404   6.832 -0.7753  2.0155 -1.7272
 4028SOL    HW223547   4.020   4.305   6.824  0.1036  0.4680  0.0506
 4029SOL     OW23548   0.456   2.482   5.035 -0.0348 -0.3938 -0.0119
 4029SOL    HW123549   0.373   2.476   5.082 -0.4709 -1.3278 -0.9031
 4029SOL    HW223550   0.422   2.499   4.946  2.1347 -0.0973 -0.7836
 4030SOL     OW23551   0.968   3.765   8.678  0.2239  0.0493 -0.6381
 4030SOL    HW123552   1.025   3.839   8.700  0.8794 -1.3893  2.4111
 4030SOL    HW223553   0.988   3.696   8.741  1.9718  1.3852  0.2966
 4031SOL     OW23554   1.309   4.511   4.277 -0.3714 -0.5076 -0.0992
 4031SOL    HW123555   1.382   4.568   4.301  0.5938 -2.0854  0.7083
 4031SOL    HW223556   1.252   4.578   4.240  0.6576  1.2765  1.5392
 4032SOL     OW23557   0.342   4.067   6.589  0.5509  0.2455  0.3518
 4032SOL    HW123558   0.371   4.147   6.634  4.3207 -1.7053  1.3624
 4032SOL    HW223559   0.386   4.089   6.507  0.0740 -0.9418 -0.2153
 4033SOL     OW23560   1.480   0.972   6.212 -0.3647 -0.5210  0.2335
 4033SOL    HW123561   1.433   0.956   6.294  2.2140  1.9056  2.2253
 4033SOL    HW223562   1.456   1.063   6.193 -0.4600 -0.7877 -0.9244
 4034SOL     OW23563   1.827   2.160   2.846 -0.3195 -0.2638 -0.0856
 4034SOL    HW123564   1.855   2.072   2.819  0.3301 -1.5414  4.5521
 4034SOL    HW223565   1.877   2.177   2.926  0.6452 -1.7686 -0.3661
 4035SOL     OW23566   0.259   0.598   7.689  0.3340 -0.4154  0.2702
 4035SOL    HW123567   0.181   0.615   7.740  1.5300  0.3668  1.8210
 4035SOL    HW223568   0.321   0.644   7.745  0.2502 -0.4103  0.3578
 4036SOL     OW23569   2.736   4.550  14.871  0.7171 -0.1417  0.0470
 4036SOL    HW123570   2.689   4.524  14.792 -0.4514  0.2241  0.6178
 4036SOL    HW223571   2.731   4.476  14.932  1.2412  0.4402  0.8046
 4037SOL     OW23572   1.924   4.447   0.816  0.3485  0.7147 -0.0352
 4037SOL    HW123573   1.891   4.364   0.849 -0.2736  0.7700 -0.5173
 4037SOL    HW223574   1.839   4.490   0.821  0.3454  0.6256  0.6393
 4038SOL     OW23575   4.665   1.293  17.534  0.5245 -0.7848  0.0075
 4038SOL    HW123576   4.674   1.243  17.452 -1.4224 -1.3231  0.1207
 4038SOL    HW223577   0.019   1.350  17.521 -1.0995  1.6981  1.3953
 4039SOL     OW23578   0.539   0.800   1.341  0.6598  0.1810  0.3608
 4039SOL    HW123579   0.565   0.872   1.282 -0.4103  0.6728  0.4845
 4039SOL    HW223580   0.557   0.824   1.431 -0.3521 -1.4248  0.9940
 4040SOL     OW23581   3.144   3.098   4.259 -0.5536  0.2518  0.0268
 4040SOL    HW123582   3.212   3.049   4.213 -0.8527 -0.5236  0.4238
 4040SOL    HW223583   3.088   3.135   4.191  1.4737  0.3095 -1.6221
 4041SOL     OW23584   4.397   4.676   4.899 -0.0737 -0.0438 -0.9770
 4041SOL    HW123585   4.468   4.681   4.962 -2.5717  0.5539  1.7699
 4041SOL    HW223586   4.334   0.017   4.935 -0.2049  0.5483 -2.2231
 4042SOL     OW23587   3.443   3.860   3.377  0.0777 -0.1230 -0.8648
 4042SOL    HW123588   3.399   3.879   3.459  0.6200  2.3359 -1.1549
 4042SOL    HW223589   3.473   3.948   3.353 -2.2052  1.0160  0.4798
 4043SOL     OW23590   3.920   0.479   6.451 -0.7689  0.7714  0.6847
 4043SOL    HW123591   3.971   0.540   6.505 -1.7995  2.1098  0.1508
 4043SOL    HW223592   3.989   0.431   6.404 -1.1119 -0.5328  1.5135
 4044SOL     OW23593   3.863   3.674  13.635 -0.1723  0.3407 -0.6759
 4044SOL    HW123594   3.848   3.722  13.715 -2.2068 -0.2412 -0.7237
 4044SOL    HW223595   3.874   3.580  13.650  2.8681  0.8631  0.4699
 4045SOL     OW23596   2.170   0.682   4.299  0.8351  0.2786  0.5575
 4045SOL    HW123597   2.114   0.733   4.241  1.4726 -1.5167 -1.6181
 4045SOL    HW223598   2.176   0.740   4.375  3.2336 -1.5487  1.7699
 4046SOL     OW23599   2.432   1.654  13.856 -0.0247 -0.2515 -0.2462
 4046SOL    HW123600   2.454   1.597  13.783  1.6330 -0.0474  0.0958
 4046SOL    HW223601   2.416   1.736  13.809 -0.5001 -0.8793 -1.1679
 4047SOL     OW23602   2.169   1.897  17.015 -0.3710  0.4372 -0.0938
 4047SOL    HW123603   2.137   1.838  16.947 -1.5056 -0.1096  0.9326
 4047SOL    HW223604   2.261   1.912  16.990 -0.1509 -2.5635 -1.0739
 4048SOL     OW23605   2.003   3.454   6.537  0.3481  1.1740  0.1829
 4048SOL    HW123606   2.037   3.458   6.627 -0.1337  0.1986  0.4035
 4048SOL    HW223607   2.078   3.414   6.493  0.5303 -0.6384  2.1553
 4049SOL     OW23608   1.945   1.091  12.070 -0.5160 -0.0935  1.5895
 4049SOL    HW123609   1.881   1.050  12.011 -0.9199  1.3401  1.0394
 4049SOL    HW223610   1.906   1.068  12.154 -1.6517  0.0296  1.1020
 4050SOL     OW23611   1.340   1.599   5.173 -0.1638  0.4010 -0.2447
 4050SOL    HW123612   1.352   1.531   5.108  2.0185  1.5955 -1.0760
 4050SOL    HW223613   1.244   1.604   5.181 -0.0990  1.5048 -0.1439
 4051SOL     OW23614   2.592   3.202   8.899 -0.1670  0.2703  0.2026
 4051SOL    HW123615   2.680   3.211   8.936 -0.5123 -0.5862  1.2411
 4051SOL    HW223616   2.551   3.174   8.981  1.2464  3.2584  1.9245
 4052SOL     OW23617   0.658   4.133   9.232 -0.3912 -0.0687  0.1386
 4052SOL    HW123618   0.624   4.222   9.220 -1.6599 -0.2504  2.4036
 4052SOL    HW223619   0.707   4.141   9.314  0.1618 -0.2513 -0.1733
 4053SOL     OW23620   4.061   0.461   8.653  0.2845 -0.5323 -0.0849
 4053SOL    HW123621   4.137   0.518   8.653  1.0238 -1.5372  3.2473
 4053SOL    HW223622   4.015   0.500   8.579 -0.4754 -1.2447  0.0132
 4054SOL     OW23623   0.209   0.063   3.246 -0.0480  0.0055  0.0011
 4054SOL    HW123624   0.233   4.693   3.234 -1.1345 -0.5761  2.3004
 4054SOL    HW223625   0.198   0.094   3.156 -0.7759 -0.7660 -0.1828
 4055SOL     OW23626   0.064   3.802   6.606 -0.5287 -0.0174 -0.0777
 4055SOL    HW123627   4.696   3.794   6.636 -0.8892 -1.1778 -1.4353
 4055SOL    HW223628   0.077   3.724   6.552 -0.3210  0.2050 -0.3549
 4056SOL     OW23629   0.939   1.309   2.074 -0.6644 -0.2320  0.4577
 4056SOL    HW123630   0.985   1.365   2.012  0.8867 -2.0589 -0.0129
 4056SOL    HW223631   1.009   1.319   2.138 -2.3537  2.4190  1.9115
 4057SOL     OW23632   0.606   1.845   3.058  0.4384  0.4527  0.4877
 4057SOL    HW123633   0.679   1.850   2.996 -0.9947 -2.0598 -1.4350
 4057SOL    HW223634   0.539   1.873   2.995  0.5132 -0.6219 -0.0851
 4058SOL     OW23635   1.390   3.669   9.090 -0.5163 -0.1581  0.1692
 4058SOL    HW123636   1.368   3.742   9.149  1.7807 -0.0518  0.8846
 4058SOL    HW223637   1.359   3.705   9.007  1.1767 -0.2134 -0.4711
 4059SOL     OW23638   1.785   3.610   2.211  0.2507  0.3447  0.6045
 4059SOL    HW123639   1.784   3.543   2.280  3.1226 -0.6843 -0.3504
 4059SOL    HW223640   1.879   3.617   2.194 -0.0073  0.0199 -0.9237
 4060SOL     OW23641   1.511   2.403   1.085 -0.3799 -0.0248  0.4395
 4060SOL    HW123642   1.439   2.354   1.045 -1.6025  0.0139  2.6258
 4060SOL    HW223643   1.583   2.343   1.067  0.2250  0.8314  0.0188
 4061SOL     OW23644   1.015   0.942   0.353 -0.2684 -1.0158  0.0223
 4061SOL    HW123645   1.054   0.857   0.337  3.7846  1.0606 -0.9860
 4061SOL    HW223646   1.067   0.998   0.295 -2.2958 -0.5951 -1.4327
 4062SOL     OW23647   3.843   1.612   9.072  0.8665  0.2148  0.2340
 4062SOL    HW123648   3.765   1.638   9.023  2.3832 -3.0808 -3.9537
 4062SOL    HW223649   3.865   1.527   9.034 -0.2631  0.2751 -0.5753
 4063SOL     OW23650   0.504   2.537   4.075 -0.0501  0.2884  0.1394
 4063SOL    HW123651   0.470   2.534   3.985 -1.5077  3.2006  0.6149
 4063SOL    HW223652   0.432   2.591   4.108 -0.0125  1.3470 -1.4899
 4064SOL     OW23653   0.777   3.777   9.040 -0.1985  0.1289  0.3593
 4064SOL    HW123654   0.868   3.752   9.026 -0.1256  0.7835 -0.3498
 4064SOL    HW223655   0.752   3.719   9.112 -0.5241  1.4171  1.2803
 4065SOL     OW23656   2.854   0.434  10.789  0.0005 -0.0974  0.2950
 4065SOL    HW123657   2.823   0.480  10.866 -3.8949 -1.8531 -0.2252
 4065SOL    HW223658   2.803   0.353  10.797  1.7215 -1.4543 -2.3430
 4066SOL     OW23659   1.261   1.577   7.273  0.2575  0.1430 -0.3358
 4066SOL    HW123660   1.172   1.606   7.253  0.9926  2.4949 -0.2954
 4066SOL    HW223661   1.247   1.483   7.272  0.3240  0.1537 -3.3904
 4067SOL     OW23662   3.196   1.742  16.321 -0.5195  0.2386  0.2151
 4067SOL    HW123663   3.240   1.767  16.402 -0.2596 -0.7583  0.3835
 4067SOL    HW223664   3.128   1.809  16.316 -0.7701  0.1102  1.9865
 4068SOL     OW23665   2.914   3.876   3.280 -0.0219 -0.4244 -0.6185
 4068SOL    HW123666   2.867   3.953   3.249 -2.0705 -1.2534  0.4318
 4068SOL    HW223667   2.839   3.817   3.289  0.3198 -0.9798 -1.3217
 4069SOL     OW23668   4.353   4.396   7.687  0.3913 -0.3805 -0.4973
 4069SOL    HW123669   4.287   4.405   7.755  1.0352 -2.6694  0.4393
 4069SOL    HW223670   4.394   4.482   7.695 -2.8392  1.0873  0.1457
 4070SOL     OW23671   1.330   0.795   6.056 -0.7424 -0.3575  0.3005
 4070SOL    HW123672   1.389   0.869   6.042 -1.2476  0.2848  1.5769
 4070SOL    HW223673   1.282   0.832   6.130 -0.6463 -0.3312  0.3488
 4071SOL     OW23674   1.542   0.209  16.732 -0.3398  0.0582 -0.2317
 4071SOL    HW123675   1.637   0.210  16.736 -0.4158 -0.1843  1.4707
 4071SOL    HW223676   1.523   0.209  16.638  0.3081  1.4818 -0.3618
 4072SOL     OW23677   4.721   2.176   5.920  0.2814 -0.5746 -0.3569
 4072SOL    HW123678   0.055   2.100   5.908 -0.0259 -0.5426 -2.0275
 4072SOL    HW223679   4.697   2.191   5.828  2.6281  1.3924 -0.6660
 4073SOL     OW23680   1.996   0.033   8.448 -0.4265 -0.4215 -0.9591
 4073SOL    HW123681   2.046   0.040   8.367  0.7774 -0.1193 -0.1917
 4073SOL    HW223682   1.984   4.660   8.451  1.5374 -0.6257  0.2316
 4074SOL     OW23683   1.250   3.473   1.704 -0.2805 -0.0696  0.4779
 4074SOL    HW123684   1.342   3.448   1.693 -0.6975 -0.6013 -1.6611
 4074SOL    HW223685   1.223   3.488   1.614 -1.1277 -1.3748  0.5146
 4075SOL     OW23686   4.189   1.730   1.513  0.2350 -0.0655 -0.0150
 4075SOL    HW123687   4.142   1.647   1.521 -1.3730  1.2998  5.0925
 4075SOL    HW223688   4.228   1.717   1.600 -0.3713  1.4465  0.4850
 4076SOL     OW23689   1.792   3.179   7.001 -0.0724  0.1731 -0.2697
 4076SOL    HW123690   1.833   3.264   7.015  0.6874 -0.4559  1.2855
 4076SOL    HW223691   1.837   3.131   7.070  2.7415  2.3419 -0.6232
 4077SOL     OW23692   0.466   0.407  16.547  0.0045 -0.0582 -0.4833
 4077SOL    HW123693   0.548   0.453  16.560  0.4119 -1.2430  1.0503
 4077SOL    HW223694   0.431   0.394  16.635 -1.8846  2.6252 -0.8144
 4078SOL     OW23695   3.050   0.984   3.046 -0.4390  0.6429  0.8635
 4078SOL    HW123696   3.140   1.015   3.033 -1.1527  1.8628 -1.3073
 4078SOL    HW223697   3.059   0.949   3.134  0.2079 -0.3130  0.4148
 4079SOL     OW23698   0.637   2.269  13.054  0.3190 -0.1804  0.4482
 4079SOL    HW123699   0.592   2.354  13.055 -0.0246 -0.3514 -0.8368
 4079SOL    HW223700   0.566   2.217  13.091  1.6486 -2.0676  0.3231
 4080SOL     OW23701   2.811   1.317   5.884  0.2279  0.2232 -0.2991
 4080SOL    HW123702   2.769   1.370   5.816 -1.2415 -0.9838 -0.3230
 4080SOL    HW223703   2.788   1.373   5.958 -0.8738 -1.0594  0.3121
 4081SOL     OW23704   3.437   0.723   6.782 -0.1202 -0.5026  0.0267
 4081SOL    HW123705   3.428   0.818   6.789 -1.5415 -0.7741  1.9089
 4081SOL    HW223706   3.499   0.710   6.853 -1.2592  0.9570  1.2979
 4082SOL     OW23707   4.175   2.463   6.094  0.2901 -0.0359 -0.3643
 4082SOL    HW123708   4.240   2.516   6.140  0.5571 -0.4966 -0.2102
 4082SOL    HW223709   4.143   2.522   6.026 -0.8115 -0.8354 -0.5394
 4083SOL     OW23710   0.886   1.037   3.163 -0.0665  0.3995 -0.0579
 4083SOL    HW123711   0.939   1.088   3.102 -0.0786  2.6014  1.7577
 4083SOL    HW223712   0.944   1.012   3.236 -0.5478  1.1175  0.5595
 4084SOL     OW23713   0.423   1.773   1.775  0.0569  1.2044 -0.4730
 4084SOL    HW123714   0.367   1.697   1.760 -1.3455  1.8680  1.4028
 4084SOL    HW223715   0.416   1.807   1.686  2.1990  1.7756 -0.4258
 4085SOL     OW23716   1.990   3.448   5.412 -0.3393 -0.2677  0.0066
 4085SOL    HW123717   2.079   3.452   5.376  0.1242 -1.0460  1.0912
 4085SOL    HW223718   1.998   3.388   5.486  3.6706 -1.5304 -1.4049
 4086SOL     OW23719   3.646   2.968   8.820  0.6786  0.1947 -0.0818
 4086SOL    HW123720   3.737   2.993   8.802  0.4096  1.4484  0.2416
 4086SOL    HW223721   3.629   3.017   8.901  2.7376  0.7691  0.0038
 4087SOL     OW23722   0.661   1.731   1.920  0.3093  0.4612 -0.0870
 4087SOL    HW123723   0.715   1.781   1.860  0.4114  0.9508  0.4096
 4087SOL    HW223724   0.582   1.741   1.867  0.5792 -1.3801 -0.8301
 4088SOL     OW23725   4.055   3.344   5.500 -0.4684 -0.2695 -0.1400
 4088SOL    HW123726   3.975   3.309   5.461 -0.8953  1.0971 -0.5005
 4088SOL    HW223727   4.066   3.283   5.572  1.2480 -0.9811 -1.0038
 4089SOL     OW23728   0.723   1.729   9.718  0.5438 -0.4324  0.1655
 4089SOL    HW123729   0.672   1.773   9.650  2.1473  1.0211 -0.0776
 4089SOL    HW223730   0.677   1.649   9.743 -1.3837 -0.4365 -3.3873
 4090SOL     OW23731   1.069   0.863   2.335 -0.1133 -0.3588 -0.2898
 4090SOL    HW123732   1.032   0.899   2.255 -1.9624  0.3487  0.8949
 4090SOL    HW223733   0.994   0.825   2.381  0.1885 -1.3354 -0.5928
 4091SOL     OW23734   1.839   2.752   3.318  0.3614 -0.1785  0.1007
 4091SOL    HW123735   1.785   2.725   3.392  1.4389  0.3249  1.0605
 4091SOL    HW223736   1.770   2.787   3.262  1.2075  2.9957  1.0504
 4092SOL     OW23737   1.869   0.956   6.155  0.2446  0.6794 -0.0062
 4092SOL    HW123738   1.963   0.936   6.154  0.5210  2.0014 -1.9466
 4092SOL    HW223739   1.872   1.045   6.119  1.6647  0.9020  0.6325
 4093SOL     OW23740   2.694   4.716   6.971 -0.4075 -0.1332 -0.8727
 4093SOL    HW123741   2.636   0.069   6.962 -1.5997 -1.0704 -1.0123
 4093SOL    HW223742   2.777   0.041   6.971 -0.7163  0.4114 -1.3000
 4094SOL     OW23743   4.634   4.272  13.948 -0.7583  0.5493  0.2828
 4094SOL    HW123744   4.692   4.257  14.023 -0.1251 -1.9035 -0.7047
 4094SOL    HW223745   4.655   4.195  13.895  1.0805  0.2790  1.3723
 4095SOL     OW23746   0.740   2.353   1.665 -0.1283  0.4865 -0.3754
 4095SOL    HW123747   0.823   2.365   1.620  1.1594  0.6698  2.0468
 4095SOL    HW223748   0.716   2.263   1.641 -2.1948  0.8238  0.3649
 4096SOL     OW23749   3.607   0.369  13.401 -0.6529  0.0546  0.2214
 4096SOL    HW123750   3.568   0.317  13.471 -0.4021 -0.4753 -0.0318
 4096SOL    HW223751   3.685   0.397  13.449 -1.4869  0.0144  1.5778
 4097SOL     OW23752   1.711   0.123  13.059 -0.4196  0.3309 -0.2788
 4097SOL    HW123753   1.668   0.186  13.000 -2.5874 -1.6922 -0.8982
 4097SOL    HW223754   1.763   0.174  13.120  0.6880 -1.4778  0.2716
 4098SOL     OW23755   4.692   0.752   8.508 -0.0077 -0.2349  0.0140
 4098SOL    HW123756   0.058   0.717   8.498 -0.1883 -1.0665  1.3789
 4098SOL    HW223757   4.695   0.829   8.451  0.8086  1.0198  1.7789
 4099SOL     OW23758   2.668   3.568  14.765  0.2054 -0.1382  0.0467
 4099SOL    HW123759   2.758   3.586  14.738  0.3476  1.0884  1.3275
 4099SOL    HW223760   2.672   3.474  14.750 -0.7050 -0.3291  0.9845
 4100SOL     OW23761   2.760   0.591  16.731 -0.2706  0.3840  0.6658
 4100SOL    HW123762   2.793   0.648  16.800  1.2889 -1.3397  1.3633
 4100SOL    HW223763   2.704   0.531  16.781 -3.2107  1.0839 -1.8308
 4101SOL     OW23764   0.572   3.121  16.159  0.2888 -0.2545 -0.1752
 4101SOL    HW123765   0.534   3.135  16.072 -2.2940  2.2064  1.3458
 4101SOL    HW223766   0.628   3.198  16.154 -0.0573  0.0074  0.0103
 4102SOL     OW23767   3.098   1.601  14.425 -0.0724  0.5348 -0.0580
 4102SOL    HW123768   3.142   1.523  14.459  1.1352  0.6481 -1.4130
 4102SOL    HW223769   3.064   1.640  14.506 -0.0296  0.4162  0.0163
 4103SOL     OW23770   1.325   1.640   6.064  0.0466  0.1352  0.1236
 4103SOL    HW123771   1.356   1.606   6.148  0.7717 -1.4225 -0.7909
 4103SOL    HW223772   1.412   1.635   6.025  0.1083 -3.3990  0.7094
 4104SOL     OW23773   2.591   0.338   3.738 -0.4931 -0.1700 -0.0274
 4104SOL    HW123774   2.537   0.376   3.669  0.1970  0.4497 -0.2291
 4104SOL    HW223775   2.625   0.263   3.691  0.4137  0.5832 -0.5716
 4105SOL     OW23776   3.314   4.390   8.885 -0.6199 -0.0422 -0.8085
 4105SOL    HW123777   3.236   4.374   8.832  0.6946 -0.8966 -2.4921
 4105SOL    HW223778   3.379   4.393   8.815 -0.8289  0.0616 -1.0007
 4106SOL     OW23779   2.794   4.537  17.410 -0.5962 -0.2577  0.0082
 4106SOL    HW123780   2.854   4.484  17.357 -2.5437 -0.0831 -2.3421
 4106SOL    HW223781   2.727   4.476  17.443 -1.4370  0.2322 -0.8024
 4107SOL     OW23782   0.365   3.186   7.846 -0.1554 -0.2121 -0.2094
 4107SOL    HW123783   0.446   3.222   7.811 -1.4629  1.1943 -1.7975
 4107SOL    HW223784   0.344   3.255   7.909 -1.0809 -0.2294 -0.4890
 4108SOL     OW23785   4.107   4.509   8.227 -0.0308  0.0992 -0.3015
 4108SOL    HW123786   4.066   4.466   8.152 -1.1165  0.5733  0.0157
 4108SOL    HW223787   4.095   4.437   8.288 -1.3750  0.6885  0.1310
 4109SOL     OW23788   2.102   2.845   8.437  0.0580 -0.0701 -0.2704
 4109SOL    HW123789   2.079   2.753   8.436  1.1204 -0.3285 -1.3098
 4109SOL    HW223790   2.015   2.880   8.419 -0.0988 -0.5570 -0.4420
 4110SOL     OW23791   1.201   0.387   2.890  0.0948 -0.6085  0.7150
 4110SOL    HW123792   1.223   0.315   2.832 -1.6486 -0.0063 -0.7155
 4110SOL    HW223793   1.287   0.426   2.900 -0.1283 -0.2085  1.0801
 4111SOL     OW23794   2.850   0.169   2.970 -0.3531 -0.5766  0.0147
 4111SOL    HW123795   2.794   0.099   3.005  0.0020 -0.6019  0.5223
 4111SOL    HW223796   2.778   0.226   2.942  0.4699 -0.8714 -2.6982
 4112SOL     OW23797   2.366   3.705   0.741 -0.3010 -0.6846  0.3965
 4112SOL    HW123798   2.451   3.689   0.700 -0.0066 -3.8641  2.2172
 4112SOL    HW223799   2.319   3.744   0.667  0.6299  1.0191  0.6995
 4113SOL     OW23800   4.485   0.911   1.698  0.3858 -0.3332 -0.1723
 4113SOL    HW123801   4.462   0.894   1.607 -1.2236  0.5454  0.0617
 4113SOL    HW223802   4.402   0.950   1.724 -0.2063 -1.1625 -0.8359
 4114SOL     OW23803   1.857   1.236   6.468  0.8594 -0.7108  0.2290
 4114SOL    HW123804   1.825   1.147   6.457  0.6541 -0.6428  0.2579
 4114SOL    HW223805   1.790   1.277   6.413 -1.0244 -2.4538  1.2021
 4115SOL     OW23806   2.620   0.967   8.186  0.3804  0.9506  0.1156
 4115SOL    HW123807   2.558   0.944   8.117  0.9305  0.1195 -0.1028
 4115SOL    HW223808   2.692   0.909   8.160 -2.5441 -2.0863 -1.3192
 4116SOL     OW23809   1.607   2.100   4.852  0.5363  0.4730 -0.6087
 4116SOL    HW123810   1.517   2.132   4.849  0.8800  1.4887 -0.1938
 4116SOL    HW223811   1.618   2.097   4.757 -0.9286 -1.5630 -0.7113
 4117SOL     OW23812   1.760   3.887   3.210 -0.2055 -0.0519 -0.1870
 4117SOL    HW123813   1.706   3.895   3.289  1.5629 -1.1784  1.1137
 4117SOL    HW223814   1.694   3.919   3.148  0.5629 -0.3554 -1.1610
 4118SOL     OW23815   2.657   4.175   5.698  0.1101  0.6374  0.1909
 4118SOL    HW123816   2.679   4.263   5.728  1.0499  0.5518 -0.2651
 4118SOL    HW223817   2.563   4.161   5.712  0.1460 -1.6246 -1.8890
 4119SOL     OW23818   0.458   0.543   4.863  0.2480 -0.6125  0.1551
 4119SOL    HW123819   0.395   0.599   4.819 -0.3281 -0.9860  0.5105
 4119SOL    HW223820   0.471   0.579   4.951  1.3061 -1.1219  0.2078
 4120SOL     OW23821   3.064   0.355   2.963  0.7249 -0.1694  0.1076
 4120SOL    HW123822   3.102   0.352   2.875 -0.7864  2.3041 -0.6303
 4120SOL    HW223823   2.995   0.290   2.957  1.8382 -1.3435  0.1443
 4121SOL     OW23824   3.210   4.443   5.108  0.2007 -0.1422 -0.4236
 4121SOL    HW123825   3.179   4.391   5.033 -0.7899  1.3895 -1.0914
 4121SOL    HW223826   3.176   4.386   5.176 -2.2086  1.6036 -0.1251
 4122SOL     OW23827   3.614   2.773   0.620  0.0064  0.1534  0.5244
 4122SOL    HW123828   3.691   2.808   0.574 -0.2645 -1.4241 -1.1397
 4122SOL    HW223829   3.573   2.849   0.661 -0.5193 -0.2446  0.7383
 4123SOL     OW23830   1.339   1.973   5.488  0.1302  0.7163  0.2347
 4123SOL    HW123831   1.305   2.014   5.567  0.3410  0.2066  0.5859
 4123SOL    HW223832   1.397   1.902   5.515  0.3710  0.3040 -1.3615
 4124SOL     OW23833   4.243   0.370   3.463 -0.1199 -0.2467 -0.2238
 4124SOL    HW123834   4.239   0.438   3.395  1.2101  0.7084  0.6465
 4124SOL    HW223835   4.286   0.305   3.408  0.1185 -0.5633  0.3375
 4125SOL     OW23836   0.833   1.136  15.873  0.8051  0.1185  0.0626
 4125SOL    HW123837   0.781   1.061  15.843  2.4913 -0.2868 -1.8581
 4125SOL    HW223838   0.772   1.170  15.938  0.8641  3.8174 -1.8046
 4126SOL     OW23839   2.415   4.662   9.876 -0.2183  0.0064  0.0322
 4126SOL    HW123840   2.482   0.001   9.845 -1.4873  0.9554 -0.8568
 4126SOL    HW223841   2.332   4.708   9.878 -0.6085 -0.6856 -0.1728
 4127SOL     OW23842   3.121   2.450  15.696  0.1247 -0.3242  0.0377
 4127SOL    HW123843   3.077   2.534  15.712 -1.7017 -1.1487 -0.7507
 4127SOL    HW223844   3.108   2.423  15.605 -3.1001  0.9171  0.1346
 4128SOL     OW23845   3.591   0.242   4.378 -0.1468 -0.0577  0.4029
 4128SOL    HW123846   3.674   0.197   4.360  0.4241  0.9639  0.5049
 4128SOL    HW223847   3.536   0.205   4.308  2.0364 -2.2521 -0.1696
 4129SOL     OW23848   2.280   4.550  12.565  0.4514  0.2518 -0.7018
 4129SOL    HW123849   2.191   4.555  12.530 -0.4948 -0.2795  1.6456
 4129SOL    HW223850   2.257   4.540  12.658  1.1174 -0.3678 -0.6029
 4130SOL     OW23851   0.797   1.100  10.432 -0.4484  0.4039  0.4346
 4130SOL    HW123852   0.729   1.117  10.497  1.4628 -0.4165  2.6131
 4130SOL    HW223853   0.831   1.188  10.413  1.3326 -0.3192  0.2834
 4131SOL     OW23854   4.370   2.929  11.523  0.2551  1.0190  0.4051
 4131SOL    HW123855   4.333   2.924  11.435 -0.7603 -2.2654  1.0316
 4131SOL    HW223856   4.291   2.948  11.573 -1.8936  2.0157 -3.3856
 4132SOL     OW23857   0.796   2.823  13.139  0.7231 -0.0543  0.0340
 4132SOL    HW123858   0.777   2.737  13.176 -0.8358  0.5352  0.5789
 4132SOL    HW223859   0.832   2.860  13.219  2.2039  0.9649 -1.1143
 4133SOL     OW23860   2.023   0.666  11.561  0.6346  0.6241 -0.8493
 4133SOL    HW123861   1.988   0.716  11.635  0.7248  2.5155 -2.0665
 4133SOL    HW223862   2.096   0.626  11.609 -1.0541 -1.7021 -0.2659
 4134SOL     OW23863   3.900   4.713   1.096 -0.1421 -0.0020  0.2485
 4134SOL    HW123864   3.887   4.698   1.190  1.3341 -1.5482  0.2152
 4134SOL    HW223865   3.865   0.080   1.097  0.1648  0.0916  2.8296
 4135SOL     OW23866   1.068   1.648   4.693  0.5286  0.1254 -0.4800
 4135SOL    HW123867   1.147   1.698   4.713  0.2774 -0.3826  1.7223
 4135SOL    HW223868   1.001   1.711   4.719  1.0748 -0.0404  1.3361
 4136SOL     OW23869   2.415   3.038   2.904  0.2634  0.1581  0.0742
 4136SOL    HW123870   2.385   3.106   2.844  1.9717 -0.1799 -1.1634
 4136SOL    HW223871   2.460   3.096   2.966  1.7272 -0.4479 -0.4377
 4137SOL     OW23872   3.052   4.072   8.587  0.3211  0.6905 -0.3625
 4137SOL    HW123873   3.057   3.998   8.647 -1.5282  1.8058  1.1759
 4137SOL    HW223874   3.058   4.036   8.499  0.9347 -1.6952  0.6787
 4138SOL     OW23875   3.934   3.862  16.462  0.0965 -0.1406  0.3291
 4138SOL    HW123876   3.908   3.791  16.522  1.3253 -1.3445 -0.5705
 4138SOL    HW223877   3.860   3.864  16.401  0.1478 -1.4033  0.2185
 4139SOL     OW23878   2.587   0.476   7.564  0.4180  0.1648 -0.2341
 4139SOL    HW123879   2.667   0.432   7.591 -0.0048 -0.8241 -0.6003
 4139SOL    HW223880   2.608   0.562   7.601 -0.7781 -0.3788  1.6525
 4140SOL     OW23881   2.875   0.650  14.259 -0.9704  0.5410  0.1444
 4140SOL    HW123882   2.894   0.674  14.350 -0.2911 -0.3884  0.2427
 4140SOL    HW223883   2.954   0.603  14.232 -0.9072  2.4310 -2.9261
 4141SOL     OW23884   2.702   1.114  13.309  0.2737  0.3411  0.4620
 4141SOL    HW123885   2.703   1.149  13.219  0.6202 -0.0128  0.3271
 4141SOL    HW223886   2.751   1.034  13.294 -0.4775  0.4811 -2.8896
 4142SOL     OW23887   4.235   1.118   3.786  0.5188 -0.0607  0.2063
 4142SOL    HW123888   4.321   1.150   3.813 -0.4473  0.5502  2.5200
 4142SOL    HW223889   4.254   1.085   3.698  0.4009 -0.9117  0.5052
 4143SOL     OW23890   2.232   0.342   8.131  0.5878  0.0315 -0.3185
 4143SOL    HW123891   2.322   0.308   8.134  0.3260 -0.5484  0.7915
 4143SOL    HW223892   2.219   0.348   8.225 -1.5245 -3.0212 -0.4362
 4144SOL     OW23893   3.472   4.592   7.960 -0.1171 -0.1769 -0.1279
 4144SOL    HW123894   3.481   4.572   8.053 -0.9955 -0.5388 -0.1295
 4144SOL    HW223895   3.377   4.587   7.957 -0.2797  3.4728 -1.0769
 4145SOL     OW23896   0.939   0.044  11.335  0.2358  0.1284  0.2783
 4145SOL    HW123897   0.981   0.093  11.406 -0.7461 -0.0574  0.9858
 4145SOL    HW223898   0.964   0.089  11.255  0.1412  1.7237  1.1455
 4146SOL     OW23899   1.453   2.387   5.141 -0.3025 -0.0460 -0.0226
 4146SOL    HW123900   1.409   2.396   5.225 -1.7113 -2.6401 -0.4705
 4146SOL    HW223901   1.486   2.299   5.159 -1.4967 -0.8323 -1.6402
 4147SOL     OW23902   0.407   1.618  16.971  0.2006 -0.1983  0.2474
 4147SOL    HW123903   0.372   1.531  16.952  4.1741 -1.4591 -1.4507
 4147SOL    HW223904   0.361   1.676  16.910  2.1939  1.1227 -0.0158
 4148SOL     OW23905   1.609   1.126   2.877 -0.1364  0.0799 -0.2346
 4148SOL    HW123906   1.573   1.160   2.795 -0.1559 -2.1707 -1.1587
 4148SOL    HW223907   1.703   1.144   2.879  0.3166 -2.3213 -0.2490
 4149SOL     OW23908   4.720   0.323   7.697 -0.1595 -0.6713  0.2110
 4149SOL    HW123909   0.029   0.247   7.648  0.1537 -0.8206  0.6451
 4149SOL    HW223910   0.075   0.339   7.752  0.3342 -0.4563 -0.5409
 4150SOL     OW23911   0.917   2.902   5.360  0.6821  0.0124 -0.6472
 4150SOL    HW123912   1.009   2.920   5.377  0.1777 -0.8271  2.8704
 4150SOL    HW223913   0.913   2.915   5.265  0.7504 -1.2460 -0.8178
 4151SOL     OW23914   1.773   3.174   5.271  0.7942 -0.0695  0.2379
 4151SOL    HW123915   1.842   3.125   5.227 -1.5979 -3.0276 -0.2061
 4151SOL    HW223916   1.713   3.105   5.299 -0.9942  1.0066 -0.9432
 4152SOL     OW23917   0.707   1.369  15.468  0.2590  0.0416 -0.7353
 4152SOL    HW123918   0.738   1.361  15.558 -2.5233 -3.3096 -0.0273
 4152SOL    HW223919   0.611   1.366  15.476  0.2333  0.5607 -0.8204
 4153SOL     OW23920   1.988   4.082   4.997 -0.6779  0.0500 -0.1324
 4153SOL    HW123921   1.984   4.011   4.933  0.9242  0.3205 -0.5369
 4153SOL    HW223922   1.932   4.041   5.063  0.9908  0.1024  1.3067
 4154SOL     OW23923   2.837   2.410   6.985 -0.6147  0.1135  0.0867
 4154SOL    HW123924   2.766   2.365   6.938 -0.8151  2.3626 -1.7472
 4154SOL    HW223925   2.910   2.366   6.941 -0.7236 -0.2829  0.2934
 4155SOL     OW23926   2.949   4.600  10.656  0.2544 -0.6419  0.0392
 4155SOL    HW123927   3.005   4.524  10.669 -0.4053 -0.9718  0.9287
 4155SOL    HW223928   3.008   4.674  10.642 -1.3965  0.5931 -0.4553
 4156SOL     OW23929   3.205   4.082   2.754  0.0075  0.7626  0.2953
 4156SOL    HW123930   3.290   4.095   2.713 -0.7747 -2.3848 -2.3197
 4156SOL    HW223931   3.146   4.075   2.679 -1.2740 -0.6958  1.4299
 4157SOL     OW23932   1.147   2.889   0.225 -0.0769 -0.3934 -0.5550
 4157SOL    HW123933   1.082   2.925   0.165  2.2410  0.7649 -2.3393
 4157SOL    HW223934   1.185   2.973   0.252 -0.6400 -0.2499 -0.2059
 4158SOL     OW23935   0.002   2.384   6.356  0.0472  0.2070  0.1961
 4158SOL    HW123936   0.009   2.363   6.449 -0.4199  0.0695  0.1988
 4158SOL    HW223937   0.079   2.346   6.313  0.7770  1.3156  0.5177
 4159SOL     OW23938   2.368   1.684   6.455  0.8638 -0.1501  0.3274
 4159SOL    HW123939   2.363   1.700   6.549  0.6252  2.3085 -0.1136
 4159SOL    HW223940   2.380   1.589   6.460 -0.1024 -0.2480  0.8454
 4160SOL     OW23941   2.659   0.020   4.317 -0.7120 -0.5581  0.1132
 4160SOL    HW123942   2.690   4.651   4.313 -0.7390 -0.4492 -2.2350
 4160SOL    HW223943   2.727   0.074   4.278 -1.1630  1.3790  2.0180
 4161SOL     OW23944   4.357   0.341   2.352  0.2641  0.1509 -0.3240
 4161SOL    HW123945   4.319   0.358   2.438 -2.0260 -0.5474 -1.1950
 4161SOL    HW223946   4.288   0.358   2.288  1.7963 -1.4447 -2.4050
 4162SOL     OW23947   2.891   1.262  17.094 -0.4173 -0.6762 -0.4642
 4162SOL    HW123948   2.821   1.313  17.053  0.0228 -1.4146 -2.1185
 4162SOL    HW223949   2.840   1.188  17.128  0.8036 -1.8603 -1.2414
 4163SOL     OW23950   3.379   3.740   6.426 -0.4033 -0.1094  0.2020
 4163SOL    HW123951   3.402   3.658   6.468 -2.0529 -1.7969 -2.1773
 4163SOL    HW223952   3.287   3.721   6.408 -0.4588  0.0249  0.3470
 4164SOL     OW23953   1.320   0.578  14.956  0.1214 -0.1550 -0.4387
 4164SOL    HW123954   1.226   0.563  14.947 -0.4721  2.4981  1.3723
 4164SOL    HW223955   1.352   0.494  14.924  0.8832  0.2028 -0.6131
 4165SOL     OW23956   0.911   1.555   5.555  0.4843 -0.0609  0.0338
 4165SOL    HW123957   0.871   1.520   5.476  2.3221 -0.2982 -0.8098
 4165SOL    HW223958   0.881   1.492   5.619 -1.5950  0.6764 -0.2369
 4166SOL     OW23959   0.842   4.193   0.512  0.0557 -0.3156  0.4623
 4166SOL    HW123960   0.895   4.150   0.579 -2.5852 -0.7791  2.2279
 4166SOL    HW223961   0.903   4.210   0.440  1.1801 -0.9976  1.2598
 4167SOL     OW23962   3.937   0.082   8.384  0.1708  0.2010  0.0216
 4167SOL    HW123963   3.919   0.074   8.291  0.8892  0.1691 -0.1151
 4167SOL    HW223964   3.951   4.710   8.400  1.1488  0.2009 -0.8334
 4168SOL     OW23965   1.704   4.057   8.189 -0.3636  0.2666  0.4483
 4168SOL    HW123966   1.747   4.133   8.150  0.6967 -0.6493 -0.1593
 4168SOL    HW223967   1.762   3.983   8.175  1.3993  1.8603 -0.7269
 4169SOL     OW23968   0.511   4.166  14.382 -0.2843 -0.1815 -0.2124
 4169SOL    HW123969   0.435   4.108  14.372 -1.1272  1.0644 -0.8872
 4169SOL    HW223970   0.492   4.216  14.303 -0.0518  1.4354  0.7649
 4170SOL     OW23971   4.519   3.494   6.647 -0.0170 -0.2752 -0.5086
 4170SOL    HW123972   4.504   3.585   6.620  2.8397  0.2884 -0.1710
 4170SOL    HW223973   4.614   3.488   6.639  0.1575 -0.2101  1.4284
 4171SOL     OW23974   1.672   0.396  11.395 -0.0915  0.2358 -0.3523
 4171SOL    HW123975   1.588   0.384  11.439  0.5560 -2.0322  0.3002
 4171SOL    HW223976   1.652   0.416  11.304 -1.0786 -1.2166 -0.4562
 4172SOL     OW23977   1.355   3.605   6.927  0.1462  0.3407 -0.2702
 4172SOL    HW123978   1.424   3.598   6.860  0.1090 -0.1201 -0.2567
 4172SOL    HW223979   1.395   3.676   6.977  3.0087 -2.0354  0.7325
 4173SOL     OW23980   2.106   1.745  17.341 -0.3291 -0.2907 -0.2823
 4173SOL    HW123981   2.050   1.720  17.267 -0.8270 -1.9283  0.6442
 4173SOL    HW223982   2.182   1.761  17.286  0.0542  0.9912  0.6176
 4174SOL     OW23983   1.984   1.893   2.802  0.2263 -0.0224  0.1720
 4174SOL    HW123984   2.069   1.859   2.830  1.3384  1.8318 -0.9452
 4174SOL    HW223985   1.928   1.835   2.853 -0.7622 -0.6213 -1.6212
 4175SOL     OW23986   3.293   2.583  11.697  0.5103  0.4072 -0.1980
 4175SOL    HW123987   3.311   2.677  11.695 -2.5421  1.0046 -0.3552
 4175SOL    HW223988   3.224   2.596  11.763  1.1367 -0.0155  0.5481
 4176SOL     OW23989   3.696   3.780   5.008  0.0391 -0.2711  0.0867
 4176SOL    HW123990   3.684   3.820   4.921  0.6164  0.4256  0.3281
 4176SOL    HW223991   3.685   3.687   4.991  0.8742 -0.2854 -0.3517
 4177SOL     OW23992   3.309   1.255   1.758 -0.1148 -0.0222 -0.2005
 4177SOL    HW123993   3.354   1.195   1.819  2.5208 -0.5701 -2.6879
 4177SOL    HW223994   3.232   1.207   1.727 -1.1305  0.8431  1.0044
 4178SOL     OW23995   1.334   2.275  10.724 -0.1572 -0.1850  0.0505
 4178SOL    HW123996   1.395   2.344  10.700 -1.6002  1.8044  2.1865
 4178SOL    HW223997   1.295   2.244  10.642 -2.6436  2.6805  0.1961
 4179SOL     OW23998   1.785   1.602  11.795  0.4100  0.4779 -0.3796
 4179SOL    HW123999   1.782   1.521  11.846  0.1128  0.4731 -0.4030
 4179SOL    HW224000   1.709   1.587  11.739 -0.2630 -0.0772  0.6915
 4180SOL     OW24001   2.505   4.546  11.305 -0.2880  0.1567 -0.1153
 4180SOL    HW124002   2.524   4.584  11.219  3.8064 -1.3770  0.1138
 4180SOL    HW224003   2.593   4.531  11.339 -0.6317  0.2480  0.8152
 4181SOL     OW24004   0.180   4.224   7.844  0.6258 -0.4476  0.0933
 4181SOL    HW124005   0.176   4.235   7.939 -0.8156  0.5904 -0.0887
 4181SOL    HW224006   0.243   4.154   7.828  0.0380 -1.4057  1.8529
 4182SOL     OW24007   0.778   4.674   7.762  0.6223  0.4477  0.0222
 4182SOL    HW124008   0.759   0.028   7.707  2.1295 -0.4245 -1.7359
 4182SOL    HW224009   0.721   4.607   7.723 -1.4010  2.5507 -0.6359
 4183SOL     OW24010   0.316   1.846  14.022 -0.1949  0.3353 -0.2560
 4183SOL    HW124011   0.377   1.917  14.000  0.2338 -1.0399 -3.6229
 4183SOL    HW224012   0.238   1.882  13.980 -0.7828 -0.3182  0.2681
 4184SOL     OW24013   2.257   4.214   9.008  0.4825  0.1245 -0.2646
 4184SOL    HW124014   2.306   4.276   9.062  0.4652  0.5111 -0.6884
 4184SOL    HW224015   2.311   4.138   9.028 -0.5504 -0.6723 -0.5145
 4185SOL     OW24016   1.997   3.670   6.960 -0.0484 -0.4070 -0.2213
 4185SOL    HW124017   2.091   3.681   6.943 -0.0397 -0.2955 -0.1057
 4185SOL    HW224018   1.990   3.732   7.033  1.9931  0.4451 -0.7513
 4186SOL     OW24019   2.505   3.741   8.007  0.1031 -0.2096  0.1110
 4186SOL    HW124020   2.527   3.745   7.914 -3.8286  0.5415 -0.7491
 4186SOL    HW224021   2.413   3.716   8.004  0.0295 -0.1381  1.8589
 4187SOL     OW24022   4.679   1.647   2.501  0.0962  0.0749 -0.4222
 4187SOL    HW124023   4.625   1.650   2.580 -0.3384 -0.1734 -0.7115
 4187SOL    HW224024   4.625   1.707   2.450 -1.6442 -1.1686 -0.0306
 4188SOL     OW24025   0.078   3.585   1.579 -0.1176  0.0333 -0.0196
 4188SOL    HW124026   0.121   3.670   1.581  0.4276 -0.2396 -0.0813
 4188SOL    HW224027   0.034   3.588   1.494  0.7077 -0.0513 -0.4541
 4189SOL     OW24028   2.920   3.865   6.302 -0.1943  0.5525 -0.4366
 4189SOL    HW124029   2.922   3.960   6.297 -1.2868  0.5522 -0.8194
 4189SOL    HW224030   2.990   3.844   6.241 -0.0331  1.5511 -0.5873
 4190SOL     OW24031   0.262   2.929   4.077 -0.8991  0.0081 -0.2734
 4190SOL    HW124032   0.180   2.962   4.041  0.7942  1.5592 -2.7161
 4190SOL    HW224033   0.266   2.987   4.154 -0.5778  0.2409 -0.4644
 4191SOL     OW24034   4.675   2.862   6.937  0.2667  0.1663  0.3376
 4191SOL    HW124035   0.016   2.790   6.930 -0.4783 -0.3835 -0.7937
 4191SOL    HW224036   4.615   2.836   6.867  0.0712  2.3273 -0.2965
 4192SOL     OW24037   2.232   0.991  13.470  0.4843 -0.2235 -0.1680
 4192SOL    HW124038   2.328   0.989  13.473  0.4914  2.3037  1.1686
 4192SOL    HW224039   2.205   0.901  13.487 -0.9647  0.3255  0.4100
 4193SOL     OW24040   2.550   3.619   1.285 -0.5912  0.2294  0.1693
 4193SOL    HW124041   2.631   3.658   1.253 -0.4649  1.8446  2.4393
 4193SOL    HW224042   2.512   3.576   1.209 -0.0436 -1.0527  0.6258
 4194SOL     OW24043   1.196   4.277  13.010  0.4330  0.3762 -0.5827
 4194SOL    HW124044   1.263   4.286  13.078 -0.0880 -1.2210  0.1540
 4194SOL    HW224045   1.143   4.350  13.041 -1.1295 -1.4686  1.1067
 4195SOL     OW24046   2.786   2.558   4.723  0.0951  0.3312  0.0444
 4195SOL    HW124047   2.761   2.470   4.751 -1.8103  0.7803 -0.2118
 4195SOL    HW224048   2.872   2.541   4.685 -0.2915 -2.1256  0.2425
 4196SOL     OW24049   3.666   0.295   7.542  0.4193 -0.0406  0.0363
 4196SOL    HW124050   3.751   0.251   7.535  0.4442  0.2628 -1.5860
 4196SOL    HW224051   3.684   0.389   7.540 -0.6463  0.0915 -2.8733
 4197SOL     OW24052   3.139   1.341  16.196 -0.5220  0.0007 -0.2345
 4197SOL    HW124053   3.210   1.353  16.134  0.8418 -1.2398  1.0804
 4197SOL    HW224054   3.067   1.376  16.145 -1.4883 -0.8564  0.5427
 4198SOL     OW24055   3.367   3.651   3.587 -0.6301  0.2894 -0.4774
 4198SOL    HW124056   3.389   3.637   3.679 -1.0002 -0.1461 -0.4557
 4198SOL    HW224057   3.309   3.727   3.591 -1.8513 -0.7481  2.0838
 4199SOL     OW24058   3.598   2.435   4.327 -0.6011  0.1973  0.3108
 4199SOL    HW124059   3.685   2.396   4.322 -0.0941  1.1557  1.6661
 4199SOL    HW224060   3.616   2.519   4.285  3.3812 -0.1933  1.3167
 4200SOL     OW24061   3.709   4.433   4.343  0.5433 -0.2271  1.0613
 4200SOL    HW124062   3.696   4.509   4.286  0.5154 -0.5768  0.5964
 4200SOL    HW224063   3.804   4.427   4.330  0.9012  1.3031  2.9920
 4201SOL     OW24064   3.262   2.763  17.559  0.4101 -0.3121 -0.0602
 4201SOL    HW124065   3.170   2.779  17.538  0.6129 -0.6354 -1.2107
 4201SOL    HW224066   3.293   2.851  17.581  3.3806 -1.5417  0.6042
 4202SOL     OW24067   2.699   4.228   8.734 -0.0442 -0.6372 -0.0149
 4202SOL    HW124068   2.628   4.291   8.724  2.0568  1.8884  0.9276
 4202SOL    HW224069   2.671   4.150   8.686 -1.7787 -0.5275  0.8156
 4203SOL     OW24070   3.435   4.384   3.009 -0.1114 -0.0145 -0.6311
 4203SOL    HW124071   3.351   4.418   3.042 -0.3604 -2.2030  0.9679
 4203SOL    HW224072   3.408   4.297   2.979 -1.2523 -0.2895  1.1838
 4204SOL     OW24073   1.975   4.114   5.879  0.2891 -0.5120  0.7179
 4204SOL    HW124074   2.046   4.148   5.824 -2.9319  0.6454 -2.6887
 4204SOL    HW224075   1.953   4.188   5.935 -0.4000 -1.1903  1.3462
 4205SOL     OW24076   4.581   0.791  14.237  0.2462 -0.1643 -0.0560
 4205SOL    HW124077   4.574   0.874  14.190  0.7561 -0.4067 -0.5627
 4205SOL    HW224078   4.670   0.765  14.211 -0.1124 -1.2610 -0.1995
 4206SOL     OW24079   0.528   4.250   3.116 -0.2018  0.0144 -0.0526
 4206SOL    HW124080   0.553   4.163   3.148  0.9345  0.5406  0.4853
 4206SOL    HW224081   0.603   4.304   3.143 -0.1909  0.3328 -0.7281
 4207SOL     OW24082   3.218   1.756  17.393 -0.7056 -0.0003 -0.1513
 4207SOL    HW124083   3.174   1.834  17.359 -0.8332 -0.2125 -0.4770
 4207SOL    HW224084   3.258   1.787  17.474  3.3573  0.8293 -2.4481
 4208SOL     OW24085   3.723   2.046   6.920  1.0252  0.3986 -0.3650
 4208SOL    HW124086   3.653   2.107   6.897 -0.5482 -1.1362  0.2905
 4208SOL    HW224087   3.796   2.074   6.865  0.5663  1.2111 -0.5666
 4209SOL     OW24088   0.760   3.211  13.022  0.0426 -0.0510 -0.0480
 4209SOL    HW124089   0.695   3.215  13.092 -0.8106 -0.2890 -0.8189
 4209SOL    HW224090   0.835   3.189  13.078  1.3627  2.2815 -0.9388
 4210SOL     OW24091   3.003   1.279   6.481 -0.5540  0.0188  0.1901
 4210SOL    HW124092   2.966   1.367   6.485  0.1759  0.3848 -1.2435
 4210SOL    HW224093   3.005   1.274   6.386  3.2872  0.5330  0.2142
 4211SOL     OW24094   0.789   2.473   0.618 -0.1942  0.7059 -0.2659
 4211SOL    HW124095   0.845   2.549   0.601 -2.0471  2.6747  2.4384
 4211SOL    HW224096   0.704   2.516   0.634 -0.2582  0.1349  0.8860
 4212SOL     OW24097   2.138   3.354  13.204 -0.1162  0.4925  0.0681
 4212SOL    HW124098   2.172   3.290  13.266  1.3241 -0.4798 -1.7257
 4212SOL    HW224099   2.061   3.307  13.170  0.0898 -0.5859  1.1002
 4213SOL     OW24100   2.603   4.674   0.773 -0.1077  0.5508  0.3449
 4213SOL    HW124101   2.566   4.661   0.861 -0.4562 -1.1439 -0.0621
 4213SOL    HW224102   2.582   4.587   0.739 -0.5190  1.6895 -2.2511
 4214SOL     OW24103   3.763   2.442   2.296  0.0943 -0.2673 -0.2560
 4214SOL    HW124104   3.772   2.457   2.390 -0.4022 -1.1752 -0.0609
 4214SOL    HW224105   3.844   2.399   2.269  1.9347  2.4137  1.0073
 4215SOL     OW24106   3.013   1.149   8.382  0.2117 -0.0793  0.3286
 4215SOL    HW124107   2.921   1.173   8.369 -0.3350 -1.9262  0.7364
 4215SOL    HW224108   3.001   1.079   8.446  1.6692  1.7391  2.5824
 4216SOL     OW24109   0.527   4.028   3.813  0.3124  0.2276 -0.3259
 4216SOL    HW124110   0.459   4.095   3.812 -0.0923 -0.1819  0.1562
 4216SOL    HW224111   0.607   4.073   3.840 -1.3943  1.1048  3.2225
 4217SOL     OW24112   2.573   0.219   0.784  0.5217 -0.3486  0.3978
 4217SOL    HW124113   2.501   0.233   0.845  0.3914 -0.0472  0.1767
 4217SOL    HW224114   2.574   0.124   0.769 -0.4995 -0.3704  0.4520
 4218SOL     OW24115   0.565   2.554  15.527 -0.0789 -0.0256  0.5631
 4218SOL    HW124116   0.474   2.582  15.517  0.2137  0.6604 -0.2035
 4218SOL    HW224117   0.579   2.488  15.459  0.0241 -1.1943  1.7245
 4219SOL     OW24118   0.130   0.012  11.166 -0.3508 -0.7010 -0.2038
 4219SOL    HW124119   0.034   0.018  11.173 -0.4202 -1.9072 -0.2533
 4219SOL    HW224120   0.150   0.084  11.227  2.5265 -0.7620 -1.1146
 4220SOL     OW24121   1.557   4.697  12.068 -0.1667 -0.0768 -0.3181
 4220SOL    HW124122   1.464   4.714  12.083  0.3211  1.9305  0.4310
 4220SOL    HW224123   1.600   0.006  12.148 -0.6852 -0.8536  0.2717
 4221SOL     OW24124   4.370   3.330   4.273  0.1592  0.0544  0.7179
 4221SOL    HW124125   4.308   3.306   4.203 -0.2611  1.6229  0.5471
 4221SOL    HW224126   4.337   3.409   4.315  0.4755 -0.3436  1.7141
 4222SOL     OW24127   1.855   4.134   0.571  0.1606 -0.1087  0.4835
 4222SOL    HW124128   1.874   4.218   0.529 -0.2116 -0.6066 -0.6734
 4222SOL    HW224129   1.941   4.096   0.584  0.5808 -0.3881 -3.0562
 4223SOL     OW24130   2.831   0.716   2.383  0.6218 -0.1655  0.1784
 4223SOL    HW124131   2.824   0.637   2.329  0.5766  1.0295 -1.5551
 4223SOL    HW224132   2.804   0.676   2.466 -0.0573  1.1387  0.5797
 4224SOL     OW24133   2.497   2.338   7.943  0.0788  0.6594  0.1258
 4224SOL    HW124134   2.485   2.427   7.977  1.0730  0.9798 -0.3547
 4224SOL    HW224135   2.562   2.358   7.876 -0.4226  0.7820 -0.3230
 4225SOL     OW24136   2.175   4.250   5.753 -0.1447 -0.3476 -0.1073
 4225SOL    HW124137   2.239   4.285   5.815  0.1575  0.0525 -0.6433
 4225SOL    HW224138   2.146   4.330   5.709 -1.9813 -0.7571  0.3595
 4226SOL     OW24139   4.146   1.809   3.425 -0.1533  0.2189 -0.6872
 4226SOL    HW124140   4.098   1.892   3.421  0.1509  0.4959  1.8807
 4226SOL    HW224141   4.222   1.837   3.476  0.1399 -1.3527 -0.2883
 4227SOL     OW24142   3.404   0.954   8.939  0.1675  0.5200 -0.7480
 4227SOL    HW124143   3.399   0.886   8.873 -1.2997  0.5950 -0.7129
 4227SOL    HW224144   3.379   0.897   9.012  1.0169 -0.2018 -1.0187
 4228SOL     OW24145   1.816   0.535   6.273  0.2731 -0.7423  0.3819
 4228SOL    HW124146   1.882   0.599   6.300 -0.5499  0.4292 -0.3865
 4228SOL    HW224147   1.785   0.587   6.199  1.1785  0.0510  0.5655
 4229SOL     OW24148   3.707   3.573   7.457  0.1478 -0.4313 -0.1701
 4229SOL    HW124149   3.683   3.663   7.432  2.2485  0.0274 -0.5362
 4229SOL    HW224150   3.618   3.540   7.472  0.5600 -1.5422 -0.1657
 4230SOL     OW24151   4.010   1.732   0.020  0.4855 -0.0363 -0.3576
 4230SOL    HW124152   3.938   1.671   0.037  0.4239 -0.4996 -2.2140
 4230SOL    HW224153   4.089   1.681   0.038 -0.3724 -1.9677 -2.0993
 4231SOL     OW24154   2.276   0.859   6.714 -0.5819 -0.2818  0.0571
 4231SOL    HW124155   2.245   0.905   6.636 -1.0439 -0.7391 -0.0311
 4231SOL    HW224156   2.216   0.907   6.771 -1.3511  2.0664 -2.7302
 4232SOL     OW24157   4.558   1.616   7.051  0.2669 -0.1829 -0.0639
 4232SOL    HW124158   4.479   1.663   7.026  0.2157 -0.0236  0.3999
 4232SOL    HW224159   4.570   1.629   7.145 -2.3385  1.8027 -0.0131
 4233SOL     OW24160   0.317   0.874   2.397  0.2576  0.2815  0.2302
 4233SOL    HW124161   0.283   0.816   2.329 -0.8735  0.5009  0.5988
 4233SOL    HW224162   0.372   0.936   2.349  1.1425  0.2285  1.1746
 4234SOL     OW24163   0.302   0.843   7.001  0.4366  0.0541 -0.0791
 4234SOL    HW124164   0.217   0.802   7.020 -0.1376  2.2745  2.0472
 4234SOL    HW224165   0.301   0.868   6.909  0.9145 -1.7602 -0.5947
 4235SOL     OW24166   1.152   3.205   7.177  1.0593 -0.2901  0.0978
 4235SOL    HW124167   1.219   3.260   7.135  0.4272  0.6808  0.3621
 4235SOL    HW224168   1.138   3.132   7.117  0.4046  0.3749 -0.5523
 4236SOL     OW24169   2.408   4.033   2.265  0.1770 -0.5021 -0.4026
 4236SOL    HW124170   2.389   4.127   2.257 -0.6161 -0.6514 -0.2720
 4236SOL    HW224171   2.319   3.999   2.278 -0.4338  0.8622 -1.0402
 4237SOL     OW24172   0.655   2.457   6.928 -0.1462 -0.6464  0.2657
 4237SOL    HW124173   0.633   2.377   6.976 -0.9018  0.9239  2.5634
 4237SOL    HW224174   0.734   2.487   6.974  0.3607 -1.4232 -0.0954
 4238SOL     OW24175   1.928   4.395  12.590  0.5964  0.2696 -0.3165
 4238SOL    HW124176   1.886   4.480  12.578  0.1611  0.1736  0.5275
 4238SOL    HW224177   1.995   4.406  12.658 -1.2612 -0.9003  1.7029
 4239SOL     OW24178   3.003   2.655   6.497  0.3158  0.2622 -0.3307
 4239SOL    HW124179   3.006   2.686   6.588  0.7503 -1.1807  0.1498
 4239SOL    HW224180   2.930   2.711   6.473  1.5863  1.7448 -0.7146
 4240SOL     OW24181   0.056   4.223   5.786 -0.7889 -0.2722  0.4356
 4240SOL    HW124182   0.035   4.304   5.832 -0.9864 -0.8865  1.4264
 4240SOL    HW224183   0.072   4.253   5.697  0.7106 -2.3698  0.0001
 4241SOL     OW24184   2.445   0.888   8.009 -0.0317 -1.0727  0.3637
 4241SOL    HW124185   2.431   0.793   8.007  0.9900 -1.1818 -2.6120
 4241SOL    HW224186   2.437   0.914   7.917 -1.6315 -3.4249 -0.1826
 4242SOL     OW24187   3.129   1.180   2.774 -0.2251 -0.1603  0.0355
 4242SOL    HW124188   3.104   1.200   2.684  3.4782 -0.2945 -1.0342
 4242SOL    HW224189   3.177   1.259   2.798  0.4995 -0.9247  1.1318
 4243SOL     OW24190   0.468   1.214   3.785 -0.0319 -0.0901 -0.0035
 4243SOL    HW124191   0.462   1.253   3.872 -2.2373  0.4391 -0.3958
 4243SOL    HW224192   0.380   1.178   3.786 -0.3908  0.8168  1.0328
 4244SOL     OW24193   2.373   4.025   0.978  0.0346  0.2078 -0.2242
 4244SOL    HW124194   2.456   3.978   0.987 -0.4226 -0.8139 -1.2890
 4244SOL    HW224195   2.335   3.994   1.060 -1.5364  1.1498 -0.5879
 4245SOL     OW24196   4.484   1.604   1.746  0.0262 -0.2167  0.3827
 4245SOL    HW124197   4.400   1.634   1.780 -0.8473  0.4755 -2.3247
 4245SOL    HW224198   4.526   1.686   1.719 -2.9174  1.6200  1.3993
 4246SOL     OW24199   3.957   1.113   8.794 -0.3956  0.4880 -0.0939
 4246SOL    HW124200   3.953   1.023   8.825 -1.3449  0.6445  0.2328
 4246SOL    HW224201   4.011   1.144   8.866  1.4298  0.3054 -1.3727
 4247SOL     OW24202   2.247   3.390   5.722 -0.0561 -0.1478  0.3317
 4247SOL    HW124203   2.197   3.331   5.779 -0.4279  0.8173  1.0162
 4247SOL    HW224204   2.255   3.352   5.635  0.9387  1.2309 -0.1692
 4248SOL     OW24205   3.206   0.395  17.091  0.3985  0.2852 -0.3839
 4248SOL    HW124206   3.222   0.300  17.085  2.0330  0.4596  1.2573
 4248SOL    HW224207   3.148   0.397  17.167  2.8474  0.5870  1.4815
 4249SOL     OW24208   3.916   3.804   3.292  0.1922  0.3532  0.0261
 4249SOL    HW124209   3.998   3.850   3.274 -0.5376  0.7407 -2.1743
 4249SOL    HW224210   3.852   3.851   3.240 -0.3130 -1.9999 -1.4764
 4250SOL     OW24211   3.653   4.321  10.358  0.2025  0.1523 -0.9708
 4250SOL    HW124212   3.596   4.244  10.351  0.3066 -0.1109  1.0666
 4250SOL    HW224213   3.724   4.307  10.296  0.3504 -1.5627 -0.3963
 4251SOL     OW24214   2.460   0.238   8.747  0.4555 -0.1480 -0.3877
 4251SOL    HW124215   2.500   0.312   8.702 -0.6781  0.3675 -0.5482
 4251SOL    HW224216   2.417   0.287   8.817 -2.3484 -0.5530 -1.8035
 4252SOL     OW24217   4.509   0.188   6.900  0.2456 -0.2857  0.1729
 4252SOL    HW124218   4.433   0.132   6.884  0.6850 -0.4093 -1.5622
 4252SOL    HW224219   4.472   0.266   6.939 -2.0395 -0.2840 -2.0053
 4253SOL     OW24220   2.351   1.688  13.539  0.3594 -0.7562  0.4003
 4253SOL    HW124221   2.380   1.775  13.565  3.5135 -1.7038  0.0076
 4253SOL    HW224222   2.266   1.691  13.584  0.5693 -1.7269  0.8600
 4254SOL     OW24223   1.302   0.847   0.917 -0.2542 -0.2986 -0.3141
 4254SOL    HW124224   1.280   0.889   0.833 -0.9551 -0.2852 -0.1215
 4254SOL    HW224225   1.215   0.842   0.957 -0.1684 -0.5183 -0.1600
 4255SOL     OW24226   2.564   0.897  13.546  0.1688  0.0630 -0.0706
 4255SOL    HW124227   2.565   0.832  13.475  1.1721  0.2761 -0.2464
 4255SOL    HW224228   2.553   0.979  13.497 -0.4470  0.2843  0.4469
 4256SOL     OW24229   4.290   0.102   4.647 -0.0078 -0.0294 -0.1957
 4256SOL    HW124230   4.300   0.057   4.731  0.6386 -0.9449 -0.7596
 4256SOL    HW224231   4.370   0.068   4.607 -1.1280 -1.1598 -1.4600
 4257SOL     OW24232   1.584   2.166   4.589  0.4635 -0.4289 -0.0106
 4257SOL    HW124233   1.678   2.183   4.580  0.1391  1.2409 -0.3144
 4257SOL    HW224234   1.548   2.255   4.585  1.2911 -0.0444  0.9638
 4258SOL     OW24235   3.892   2.764   6.046 -0.4799  0.4644 -0.0016
 4258SOL    HW124236   3.827   2.795   5.983 -0.4010  0.0184 -0.3008
 4258SOL    HW224237   3.880   2.833   6.111  0.4578  0.2896  0.3504
 4259SOL     OW24238   1.714   0.425   3.250 -0.8444 -0.0192  0.2079
 4259SOL    HW124239   1.674   0.496   3.200  2.3993 -0.1120 -2.5242
 4259SOL    HW224240   1.802   0.460   3.243 -0.6531 -0.3510  0.9494
 4260SOL     OW24241   3.885   2.808  11.268  0.0623 -0.8646  0.3046
 4260SOL    HW124242   3.884   2.768  11.355  0.0991  1.2652  1.2765
 4260SOL    HW224243   3.917   2.730  11.224  0.2631 -0.1703 -0.7743
 4261SOL     OW24244   3.130   0.321   5.671  0.1179  0.6333  0.8964
 4261SOL    HW124245   3.039   0.333   5.645 -0.0313  1.8219  1.9899
 4261SOL    HW224246   3.172   0.340   5.587  0.7810  1.1924  1.3549
 4262SOL     OW24247   0.668   2.908  16.818  0.4972  0.6415 -0.1730
 4262SOL    HW124248   0.591   2.854  16.836  0.8522  0.7680  1.6631
 4262SOL    HW224249   0.677   2.897  16.723 -1.3789  0.0841 -0.3018
 4263SOL     OW24250   2.807   4.084  15.251  0.7203  0.0020 -0.1880
 4263SOL    HW124251   2.859   4.010  15.279 -1.5949 -1.7627 -0.5567
 4263SOL    HW224252   2.778   4.121  15.334 -0.1349 -0.8111 -0.1209
 4264SOL     OW24253   0.372   1.347   9.406 -0.2954 -0.0491  0.2985
 4264SOL    HW124254   0.332   1.297   9.478 -4.2715  0.1215 -1.7967
 4264SOL    HW224255   0.379   1.277   9.340  0.1589 -0.5472  0.8741
 4265SOL     OW24256   2.728   0.696   3.932  0.3414 -0.2846 -0.0545
 4265SOL    HW124257   2.736   0.695   4.028  1.1270  0.8632 -0.1136
 4265SOL    HW224258   2.665   0.624   3.924  1.0818 -1.0018  0.4615
 4266SOL     OW24259   2.140   2.578   9.376 -0.5039 -0.5628  0.3272
 4266SOL    HW124260   2.230   2.608   9.385 -0.9247  0.8616 -0.1170
 4266SOL    HW224261   2.130   2.579   9.281  3.9377  0.5584 -0.1205
 4267SOL     OW24262   1.936   3.724   5.209  0.1420  0.3933 -0.0630
 4267SOL    HW124263   2.029   3.707   5.194  0.9453  2.2391  2.8288
 4267SOL    HW224264   1.937   3.820   5.210  2.0874  0.3628  0.8826
 4268SOL     OW24265   0.614   2.024  10.119  0.2462  0.0271  0.3208
 4268SOL    HW124266   0.521   2.044  10.122  0.0836 -0.6517 -0.3034
 4268SOL    HW224267   0.616   1.932  10.145  2.3899  0.2247  0.8924
 4269SOL     OW24268   3.672   0.406   6.544  0.2808  0.2342  0.5908
 4269SOL    HW124269   3.616   0.462   6.490 -0.0894 -0.2779  0.4479
 4269SOL    HW224270   3.760   0.429   6.514  0.2837 -2.1141 -1.1810
 4270SOL     OW24271   3.337   0.550   4.904  0.0991 -0.0582  0.0609
 4270SOL    HW124272   3.336   0.559   4.999 -2.0527  1.0752 -0.0676
 4270SOL    HW224273   3.417   0.499   4.893  0.6614  0.5282  1.4411
 4271SOL     OW24274   2.745   3.346  12.199 -0.1578 -0.2464  0.3780
 4271SOL    HW124275   2.807   3.340  12.272  0.9802  0.8870 -0.4917
 4271SOL    HW224276   2.684   3.273  12.213 -0.7303  0.5810  2.1717
 4272SOL     OW24277   4.306   3.480   2.157 -0.0403 -0.1995  0.6382
 4272SOL    HW124278   4.215   3.507   2.167 -0.4285 -1.1207 -0.4801
 4272SOL    HW224279   4.344   3.565   2.181  1.1288 -0.7246  0.6599
 4273SOL     OW24280   3.616   2.387   6.391 -0.0465  1.4801 -0.0666
 4273SOL    HW124281   3.691   2.446   6.381  2.1223 -1.1197  0.6876
 4273SOL    HW224282   3.557   2.432   6.331 -0.8848 -0.0443 -0.3576
 4274SOL     OW24283   0.115   1.715   3.863  0.1269  0.2503  0.4779
 4274SOL    HW124284   0.173   1.653   3.818  0.8993  1.2647  0.0691
 4274SOL    HW224285   0.134   1.703   3.956  1.5612 -0.0160  0.1487
 4275SOL     OW24286   3.855   2.982  11.033  0.0438 -0.0384  0.2516
 4275SOL    HW124287   3.860   2.923  11.108  0.4351  0.8119  0.8926
 4275SOL    HW224288   3.903   3.049  11.082 -0.7329  1.3087 -0.8085
 4276SOL     OW24289   4.175   0.612   5.427 -0.2662 -0.3183 -0.0237
 4276SOL    HW124290   4.152   0.539   5.369 -0.3579 -0.4656  0.1963
 4276SOL    HW224291   4.093   0.661   5.425  0.5317  0.9437 -1.1413
 4277SOL     OW24292   4.086   2.715   3.241  0.5633 -0.2911 -0.4062
 4277SOL    HW124293   4.152   2.734   3.174  1.1298  0.0067  0.2339
 4277SOL    HW224294   4.057   2.803   3.266 -0.6225 -0.8522  0.1838
 4278SOL     OW24295   3.764   4.313   3.850  0.0268 -0.2745  0.2200
 4278SOL    HW124296   3.824   4.303   3.924 -1.1864 -1.0250  1.0943
 4278SOL    HW224297   3.721   4.398   3.861 -0.2296 -0.3513 -0.2016
 4279SOL     OW24298   3.144   2.999   4.858  0.0448 -0.3707  0.0342
 4279SOL    HW124299   3.083   2.938   4.901  1.3235 -0.2165  2.0610
 4279SOL    HW224300   3.075   3.040   4.805  0.6571 -1.3775 -1.5309
 4280SOL     OW24301   4.653   2.797   9.139 -0.1958 -0.0686  0.2707
 4280SOL    HW124302   4.596   2.873   9.154 -1.4501 -0.9199 -0.2562
 4280SOL    HW224303   4.589   2.728   9.122 -1.0721  0.8275 -0.0832
 4281SOL     OW24304   0.958   2.641  17.514 -0.3615  0.0484  0.0811
 4281SOL    HW124305   0.900   2.678  17.447  1.3341  0.8169 -0.9573
 4281SOL    HW224306   1.032   2.692  17.481 -0.1625  0.5401  1.2890
 4282SOL     OW24307   1.818   2.344   3.812  0.0854  0.2073 -0.5456
 4282SOL    HW124308   1.731   2.303   3.809  0.9294 -1.6559  0.4473
 4282SOL    HW224309   1.804   2.395   3.892 -2.9085 -2.0147  0.3636
 4283SOL     OW24310   2.645   3.580   3.096 -0.1751  0.0320  0.0030
 4283SOL    HW124311   2.575   3.523   3.129  0.4330 -0.5310  0.3045
 4283SOL    HW224312   2.713   3.532   3.144  1.1002  2.4365  0.6117
 4284SOL     OW24313   0.775   2.051   3.847  0.2878 -0.4972 -0.4057
 4284SOL    HW124314   0.782   2.123   3.783 -0.8671 -0.3306 -0.3474
 4284SOL    HW224315   0.858   2.010   3.820  0.1187 -2.4551  2.1058
 4285SOL     OW24316   3.164   3.928   7.289 -0.0245  0.3790 -0.1826
 4285SOL    HW124317   3.206   4.012   7.306 -0.3134 -0.0438  2.5100
 4285SOL    HW224318   3.154   3.918   7.194 -0.1675  0.8831 -0.2207
 4286SOL     OW24319   3.912   2.578   4.997  0.1039 -0.1581  0.0238
 4286SOL    HW124320   3.821   2.589   5.025  1.0216  0.3599  2.7671
 4286SOL    HW224321   3.918   2.654   4.939  0.1549  0.2298  0.5377
 4287SOL     OW24322   3.622   0.049   5.655 -0.1583 -0.1468 -0.4272
 4287SOL    HW124323   3.661   4.704   5.711  0.2842 -0.5786 -1.2509
 4287SOL    HW224324   3.570   0.093   5.722 -1.6948 -1.5965 -0.6616
 4288SOL     OW24325   4.639   2.746  16.823 -0.4441  0.1663 -0.7957
 4288SOL    HW124326   4.591   2.691  16.761 -2.2380  0.6963  0.1432
 4288SOL    HW224327   4.620   2.695  16.902  0.3830 -0.0640 -0.7438
 4289SOL     OW24328   1.864   1.634   2.868  0.0384  0.1726 -0.3926
 4289SOL    HW124329   1.916   1.555   2.886 -1.8823 -1.6452 -2.7394
 4289SOL    HW224330   1.783   1.599   2.830 -0.2519  1.0816 -0.6009
 4290SOL     OW24331   2.308   4.218   6.551  0.1561  0.3564  0.2716
 4290SOL    HW124332   2.373   4.222   6.622  1.0368  0.8696 -0.5639
 4290SOL    HW224333   2.351   4.143   6.510  0.3917 -0.9182  2.8030
 4291SOL     OW24334   3.281   1.232   6.870  0.0151  0.5266 -0.2393
 4291SOL    HW124335   3.208   1.180   6.905  0.2381 -0.0353 -0.6042
 4291SOL    HW224336   3.256   1.258   6.782 -1.4503  0.6160  0.2135
 4292SOL     OW24337   0.809   4.682  14.659 -0.1463 -0.6834  0.4751
 4292SOL    HW124338   0.790   4.688  14.752 -2.1947  1.0014 -0.0622
 4292SOL    HW224339   0.741   4.616  14.645 -1.1935  0.5276 -0.0922
 4293SOL     OW24340   0.816   1.172   5.993 -0.5143 -0.2318 -0.5761
 4293SOL    HW124341   0.865   1.158   5.913  1.6221 -0.0942  0.7002
 4293SOL    HW224342   0.812   1.084   6.030 -2.9695  0.6698  1.3358
 4294SOL     OW24343   2.688   0.385  14.305  0.0684  0.2947  0.0444
 4294SOL    HW124344   2.719   0.352  14.221 -0.3536  1.4224 -0.5558
 4294SOL    HW224345   2.747   0.350  14.372  0.5335 -1.0197 -1.0397
 4295SOL     OW24346   4.462   2.723   1.535 -0.1397  0.2881 -0.5203
 4295SOL    HW124347   4.509   2.805   1.550 -0.2089  0.0126  1.1776
 4295SOL    HW224348   4.374   2.759   1.547 -0.3644 -1.0200  1.7714
 4296SOL     OW24349   1.778   0.885   8.978 -0.2670  0.4973 -0.1539
 4296SOL    HW124350   1.742   0.852   8.895 -0.0503  2.2680 -0.9455
 4296SOL    HW224351   1.745   0.808   9.024  0.0154  1.0111  0.8995
 4297SOL     OW24352   1.792   0.230  17.311 -1.0948 -0.6512  0.1295
 4297SOL    HW124353   1.735   0.228  17.234  1.0277  0.8775 -1.4933
 4297SOL    HW224354   1.875   0.220  17.264 -0.9348  2.9444 -0.3449
 4298SOL     OW24355   2.407   0.342   4.989  0.6966 -0.1619  0.1089
 4298SOL    HW124356   2.409   0.416   5.050 -0.3972  0.5095 -0.6603
 4298SOL    HW224357   2.499   0.348   4.962  0.7374 -2.4755 -0.2302
 4299SOL     OW24358   4.184   3.841   8.167 -0.2727  0.3219  0.4722
 4299SOL    HW124359   4.250   3.897   8.208 -0.6386 -0.9675  2.8514
 4299SOL    HW224360   4.111   3.847   8.229 -0.5692  0.6755  0.0844
 4300SOL     OW24361   3.066   2.455   0.358 -0.8891  0.9110  0.4166
 4300SOL    HW124362   2.991   2.447   0.416 -1.6549 -2.6879 -1.0848
 4300SOL    HW224363   3.027   2.518   0.297 -1.9325 -1.3866 -1.2899
 4301SOL     OW24364   4.453   0.758   8.322 -0.0803  0.4705  0.2109
 4301SOL    HW124365   4.526   0.716   8.367 -1.4274 -1.7911  0.2662
 4301SOL    HW224366   4.471   0.852   8.323 -0.8756  0.6382 -1.8799
 4302SOL     OW24367   0.510   2.099  11.490 -0.1272  0.1280 -0.3524
 4302SOL    HW124368   0.525   2.175  11.547 -2.4302 -1.9025  2.9525
 4302SOL    HW224369   0.558   2.123  11.411  2.0341 -2.8960  0.0586
 4303SOL     OW24370   3.212   2.767  17.051 -0.1016  0.3441  0.1493
 4303SOL    HW124371   3.141   2.787  17.112 -0.9261  3.0322 -1.7125
 4303SOL    HW224372   3.232   2.675  17.071  3.3630  1.0858  0.1031
 4304SOL     OW24373   1.663   1.193   4.307 -0.0059 -0.1308  0.3933
 4304SOL    HW124374   1.750   1.231   4.314  0.3870 -1.4050  2.5294
 4304SOL    HW224375   1.613   1.247   4.369  0.4766  1.6849 -0.7946
 4305SOL     OW24376   4.202   0.041   1.229 -0.3408  0.1766  0.3601
 4305SOL    HW124377   4.193   0.021   1.322  3.2778 -0.6919  0.5321
 4305SOL    HW224378   4.113   0.021   1.200  0.6480 -0.2848 -2.3916
 4306SOL     OW24379   2.185   3.793   5.373  0.2817  0.1429  0.3151
 4306SOL    HW124380   2.170   3.699   5.361  3.7579  0.0745 -3.3051
 4306SOL    HW224381   2.279   3.798   5.360  0.0611  0.7807 -1.1149
 4307SOL     OW24382   3.421   1.632   9.824  0.1206  0.3230  0.0348
 4307SOL    HW124383   3.460   1.591   9.902 -0.8796  3.1767  2.0312
 4307SOL    HW224384   3.338   1.586   9.825  0.6666 -0.6634 -1.0049
 4308SOL     OW24385   0.871   0.323  14.355  0.3972  0.2197 -0.1445
 4308SOL    HW124386   0.912   0.329  14.441  1.8674 -0.8278 -0.7774
 4308SOL    HW224387   0.939   0.269  14.314  0.0170 -1.2667  1.1794
 4309SOL     OW24388   4.467   3.947   5.240  0.1571  0.2653 -0.3167
 4309SOL    HW124389   4.433   3.980   5.323 -0.7971 -2.3233  0.3227
 4309SOL    HW224390   4.476   3.855   5.264  0.3300  1.0697  2.6278
 4310SOL     OW24391   1.101   1.786   6.099  0.0182 -0.0682 -0.0051
 4310SOL    HW124392   1.169   1.721   6.079  1.1625  1.6252 -1.5762
 4310SOL    HW224393   1.159   1.858   6.125 -0.1558 -0.0888  0.4388
 4311SOL     OW24394   3.465   3.897   1.565 -0.5230 -0.0032  0.1134
 4311SOL    HW124395   3.415   3.968   1.606  0.6577  1.3041 -0.7323
 4311SOL    HW224396   3.402   3.873   1.497  0.2572  2.8743 -1.6152
 4312SOL     OW24397   0.858   0.921   6.089  0.1725 -0.4025 -0.2818
 4312SOL    HW124398   0.778   0.882   6.126  1.2584 -0.4145  2.1151
 4312SOL    HW224399   0.904   0.838   6.075  0.2796 -0.4519  0.3374
 4313SOL     OW24400   2.710   1.029  14.150 -0.0957  0.2135 -0.6990
 4313SOL    HW124401   2.732   0.940  14.124  2.7226  0.1920  1.7554
 4313SOL    HW224402   2.795   1.073  14.153  0.4566 -1.0624  1.4666
 4314SOL     OW24403   4.167   2.315   2.465  0.0539  0.3813  0.0424
 4314SOL    HW124404   4.147   2.222   2.476 -0.2101  0.5557  1.0330
 4314SOL    HW224405   4.156   2.328   2.371 -1.2224 -2.2935 -0.1580
 4315SOL     OW24406   2.778   1.425   9.172  0.1960  0.0618  0.8896
 4315SOL    HW124407   2.731   1.352   9.132 -0.8676  0.7156  0.9572
 4315SOL    HW224408   2.771   1.504   9.117  3.4489 -0.0097  0.3849
 4316SOL     OW24409   1.871   3.199   0.728 -0.0323 -0.3314  0.1615
 4316SOL    HW124410   1.922   3.121   0.746 -0.8822 -1.0953 -0.7202
 4316SOL    HW224411   1.860   3.191   0.633 -1.7003 -2.1334  0.4914
 4317SOL     OW24412   3.644   3.331   8.348 -0.3037 -0.6470  0.6860
 4317SOL    HW124413   3.643   3.373   8.262 -0.3245 -1.1739  0.4326
 4317SOL    HW224414   3.580   3.268   8.315 -0.2961 -0.7702  0.9045
 4318SOL     OW24415   0.681   4.657  17.199  0.1815 -0.0435  0.1873
 4318SOL    HW124416   0.757   4.705  17.166  0.2858 -1.7670 -2.0146
 4318SOL    HW224417   0.611   4.683  17.139 -0.1231  1.0266  1.0037
 4319SOL     OW24418   2.034   0.944  14.506 -0.4217 -0.3200  0.0659
 4319SOL    HW124419   2.052   0.939  14.412  2.7195  0.2806  0.6306
 4319SOL    HW224420   2.094   0.882  14.548 -3.7561 -1.9044  2.4571
 4320SOL     OW24421   1.068   2.490   6.778 -0.2326  0.5768 -0.0888
 4320SOL    HW124422   1.086   2.449   6.863 -0.4063 -3.5820 -2.0349
 4320SOL    HW224423   1.103   2.578   6.791 -0.6365  0.1236  4.1391
 4321SOL     OW24424   4.395   0.426   4.613  0.6950  0.0501  0.2193
 4321SOL    HW124425   4.407   0.353   4.552 -2.2489 -2.1774  2.3131
 4321SOL    HW224426   4.369   0.500   4.558 -0.0765 -1.0262 -0.8671
 4322SOL     OW24427   0.487   2.715   6.635  0.0901  0.2443  0.4283
 4322SOL    HW124428   0.481   2.746   6.726 -1.1624  0.6190  0.2174
 4322SOL    HW224429   0.396   2.713   6.607  0.4202  0.5386 -0.6816
 4323SOL     OW24430   4.717   1.391   3.235  0.3705 -0.1305  0.3771
 4323SOL    HW124431   4.630   1.368   3.269 -0.3480 -1.1852 -2.1930
 4323SOL    HW224432   4.704   1.483   3.212 -1.8545  0.2631  3.1545
 4324SOL     OW24433   0.899   2.590  15.782 -0.4458 -0.1952 -0.0746
 4324SOL    HW124434   0.830   2.647  15.748  0.4866  0.9415 -0.0709
 4324SOL    HW224435   0.859   2.552  15.860 -0.6525  1.4757  0.6343
 4325SOL     OW24436   3.406   1.693   3.378  0.7042  0.1050 -0.1958
 4325SOL    HW124437   3.453   1.627   3.327  0.6490 -1.0892  1.2923
 4325SOL    HW224438   3.412   1.659   3.467 -2.3856  2.2071  0.8257
 4326SOL     OW24439   1.992   3.536  14.918 -0.5498  0.2969 -0.5135
 4326SOL    HW124440   2.038   3.619  14.927 -0.8933  0.7357 -2.7808
 4326SOL    HW224441   2.056   3.481  14.872  0.7505  0.1845  1.4064
 4327SOL     OW24442   1.471   3.444   4.681  0.1804 -0.8823  0.1921
 4327SOL    HW124443   1.459   3.363   4.632 -2.3168  0.2673 -1.1339
 4327SOL    HW224444   1.501   3.413   4.766  1.9659 -2.5826 -1.0613
 4328SOL     OW24445   3.357   2.166   7.925 -0.6098 -0.2140 -0.0752
 4328SOL    HW124446   3.409   2.194   8.000 -1.3582  1.2309 -0.0984
 4328SOL    HW224447   3.325   2.244   7.880  1.2556 -0.0872 -1.1649
 4329SOL     OW24448   1.433   3.227   1.480 -0.1372 -0.7181 -0.0011
 4329SOL    HW124449   1.486   3.305   1.463  0.0670 -0.1195  3.5206
 4329SOL    HW224450   1.472   3.186   1.557 -0.3283 -0.1866  0.3736
 4330SOL     OW24451   0.402   3.968   8.904 -0.3881  0.3687 -0.0083
 4330SOL    HW124452   0.407   3.985   8.999 -2.8684  2.0444 -0.1543
 4330SOL    HW224453   0.474   4.028   8.888 -1.4044  1.1709 -1.5280
 4331SOL     OW24454   1.216   2.461   7.009 -0.0483 -0.1272 -0.4205
 4331SOL    HW124455   1.305   2.428   6.995 -0.1144 -0.6196  0.2982
 4331SOL    HW224456   1.231   2.549   7.043  0.2236 -1.0265  1.7535
 4332SOL     OW24457   2.501   2.960   1.543 -0.1767  0.2732  0.2279
 4332SOL    HW124458   2.427   2.977   1.484 -1.7188  1.0404  2.3918
 4332SOL    HW224459   2.573   2.981   1.483  1.1429 -1.6280  1.1418
 4333SOL     OW24460   2.323   3.263   5.493 -0.1347 -0.2203  0.0666
 4333SOL    HW124461   2.388   3.330   5.471 -0.7021  0.2930 -0.0569
 4333SOL    HW224462   2.320   3.221   5.407  2.9865  0.3610 -0.3399
 4334SOL     OW24463   2.416   0.645   5.818  0.2888  0.0233 -1.1115
 4334SOL    HW124464   2.487   0.706   5.836 -0.6389  0.8741 -0.2678
 4334SOL    HW224465   2.342   0.705   5.829  0.3673 -0.1938  0.6726
 4335SOL     OW24466   3.558   0.638   3.559  0.1297  0.2868  0.3957
 4335SOL    HW124467   3.617   0.600   3.623  1.4525  2.5142  0.5084
 4335SOL    HW224468   3.556   0.729   3.589  0.3610 -0.1062  1.5845
 4336SOL     OW24469   2.937   2.902   4.459  0.3317 -0.2981 -0.1421
 4336SOL    HW124470   2.870   2.835   4.477  1.5217 -0.7785  2.5382
 4336SOL    HW224471   3.013   2.856   4.495 -0.3317 -2.3724 -1.3476
 4337SOL     OW24472   4.186   3.445  16.506  0.1594 -0.3977 -0.1177
 4337SOL    HW124473   4.168   3.406  16.591 -2.0779 -1.0704 -0.9055
 4337SOL    HW224474   4.234   3.379  16.456  0.2555 -0.9688  0.7484
 4338SOL     OW24475   2.841   4.058   5.469  0.2618  0.3698  0.2608
 4338SOL    HW124476   2.768   4.084   5.412  0.6659  0.7105 -0.1014
 4338SOL    HW224477   2.805   4.069   5.557  0.5040  1.4454  0.2244
 4339SOL     OW24478   4.589   1.983   3.203  0.0451 -0.1083  0.9165
 4339SOL    HW124479   4.525   1.914   3.220 -2.9152  2.2409 -0.4266
 4339SOL    HW224480   4.516   2.046   3.198  2.4871  2.8490  2.9024
 4340SOL     OW24481   0.192   3.892   7.741  0.3949 -0.4084  0.6256
 4340SOL    HW124482   0.267   3.851   7.786  1.5440 -2.1845 -2.9360
 4340SOL    HW224483   0.141   3.911   7.820 -1.5025  1.9107 -1.1659
 4341SOL     OW24484   0.919   1.660  10.846 -0.0326  0.2529 -0.0098
 4341SOL    HW124485   0.944   1.715  10.921 -1.8309  2.9917 -1.4384
 4341SOL    HW224486   0.831   1.644  10.879 -0.1514  1.0286  0.0672
 4342SOL     OW24487   0.254   3.111   8.725 -0.2549  0.0148 -0.0181
 4342SOL    HW124488   0.171   3.065   8.711  1.6120 -3.2760 -0.2777
 4342SOL    HW224489   0.281   3.076   8.810  1.4182  0.1129 -0.5019
 4343SOL     OW24490   3.759   1.886  13.336  0.4791  0.5916  0.3393
 4343SOL    HW124491   3.781   1.943  13.410  3.0030  0.2732 -0.1629
 4343SOL    HW224492   3.844   1.846  13.319 -0.4019 -0.7579 -0.8365
 4344SOL     OW24493   2.738   3.194  13.964 -0.0568  0.3536  0.1643
 4344SOL    HW124494   2.826   3.196  13.924  0.3537  1.9421  1.1505
 4344SOL    HW224495   2.671   3.161  13.904  0.9760  1.8191 -1.8187
 4345SOL     OW24496   0.493   2.847   5.037 -0.3715  0.6955 -0.2007
 4345SOL    HW124497   0.452   2.923   4.994 -0.5312  1.1156  0.6994
 4345SOL    HW224498   0.424   2.814   5.094  0.0118  0.7723  0.3051
 4346SOL     OW24499   4.713   4.257  16.256 -0.2684  0.5614  0.1736
 4346SOL    HW124500   4.636   4.310  16.237 -2.2550 -2.9048 -1.5136
 4346SOL    HW224501   0.059   4.303  16.207 -0.1431 -1.1205 -1.2265
 4347SOL     OW24502   4.089   1.444   7.253 -0.2271  0.2835 -0.3273
 4347SOL    HW124503   4.043   1.501   7.191 -0.4107 -0.3202 -0.7454
 4347SOL    HW224504   4.181   1.444   7.223 -0.2253 -0.3885 -0.3212
 4348SOL     OW24505   1.786   1.993   7.048  0.1565  0.2880  0.5880
 4348SOL    HW124506   1.872   1.987   7.089 -0.2357 -0.5278  1.2845
 4348SOL    HW224507   1.758   2.076   7.088  1.2857  0.9018  0.0980
 4349SOL     OW24508   1.798   2.435   8.803 -0.5176  0.8948  0.3681
 4349SOL    HW124509   1.704   2.427   8.820 -0.2354  0.3487  1.6269
 4349SOL    HW224510   1.814   2.426   8.709  0.4363 -1.4750  0.7598
 4350SOL     OW24511   2.067   4.191   6.680 -0.5715 -0.0021  0.2438
 4350SOL    HW124512   2.140   4.220   6.625 -0.4441 -0.9034 -0.0664
 4350SOL    HW224513   2.118   4.146   6.747 -0.1542  0.2004  0.0635
 4351SOL     OW24514   0.305   0.564   3.139 -0.2897 -0.2001  0.0713
 4351SOL    HW124515   0.301   0.504   3.065 -0.1848 -2.3512  1.8189
 4351SOL    HW224516   0.330   0.651   3.107 -0.3528 -0.1965  0.0321
 4352SOL     OW24517   0.893   2.465   5.291  0.1510  0.1264 -0.1132
 4352SOL    HW124518   0.845   2.532   5.339 -0.5805  0.9544 -1.9889
 4352SOL    HW224519   0.830   2.431   5.227 -1.3554 -0.2332  1.5690
 4353SOL     OW24520   2.965   0.142  12.721  0.1003  0.1453  0.2289
 4353SOL    HW124521   3.010   0.165  12.803  1.7695 -1.4794 -0.2335
 4353SOL    HW224522   3.031   0.092  12.673 -1.8214 -0.3944 -1.8212
 4354SOL     OW24523   4.343   2.474   2.932  0.3429 -0.2639 -0.4552
 4354SOL    HW124524   4.359   2.388   2.893 -2.6487 -0.7641 -0.5853
 4354SOL    HW224525   4.255   2.503   2.904 -0.1119 -0.6515  0.6000
 4355SOL     OW24526   4.287   3.603   7.132 -0.1456 -0.2605  0.1505
 4355SOL    HW124527   4.269   3.587   7.225 -1.4191  0.6126  0.0444
 4355SOL    HW224528   4.212   3.549   7.105 -2.3574  2.2504  1.2891
 4356SOL     OW24529   0.265   2.815   2.766 -0.0757  0.4472  0.0261
 4356SOL    HW124530   0.353   2.836   2.734 -0.0903  3.0486  1.7025
 4356SOL    HW224531   0.219   2.853   2.692 -0.7818  0.6322  0.5620
 4357SOL     OW24532   4.490   3.022  14.868 -0.6601  0.2901  0.0513
 4357SOL    HW124533   4.527   2.935  14.859  1.9325  1.5524 -1.7258
 4357SOL    HW224534   4.471   3.039  14.775  1.6370  2.0768 -0.0923
 4358SOL     OW24535   0.494   3.235   5.748 -0.3476  0.2466  0.7025
 4358SOL    HW124536   0.399   3.223   5.740 -0.2255  1.3217 -2.4435
 4358SOL    HW224537   0.510   3.238   5.654 -0.7247  2.5577  0.7078
 4359SOL     OW24538   0.919   0.003   8.949 -0.4018  0.2374  0.0641
 4359SOL    HW124539   0.853   0.064   8.915 -0.5093  0.3748  0.5231
 4359SOL    HW224540   0.862   4.648   8.963 -0.0770  0.2106  1.2573
 4360SOL     OW24541   4.173   3.028  11.656 -0.7280  0.2493 -0.0533
 4360SOL    HW124542   4.108   2.965  11.688  0.9205 -0.4549  1.8615
 4360SOL    HW224543   4.145   3.107  11.703 -3.6218 -0.3355 -0.7382
 4361SOL     OW24544   2.483   0.779   5.515  0.0751 -0.3450  0.2775
 4361SOL    HW124545   2.477   0.820   5.602 -1.0416 -1.9354  0.9464
 4361SOL    HW224546   2.393   0.794   5.485  0.0160 -1.3623 -0.0474
 4362SOL     OW24547   0.869   4.075   4.321  0.0790  0.4637  0.5540
 4362SOL    HW124548   0.909   4.037   4.399  0.0977  3.2510  1.8690
 4362SOL    HW224549   0.851   3.996   4.269  2.8601 -0.8435  1.5639
 4363SOL     OW24550   0.996   1.077   1.435 -0.2199 -0.1887 -0.1058
 4363SOL    HW124551   0.962   1.122   1.512 -0.2722 -2.3121  1.1078
 4363SOL    HW224552   1.017   1.148   1.373 -2.3461  1.4165  1.0084
 4364SOL     OW24553   3.410   0.986   6.811  0.3580 -0.2729  0.4469
 4364SOL    HW124554   3.477   1.034   6.763 -0.8688  1.7001  0.7082
 4364SOL    HW224555   3.366   1.062   6.850 -1.9102 -1.0945 -0.5469
 4365SOL     OW24556   1.054   0.061   1.109  0.1903 -0.5266  0.0013
 4365SOL    HW124557   0.966   0.098   1.100  1.0000  1.8067  1.6737
 4365SOL    HW224558   1.099   0.095   1.032  0.0771  0.9976  0.6210
 4366SOL     OW24559   4.676   2.590   3.422  0.5829 -0.2365  0.0977
 4366SOL    HW124560   4.713   2.544   3.346  0.5971  0.2458 -0.1863
 4366SOL    HW224561   4.607   2.643   3.382  0.3257 -1.1631 -0.6852
 4367SOL     OW24562   4.060   4.608   5.420  0.0758  0.0023 -0.4612
 4367SOL    HW124563   3.999   4.534   5.420 -1.2128  1.0748  0.9399
 4367SOL    HW224564   4.057   4.632   5.513  0.9248  1.8714 -0.9211
 4368SOL     OW24565   1.123   3.781   6.406 -0.3375 -0.0050  0.6130
 4368SOL    HW124566   1.205   3.738   6.386  0.8382  2.4794  0.0875
 4368SOL    HW224567   1.146   3.820   6.491 -0.8484  2.8037 -0.5636
 4369SOL     OW24568   3.103   2.624   7.908  0.8200  0.2541  0.3965
 4369SOL    HW124569   3.181   2.662   7.867  0.4048 -0.2379 -0.8574
 4369SOL    HW224570   3.092   2.697   7.969  2.0677  0.0891  0.8102
 4370SOL     OW24571   2.726   0.487  12.566 -0.0150 -0.6399  0.8725
 4370SOL    HW124572   2.729   0.392  12.572 -1.4964 -0.8814 -2.2858
 4370SOL    HW224573   2.807   0.509  12.611  0.6768  1.3872 -1.3712
 4371SOL     OW24574   1.500   3.260  14.615 -0.2114 -0.1980 -0.3109
 4371SOL    HW124575   1.436   3.317  14.656 -2.0432 -1.6827 -1.1196
 4371SOL    HW224576   1.554   3.323  14.566 -1.6052 -0.7330 -2.5265
 4372SOL     OW24577   3.604   0.742   5.950  0.1927 -0.2314 -0.0815
 4372SOL    HW124578   3.596   0.720   6.043 -1.3821 -0.1919 -0.2048
 4372SOL    HW224579   3.510   0.753   5.933 -0.4571 -2.5544  2.0416
 4373SOL     OW24580   3.143   2.031   0.177  0.0281 -0.0808  0.2152
 4373SOL    HW124581   3.131   1.991   0.263  0.7391 -0.2874  0.2181
 4373SOL    HW224582   3.176   2.119   0.195  0.6601 -0.0489 -1.1117
 4374SOL     OW24583   0.582   0.412   8.541 -0.6771  0.0169 -0.1706
 4374SOL    HW124584   0.625   0.328   8.526 -1.2012 -0.1885 -0.5060
 4374SOL    HW224585   0.543   0.383   8.624  0.4152 -1.1018 -0.0387
 4375SOL     OW24586   2.622   2.391   2.090 -0.2599 -0.6470 -0.0904
 4375SOL    HW124587   2.676   2.391   2.010  1.2023  3.1165  0.9044
 4375SOL    HW224588   2.672   2.333   2.148  0.8517  1.2603  0.8256
 4376SOL     OW24589   3.410   0.208   0.220 -0.2798 -0.0061  0.0519
 4376SOL    HW124590   3.320   0.182   0.242 -0.6526 -0.5327 -2.0332
 4376SOL    HW224591   3.448   0.122   0.200  1.7669  0.1309  3.4287
 4377SOL     OW24592   2.396   2.696  13.386 -0.6147  0.3993  0.1814
 4377SOL    HW124593   2.489   2.698  13.363 -0.5297  1.4991  0.6101
 4377SOL    HW224594   2.364   2.660  13.304 -0.1631 -1.9644  1.0482
 4378SOL     OW24595   4.483   2.161  13.521 -0.7650 -0.7935 -0.3891
 4378SOL    HW124596   4.494   2.231  13.586  0.6617 -2.7576  1.5073
 4378SOL    HW224597   4.526   2.086  13.563 -0.5920 -1.1179 -1.1532
 4379SOL     OW24598   3.198   0.390   5.392  0.0020  0.4747 -0.0594
 4379SOL    HW124599   3.126   0.404   5.330  0.3161 -0.3144 -0.5909
 4379SOL    HW224600   3.261   0.341   5.340  0.1760  0.7479 -0.1053
 4380SOL     OW24601   2.734   4.065   3.919  0.4897  0.3523 -0.8236
 4380SOL    HW124602   2.701   3.979   3.893 -0.5099 -0.4385  3.1701
 4380SOL    HW224603   2.774   4.037   4.002 -1.9668 -0.6094  0.0143
 4381SOL     OW24604   4.514   4.618   8.528  0.1329  0.9264  0.1032
 4381SOL    HW124605   4.458   4.616   8.606 -0.0580  0.7018 -0.0392
 4381SOL    HW224606   4.442   4.633   8.466 -1.1698 -0.7950  1.1963
 4382SOL     OW24607   2.601   0.186   3.327 -0.0953 -0.2065 -0.4193
 4382SOL    HW124608   2.624   0.124   3.258 -1.1408  0.5665 -1.4730
 4382SOL    HW224609   2.628   0.263   3.278  1.8144 -0.7743 -0.2309
 4383SOL     OW24610   4.386   2.727   5.829 -0.1119  0.8630  0.1467
 4383SOL    HW124611   4.459   2.776   5.868  0.0137 -0.7896  2.0192
 4383SOL    HW224612   4.415   2.636   5.830  1.1856  1.2945  2.5179
 4384SOL     OW24613   4.584   1.628  14.749 -0.0418 -0.4332  0.3175
 4384SOL    HW124614   4.660   1.624  14.807  0.3093 -0.0780 -0.1105
 4384SOL    HW224615   4.508   1.626  14.807 -0.1785  0.4393  0.1606
 4385SOL     OW24616   1.732   2.386   2.244 -0.1327 -0.2447 -0.6241
 4385SOL    HW124617   1.708   2.380   2.336  2.2664  0.8691  0.0843
 4385SOL    HW224618   1.761   2.477   2.239  1.4047 -0.6905  0.1506
 4386SOL     OW24619   2.221   3.044   6.828  0.3472 -0.2278  0.1974
 4386SOL    HW124620   2.135   3.009   6.803 -0.2065  2.2998 -1.4340
 4386SOL    HW224621   2.216   3.037   6.924  0.5741 -2.7152  0.0219
 4387SOL     OW24622   3.503   3.722   8.868 -0.1564 -0.1249 -0.1283
 4387SOL    HW124623   3.587   3.762   8.844 -0.8139  0.1557 -1.9873
 4387SOL    HW224624   3.522   3.700   8.959  1.0112 -2.6430 -0.9986
 4388SOL     OW24625   1.854   3.831  10.216  0.0873 -0.4333  0.1469
 4388SOL    HW124626   1.816   3.748  10.246  0.6074 -0.3776  0.9662
 4388SOL    HW224627   1.909   3.792  10.148 -0.7209  0.2519 -0.9036
 4389SOL     OW24628   4.540   0.753   8.771 -0.7213  0.4840  0.0540
 4389SOL    HW124629   4.571   0.769   8.682 -0.2386  1.5143  0.4113
 4389SOL    HW224630   4.534   0.839   8.812  0.8859  0.8662 -0.4964
 4390SOL     OW24631   1.165   2.370   9.302  0.2710  0.2695 -0.0871
 4390SOL    HW124632   1.159   2.344   9.395 -0.9032  1.5143  0.1847
 4390SOL    HW224633   1.078   2.398   9.276 -0.3864 -3.8535 -2.3767
 4391SOL     OW24634   1.117   2.654   9.539 -0.0373 -0.2127 -0.1316
 4391SOL    HW124635   1.138   2.739   9.578  1.6780 -1.1297  0.9221
 4391SOL    HW224636   1.068   2.684   9.462  0.0263  2.9142  1.0375
 4392SOL     OW24637   4.719   4.332   6.580 -0.0033 -0.3727 -0.0860
 4392SOL    HW124638   0.006   4.238   6.598 -1.7652 -0.5720 -0.2302
 4392SOL    HW224639   4.630   4.358   6.606  0.1749  0.1300  0.0221
 4393SOL     OW24640   2.526   4.423   0.762 -0.1106  0.2197 -0.5973
 4393SOL    HW124641   2.567   4.356   0.707  1.4626 -0.3349  1.2545
 4393SOL    HW224642   2.567   4.409   0.847  0.5826  0.7816 -0.8448
 4394SOL     OW24643   1.626   2.941   8.736  0.3060  0.1054  0.0984
 4394SOL    HW124644   1.585   3.008   8.681 -1.6344 -0.8552  0.3356
 4394SOL    HW224645   1.652   2.880   8.667  1.9134 -1.0093  1.6906
 4395SOL     OW24646   1.746   0.293  15.991  0.1880  0.3381  0.3906
 4395SOL    HW124647   1.671   0.288  16.051 -0.4670 -0.7885 -0.5201
 4395SOL    HW224648   1.760   0.387  16.000  2.9078 -0.0567  0.1982
 4396SOL     OW24649   1.229   1.885   4.753  0.0171  0.1001 -0.0435
 4396SOL    HW124650   1.231   1.949   4.824  0.1345  2.1035 -1.8416
 4396SOL    HW224651   1.176   1.936   4.691 -1.1590 -0.2668  0.6554
 4397SOL     OW24652   4.479   3.298  16.733 -0.3492 -0.1815 -0.6052
 4397SOL    HW124653   4.474   3.381  16.780 -2.5591 -1.9138  2.1941
 4397SOL    HW224654   4.475   3.316  16.639  1.7250  2.4595 -0.1748
 4398SOL     OW24655   3.484   1.521  10.583 -0.2385 -0.4603 -0.5265
 4398SOL    HW124656   3.449   1.436  10.608 -1.0310  0.5953  1.9753
 4398SOL    HW224657   3.577   1.499  10.573 -0.2250 -0.7835  0.2742
 4399SOL     OW24658   1.536   4.331  15.579  0.0982 -0.4165 -0.9605
 4399SOL    HW124659   1.631   4.336  15.594 -0.2605  0.0360  1.2506
 4399SOL    HW224660   1.539   4.310  15.486  0.2754 -1.8114 -0.6334
 4400SOL     OW24661   1.549   1.391   5.279  0.2245  0.0081 -0.2891
 4400SOL    HW124662   1.484   1.444   5.325 -0.4074 -1.5757  0.6622
 4400SOL    HW224663   1.490   1.335   5.228  0.7952 -1.4152  0.5959
 4401SOL     OW24664   1.521   2.587   1.826  0.0131  0.4805 -1.0454
 4401SOL    HW124665   1.489   2.556   1.742 -2.5220 -1.5210  0.6769
 4401SOL    HW224666   1.451   2.648   1.848 -2.2934 -2.4507 -0.2273
 4402SOL     OW24667   4.052   3.345  16.732 -0.2343 -0.0484  0.0096
 4402SOL    HW124668   3.980   3.403  16.756 -2.4905 -1.9840 -2.1459
 4402SOL    HW224669   4.107   3.337  16.811 -2.0160 -0.5673  1.1955
 4403SOL     OW24670   2.653   4.107   7.992  0.4848  0.1412  0.6131
 4403SOL    HW124671   2.704   4.168   7.938  2.5430 -3.1479 -1.1731
 4403SOL    HW224672   2.575   4.159   8.009  1.4342  2.3728 -1.9804
 4404SOL     OW24673   0.924   1.853   8.952 -0.2162  0.2890  0.4634
 4404SOL    HW124674   0.896   1.943   8.966 -1.0850  0.2311 -0.9373
 4404SOL    HW224675   1.000   1.854   9.009 -0.5045  2.8859  0.7651
 4405SOL     OW24676   4.380   2.317   6.337 -0.6231 -0.3541  0.0000
 4405SOL    HW124677   4.310   2.255   6.316 -0.5944 -1.2059  2.4661
 4405SOL    HW224678   4.435   2.332   6.260  1.9289 -0.3687  1.8364
 4406SOL     OW24679   3.999   2.783   8.368 -0.8238 -0.2239 -0.4597
 4406SOL    HW124680   3.942   2.706   8.374 -1.6738  0.4488  0.1477
 4406SOL    HW224681   3.940   2.849   8.404 -1.1496  0.4225 -2.1976
 4407SOL     OW24682   0.040   1.305   4.439  0.2763  0.2364  0.1647
 4407SOL    HW124683   0.022   1.399   4.433 -0.9181  0.1202  2.0393
 4407SOL    HW224684   4.706   1.273   4.509  0.4751 -0.3019  0.0776
 4408SOL     OW24685   0.066   0.839   5.153  0.1068  0.3696 -0.0603
 4408SOL    HW124686   0.151   0.883   5.142 -0.0041  0.0990 -2.0033
 4408SOL    HW224687   0.065   0.799   5.066 -1.7219 -0.2858  0.2732
 4409SOL     OW24688   0.578   1.883   9.097  0.3027 -0.2061  0.0261
 4409SOL    HW124689   0.504   1.885   9.036 -0.1334  2.3259  0.6349
 4409SOL    HW224690   0.571   1.791   9.124  1.2147  0.3415  2.0711
 4410SOL     OW24691   1.636   1.151  16.777 -1.1770  0.1288  0.3913
 4410SOL    HW124692   1.549   1.137  16.740 -2.1084  1.6685  2.0094
 4410SOL    HW224693   1.678   1.066  16.760 -3.4142 -0.7027 -1.0578
 4411SOL     OW24694   0.683   1.832   4.536  0.1324  0.0203  0.6638
 4411SOL    HW124695   0.644   1.914   4.565  1.9739 -0.4973  4.5657
 4411SOL    HW224696   0.726   1.863   4.457  0.3755  0.5029  0.9912
 4412SOL     OW24697   3.913   0.180   7.511 -0.0658  0.4121  0.3137
 4412SOL    HW124698   4.001   0.181   7.548  0.4531  0.5347 -0.9147
 4412SOL    HW224699   3.928   0.204   7.419  1.9715  0.1233  0.5623
 4413SOL     OW24700   1.630   1.964   3.867 -0.3897 -0.1427  0.1703
 4413SOL    HW124701   1.564   1.949   3.935  0.7523 -1.2513  1.0243
 4413SOL    HW224702   1.699   1.909   3.903  2.9339  2.7097 -1.8296
 4414SOL     OW24703   4.318   0.452  13.861 -0.3771  0.0260 -0.3336
 4414SOL    HW124704   4.404   0.415  13.884  0.2493  1.4018 -0.5045
 4414SOL    HW224705   4.330   0.531  13.913  0.7125 -1.0980  1.1578
 4415SOL     OW24706   3.656   0.070   3.147  0.8074  0.3241  0.4172
 4415SOL    HW124707   3.561   0.079   3.139  0.9141  1.0106 -0.0865
 4415SOL    HW224708   3.683   0.031   3.064 -1.9986 -2.9231  1.0218
 4416SOL     OW24709   4.703   4.665  10.528  0.2924  1.0052  0.0875
 4416SOL    HW124710   0.068   4.656  10.490  1.4588  1.1929  2.6807
 4416SOL    HW224711   4.706   4.601  10.599 -0.2818  1.6954  0.7442
 4417SOL     OW24712   1.475   1.322   5.642  0.1365  0.3261  0.5235
 4417SOL    HW124713   1.407   1.372   5.597 -0.5942 -0.9446  0.2332
 4417SOL    HW224714   1.532   1.391   5.676 -0.8167  0.7654  1.2530
 4418SOL     OW24715   4.046   0.195  10.597 -0.2456  0.3843 -0.0225
 4418SOL    HW124716   4.109   0.182  10.527  0.9061  0.5742  0.9698
 4418SOL    HW224717   4.104   0.226  10.667 -0.1210 -0.1709  0.1216
 4419SOL     OW24718   2.950   2.170   5.627 -0.3579  0.1432 -0.5763
 4419SOL    HW124719   3.035   2.130   5.609  0.8160  2.3870 -0.0854
 4419SOL    HW224720   2.902   2.087   5.627 -0.9868  0.5075 -0.7030
 4420SOL     OW24721   1.358   1.990   7.014 -0.4106  0.5213 -0.0879
 4420SOL    HW124722   1.372   2.050   7.087 -2.4836 -0.4588  1.1543
 4420SOL    HW224723   1.375   1.901   7.045  1.2630 -0.3226 -3.5400
 4421SOL     OW24724   2.647   3.680  10.832  0.1636 -0.4539  0.0054
 4421SOL    HW124725   2.617   3.613  10.894 -0.9852  1.0152  1.0364
 4421SOL    HW224726   2.669   3.627  10.755  0.6625  0.6630 -0.6094
 4422SOL     OW24727   2.893   1.384   7.819 -0.3811  0.6964 -0.0832
 4422SOL    HW124728   2.801   1.362   7.825 -0.4811  1.3598  1.0067
 4422SOL    HW224729   2.917   1.334   7.741  0.3343  0.3147  0.3792
 4423SOL     OW24730   2.896   3.306   8.560  0.1932  0.3286 -0.2479
 4423SOL    HW124731   2.824   3.355   8.600  0.1458 -1.3077  1.6948
 4423SOL    HW224732   2.913   3.360   8.483 -1.9553 -0.2842 -1.1568
 4424SOL     OW24733   0.905   0.945   4.674 -0.1747  0.2504 -0.5881
 4424SOL    HW124734   0.823   0.952   4.625 -0.7628  0.5231  0.4256
 4424SOL    HW224735   0.870   0.987   4.753 -0.9704  1.0650 -1.3814
 4425SOL     OW24736   0.036   2.835   1.468  0.1826 -0.0129  0.2952
 4425SOL    HW124737   0.094   2.827   1.392  0.0470 -0.0462  0.1955
 4425SOL    HW224738   0.060   2.922   1.500  0.4345 -0.6460  1.8118
 4426SOL     OW24739   4.118   2.718  12.597 -0.7399  0.5244  0.2440
 4426SOL    HW124740   4.187   2.655  12.576 -2.4646 -1.4902  0.5971
 4426SOL    HW224741   4.040   2.663  12.601 -1.2612  1.4487  2.9018
 4427SOL     OW24742   0.292   1.105  11.541 -0.1860 -0.3998 -0.1810
 4427SOL    HW124743   0.214   1.161  11.544 -1.0688 -1.5740 -1.5036
 4427SOL    HW224744   0.266   1.030  11.594  1.7479 -1.3700 -0.6339
 4428SOL     OW24745   4.586   3.124  16.903 -0.1387  0.0081  0.3368
 4428SOL    HW124746   4.504   3.076  16.915 -1.3420  1.4447 -2.1502
 4428SOL    HW224747   4.556   3.187  16.838 -1.2127 -0.2279  0.5997
 4429SOL     OW24748   3.034   2.980   5.192 -0.3518 -0.5454  0.2509
 4429SOL    HW124749   2.990   2.903   5.155  0.0885  0.4595 -2.3772
 4429SOL    HW224750   2.997   2.989   5.280  1.0481 -1.3839  0.9210
 4430SOL     OW24751   1.839   4.636   1.102 -0.2950  0.0691  0.6595
 4430SOL    HW124752   1.753   4.647   1.059  0.1336  0.3315 -0.1378
 4430SOL    HW224753   1.822   4.687   1.181 -0.7756 -0.7325  1.0714
 4431SOL     OW24754   2.234   3.340   4.607 -0.3050  0.7313  0.1156
 4431SOL    HW124755   2.145   3.357   4.637 -0.2679 -0.8986  1.1458
 4431SOL    HW224756   2.229   3.365   4.515 -2.3324 -1.7702 -0.4503
 4432SOL     OW24757   2.974   0.484   3.242 -0.2395 -0.0062  0.6401
 4432SOL    HW124758   2.908   0.554   3.240  1.5447  1.6930  0.4807
 4432SOL    HW224759   2.990   0.470   3.149 -0.2501  0.6458  0.5366
 4433SOL     OW24760   2.293   1.041   8.212 -0.0053  0.2439  0.0253
 4433SOL    HW124761   2.382   1.063   8.239  1.4929 -3.6514 -1.7407
 4433SOL    HW224762   2.312   1.005   8.125 -0.3877 -0.5715  0.2767
 4434SOL     OW24763   4.715   0.620   2.520 -0.1601  0.1571 -1.3391
 4434SOL    HW124764   4.690   0.664   2.439  0.4699  3.0043  0.0125
 4434SOL    HW224765   4.649   0.667   2.571 -0.4408 -1.2116 -0.4314
 4435SOL     OW24766   0.574   3.999   7.359 -0.8900 -0.0661 -0.0643
 4435SOL    HW124767   0.536   4.064   7.300  1.3538  1.6062  0.3210
 4435SOL    HW224768   0.502   3.959   7.408 -0.3624 -2.5116 -1.2749
 4436SOL     OW24769   3.601   1.248   3.033 -0.3943 -0.0186 -0.2895
 4436SOL    HW124770   3.673   1.298   2.994  1.3162 -0.6639  2.0439
 4436SOL    HW224771   3.569   1.196   2.959 -2.0054  2.3629 -1.2687
 4437SOL     OW24772   1.436   2.957   3.260 -0.6941  0.0545  0.4759
 4437SOL    HW124773   1.424   2.955   3.165 -0.2509  1.7044  0.3698
 4437SOL    HW224774   1.530   2.975   3.263 -0.5689 -0.3013 -1.3728
 4438SOL     OW24775   2.060   0.075   8.748  0.1452 -0.8370 -0.3838
 4438SOL    HW124776   2.139   0.022   8.742  0.7776  0.0186  0.2672
 4438SOL    HW224777   2.021   0.058   8.663  1.9640 -0.0458 -1.3686
 4439SOL     OW24778   4.424   2.371  16.904  0.4373 -0.2996 -0.7267
 4439SOL    HW124779   4.389   2.316  16.973 -0.2586  1.2622  0.1614
 4439SOL    HW224780   4.483   2.423  16.959 -0.3072  0.4762 -0.6703
 4440SOL     OW24781   2.393   2.334   6.136  0.3082  0.6159 -0.3842
 4440SOL    HW124782   2.471   2.387   6.154 -1.8003  2.4264  3.3104
 4440SOL    HW224783   2.324   2.387   6.176 -0.1097 -2.0643  2.4762
 4441SOL     OW24784   3.870   2.969   1.006  0.1624 -0.2196  0.6019
 4441SOL    HW124785   3.908   3.052   0.979  0.8219 -0.0454  2.0747
 4441SOL    HW224786   3.780   2.995   1.028  0.7254  2.8146 -0.6443
 4442SOL     OW24787   1.796   3.794   1.669  0.1116 -0.0209 -0.1472
 4442SOL    HW124788   1.799   3.848   1.591  0.0537 -0.0467 -0.1674
 4442SOL    HW224789   1.792   3.868   1.730 -1.1488  1.5382 -2.1235
 4443SOL     OW24790   2.163   3.371   3.628  0.0972 -0.0621 -0.3252
 4443SOL    HW124791   2.137   3.279   3.633  0.0610 -0.1712 -2.6068
 4443SOL    HW224792   2.084   3.398   3.581 -0.1073  0.6501  0.4365
 4444SOL     OW24793   0.747   1.605   3.560  0.1091 -0.4412  0.3480
 4444SOL    HW124794   0.702   1.673   3.610 -1.1202  0.5462 -2.1321
 4444SOL    HW224795   0.787   1.662   3.495  0.2363  0.4035  1.1613
 4445SOL     OW24796   3.641   3.920   6.666 -0.0180 -0.0182 -0.0865
 4445SOL    HW124797   3.547   3.936   6.679 -0.6115  0.5140 -5.3756
 4445SOL    HW224798   3.628   3.829   6.639 -1.0888 -0.0751  0.6019
 4446SOL     OW24799   2.837   3.603   4.613 -0.1028  0.1414  0.1366
 4446SOL    HW124800   2.885   3.553   4.547  0.7454  1.1314 -0.0038
 4446SOL    HW224801   2.899   3.674   4.630 -0.7917  0.4749  1.2123
 4447SOL     OW24802   3.132   3.654   4.970  0.1404  0.3906 -0.1070
 4447SOL    HW124803   3.143   3.580   4.910 -0.8592 -1.0475  1.4910
 4447SOL    HW224804   3.221   3.688   4.978 -0.3278  1.3635  0.9667
 4448SOL     OW24805   3.812   2.648   5.462 -0.4436  0.4009 -0.3900
 4448SOL    HW124806   3.817   2.553   5.475  0.5643  0.2154 -2.2095
 4448SOL    HW224807   3.860   2.678   5.540  0.7062  1.0625 -1.3499
 4449SOL     OW24808   2.622   1.848  11.781  0.1393 -0.2153 -0.1431
 4449SOL    HW124809   2.693   1.784  11.775 -0.4155 -0.8146 -0.3289
 4449SOL    HW224810   2.671   1.930  11.785 -0.2644  0.0374 -0.5315
 4450SOL     OW24811   0.683   0.222  15.004  0.5206 -0.7549  0.4485
 4450SOL    HW124812   0.724   0.155  14.949 -0.8593 -1.4365  0.2529
 4450SOL    HW224813   0.755   0.285  15.008  0.7532 -0.8272 -2.3884
 4451SOL     OW24814   1.588   4.140   1.741 -0.3016  0.1444 -0.3049
 4451SOL    HW124815   1.617   4.229   1.721 -1.8152  0.9198  0.8763
 4451SOL    HW224816   1.610   4.127   1.833 -2.4241 -1.5312 -0.0066
 4452SOL     OW24817   3.121   4.395  14.814 -0.0255  0.0172  0.1163
 4452SOL    HW124818   3.125   4.439  14.899  1.4535  0.2727 -0.0805
 4452SOL    HW224819   3.119   4.304  14.844  1.4895  0.0985  0.4560
 4453SOL     OW24820   0.968   3.507  13.570  0.2340  0.7130  0.3917
 4453SOL    HW124821   0.909   3.566  13.523  0.0143  2.0991  2.4101
 4453SOL    HW224822   1.002   3.551  13.648  2.3366 -2.9420  1.5420
 4454SOL     OW24823   1.752   0.242   2.378  0.3593  0.4210 -0.1774
 4454SOL    HW124824   1.743   0.147   2.378  0.4649  0.4218 -3.3344
 4454SOL    HW224825   1.844   0.245   2.352  0.3430 -0.4412 -0.3114
 4455SOL     OW24826   2.274   1.053   5.548 -0.2532  0.0491  0.1234
 4455SOL    HW124827   2.299   1.048   5.456  0.1998 -0.4290  0.2690
 4455SOL    HW224828   2.180   1.062   5.535 -0.0259  0.7157 -0.9806
 4456SOL     OW24829   0.030   3.076  15.114  0.2236 -0.0237 -0.3160
 4456SOL    HW124830   0.120   3.100  15.094 -0.2438  1.2486 -0.9233
 4456SOL    HW224831   0.028   2.988  15.077  1.3475  0.4124 -1.4057
 4457SOL     OW24832   1.320   3.992   5.785  0.2513  0.1846 -0.2440
 4457SOL    HW124833   1.340   3.920   5.845  1.7025  0.6614 -0.1700
 4457SOL    HW224834   1.260   3.940   5.731  0.0280 -1.8742  1.9448
 4458SOL     OW24835   4.143   1.255   6.274 -0.2291  0.7617 -0.5128
 4458SOL    HW124836   4.158   1.167   6.308  0.9281 -0.0410 -3.0859
 4458SOL    HW224837   4.097   1.299   6.345 -0.0463 -0.5262  0.4027
 4459SOL     OW24838   0.922   3.145  13.226 -0.0808 -0.0472 -0.2283
 4459SOL    HW124839   0.918   3.218  13.288 -0.7130 -1.2583  1.1513
 4459SOL    HW224840   0.921   3.072  13.288 -1.0654  1.9690  2.1610
 4460SOL     OW24841   2.722   2.903  11.726  0.6828 -0.1046  0.3890
 4460SOL    HW124842   2.734   2.809  11.715 -0.2530 -0.3842  1.7953
 4460SOL    HW224843   2.627   2.897  11.722  0.7424 -0.3234 -0.7747
 4461SOL     OW24844   2.326   1.470   9.988  0.2289 -0.3533  0.2093
 4461SOL    HW124845   2.344   1.516   9.906 -0.7661  1.6549  1.1248
 4461SOL    HW224846   2.403   1.498  10.038 -0.4692  0.6273  0.7239
 4462SOL     OW24847   0.018   0.388   5.602  0.2596 -0.0203 -0.1174
 4462SOL    HW124848   0.080   0.460   5.611  0.1363  0.3260 -2.1700
 4462SOL    HW224849   4.675   0.420   5.540 -0.9551  1.4644  1.9214
 4463SOL     OW24850   4.442   3.738  17.026 -0.2458 -0.0105  0.5930
 4463SOL    HW124851   4.477   3.819  16.988 -0.0455 -1.0909 -1.5860
 4463SOL    HW224852   4.513   3.718  17.086  0.4852  0.4885 -0.1019
 4464SOL     OW24853   0.729   2.040   5.180 -0.4551  0.0236  0.0847
 4464SOL    HW124854   0.750   1.952   5.149 -0.5394  0.3877 -1.0203
 4464SOL    HW224855   0.710   2.025   5.272 -1.2902  1.5257  0.1621
 4465SOL     OW24856   0.348   1.621   6.893 -0.5447  0.1778 -0.0384
 4465SOL    HW124857   0.380   1.596   6.980 -0.2503 -1.1652 -0.5183
 4465SOL    HW224858   0.268   1.659   6.929  0.5262  3.1878 -0.8128
 4466SOL     OW24859   0.911   0.106  12.310  0.0498  0.0034  0.2143
 4466SOL    HW124860   0.978   0.038  12.315 -1.3863 -1.1245  3.8378
 4466SOL    HW224861   0.923   0.137  12.220  1.5543 -0.8120  0.1349
 4467SOL     OW24862   0.917   0.920   2.102  0.8340  0.4919  0.0665
 4467SOL    HW124863   0.935   0.951   2.014  0.5471  1.1777  0.2490
 4467SOL    HW224864   0.907   0.825   2.094  0.7549  0.3642  1.5880
 4468SOL     OW24865   4.059   3.975  13.568 -0.2713 -0.5550 -0.4648
 4468SOL    HW124866   4.135   3.918  13.578 -0.0207  0.1830  1.7910
 4468SOL    HW224867   4.072   4.045  13.632 -0.1046 -0.2570 -0.8308
 4469SOL     OW24868   1.677   0.821   1.628 -0.1552  0.7457  0.4835
 4469SOL    HW124869   1.600   0.827   1.572  1.3714 -0.6401 -1.7598
 4469SOL    HW224870   1.647   0.804   1.718  1.9385 -1.7460  0.6901
 4470SOL     OW24871   2.258   2.662   3.253 -0.7459  0.0752 -0.3691
 4470SOL    HW124872   2.186   2.601   3.269  0.3758 -1.0801  0.2981
 4470SOL    HW224873   2.221   2.725   3.315  2.5203  0.7595  0.8742
 4471SOL     OW24874   2.794   3.592   5.671  0.2188  0.1085 -0.5031
 4471SOL    HW124875   2.762   3.657   5.734  1.1246  0.1981 -0.1252
 4471SOL    HW224876   2.740   3.516   5.692 -0.6853  0.6307 -0.9663
 4472SOL     OW24877   3.520   0.286  13.154  0.3595  0.4065  0.1168
 4472SOL    HW124878   3.509   0.205  13.204 -1.7704  0.4533 -0.2567
 4472SOL    HW224879   3.572   0.330  13.222  2.1803 -3.2529  1.0446
 4473SOL     OW24880   2.595   2.799   7.060  0.6987  0.0589 -0.0143
 4473SOL    HW124881   2.510   2.772   7.095  0.8802  2.7598  2.5499
 4473SOL    HW224882   2.657   2.738   7.100 -0.3639 -1.1970 -0.2827
 4474SOL     OW24883   4.529   4.081   5.748  0.6877  0.2670  0.0532
 4474SOL    HW124884   4.604   4.139   5.764  0.5909 -0.2185  2.3535
 4474SOL    HW224885   4.542   4.011   5.813  0.8506 -0.0575 -0.3320
 4475SOL     OW24886   4.597   3.626   3.825  0.3101 -0.0610  0.1543
 4475SOL    HW124887   4.662   3.560   3.799  1.5478  0.4678  1.9512
 4475SOL    HW224888   4.645   3.695   3.779  0.8907 -1.4743 -1.3538
 4476SOL     OW24889   0.839   4.388   7.568  0.1432 -0.4393  0.1807
 4476SOL    HW124890   0.759   4.423   7.607  0.6056  0.8470 -0.0173
 4476SOL    HW224891   0.813   4.297   7.553  1.0883 -0.6620 -0.1476
 4477SOL     OW24892   0.686   3.574   4.574 -0.1436  0.0218 -0.2183
 4477SOL    HW124893   0.683   3.630   4.496  0.8084  0.5030  0.0849
 4477SOL    HW224894   0.599   3.534   4.572  1.4207 -3.3854  0.0871
 4478SOL     OW24895   3.117   2.393  15.420 -0.3899  0.0652 -0.0081
 4478SOL    HW124896   3.165   2.447  15.357 -2.1445  1.5139 -0.0933
 4478SOL    HW224897   3.156   2.311  15.389  0.9815  0.5081  0.5425
 4479SOL     OW24898   3.616   1.598  16.969 -0.5252  0.1384  0.7647
 4479SOL    HW124899   3.670   1.670  16.937  2.5340 -2.3983  0.2422
 4479SOL    HW224900   3.642   1.523  16.916 -0.8875  0.0168  0.7580
 4480SOL     OW24901   4.057   0.070  15.662  1.0600  0.4336 -0.3970
 4480SOL    HW124902   4.046   0.147  15.607  2.5439  2.1166  1.6595
 4480SOL    HW224903   4.021   0.104  15.744  1.4522  1.4847 -0.6593
 4481SOL     OW24904   0.065   3.006  15.559 -0.3895  0.4049  0.3810
 4481SOL    HW124905   0.019   3.075  15.513 -2.0864 -2.4091 -2.1090
 4481SOL    HW224906   0.014   2.933  15.524 -1.6747  1.1769  0.6492
 4482SOL     OW24907   2.235   1.309   8.940 -0.5621 -0.5226  0.2854
 4482SOL    HW124908   2.298   1.366   8.985 -2.0581  2.1252 -0.9744
 4482SOL    HW224909   2.287   1.231   8.920 -0.8299 -0.9448  1.2406
 4483SOL     OW24910   2.622   0.189   8.451 -0.0093  0.0251 -0.1015
 4483SOL    HW124911   2.611   0.119   8.515  0.4593  0.6432  0.6434
 4483SOL    HW224912   2.717   0.183   8.442 -0.0364  0.5322 -0.6899
 4484SOL     OW24913   0.592   1.556   5.607  0.0627 -0.0856 -0.8600
 4484SOL    HW124914   0.567   1.499   5.680 -2.0776  4.0943  1.6285
 4484SOL    HW224915   0.600   1.636   5.659 -2.1034 -0.1364 -0.4335
 4485SOL     OW24916   1.557   3.384   8.543 -0.2332 -0.0934  0.5421
 4485SOL    HW124917   1.529   3.404   8.633  0.0529  1.6237  0.2549
 4485SOL    HW224918   1.648   3.366   8.567  0.2879 -0.1740 -1.5046
 4486SOL     OW24919   2.918   1.739   5.412 -0.3586  0.2485 -0.1152
 4486SOL    HW124920   2.890   1.687   5.337 -1.8798  1.2963 -0.2596
 4486SOL    HW224921   2.866   1.700   5.482 -0.5070  1.9879  0.7481
 4487SOL     OW24922   3.531   1.361   9.535  0.3414  0.6437 -0.0029
 4487SOL    HW124923   3.471   1.435   9.542 -1.3674 -0.7514  0.0841
 4487SOL    HW224924   3.473   1.287   9.554  1.4650 -0.0300  0.7972
 4488SOL     OW24925   0.568   2.710  10.185 -0.1677 -0.3549 -0.3673
 4488SOL    HW124926   0.545   2.620  10.160 -0.0708 -0.3922 -0.3238
 4488SOL    HW224927   0.587   2.746  10.098  1.9608  4.9314  2.2772
 4489SOL     OW24928   0.171   1.159   7.352  0.2246 -0.0779  0.0057
 4489SOL    HW124929   0.264   1.182   7.352  0.3385 -0.6026 -1.7844
 4489SOL    HW224930   0.151   1.132   7.263  2.0369  0.7967 -0.6587
 4490SOL     OW24931   0.779   1.789   5.050  0.4829  0.8447 -0.0931
 4490SOL    HW124932   0.837   1.799   4.974  1.3210 -1.5224  0.2547
 4490SOL    HW224933   0.782   1.695   5.065  3.5521  0.5811 -2.2182
 4491SOL     OW24934   3.188   2.070   5.522  0.3505  0.0410 -0.4028
 4491SOL    HW124935   3.145   2.026   5.448 -1.1734  0.9355 -0.0613
 4491SOL    HW224936   3.278   2.079   5.493  0.8825 -0.1292  1.2171
 4492SOL     OW24937   2.042   1.437   2.908 -0.0939  0.4345  0.3909
 4492SOL    HW124938   2.059   1.356   2.955  3.0107  0.6682 -0.2885
 4492SOL    HW224939   2.117   1.442   2.848 -0.8849 -0.3068 -0.6493
 4493SOL     OW24940   1.550   2.657   4.603 -0.2592 -0.1544  0.2131
 4493SOL    HW124941   1.573   2.676   4.512 -0.0587 -0.9120  0.1105
 4493SOL    HW224942   1.488   2.584   4.599 -0.0794 -0.2415 -1.0021
 4494SOL     OW24943   1.778   2.594   4.991  0.7678  0.1199 -0.0021
 4494SOL    HW124944   1.698   2.546   4.969  1.0566  0.1082 -0.9963
 4494SOL    HW224945   1.819   2.612   4.907  0.4070  1.5089  0.1206
 4495SOL     OW24946   0.239   4.474   7.868  0.6382 -0.1486  0.3844
 4495SOL    HW124947   0.330   4.452   7.889  0.4208 -0.0409  1.4634
 4495SOL    HW224948   0.215   4.387   7.836  0.2364 -0.4773  1.5925
 4496SOL     OW24949   1.716   0.019   3.792  0.2028  0.3526 -0.4076
 4496SOL    HW124950   1.723   0.113   3.778 -0.4797  0.4829  0.1061
 4496SOL    HW224951   1.657   0.006   3.867 -2.5188  0.1874 -2.5524
 4497SOL     OW24952   2.293   1.341  14.926 -1.0444 -0.0450 -0.1449
 4497SOL    HW124953   2.236   1.286  14.872  1.1808 -4.4386  1.9349
 4497SOL    HW224954   2.280   1.279  14.998 -0.9701  0.3413  0.1986
 4498SOL     OW24955   2.402   1.877  16.878  0.1940  0.8039 -0.1089
 4498SOL    HW124956   2.364   1.863  16.792 -0.4113 -0.6407  0.3921
 4498SOL    HW224957   2.490   1.846  16.857  0.0495 -1.2824  2.2822
 4499SOL     OW24958   3.748   4.661   0.400 -0.3943  0.3484  0.0615
 4499SOL    HW124959   3.799   4.721   0.345 -1.7920 -0.0195 -1.6411
 4499SOL    HW224960   3.684   4.653   0.330  0.1459  0.4986 -0.4481
 4500SOL     OW24961   1.540   0.819  15.135 -0.2905 -0.0848 -0.1510
 4500SOL    HW124962   1.548   0.798  15.041  3.2162 -2.0017  0.5621
 4500SOL    HW224963   1.610   0.767  15.173 -1.5357 -0.8725  1.0205
 4501SOL     OW24964   4.453   1.928   4.615  0.8039  0.2283 -0.5982
 4501SOL    HW124965   4.364   1.892   4.610  1.2801 -0.8430 -1.4441
 4501SOL    HW224966   4.461   1.959   4.525 -0.2436  1.8011 -0.1545
 4502SOL     OW24967   0.894   4.048   3.918  0.3245  0.2917 -0.4961
 4502SOL    HW124968   0.844   4.107   3.861  3.7966  1.2798 -2.5335
 4502SOL    HW224969   0.970   4.104   3.932 -0.9387  2.0426 -0.6176
 4503SOL     OW24970   4.077   4.586   5.141  0.1635  0.0593 -0.4553
 4503SOL    HW124971   4.055   4.611   5.231  0.3051  1.5300 -0.8332
 4503SOL    HW224972   4.169   4.611   5.145  0.0974  0.4604 -1.6855
 4504SOL     OW24973   0.547   3.574   3.916 -0.4257 -0.2472  0.2457
 4504SOL    HW124974   0.560   3.632   3.840  2.5572 -0.3614  0.6894
 4504SOL    HW224975   0.489   3.511   3.874 -1.2571  0.5348  0.2085
 4505SOL     OW24976   3.604   4.518   2.800 -0.0183  0.4862 -0.5762
 4505SOL    HW124977   3.558   4.485   2.877 -2.4674  1.7213 -1.4911
 4505SOL    HW224978   3.669   4.451   2.779 -0.6050  0.3524 -1.9602
 4506SOL     OW24979   4.068   2.311  13.105 -0.7300  0.6279  0.0030
 4506SOL    HW124980   4.006   2.376  13.072  0.0316  1.0143 -0.6573
 4506SOL    HW224981   4.140   2.313  13.042  0.1628  1.3723  1.0584
 4507SOL     OW24982   1.740   0.055   7.784  0.3502  0.0910 -0.3923
 4507SOL    HW124983   1.645   0.069   7.784  0.6769  2.2882  0.1957
 4507SOL    HW224984   1.770   0.145   7.776 -0.9435  0.3002 -3.0160
 4508SOL     OW24985   2.535   0.115  14.654  0.1794  0.2104  0.4432
 4508SOL    HW124986   2.487   0.134  14.735  0.1762 -1.2337  0.7781
 4508SOL    HW224987   2.622   0.105  14.693 -0.2515  1.9371  1.8605
 4509SOL     OW24988   2.116   1.540   6.922 -0.1420 -0.4879  0.2006
 4509SOL    HW124989   2.114   1.636   6.928  0.8520 -0.5115  0.9097
 4509SOL    HW224990   2.159   1.513   7.003 -0.8024 -0.2422  0.6417
 4510SOL     OW24991   2.086   2.937  13.668 -0.9364 -0.0266 -0.3824
 4510SOL    HW124992   2.177   2.942  13.639  0.1542  0.2510  2.9983
 4510SOL    HW224993   2.086   2.913  13.761 -0.4651  0.8223 -0.1569
 4511SOL     OW24994   4.454   1.676   2.956  0.1442 -0.5569  0.0424
 4511SOL    HW124995   4.383   1.612   2.966  0.6554 -1.0868  0.2290
 4511SOL    HW224996   4.422   1.752   3.006 -0.2256 -1.6735  1.5014
 4512SOL     OW24997   0.588   3.648   1.266 -0.1796  0.3972 -0.0386
 4512SOL    HW124998   0.574   3.692   1.182 -0.4718 -1.5199 -0.9804
 4512SOL    HW224999   0.668   3.698   1.282 -0.9646  1.8622 -0.6846
 4513SOL     OW25000   4.580   2.288  12.914  0.1468 -0.3208  0.2727
 4513SOL    HW125001   4.491   2.291  12.950  0.3994 -0.5898  0.9084
 4513SOL    HW225002   4.596   2.194  12.907 -0.1480 -0.4865  2.0170
 4514SOL     OW25003   3.915   3.659   6.048  0.0223 -0.5712  0.2540
 4514SOL    HW125004   3.820   3.667   6.058  0.0630  0.0048  0.2187
 4514SOL    HW225005   3.934   3.717   5.974 -1.6359  0.9344  1.0189
 4515SOL     OW25006   3.968   3.366  10.766  0.1136 -0.1886  0.0062
 4515SOL    HW125007   3.890   3.420  10.777 -0.6650 -1.5592  1.3073
 4515SOL    HW225008   3.926   3.280  10.769 -1.5490  0.6111 -0.2765
 4516SOL     OW25009   0.821   3.155   9.213 -0.1584 -0.2886 -0.6889
 4516SOL    HW125010   0.824   3.118   9.124  2.7803 -0.4432 -0.5427
 4516SOL    HW225011   0.727   3.145   9.226  0.1912  0.4996  2.4155
 4517SOL     OW25012   1.989   2.443   4.059 -0.1243  0.4250 -0.3000
 4517SOL    HW125013   2.037   2.523   4.082  1.2821  0.2402 -2.5801
 4517SOL    HW225014   1.896   2.466   4.051 -0.3974 -0.7749 -0.5331
 4518SOL     OW25015   1.092   3.595   3.136 -0.5141 -0.1609  0.0570
 4518SOL    HW125016   1.175   3.607   3.182 -0.6118 -1.7887  0.6625
 4518SOL    HW225017   1.109   3.613   3.044 -0.3763 -0.2795  0.0592
 4519SOL     OW25018   4.422   4.313   0.941  0.2084 -0.2821  0.4948
 4519SOL    HW125019   4.463   4.365   0.872  0.3544 -0.1617  0.6717
 4519SOL    HW225020   4.328   4.316   0.923  0.2485 -0.9862  0.1775
 4520SOL     OW25021   3.475   1.389   8.862  0.0793  0.4357  0.7190
 4520SOL    HW125022   3.508   1.307   8.897 -0.4061 -0.6151 -1.2358
 4520SOL    HW225023   3.525   1.378   8.781 -0.8598 -2.6086  0.5379
 4521SOL     OW25024   2.263   2.505  12.223 -0.1421 -0.5324  0.2829
 4521SOL    HW125025   2.268   2.461  12.138 -0.3197  0.2494 -0.1300
 4521SOL    HW225026   2.342   2.559  12.224  0.4528 -1.3883 -0.5369
 4522SOL     OW25027   0.771   4.493   8.077  0.2261  0.5873  0.2273
 4522SOL    HW125028   0.819   4.409   8.075  0.6007  0.8584 -1.5285
 4522SOL    HW225029   0.730   4.493   8.164 -1.4050 -2.6226 -0.5329
 4523SOL     OW25030   4.458   2.003   9.326 -0.3908 -0.2918 -0.0776
 4523SOL    HW125031   4.388   2.033   9.269 -0.7075 -0.6262  0.1371
 4523SOL    HW225032   4.465   1.914   9.292 -0.0631  1.5304 -4.6922
 4524SOL     OW25033   2.995   4.251   5.289  0.0881  0.1973  0.4616
 4524SOL    HW125034   2.925   4.189   5.307 -1.2009  1.1674 -1.1448
 4524SOL    HW225035   3.045   4.233   5.368  1.5282  0.8250 -0.3043
 4525SOL     OW25036   3.802   0.037  15.849  0.4355 -0.0007  0.0886
 4525SOL    HW125037   3.757   0.021  15.766  1.7194 -3.3454  0.0601
 4525SOL    HW225038   3.774   4.679  15.895 -1.3542  0.8952  0.5415
 4526SOL     OW25039   1.416   0.601   7.942 -0.1485  0.6469  0.0748
 4526SOL    HW125040   1.350   0.539   7.913  0.4988  0.3125 -0.7053
 4526SOL    HW225041   1.445   0.645   7.862 -1.0308 -0.4805 -0.8461
 4527SOL     OW25042   2.431   3.738  15.147  0.5105 -0.3025  0.8811
 4527SOL    HW125043   2.340   3.765  15.147  0.8425  0.8144  0.5920
 4527SOL    HW225044   2.426   3.659  15.094 -1.5192  1.4234 -1.5073
 4528SOL     OW25045   0.939   3.400  12.535  0.0882  0.4590 -0.1113
 4528SOL    HW125046   0.912   3.359  12.617  1.1203 -0.3540 -0.1808
 4528SOL    HW225047   1.007   3.340  12.504  0.4020  0.1854  1.1252
 4529SOL     OW25048   2.710   3.065   4.096  0.4756 -0.3116  0.5726
 4529SOL    HW125049   2.792   3.016   4.090  0.6728  0.3661 -2.1766
 4529SOL    HW225050   2.700   3.080   4.190 -2.9307  1.5614 -0.0650
 4530SOL     OW25051   3.634   2.137  16.600 -0.8967  0.5799  0.0888
 4530SOL    HW125052   3.721   2.128  16.639 -0.3703  0.5446 -1.1021
 4530SOL    HW225053   3.643   2.107  16.510 -1.8521  3.7300 -1.0492
 4531SOL     OW25054   2.574   4.097   3.041 -0.7258 -0.3549  0.3100
 4531SOL    HW125055   2.569   4.015   3.089  0.6646 -0.3753  0.4226
 4531SOL    HW225056   2.586   4.070   2.951  1.5915  1.7517 -0.0049
 4532SOL     OW25057   3.745   0.281   0.058  0.5301 -0.0285  0.0575
 4532SOL    HW125058   3.686   0.212   0.028  0.3280  0.0198  0.3379
 4532SOL    HW225059   3.683   0.348   0.090 -0.3578 -0.7003 -0.2718
 4533SOL     OW25060   3.805   4.311   8.582 -0.1991 -0.2302  0.0822
 4533SOL    HW125061   3.734   4.277   8.527  0.7918  0.7537 -1.8336
 4533SOL    HW225062   3.765   4.382   8.633 -3.0353 -1.4119 -0.4863
 4534SOL     OW25063   0.936   3.204   3.510 -0.3061 -0.1336  0.0834
 4534SOL    HW125064   0.986   3.183   3.589 -0.1889  3.4404  0.9559
 4534SOL    HW225065   0.926   3.298   3.522  1.2233  0.0912 -0.3897
 4535SOL     OW25066   0.302   2.608   8.363  0.0942  0.4140  0.2868
 4535SOL    HW125067   0.372   2.543   8.363 -0.9970 -0.7675 -0.0473
 4535SOL    HW225068   0.223   2.563   8.393  0.7152 -0.8859 -0.0065
 4536SOL     OW25069   3.255   3.569   5.688  0.1334 -0.1490  0.2936
 4536SOL    HW125070   3.251   3.631   5.616  1.4548 -0.0505  0.3151
 4536SOL    HW225071   3.169   3.579   5.731  0.0422 -1.0968  0.3415
 4537SOL     OW25072   3.436   2.488  15.806 -0.0691  0.0811 -0.0688
 4537SOL    HW125073   3.426   2.529  15.892  1.4781 -1.1933  0.7284
 4537SOL    HW225074   3.362   2.521  15.757  0.3636  2.1588  0.6896
 4538SOL     OW25075   3.190   4.652   7.381  0.0399  0.2110  0.0037
 4538SOL    HW125076   3.105   4.636   7.420  0.2279 -0.0989  0.2901
 4538SOL    HW225077   3.224   0.006   7.430  0.2054  0.5517 -0.6371
 4539SOL     OW25078   0.917   4.555  12.213 -0.3730 -0.0093  0.4837
 4539SOL    HW125079   0.886   4.586  12.128 -1.3786  0.0284  0.8634
 4539SOL    HW225080   1.004   4.594  12.213 -1.0388  1.4690  0.8273
 4540SOL     OW25081   1.499   0.077   4.212  0.0044  0.1944 -0.3072
 4540SOL    HW125082   1.466   0.151   4.162 -1.1030 -0.4002 -0.4565
 4540SOL    HW225083   1.528   0.028   4.135  0.9012 -1.2808  0.9537
 4541SOL     OW25084   1.157   0.749  16.578  0.1535 -0.3371  0.1021
 4541SOL    HW125085   1.248   0.779  16.570 -0.2185  0.7642  0.0408
 4541SOL    HW225086   1.123   0.832  16.611 -0.0494 -0.4761  0.2404
 4542SOL     OW25087   4.487   2.129  13.249 -0.2425  0.4075 -0.3818
 4542SOL    HW125088   4.574   2.094  13.231 -0.3693 -0.8618  1.3933
 4542SOL    HW225089   4.486   2.127  13.345  1.8358 -1.2143 -0.3816
 4543SOL     OW25090   4.226   1.999   4.426  0.2709 -0.1370 -0.3161
 4543SOL    HW125091   4.265   1.915   4.401  1.3050 -0.0052  0.8535
 4543SOL    HW225092   4.197   2.032   4.341  1.3656 -1.3173 -1.1588
 4544SOL     OW25093   0.004   0.082   4.193  0.2980 -0.2931 -0.3253
 4544SOL    HW125094   0.070   0.016   4.212  0.0791 -0.1905  0.7843
 4544SOL    HW225095   0.004   0.131   4.276  0.4656  0.5538 -0.8191
 4545SOL     OW25096   3.993   2.037   3.867  0.8281  0.3154 -0.3654
 4545SOL    HW125097   3.960   1.950   3.845  2.7133 -0.8802  1.5867
 4545SOL    HW225098   3.910   2.084   3.853  1.1565  1.0312  0.1132
 4546SOL     OW25099   3.173   4.240  12.401  0.0507  0.0004  0.0658
 4546SOL    HW125100   3.244   4.301  12.383  0.1609  0.1940  1.1822
 4546SOL    HW225101   3.208   4.216  12.487  0.2356  0.2261  0.0538
 4547SOL     OW25102   2.329   2.337   6.903  0.4105  0.4370 -0.0075
 4547SOL    HW125103   2.368   2.322   6.989 -0.3429 -0.3465  0.1959
 4547SOL    HW225104   2.257   2.274   6.903 -0.8015  1.7977  1.3211
 4548SOL     OW25105   3.478   2.837  11.528 -0.5538 -0.1714  0.2026
 4548SOL    HW125106   3.489   2.852  11.434  0.3367  1.3629  0.5528
 4548SOL    HW225107   3.484   2.926  11.563  1.7766 -1.1878  2.3658
 4549SOL     OW25108   0.709   2.914   4.897  0.1217 -0.2556  0.1293
 4549SOL    HW125109   0.680   2.987   4.952  1.2031 -1.0209  1.7204
 4549SOL    HW225110   0.656   2.846   4.939  1.2032 -0.6922  0.8177
 4550SOL     OW25111   0.260   1.307   4.287  0.5513  0.5810 -0.1624
 4550SOL    HW125112   0.186   1.323   4.346  0.4683 -0.6751  0.0713
 4550SOL    HW225113   0.332   1.359   4.323  0.7739 -0.8871  1.5174
 4551SOL     OW25114   2.635   1.544   1.913 -0.1295  0.3797 -0.1059
 4551SOL    HW125115   2.637   1.562   2.007 -1.1316  0.3856 -0.0909
 4551SOL    HW225116   2.676   1.458   1.913 -3.4757 -1.2115  0.5780
 4552SOL     OW25117   4.315   1.626  13.777 -0.2916  0.0137 -0.4937
 4552SOL    HW125118   4.296   1.533  13.769  1.8724 -0.5732  1.3181
 4552SOL    HW225119   4.285   1.632  13.868 -0.2520  1.2007 -0.5574
 4553SOL     OW25120   0.609   1.838   6.306  0.2897 -0.2195  0.1184
 4553SOL    HW125121   0.690   1.795   6.335 -1.1305 -1.9452  1.4898
 4553SOL    HW225122   0.551   1.777   6.351  1.5007 -2.2015 -1.0376
 4554SOL     OW25123   0.207   2.465   2.182 -0.3762  0.3867 -0.0284
 4554SOL    HW125124   0.155   2.386   2.167 -0.6185  0.3853  0.8092
 4554SOL    HW225125   0.260   2.448   2.104 -1.2651  1.6006 -0.8871
 4555SOL     OW25126   0.978   0.054   5.162  0.1255  0.0142  0.1623
 4555SOL    HW125127   1.036   0.084   5.092  0.7524 -0.6389  0.4076
 4555SOL    HW225128   1.033   4.717   5.212 -1.6806 -1.2576  0.6678
 4556SOL     OW25129   3.731   1.491  10.843  0.1570 -0.2896  0.1608
 4556SOL    HW125130   3.775   1.562  10.890  0.2413 -0.4518  0.3268
 4556SOL    HW225131   3.782   1.411  10.857  0.8713 -0.1021 -1.2760
 4557SOL     OW25132   4.684   4.047   9.630 -0.3948  0.0461 -0.6541
 4557SOL    HW125133   4.643   4.127   9.663 -0.7537 -0.2003 -0.5005
 4557SOL    HW225134   0.043   4.077   9.589  0.8797 -1.5341  0.6911
 4558SOL     OW25135   4.511   2.848  13.509  0.1948  0.3489  0.0412
 4558SOL    HW125136   4.544   2.921  13.562 -1.2716  0.7420  0.3928
 4558SOL    HW225137   4.589   2.794  13.496 -1.5157 -1.9931 -0.3470
 4559SOL     OW25138   1.203   1.088   1.116  0.3877 -0.4423 -0.4187
 4559SOL    HW125139   1.156   1.062   1.036 -2.1723 -0.2236  1.0174
 4559SOL    HW225140   1.156   1.171   1.126  0.6041 -0.4759  0.8064
 4560SOL     OW25141   2.072   1.698  13.643 -0.6442  0.6372 -0.4186
 4560SOL    HW125142   2.012   1.743  13.583 -1.1911  1.9668  1.1300
 4560SOL    HW225143   2.010   1.640  13.687  1.3769  0.0331  1.6245
 4561SOL     OW25144   3.307   3.175   0.630 -0.2300  0.2908  0.3243
 4561SOL    HW125145   3.250   3.226   0.687  0.3704  0.8002  0.4744
 4561SOL    HW225146   3.278   3.212   0.547  1.9618  2.9133  0.7139
 4562SOL     OW25147   0.522   4.599   5.619  0.0459  0.2559  0.1645
 4562SOL    HW125148   0.610   4.563   5.605 -0.1319  0.4343 -1.4758
 4562SOL    HW225149   0.516   4.669   5.554 -1.4845  0.7224  0.8224
 4563SOL     OW25150   2.811   1.623   9.012 -0.1388  0.0198  0.9046
 4563SOL    HW125151   2.846   1.576   8.936 -1.3217  0.2752  0.1979
 4563SOL    HW225152   2.869   1.699   9.014  0.1307 -0.1645 -0.0900
 4564SOL     OW25153   4.650   3.626   8.987  0.8186  0.4067  0.4136
 4564SOL    HW125154   4.591   3.597   9.057  2.7234 -1.8207  1.0785
 4564SOL    HW225155   4.619   3.717   8.989  0.8040  0.3654  2.4309
 4565SOL     OW25156   2.520   1.646   4.023 -0.6460  0.0333 -0.5645
 4565SOL    HW125157   2.480   1.728   3.993 -3.4842 -0.6934  1.2576
 4565SOL    HW225158   2.509   1.587   3.948  1.0241 -2.3029  1.0251
 4566SOL     OW25159   3.281   4.569   0.838 -0.2581 -0.3062  0.1345
 4566SOL    HW125160   3.327   4.590   0.919 -0.7150 -1.0807  0.5964
 4566SOL    HW225161   3.286   4.656   0.798  1.0221 -0.0340  0.9021
 4567SOL     OW25162   4.025   0.049   6.899 -0.1105  0.7398 -0.3777
 4567SOL    HW125163   4.118   0.030   6.912 -0.2516 -0.2814 -0.8782
 4567SOL    HW225164   4.029   4.719   6.819  3.5505 -0.4077  0.5309
 4568SOL     OW25165   4.562   3.457   5.412 -0.6641 -0.0662  0.2016
 4568SOL    HW125166   4.519   3.479   5.330  0.0887 -2.8789 -0.9493
 4568SOL    HW225167   4.519   3.512   5.478 -1.7373  1.5314 -1.8424
 4569SOL     OW25168   1.736   3.266   4.628  0.4497  0.0485  0.3341
 4569SOL    HW125169   1.650   3.226   4.624  0.5124 -0.1779  1.3682
 4569SOL    HW225170   1.767   3.231   4.544 -3.0165 -1.0622 -0.4581
 4570SOL     OW25171   2.826   4.062   8.931 -0.1123 -0.6602  0.5154
 4570SOL    HW125172   2.879   4.133   8.895 -0.0308 -1.3505 -0.7289
 4570SOL    HW225173   2.798   4.015   8.853  0.2848 -0.4311  0.2337
 4571SOL     OW25174   3.221   3.141   8.824 -0.0857 -0.0475  0.0677
 4571SOL    HW125175   3.210   3.222   8.774  0.1489  0.2185  0.4423
 4571SOL    HW225176   3.264   3.171   8.904  0.3445 -1.0715  0.2130
 4572SOL     OW25177   4.474   0.727   9.534  0.1159 -0.0537 -0.3245
 4572SOL    HW125178   4.512   0.814   9.545  1.3440 -0.5416 -0.5964
 4572SOL    HW225179   4.454   0.704   9.624  1.0948  0.8075  0.1171
 4573SOL     OW25180   1.855   1.046   3.614  0.1817  0.1215 -0.2372
 4573SOL    HW125181   1.929   1.072   3.669  0.1587  0.4311 -0.3542
 4573SOL    HW225182   1.866   0.952   3.597  2.2710  0.3200 -0.0140
 4574SOL     OW25183   0.537   1.878   9.472 -0.0229  0.1146  0.0212
 4574SOL    HW125184   0.528   1.786   9.493 -2.8990  0.4736  0.3860
 4574SOL    HW225185   0.550   1.872   9.377 -1.7224  0.8392 -0.2695
 4575SOL     OW25186   1.522   1.319   4.501  0.4097  0.1143  0.2541
 4575SOL    HW125187   1.543   1.411   4.516  0.1181  0.2469 -0.1327
 4575SOL    HW225188   1.427   1.310   4.513  0.4478 -0.3839  0.1967
 4576SOL     OW25189   2.944   2.254  17.671  0.3851  0.6509  0.3069
 4576SOL    HW125190   3.027   2.287  17.637  0.7613  0.4013  0.9706
 4576SOL    HW225191   2.982   2.187   0.038  1.4966 -0.5297 -1.8322
 4577SOL     OW25192   3.110   3.975   2.509 -0.3584 -0.8548 -0.3194
 4577SOL    HW125193   3.191   3.957   2.461  1.1559  0.4440  1.7545
 4577SOL    HW225194   3.048   3.965   2.437 -0.0840  1.7257 -0.9217
 4578SOL     OW25195   3.971   1.596   3.509  0.0774 -0.3377 -0.0307
 4578SOL    HW125196   3.894   1.583   3.455  0.6625  0.5550 -1.0695
 4578SOL    HW225197   4.019   1.665   3.463 -2.3112  0.8271 -0.8084
 4579SOL     OW25198   3.008   2.721   2.671 -0.3232  0.1217  0.1830
 4579SOL    HW125199   2.958   2.801   2.658 -0.7484 -0.6361 -2.8749
 4579SOL    HW225200   3.025   2.730   2.765  1.4495 -1.3325  0.0111
 4580SOL     OW25201   2.575   1.955   9.305  0.2074 -0.2217 -0.1070
 4580SOL    HW125202   2.542   1.906   9.380 -2.0989 -2.1942 -2.4023
 4580SOL    HW225203   2.579   1.897   9.228  0.1975  0.9899 -1.0180
 4581SOL     OW25204   1.434   1.814  15.876 -0.3820  0.2813  0.3173
 4581SOL    HW125205   1.515   1.787  15.833  0.3426  2.0448  0.5765
 4581SOL    HW225206   1.414   1.737  15.929 -1.3375  1.1320  1.2121
 4582SOL     OW25207   2.335   3.241   8.283  0.3807 -0.0796 -0.3623
 4582SOL    HW125208   2.244   3.212   8.288 -0.2111  1.5807 -1.2569
 4582SOL    HW225209   2.334   3.282   8.369 -0.2649  2.2474 -1.4689
 4583SOL     OW25210   2.227   0.151   5.071  0.3196  0.3862 -0.3299
 4583SOL    HW125211   2.157   0.214   5.087  1.2415  0.9318  1.5774
 4583SOL    HW225212   2.297   0.214   5.055  1.1515  0.0911  2.1104
 4584SOL     OW25213   0.066   2.496   8.468  0.6981 -0.2562  0.5500
 4584SOL    HW125214   4.702   2.508   8.509  0.1971 -2.3208  0.0840
 4584SOL    HW225215   0.104   2.426   8.521  2.5257  0.0529 -0.3383
 4585SOL     OW25216   3.337   2.813   4.427  0.2091 -0.0169  0.1031
 4585SOL    HW125217   3.373   2.726   4.445 -1.2312 -0.4731  0.7422
 4585SOL    HW225218   3.284   2.825   4.506 -1.1302 -1.1606 -0.6170
 4586SOL     OW25219   0.682   0.764   3.521 -0.0813 -0.1836  0.4142
 4586SOL    HW125220   0.622   0.829   3.485 -0.8042 -1.1647 -0.1609
 4586SOL    HW225221   0.628   0.710   3.579  0.8278 -2.2184 -0.6468
 4587SOL     OW25222   1.841   1.217   3.382 -0.0371 -0.2339 -0.1433
 4587SOL    HW125223   1.764   1.201   3.328 -0.4523  2.4186 -0.3635
 4587SOL    HW225224   1.853   1.133   3.427 -1.3353 -0.1262  0.4232
 4588SOL     OW25225   0.767   4.402   2.782  0.1560  0.3417  0.0063
 4588SOL    HW125226   0.746   4.479   2.835  2.5887  0.5407  0.6515
 4588SOL    HW225227   0.686   4.388   2.732  0.5320 -1.0763 -0.2024
 4589SOL     OW25228   2.292   0.116   2.360 -0.0691 -0.0793  0.0315
 4589SOL    HW125229   2.321   0.113   2.451  0.2674 -0.7930 -0.1014
 4589SOL    HW225230   2.240   0.035   2.353  0.0716 -0.0730 -1.1213
 4590SOL     OW25231   3.796   1.632  12.649  0.0743  0.4880  0.0687
 4590SOL    HW125232   3.771   1.587  12.568 -1.7226 -2.3997  2.2232
 4590SOL    HW225233   3.788   1.555  12.706 -0.1106  0.3601 -0.1300
 4591SOL     OW25234   0.675   2.601   2.903  0.3743 -0.0215  0.2702
 4591SOL    HW125235   0.758   2.587   2.948 -1.3272 -1.6112  2.8895
 4591SOL    HW225236   0.654   2.508   2.900 -0.6805  0.2140  0.4191
 4592SOL     OW25237   2.567   2.527   5.815  0.0992 -0.6860 -0.3961
 4592SOL    HW125238   2.524   2.612   5.815  0.4369 -0.5211 -3.2266
 4592SOL    HW225239   2.641   2.547   5.872 -0.3201 -1.4705  0.4242
 4593SOL     OW25240   2.654   1.793  13.534  0.2810  0.4652 -0.1982
 4593SOL    HW125241   2.712   1.816  13.606  1.0146  0.0187 -0.6401
 4593SOL    HW225242   2.619   1.714  13.575  1.0406  1.6682  2.7218
 4594SOL     OW25243   1.258   1.785   8.822  0.3744 -0.7401 -0.7729
 4594SOL    HW125244   1.237   1.692   8.815 -0.5713 -0.6031  0.3275
 4594SOL    HW225245   1.347   1.788   8.859  0.0396  0.0736 -0.0491
 4595SOL     OW25246   3.050   1.534   0.146  0.5238  0.2681 -0.5314
 4595SOL    HW125247   3.138   1.551   0.113  0.5509  1.6671  0.2831
 4595SOL    HW225248   2.988   1.572   0.084 -0.9682  0.1123  0.8530
 4596SOL     OW25249   3.417   0.750   4.233  0.0824 -0.1730  0.4963
 4596SOL    HW125250   3.356   0.695   4.185  0.8774  0.0531 -0.7693
 4596SOL    HW225251   3.361   0.787   4.302  1.1189  1.0489  0.6839
 4597SOL     OW25252   1.843   4.649   4.178 -0.3890 -0.7502 -0.4060
 4597SOL    HW125253   1.851   4.626   4.270  0.5970  0.3668 -0.2126
 4597SOL    HW225254   1.896   0.002   4.152 -1.4759 -0.4811 -1.8747
 4598SOL     OW25255   1.612   3.565   7.273  0.9013 -0.6249 -0.2063
 4598SOL    HW125256   1.664   3.503   7.323  1.6930  1.1109  1.1342
 4598SOL    HW225257   1.663   3.542   7.196  0.9932 -0.0360 -0.3217
 4599SOL     OW25258   0.333   4.247   3.410  0.1362 -0.4381  0.1392
 4599SOL    HW125259   0.382   4.322   3.378 -0.8921  0.6570  1.1068
 4599SOL    HW225260   0.245   4.285   3.414  0.3138 -0.2184  1.7888
 4600SOL     OW25261   3.993   1.472   5.329  0.3407 -0.8550 -0.1097
 4600SOL    HW125262   3.899   1.467   5.314  0.4498  0.7117 -1.2937
 4600SOL    HW225263   3.990   1.562   5.362 -0.2532 -0.1576 -2.0513
 4601SOL     OW25264   2.725   2.422   9.274  0.6725 -0.1338 -0.0265
 4601SOL    HW125265   2.668   2.438   9.349  2.5254 -1.7700  1.7098
 4601SOL    HW225266   2.707   2.330   9.255 -3.0078  1.0116 -2.0670
 4602SOL     OW25267   0.373   0.066  11.470 -0.0056  0.1395  0.3714
 4602SOL    HW125268   0.373   4.709  11.416 -0.5293 -0.3268  1.0417
 4602SOL    HW225269   0.455   0.055  11.518 -1.1198 -0.0587  2.2339
 4603SOL     OW25270   2.088   3.002   1.140 -0.1825 -0.2205 -0.1066
 4603SOL    HW125271   2.052   2.932   1.085  0.1331 -0.7157  0.3069
 4603SOL    HW225272   2.058   3.082   1.097  2.5950  1.2056  0.6008
 4604SOL     OW25273   0.378   1.179  16.491 -0.5070  0.1118  0.0422
 4604SOL    HW125274   0.301   1.129  16.463 -0.5540  0.2824 -0.1292
 4604SOL    HW225275   0.390   1.245  16.423  1.0828 -0.5239 -0.2848
 4605SOL     OW25276   4.302   4.546   6.532  0.3311  0.1184 -0.8050
 4605SOL    HW125277   4.276   4.455   6.536  0.1277  0.1134 -2.2200
 4605SOL    HW225278   4.397   4.538   6.517  0.3805 -2.0853  0.7544
 4606SOL     OW25279   3.059   1.750   6.208 -0.1524  0.4645  0.4403
 4606SOL    HW125280   3.070   1.830   6.261 -1.7096  1.2935 -0.5149
 4606SOL    HW225281   3.066   1.779   6.117  0.2692  0.2491  0.4032
 4607SOL     OW25282   2.211   1.802   7.829 -0.4045  0.3028  0.0816
 4607SOL    HW125283   2.273   1.855   7.780  0.0908 -0.7931 -0.4988
 4607SOL    HW225284   2.267   1.777   7.903 -1.0781 -1.5722 -0.0242
 4608SOL     OW25285   3.710   1.849   2.685  0.4851  0.0208 -0.2733
 4608SOL    HW125286   3.788   1.904   2.675 -1.0897  2.6348  1.6473
 4608SOL    HW225287   3.640   1.911   2.661  0.7038 -0.0379 -1.0590
 4609SOL     OW25288   0.232   4.314   6.937 -0.2737 -0.5915 -0.3483
 4609SOL    HW125289   0.272   4.324   6.850 -0.8413 -1.7186 -0.7399
 4609SOL    HW225290   0.150   4.267   6.924  0.2357 -1.2720 -1.0841
 4610SOL     OW25291   0.795   3.865   0.555  0.4924  0.3041 -0.4102
 4610SOL    HW125292   0.760   3.816   0.629  0.1452  1.1569 -0.0243
 4610SOL    HW225293   0.784   3.957   0.579 -1.3061  0.0961 -0.4512
 4611SOL     OW25294   0.231   2.843   3.271  0.5168 -0.4788  0.2735
 4611SOL    HW125295   0.176   2.836   3.192 -0.4985  1.1739  0.8389
 4611SOL    HW225296   0.163   2.845   3.339  0.2663 -0.8828  0.0395
 4612SOL     OW25297   2.593   2.743  15.174  0.1507  0.5745  0.2227
 4612SOL    HW125298   2.599   2.648  15.181 -0.9135  0.3535 -1.8334
 4612SOL    HW225299   2.623   2.766  15.086  3.2807 -0.2733  1.0576
 4613SOL     OW25300   0.028   4.214   6.101 -0.4627  0.0393  0.0591
 4613SOL    HW125301   4.718   4.272   6.033 -0.0313  1.5256  1.1280
 4613SOL    HW225302   0.019   4.275   6.174  2.3573  1.7133 -1.0093
 4614SOL     OW25303   0.380   4.355   5.687  0.4687  0.2573 -0.1483
 4614SOL    HW125304   0.407   4.446   5.678 -1.1931  0.8393  0.7018
 4614SOL    HW225305   0.397   4.331   5.778 -1.8115 -0.7160  0.0203
 4615SOL     OW25306   2.433   2.681   8.370 -0.1144 -0.3675  0.2298
 4615SOL    HW125307   2.474   2.619   8.309  3.7084  3.0919 -0.7341
 4615SOL    HW225308   2.368   2.631   8.420  0.1247 -0.8320  0.0838
 4616SOL     OW25309   0.182   0.668  11.529 -0.5005 -0.3436 -0.0655
 4616SOL    HW125310   0.187   0.572  11.531 -2.0601 -0.4549 -1.3799
 4616SOL    HW225311   0.205   0.693  11.439 -0.1638  0.2618  0.1923
 4617SOL     OW25312   1.522   4.658   3.965  0.1714 -0.4026 -0.2405
 4617SOL    HW125313   1.550   4.580   4.013 -2.0283 -0.3134  1.2126
 4617SOL    HW225314   1.430   4.653   3.993 -0.0955  2.3557 -0.6592
 4618SOL     OW25315   0.879   1.133   7.935 -0.1147  0.0530  0.5209
 4618SOL    HW125316   0.954   1.122   7.995 -0.8108  0.5375  1.4826
 4618SOL    HW225317   0.844   1.220   7.951 -1.4658 -0.8080  2.2641
 4619SOL     OW25318   1.709   3.147   6.453  0.3271  0.4796  0.6838
 4619SOL    HW125319   1.754   3.154   6.537 -0.2133 -0.0557  1.0153
 4619SOL    HW225320   1.685   3.055   6.461 -3.0664  1.4738  1.7869
 4620SOL     OW25321   2.680   4.387  11.632  0.5839 -0.3606  0.0402
 4620SOL    HW125322   2.655   4.341  11.712  0.0769 -3.5001 -1.9279
 4620SOL    HW225323   2.598   4.436  11.628  1.5243  1.2207  0.3153
 4621SOL     OW25324   0.370   4.385   4.507  0.9182 -0.0786  0.4990
 4621SOL    HW125325   0.394   4.423   4.591  0.5687  0.8064  0.2049
 4621SOL    HW225326   0.274   4.391   4.502  0.9537  0.9953  1.2170
 4622SOL     OW25327   4.417   4.265   3.463 -0.0313 -0.2713  0.2554
 4622SOL    HW125328   4.380   4.240   3.548 -2.5602 -0.4730 -0.9123
 4622SOL    HW225329   4.478   4.334   3.488  0.8605 -1.1849  0.5853
 4623SOL     OW25330   0.208   4.297   9.792  0.7537 -0.0814  0.3245
 4623SOL    HW125331   0.115   4.320   9.795  1.0411  0.7804  2.8199
 4623SOL    HW225332   0.239   4.364   9.731 -1.1178  0.3935 -0.1004
 4624SOL     OW25333   2.164   4.238  17.021 -0.3412  0.7790  1.0074
 4624SOL    HW125334   2.189   4.328  17.000 -0.6087  0.9407  1.3950
 4624SOL    HW225335   2.070   4.231  17.004  0.2651  1.1623 -2.6298
 4625SOL     OW25336   2.649   2.640   2.227  0.0133  0.6929 -0.4464
 4625SOL    HW125337   2.673   2.559   2.181  0.9222  0.8710 -0.2909
 4625SOL    HW225338   2.734   2.659   2.266 -0.8828  2.7351  0.5174
 4626SOL     OW25339   3.615   2.224   1.995  0.2129 -0.3456 -0.0624
 4626SOL    HW125340   3.520   2.218   1.981  0.0869 -1.2433  1.1228
 4626SOL    HW225341   3.647   2.209   1.906  2.9876 -0.8514  1.0428
 4627SOL     OW25342   4.691   4.171   4.753 -0.1092  0.3258  0.5491
 4627SOL    HW125343   0.061   4.166   4.779 -0.1284  2.3554  1.0195
 4627SOL    HW225344   4.665   4.086   4.719 -0.1162  0.9590 -1.0652
 4628SOL     OW25345   0.653   3.401   6.795 -0.2296  0.0824  0.0434
 4628SOL    HW125346   0.671   3.432   6.707 -1.1990 -2.1651 -0.9457
 4628SOL    HW225347   0.601   3.476   6.824 -1.2375  0.9587 -4.0301
 4629SOL     OW25348   2.439   4.123   4.426 -0.1476 -0.1161 -0.6461
 4629SOL    HW125349   2.413   4.210   4.456  3.1274  0.9099 -0.6887
 4629SOL    HW225350   2.364   4.090   4.377 -0.0566 -2.1140  0.5861
 4630SOL     OW25351   0.943   2.435  13.544 -0.9064 -0.6868  0.2178
 4630SOL    HW125352   0.946   2.371  13.473 -0.8170 -1.9790  1.3842
 4630SOL    HW225353   0.855   2.433  13.581 -1.1055  0.1804 -0.2144
 4631SOL     OW25354   4.379   4.350   6.012 -0.4351  0.3061  0.5902
 4631SOL    HW125355   4.362   4.291   6.085  1.8516  0.2877  1.1152
 4631SOL    HW225356   4.355   4.428   6.062 -1.0718  2.2311 -2.7308
 4632SOL     OW25357   2.023   3.916   8.986  0.5239  0.5874 -0.2202
 4632SOL    HW125358   2.070   3.901   9.068  1.6272  0.6092 -0.8403
 4632SOL    HW225359   1.976   3.992   9.021 -0.1116  1.1945 -2.3902
 4633SOL     OW25360   1.314   3.138   1.260  0.3778  0.5327 -0.2665
 4633SOL    HW125361   1.350   3.202   1.198 -0.3150 -0.3466 -1.5784
 4633SOL    HW225362   1.339   3.166   1.348 -3.4108 -1.8905  1.5896
 4634SOL     OW25363   0.089   3.041  12.181 -0.7279 -0.2238 -0.7591
 4634SOL    HW125364   0.098   3.054  12.275  0.9501  0.8600 -1.0594
 4634SOL    HW225365   0.111   3.131  12.156  0.8886 -1.3383 -3.3718
 4635SOL     OW25366   4.155   2.185   0.521 -0.4277  0.1259 -0.1812
 4635SOL    HW125367   4.133   2.264   0.471 -1.5686  0.0757  0.2448
 4635SOL    HW225368   4.077   2.186   0.575 -1.1248 -2.8748 -1.1281
 4636SOL     OW25369   4.439   0.667   3.843 -0.3809  0.3406 -0.1781
 4636SOL    HW125370   4.461   0.760   3.832 -0.4310  0.7443  3.0497
 4636SOL    HW225371   4.471   0.642   3.756 -3.5981  0.6219 -1.4454
 4637SOL     OW25372   0.602   2.335   8.984 -0.2613 -0.0788 -0.1176
 4637SOL    HW125373   0.516   2.365   8.955 -1.3544 -0.9569  2.2309
 4637SOL    HW225374   0.586   2.266   9.049  0.8138  2.3597  2.7225
 4638SOL     OW25375   3.657   1.127   5.734 -0.0265  0.3821 -0.2700
 4638SOL    HW125376   3.662   1.057   5.670  0.5552  0.1079  0.0718
 4638SOL    HW225377   3.583   1.105   5.791 -1.4103  2.6411 -1.1709
 4639SOL     OW25378   0.229   0.763  16.607  0.6982  0.3087 -0.2780
 4639SOL    HW125379   0.255   0.702  16.539 -0.9184 -1.8000  0.9722
 4639SOL    HW225380   0.309   0.773  16.658  0.9780 -0.8138 -0.4943
 4640SOL     OW25381   3.727   0.643   0.142 -0.4850  0.3636  0.2474
 4640SOL    HW125382   3.661   0.587   0.183  1.3950 -1.9602  0.1153
 4640SOL    HW225383   3.688   0.727   0.166 -0.9040 -0.2827  1.8725
 4641SOL     OW25384   4.514   0.038   3.425 -0.4878  0.4056  0.0707
 4641SOL    HW125385   4.445   0.079   3.372 -0.3503 -0.0964 -0.4908
 4641SOL    HW225386   4.522   0.112   3.486  0.3154 -1.4202  2.1657
 4642SOL     OW25387   3.762   1.636  15.907 -0.1388  0.4463  0.5933
 4642SOL    HW125388   3.730   1.547  15.894 -0.5077  0.2139  3.0427
 4642SOL    HW225389   3.706   1.689  15.850  1.1432  1.4826  0.2966
 4643SOL     OW25390   3.841   3.951   6.878  0.1637 -0.3548 -0.3377
 4643SOL    HW125391   3.870   3.861   6.870 -2.1678 -0.9844 -1.8826
 4643SOL    HW225392   3.777   3.949   6.807 -0.7429 -0.9285  0.4974
 4644SOL     OW25393   4.641   4.191  17.153  0.2729 -0.0789  0.0455
 4644SOL    HW125394   4.707   4.257  17.174  0.6424  0.3018 -2.2509
 4644SOL    HW225395   4.568   4.241  17.115  0.1269 -1.3281 -1.2950
 4645SOL     OW25396   3.064   3.162   5.463  0.0064  0.3262  0.2167
 4645SOL    HW125397   3.148   3.133   5.429  0.2700  0.6425  0.5826
 4645SOL    HW225398   3.062   3.251   5.427 -1.1899 -0.1095 -0.7771
 4646SOL     OW25399   2.846   3.042  13.727 -0.3921 -0.4084 -0.0920
 4646SOL    HW125400   2.785   2.973  13.703  0.7921 -1.3860 -0.3074
 4646SOL    HW225401   2.838   3.108  13.658 -0.3052  0.8955  1.1252
 4647SOL     OW25402   2.264   3.689   7.915 -0.5399  0.0180  0.0830
 4647SOL    HW125403   2.234   3.760   7.859 -1.2853  0.6390  1.2502
 4647SOL    HW225404   2.187   3.648   7.954 -0.5708 -1.1987 -1.2710
 4648SOL     OW25405   3.073   0.700  16.674  0.5807 -0.0354  0.0393
 4648SOL    HW125406   3.013   0.729  16.743 -0.6930 -2.3812 -0.0572
 4648SOL    HW225407   3.151   0.751  16.693 -0.1722  1.8587 -1.9759
 4649SOL     OW25408   1.787   3.749   0.102  0.6439 -0.1648  0.0295
 4649SOL    HW125409   1.857   3.702   0.058  0.6896  0.8017 -0.9350
 4649SOL    HW225410   1.744   3.675   0.146  1.3807 -0.8967 -0.4850
 4650SOL     OW25411   3.433   1.486   1.673  0.0543  0.0845  0.7116
 4650SOL    HW125412   3.371   1.414   1.683  0.9238 -0.5279  1.6840
 4650SOL    HW225413   3.388   1.557   1.719 -3.4637 -0.9125 -1.1369
 4651SOL     OW25414   4.361   3.111   5.863  0.2208 -0.5774 -0.0540
 4651SOL    HW125415   4.339   3.105   5.769  1.9872 -0.3195 -0.4758
 4651SOL    HW225416   4.361   3.207   5.870  0.9061 -0.5399 -0.5688
 4652SOL     OW25417   4.020   2.415  13.603  0.4453  0.4711  0.0167
 4652SOL    HW125418   4.027   2.354  13.676 -1.9403  0.1741 -0.0003
 4652SOL    HW225419   4.015   2.349  13.534  0.3880  0.0395  0.4326
 4653SOL     OW25420   2.437   3.416   3.130  0.4576  0.7535  0.0258
 4653SOL    HW125421   2.388   3.420   3.212  2.2364  0.1316  1.1010
 4653SOL    HW225422   2.377   3.441   3.059 -0.2072 -0.2129  0.2400
 4654SOL     OW25423   3.631   4.336   8.928  0.0142 -0.1120 -0.1565
 4654SOL    HW125424   3.593   4.322   9.014  0.7100  1.7271  0.4496
 4654SOL    HW225425   3.606   4.261   8.874  1.6994 -0.8792  0.1263
 4655SOL     OW25426   2.455   4.347   4.141  0.2267 -0.0230 -0.5392
 4655SOL    HW125427   2.384   4.411   4.136 -0.3778 -0.6356  0.3917
 4655SOL    HW225428   2.509   4.387   4.209  0.1493  0.8641 -1.0007
 4656SOL     OW25429   3.077   0.911  12.111 -0.0987  1.0795  0.3667
 4656SOL    HW125430   3.111   0.860  12.184 -0.4851  0.1693 -0.0870
 4656SOL    HW225431   3.152   0.929  12.053  1.0934  2.2924  2.2840
 4657SOL     OW25432   3.188   4.676   7.112 -0.2545 -0.4254  0.2663
 4657SOL    HW125433   3.103   4.635   7.102 -0.5826  0.3640 -0.1439
 4657SOL    HW225434   3.189   4.668   7.208  1.3288  1.2593  0.3926
 4658SOL     OW25435   0.185   3.440   6.056  0.7218 -0.4268 -0.6671
 4658SOL    HW125436   0.175   3.354   6.097 -0.3571 -0.9187 -1.9481
 4658SOL    HW225437   0.278   3.453   6.073  0.6137 -1.4885  0.7715
 4659SOL     OW25438   3.590   4.227   8.060 -0.5027 -0.1654  0.9428
 4659SOL    HW125439   3.582   4.213   7.966  1.3183  2.3820  0.4047
 4659SOL    HW225440   3.500   4.213   8.090 -0.8077  1.8186  0.9820
 4660SOL     OW25441   4.656   2.198   3.410  0.0443  0.4897 -0.0455
 4660SOL    HW125442   4.575   2.184   3.362  0.0738  0.1284  0.0081
 4660SOL    HW225443   4.665   2.124   3.470 -0.1305 -0.0997 -0.7601
 4661SOL     OW25444   4.485   1.004   2.161  0.4880 -0.3450 -0.1876
 4661SOL    HW125445   4.466   1.098   2.163 -0.7512 -0.5974 -0.5616
 4661SOL    HW225446   4.559   1.001   2.100  0.1767 -0.1747 -0.5731
 4662SOL     OW25447   2.157   4.383   7.897 -0.2538 -0.3028 -0.2967
 4662SOL    HW125448   2.208   4.444   7.949 -0.4978  1.5665 -2.2789
 4662SOL    HW225449   2.085   4.439   7.869 -0.5123  0.4843  1.9709
 4663SOL     OW25450   3.586   1.460   6.461 -0.1174  0.1376 -0.4084
 4663SOL    HW125451   3.650   1.531   6.471 -0.9858  1.0382 -1.2093
 4663SOL    HW225452   3.521   1.500   6.403 -2.2358 -1.6831  0.6934
 4664SOL     OW25453   1.672   4.383   7.427 -0.0678 -0.2355 -0.3904
 4664SOL    HW125454   1.676   4.390   7.522  1.4228 -0.5431 -0.4263
 4664SOL    HW225455   1.754   4.424   7.398  0.2327 -0.5624 -0.0089
 4665SOL     OW25456   1.363   1.525   5.482 -0.6319 -0.1441 -0.1980
 4665SOL    HW125457   1.291   1.587   5.491 -1.1356 -0.5276 -1.6199
 4665SOL    HW225458   1.444   1.575   5.488  1.2201 -2.9771 -1.8711
 4666SOL     OW25459   3.190   2.937  16.809 -0.2433  0.1748 -0.0739
 4666SOL    HW125460   3.284   2.953  16.816 -0.1062  0.1039 -1.7674
 4666SOL    HW225461   3.183   2.866  16.872 -2.0604  0.1082 -0.3499
 4667SOL     OW25462   4.533   4.162  16.017  0.1094 -0.1469 -0.3415
 4667SOL    HW125463   4.520   4.136  15.926  1.2197  0.6853 -0.7307
 4667SOL    HW225464   4.625   4.188  16.009  0.5805 -1.1934  1.6937
 4668SOL     OW25465   1.693   0.912   8.538 -0.0946  0.0228  0.4350
 4668SOL    HW125466   1.618   0.910   8.479  1.0897  0.0876 -1.0690
 4668SOL    HW225467   1.655   0.898   8.625 -0.0440  0.4395  0.5269
 4669SOL     OW25468   2.929   4.395  15.145 -0.2612  0.6886  0.0858
 4669SOL    HW125469   2.947   4.302  15.150 -1.4269  0.5198  1.0991
 4669SOL    HW225470   2.836   4.385  15.124 -0.3815 -0.1851  1.0499
 4670SOL     OW25471   2.664   0.037  17.308 -0.2904  0.2797  0.0879
 4670SOL    HW125472   2.610   0.065  17.382  0.0751  3.0094 -0.6685
 4670SOL    HW225473   2.676   4.665  17.325  4.4892  0.0788 -4.4011
 4671SOL     OW25474   1.019   0.979   6.806 -0.5037  0.0989 -0.1341
 4671SOL    HW125475   1.100   1.030   6.810 -0.4210  0.0452 -0.9868
 4671SOL    HW225476   0.960   1.031   6.751 -0.0767 -0.6606 -1.3188
 4672SOL     OW25477   3.032   3.276  11.234 -0.3295 -0.0870  0.0385
 4672SOL    HW125478   3.092   3.208  11.264 -0.1818  0.2656  0.5525
 4672SOL    HW225479   3.096   3.346  11.221  0.4287 -0.7050  0.4557
 4673SOL     OW25480   2.117   1.056   8.483 -0.0655 -0.6596 -0.8318
 4673SOL    HW125481   2.181   1.128   8.490 -0.1764 -0.7345  1.0022
 4673SOL    HW225482   2.117   1.034   8.390  0.0037  1.0886 -1.2442
 4674SOL     OW25483   0.310   4.161   0.120 -0.2908  0.2353  0.2312
 4674SOL    HW125484   0.324   4.180   0.212 -0.6856 -1.0428  0.5583
 4674SOL    HW225485   0.393   4.119   0.096  0.4495  0.3005  2.7167
 4675SOL     OW25486   4.230   3.714   4.264 -0.5981 -0.2589  0.5404
 4675SOL    HW125487   4.232   3.779   4.335 -0.5701 -1.8399  1.9772
 4675SOL    HW225488   4.177   3.653   4.315 -1.1921 -0.0528  0.1772
 4676SOL     OW25489   1.923   4.532  13.748 -0.0712  0.1264  0.3533
 4676SOL    HW125490   1.904   4.626  13.740 -1.1199 -0.3153 -2.3000
 4676SOL    HW225491   1.864   4.504  13.818  0.1163 -0.8394  0.1186
 4677SOL     OW25492   3.464   4.312   7.624 -0.0997 -0.2509  0.3557
 4677SOL    HW125493   3.456   4.366   7.546  0.3901 -0.6279  0.0403
 4677SOL    HW225494   3.505   4.378   7.680  0.4596  0.3955 -0.8351
 4678SOL     OW25495   2.163   1.099   2.202 -0.1291 -0.4542 -0.3440
 4678SOL    HW125496   2.113   1.170   2.241 -1.4233 -2.6189  1.8850
 4678SOL    HW225497   2.232   1.152   2.161 -0.7484  0.5074 -0.1400
 4679SOL     OW25498   2.178   0.386   8.407 -0.6975 -0.6107  0.1442
 4679SOL    HW125499   2.189   0.442   8.484  1.0992  3.3851 -3.0067
 4679SOL    HW225500   2.094   0.422   8.380 -0.8321  0.7258  2.3360
 4680SOL     OW25501   0.004   2.600   7.104 -0.2969 -0.5915 -0.1966
 4680SOL    HW125502   4.641   2.644   7.112 -0.4069 -0.9237  0.4620
 4680SOL    HW225503   0.020   2.627   7.014  0.5292 -1.5767 -0.3468
 4681SOL     OW25504   4.544   0.022  13.603 -0.2020 -0.2255  0.4596
 4681SOL    HW125505   4.507   4.691  13.674  0.4649 -0.0676  0.9186
 4681SOL    HW225506   4.492   4.703  13.533  0.0811 -1.5817  1.0326
 4682SOL     OW25507   0.524   2.625   7.678 -0.3339  0.0760  0.2005
 4682SOL    HW125508   0.522   2.579   7.762  1.0462  0.0743  0.2337
 4682SOL    HW225509   0.486   2.709   7.701  1.1572  0.6746  0.4995
 4683SOL     OW25510   3.994   3.812   0.460  0.4408 -0.7108 -0.5603
 4683SOL    HW125511   4.018   3.853   0.543 -1.0533 -2.1551  0.5650
 4683SOL    HW225512   4.041   3.872   0.401  1.0134  0.2157  0.8407
 4684SOL     OW25513   2.303   3.659   5.698  0.1606  0.0084 -0.2298
 4684SOL    HW125514   2.275   3.569   5.683  0.8408 -0.5431  1.8805
 4684SOL    HW225515   2.217   3.695   5.718  0.8442  0.9242  1.0752
 4685SOL     OW25516   3.800   3.059   5.851  0.0243 -0.0633 -0.2650
 4685SOL    HW125517   3.775   3.065   5.943  1.5427 -0.2358  0.1421
 4685SOL    HW225518   3.760   2.975   5.828  1.2909 -0.7802  0.1817
 4686SOL     OW25519   2.959   2.281   2.444 -0.1993  0.9730 -0.0896
 4686SOL    HW125520   2.956   2.339   2.368  1.2519  1.6674  0.3903
 4686SOL    HW225521   2.954   2.341   2.519 -3.4891 -0.6807  1.0229
 4687SOL     OW25522   4.204   2.767  13.074 -0.5568  0.3033 -0.4477
 4687SOL    HW125523   4.278   2.777  13.014 -0.2923 -0.4999 -0.2600
 4687SOL    HW225524   4.250   2.804  13.150  1.2018 -0.5684 -1.0800
 4688SOL     OW25525   2.463   0.735   8.571 -0.0056  0.0540 -0.1074
 4688SOL    HW125526   2.385   0.789   8.586 -0.5583 -0.5967 -0.6443
 4688SOL    HW225527   2.449   0.696   8.485  1.3776 -0.9599  0.1272
 4689SOL     OW25528   4.435   2.140   2.306  0.0956  0.1314 -0.2783
 4689SOL    HW125529   4.466   2.204   2.370 -0.1885  1.5162 -1.5285
 4689SOL    HW225530   4.502   2.153   2.239  0.6572  0.4573  0.3530
 4690SOL     OW25531   2.994   1.137  12.506 -0.1505  0.5047 -0.4861
 4690SOL    HW125532   2.941   1.066  12.469 -0.7011  1.1764 -0.9730
 4690SOL    HW225533   2.943   1.167  12.581 -0.6510 -4.5320  1.2330
 4691SOL     OW25534   0.693   2.310   1.236  0.0614 -0.7002 -0.1892
 4691SOL    HW125535   0.648   2.238   1.279 -0.6439 -1.7466 -2.6520
 4691SOL    HW225536   0.778   2.307   1.280 -1.0908 -1.6724  1.9677
 4692SOL     OW25537   0.863   2.712   6.360  0.4847  0.1532  0.0373
 4692SOL    HW125538   0.878   2.768   6.436  0.3855 -0.4758  0.5220
 4692SOL    HW225539   0.814   2.647   6.410  1.2177 -0.6096 -0.2343
 4693SOL     OW25540   1.019   1.767   7.226 -0.8103 -0.4205  0.1966
 4693SOL    HW125541   0.988   1.857   7.219 -0.1476 -0.2764 -0.9925
 4693SOL    HW225542   0.989   1.735   7.141 -0.8557 -0.4366  0.2187
 4694SOL     OW25543   4.318   0.021   2.077 -0.3812 -0.0024 -0.0569
 4694SOL    HW125544   4.225   0.002   2.062 -0.9584  0.4173  2.8369
 4694SOL    HW225545   4.342   4.711   1.990  2.9615 -0.8891  1.1813
 4695SOL     OW25546   3.927   2.593   4.131  0.3188 -0.3097 -0.4918
 4695SOL    HW125547   3.995   2.631   4.188 -0.3751 -0.3567  0.3693
 4695SOL    HW225548   3.847   2.640   4.156  1.1205  0.9047 -0.1788
 4696SOL     OW25549   3.303   2.285   5.855  0.0195 -0.4373 -0.2225
 4696SOL    HW125550   3.352   2.203   5.863  1.0372  0.0563 -1.5553
 4696SOL    HW225551   3.312   2.299   5.761 -0.1030 -2.6541 -0.5662
 4697SOL     OW25552   3.070   3.529   9.966  0.1326 -0.6941  0.1358
 4697SOL    HW125553   2.986   3.485   9.975 -1.0629  1.7707  1.1252
 4697SOL    HW225554   3.088   3.530   9.872  0.1654 -2.7004  0.1383
 4698SOL     OW25555   3.656   1.283   2.197 -0.4166 -0.2108 -0.0213
 4698SOL    HW125556   3.709   1.208   2.223  2.1468  1.2968 -0.9509
 4698SOL    HW225557   3.598   1.295   2.272  1.0555 -1.1096  1.2443
 4699SOL     OW25558   4.667   0.040   8.849 -0.0856  0.4899  0.0153
 4699SOL    HW125559   4.715   0.115   8.885  0.9072 -0.8494  1.4544
 4699SOL    HW225560   4.620   0.091   8.783  1.2112  1.2212 -0.3498
 4700SOL     OW25561   1.697   2.972   3.207  0.2576 -0.4312  0.7115
 4700SOL    HW125562   1.752   3.005   3.136  1.3258 -0.6048  1.4636
 4700SOL    HW225563   1.757   2.977   3.281  1.2810  1.6514 -0.2660
 4701SOL     OW25564   3.387   0.480   4.482 -0.6333 -0.8707  0.1759
 4701SOL    HW125565   3.473   0.508   4.515 -1.8241 -0.0478  2.5646
 4701SOL    HW225566   3.386   0.392   4.519  1.7462 -1.5079 -1.2284
 4702SOL     OW25567   3.924   2.780   4.773 -0.2669 -0.7968  0.1428
 4702SOL    HW125568   4.002   2.833   4.762  0.7718 -1.8000  2.6565
 4702SOL    HW225569   3.931   2.743   4.685  0.2917  2.2774 -1.0892
 4703SOL     OW25570   1.135   1.692   5.507 -0.2663  0.4164 -0.0469
 4703SOL    HW125571   1.084   1.755   5.457 -0.9771 -0.2284 -0.1326
 4703SOL    HW225572   1.071   1.626   5.534  1.5210 -0.4324  2.1606
 4704SOL     OW25573   2.376   1.623   8.420 -0.1034  0.4243 -0.8384
 4704SOL    HW125574   2.442   1.630   8.351  1.7766  0.1281  0.9615
 4704SOL    HW225575   2.387   1.695   8.483  1.7837 -0.6536  0.0358
 4705SOL     OW25576   2.684   4.170   5.224  0.8255  0.2417  0.2708
 4705SOL    HW125577   2.702   4.101   5.161 -2.3133  0.4637 -0.8479
 4705SOL    HW225578   2.590   4.183   5.217  0.6771 -0.0031  1.7531
 4706SOL     OW25579   1.771   0.970   7.008  0.7686  1.0064 -0.0571
 4706SOL    HW125580   1.768   1.020   7.090 -0.7032  2.2048 -0.8407
 4706SOL    HW225581   1.836   0.900   7.012  0.5052  0.6520 -1.7660
 4707SOL     OW25582   0.637   1.814  11.221 -0.2484 -0.0495 -0.7237
 4707SOL    HW125583   0.633   1.842  11.129  0.2216 -1.3757 -1.1470
 4707SOL    HW225584   0.719   1.858  11.245 -0.7012  0.6365 -0.4348
 4708SOL     OW25585   3.033   0.717   5.046 -0.3690 -0.2178  0.0610
 4708SOL    HW125586   2.939   0.730   5.062 -0.6704 -1.1851 -0.8885
 4708SOL    HW225587   3.069   0.666   5.118  1.4739  0.4213 -0.4241
 4709SOL     OW25588   1.435   1.033   5.144 -0.2582  0.2322 -0.7461
 4709SOL    HW125589   1.378   0.996   5.076 -1.8355  1.0059  0.1590
 4709SOL    HW225590   1.375   1.072   5.207  0.8908  1.6313 -0.5336
 4710SOL     OW25591   4.389   3.866   3.251 -0.1955 -0.2580  0.5456
 4710SOL    HW125592   4.461   3.826   3.203 -0.2133  0.1932  0.1428
 4710SOL    HW225593   4.432   3.910   3.324 -0.3051 -1.5227  1.3825
 4711SOL     OW25594   0.334   0.183  14.551  0.2590 -0.1840 -0.2147
 4711SOL    HW125595   0.388   0.104  14.548  0.3132 -0.1358 -0.4750
 4711SOL    HW225596   0.375   0.236  14.483 -1.3777  0.9423 -0.3141
 4712SOL     OW25597   4.640   2.001  10.270 -0.3302 -0.7708 -0.1910
 4712SOL    HW125598   0.013   2.005  10.275 -0.2334 -1.6802 -1.3190
 4712SOL    HW225599   4.633   1.910  10.242  0.4860 -0.7182 -0.5701
 4713SOL     OW25600   2.109   3.448   7.716 -0.1934  1.0434  0.1167
 4713SOL    HW125601   2.070   3.411   7.637 -0.6586  1.8502 -0.0384
 4713SOL    HW225602   2.192   3.401   7.718 -0.6572  0.1962 -1.0618
 4714SOL     OW25603   4.536   1.787   1.312  0.0731  0.0224  0.0571
 4714SOL    HW125604   4.525   1.874   1.274 -0.1053 -0.4663 -1.0123
 4714SOL    HW225605   4.552   1.738   1.231  0.5713  1.9254 -0.9774
 4715SOL     OW25606   0.271   1.036   8.957 -0.2883  0.5101 -0.0893
 4715SOL    HW125607   0.257   1.130   8.966 -1.0395  0.0852  3.1064
 4715SOL    HW225608   0.295   1.001   9.043 -1.0316  0.4994  0.1136
 4716SOL     OW25609   1.228   3.114   0.601  0.5339  0.3291  0.1773
 4716SOL    HW125610   1.139   3.117   0.637  0.0902 -3.6525 -0.5924
 4716SOL    HW225611   1.269   3.200   0.609 -0.9775  0.8637  2.4273
 4717SOL     OW25612   3.663   1.364   5.582  0.2451  0.1951 -0.0661
 4717SOL    HW125613   3.582   1.370   5.632  1.0160 -0.5455  1.2781
 4717SOL    HW225614   3.696   1.282   5.619  1.3557  0.6594 -0.0417
 4718SOL     OW25615   4.585   1.437  10.037 -0.1571 -0.6212  0.3357
 4718SOL    HW125616   4.537   1.472   9.962  2.3851  1.3001 -0.4028
 4718SOL    HW225617   4.568   1.343  10.042 -3.7166  0.1851  3.6691
 4719SOL     OW25618   0.176   3.597   4.538 -0.2064  0.2903 -0.1465
 4719SOL    HW125619   0.196   3.688   4.517  0.2786 -0.1562 -1.6512
 4719SOL    HW225620   0.252   3.549   4.505 -1.0718 -0.3788 -1.1542
 4720SOL     OW25621   3.747   0.976   3.422 -0.2617 -0.0392 -0.1661
 4720SOL    HW125622   3.823   1.013   3.465  1.6045  0.1394 -3.6511
 4720SOL    HW225623   3.705   1.049   3.377 -0.8152  1.0932  2.1978
 4721SOL     OW25624   1.087   3.015   6.828 -0.3622  0.3452  0.3493
 4721SOL    HW125625   1.119   3.009   6.918 -0.2580 -1.8208  0.1714
 4721SOL    HW225626   1.054   2.928   6.806  1.8422  0.0249 -1.6534
 4722SOL     OW25627   1.901   1.720   5.582 -0.3055  0.0516 -0.1316
 4722SOL    HW125628   1.835   1.787   5.599 -0.9595 -0.2263 -1.6367
 4722SOL    HW225629   1.921   1.747   5.493 -2.7748 -0.1029 -0.7160
 4723SOL     OW25630   2.739   2.510   7.398  0.0724  0.3727  0.2816
 4723SOL    HW125631   2.819   2.505   7.452 -1.1103 -4.3267  1.6079
 4723SOL    HW225632   2.682   2.540   7.469  0.5364  0.2198  0.7222
 4724SOL     OW25633   2.673   2.526   8.195 -0.1879  0.4102  0.0763
 4724SOL    HW125634   2.625   2.449   8.227 -1.9231  0.8557 -1.4804
 4724SOL    HW225635   2.612   2.554   8.128 -2.4634 -5.4060 -0.3129
 4725SOL     OW25636   4.122   1.798   6.769 -0.0333 -0.1177 -0.0320
 4725SOL    HW125637   4.161   1.858   6.832  1.5312 -0.7429 -0.3991
 4725SOL    HW225638   4.161   1.713   6.790  1.9288  0.8266  0.1774
 4726SOL     OW25639   2.117   4.531   1.942  0.3418  0.7200  0.2237
 4726SOL    HW125640   2.210   4.528   1.921  0.3384  1.2599  0.1331
 4726SOL    HW225641   2.077   4.574   1.867 -0.8465  0.2851  0.6104
 4727SOL     OW25642   2.717   1.754  11.320  0.2706  0.0876 -0.1854
 4727SOL    HW125643   2.735   1.720  11.233  0.6785 -1.7326  0.6171
 4727SOL    HW225644   2.725   1.671  11.368  0.4402  0.6375  0.7463
 4728SOL     OW25645   2.010   3.111   8.077 -0.4829 -0.1172 -0.2151
 4728SOL    HW125646   2.010   3.159   8.160 -1.2097  0.7047 -0.6819
 4728SOL    HW225647   1.966   3.032   8.107  1.2333 -1.3872 -1.1105
 4729SOL     OW25648   3.558   4.686   0.910 -0.1153  0.1548 -0.5588
 4729SOL    HW125649   3.559   4.699   0.816 -1.3647  3.2084 -0.1429
 4729SOL    HW225650   3.643   4.649   0.935  0.4513  0.1192 -2.5204
 4730SOL     OW25651   2.561   3.322  11.162  0.1072  0.4338  0.1610
 4730SOL    HW125652   2.508   3.334  11.240 -0.6129 -3.0123  0.1678
 4730SOL    HW225653   2.511   3.248  11.128 -1.7064  1.0480  1.5002
 4731SOL     OW25654   3.471   4.459  15.243 -0.1562  0.0699 -0.2226
 4731SOL    HW125655   3.384   4.444  15.279 -0.2050 -0.6347 -0.6348
 4731SOL    HW225656   3.472   4.550  15.212 -0.2167  0.6525  1.4898
 4732SOL     OW25657   3.489   3.956   2.713  0.1984 -0.3943 -0.2197
 4732SOL    HW125658   3.435   3.885   2.680  1.8966 -2.5523  1.6102
 4732SOL    HW225659   3.565   3.952   2.655  0.8088 -0.9182  0.6043
 4733SOL     OW25660   4.075   2.016   9.260  0.1083  0.2047 -0.0030
 4733SOL    HW125661   4.062   2.053   9.348 -0.5045 -1.1725  0.4767
 4733SOL    HW225662   4.010   1.947   9.268 -2.7928  3.1362  1.8203
 4734SOL     OW25663   3.972   3.666   8.260 -0.3044 -0.1029  0.0886
 4734SOL    HW125664   4.024   3.691   8.336 -1.6856  1.9756  0.3611
 4734SOL    HW225665   3.887   3.647   8.300 -1.6032  3.2299 -1.0577
 4735SOL     OW25666   3.933   4.473  15.992  0.4139  0.1916 -0.1649
 4735SOL    HW125667   3.847   4.506  16.021 -0.3350  1.3188 -3.7336
 4735SOL    HW225668   3.942   4.384  16.026  0.5112  1.4052  3.0195
 4736SOL     OW25669   4.063   2.182   0.983  0.1039  0.3368  0.1091
 4736SOL    HW125670   4.116   2.104   0.968 -0.5307  0.1349 -1.0908
 4736SOL    HW225671   4.019   2.189   0.898 -0.7299  1.7387  0.6453
 4737SOL     OW25672   3.973   3.949   4.383 -0.0983 -0.1459 -0.0577
 4737SOL    HW125673   4.058   3.966   4.345  1.4250 -3.1005  1.9981
 4737SOL    HW225674   3.919   4.026   4.365 -1.1585 -0.8848 -0.1136
 4738SOL     OW25675   1.719   2.245   9.304 -0.1119  0.1629  0.1697
 4738SOL    HW125676   1.801   2.261   9.350 -2.0417  0.1295  3.6456
 4738SOL    HW225677   1.665   2.319   9.332 -1.1703 -0.4311 -0.3074
 4739SOL     OW25678   4.086   0.552   7.299  0.4404 -0.8300 -0.5597
 4739SOL    HW125679   4.059   0.462   7.315 -2.3429  0.2791  1.0741
 4739SOL    HW225680   4.181   0.549   7.308  0.3971 -1.0319 -0.1880
 4740SOL     OW25681   0.264   4.503   7.159  0.0625  0.4966  0.7274
 4740SOL    HW125682   0.186   4.496   7.214  0.4388  1.9587  1.4529
 4740SOL    HW225683   0.260   4.427   7.101 -0.0077  1.5511 -0.6741
 4741SOL     OW25684   0.687   1.804   2.174 -0.0767 -0.4719  0.0286
 4741SOL    HW125685   0.680   1.777   2.082 -0.6213 -0.4308  0.0605
 4741SOL    HW225686   0.596   1.798   2.203 -0.1963  2.2931  0.2656
 4742SOL     OW25687   0.454   1.653   3.291 -0.1336  0.3937  0.0225
 4742SOL    HW125688   0.456   1.575   3.347  1.5690  0.3250 -0.1251
 4742SOL    HW225689   0.362   1.678   3.299 -0.5586 -0.8786 -0.8568
 4743SOL     OW25690   0.826   2.480   0.900 -0.4009 -0.4976  0.1073
 4743SOL    HW125691   0.763   2.548   0.878 -1.5564 -1.5571  0.1349
 4743SOL    HW225692   0.790   2.397   0.867 -3.0586  0.8600 -0.3996
 4744SOL     OW25693   0.244   4.024  13.571 -0.0311  0.0294  0.0171
 4744SOL    HW125694   0.292   4.066  13.500  0.9632 -1.1957 -0.0237
 4744SOL    HW225695   0.192   4.100  13.598 -0.0935  0.6126 -1.7275
 4745SOL     OW25696   3.562   3.272   8.797 -0.6456  0.1361 -0.5394
 4745SOL    HW125697   3.522   3.213   8.861  0.3419  0.7368  0.6404
 4745SOL    HW225698   3.487   3.332   8.796 -0.4465  0.4473  2.9712
 4746SOL     OW25699   2.477   2.022   8.872 -0.0717  0.2279  0.1172
 4746SOL    HW125700   2.480   2.032   8.777 -0.8064 -0.5898  0.0072
 4746SOL    HW225701   2.395   1.982   8.901 -0.5686  0.8954 -0.3723
 4747SOL     OW25702   4.402   1.710   8.871  0.0717 -0.1658  0.4472
 4747SOL    HW125703   4.488   1.696   8.830  0.6333  0.8449  1.2903
 4747SOL    HW225704   4.376   1.790   8.826  1.0664 -0.2982 -0.3647
 4748SOL     OW25705   1.363   2.538  12.609  0.8591 -0.0520  0.0903
 4748SOL    HW125706   1.334   2.628  12.623 -0.9754 -0.4762 -1.0938
 4748SOL    HW225707   1.437   2.554  12.550  2.1972 -2.0339  1.2132
 4749SOL     OW25708   1.998   3.663   1.855  0.6206  0.1534  0.0278
 4749SOL    HW125709   1.933   3.733   1.856  2.8755  2.2372 -0.6857
 4749SOL    HW225710   1.971   3.612   1.778  1.4727 -0.1574 -0.0612
 4750SOL     OW25711   4.500   1.716  13.580 -0.5548 -0.4913  0.4753
 4750SOL    HW125712   4.438   1.696  13.651 -0.6818  1.3077  0.8706
 4750SOL    HW225713   4.480   1.651  13.513 -2.8416  1.2559 -0.5313
 4751SOL     OW25714   3.740   0.321   9.499  0.1968 -0.1160  0.1163
 4751SOL    HW125715   3.835   0.335   9.504  0.4257 -1.1619 -1.2869
 4751SOL    HW225716   3.718   0.325   9.592  0.9297  0.6395  0.2572
 4752SOL     OW25717   1.793   1.674  12.835 -0.6852  0.3379 -0.1158
 4752SOL    HW125718   1.860   1.740  12.820  0.6782 -0.6434  1.6706
 4752SOL    HW225719   1.794   1.613  12.762  0.7488  0.1851  0.0353
 4753SOL     OW25720   3.436   2.638  14.371 -0.1905  0.0014 -0.5322
 4753SOL    HW125721   3.410   2.587  14.294 -0.1042  2.3266 -2.0832
 4753SOL    HW225722   3.419   2.580  14.446 -0.2307 -0.4301 -0.8760
 4754SOL     OW25723   2.770   1.400  12.421 -0.2669 -0.2452 -0.2178
 4754SOL    HW125724   2.846   1.374  12.473  0.4349  0.2490 -0.9970
 4754SOL    HW225725   2.737   1.477  12.468  2.5138  0.4276  0.5983
 4755SOL     OW25726   3.643   3.370   6.014  0.4171  0.2649  0.2670
 4755SOL    HW125727   3.592   3.449   5.998 -0.3571 -0.4006 -0.5680
 4755SOL    HW225728   3.578   3.306   6.042 -1.3280  1.4167 -1.1370
 4756SOL     OW25729   1.331   3.210   4.344 -0.1156  0.3294 -0.1515
 4756SOL    HW125730   1.409   3.196   4.290 -0.7261 -2.9283 -0.2197
 4756SOL    HW225731   1.320   3.300   4.313  1.3811  0.0305 -1.5686
 4757SOL     OW25732   3.793   0.844   6.632  0.7982  0.3641  0.0957
 4757SOL    HW125733   3.786   0.785   6.707  2.7417 -1.5211 -1.2236
 4757SOL    HW225734   3.883   0.824   6.605  1.6476  1.3198  2.2257
 4758SOL     OW25735   4.664   2.635   5.765 -0.8836  0.4362  1.2049
 4758SOL    HW125736   4.615   2.669   5.690 -0.8790  0.0953  1.0452
 4758SOL    HW225737   4.616   2.555   5.788  0.1491 -0.3720  0.5743
 4759SOL     OW25738   0.451   0.429  16.274  0.0074 -0.2884  0.4379
 4759SOL    HW125739   0.448   0.405  16.367 -0.4379  2.7546  1.2147
 4759SOL    HW225740   0.545   0.444  16.264 -0.4464  2.6391  0.5827
 4760SOL     OW25741   4.276   0.945   3.569  0.3687  1.0427 -0.2102
 4760SOL    HW125742   4.349   0.912   3.517 -0.9988 -0.0240 -1.4650
 4760SOL    HW225743   4.288   1.037   3.544 -0.9752  1.0881 -0.6973
 4761SOL     OW25744   0.846   1.749  17.185  0.1151  0.5063  0.2492
 4761SOL    HW125745   0.936   1.780  17.190  1.0168 -1.8562 -2.0320
 4761SOL    HW225746   0.851   1.668  17.236  1.8119  0.8400  0.6170
 4762SOL     OW25747   0.568   4.462   9.573  0.5418 -0.6297 -0.0837
 4762SOL    HW125748   0.638   4.456   9.638 -0.0173  1.4912  0.7121
 4762SOL    HW225749   0.511   4.391   9.604 -0.3479  0.0913 -0.0495
 4763SOL     OW25750   2.873   0.356  16.336  0.1339  0.7264 -0.2091
 4763SOL    HW125751   2.836   0.414  16.269 -0.3628  1.1876  0.4672
 4763SOL    HW225752   2.897   0.418  16.404 -2.3245  0.6002  0.7632
 4764SOL     OW25753   1.412   3.026   8.589  0.0111  0.3450  0.7174
 4764SOL    HW125754   1.342   3.060   8.644  1.3018 -0.2156  2.7113
 4764SOL    HW225755   1.358   3.017   8.510  2.2836  1.7955 -1.0146
 4765SOL     OW25756   2.740   1.327   4.096 -0.0152  0.1587 -0.1497
 4765SOL    HW125757   2.773   1.387   4.163  0.0740 -1.3671  1.1744
 4765SOL    HW225758   2.808   1.261   4.081  0.2036 -0.1075  1.9449
 4766SOL     OW25759   0.862   1.082   7.011  0.0837 -0.5482 -0.1696
 4766SOL    HW125760   0.780   1.062   6.967 -0.6871  0.6331  0.7145
 4766SOL    HW225761   0.919   1.011   6.981  1.5047  1.1048 -1.4223
 4767SOL     OW25762   1.222   1.684   9.471  0.1987 -0.0631  0.3579
 4767SOL    HW125763   1.272   1.742   9.414 -0.9424  1.9652  1.3861
 4767SOL    HW225764   1.197   1.751   9.535  1.2752  2.1074 -1.4979
 4768SOL     OW25765   4.098   0.066   6.330 -0.1543 -0.3098  0.1960
 4768SOL    HW125766   4.082   4.694   6.332 -0.6117 -0.2553 -0.7619
 4768SOL    HW225767   4.190   0.063   6.307 -0.2686  2.2455 -0.6052
 4769SOL     OW25768   0.300   3.934  12.489 -0.7554  0.3380  0.2088
 4769SOL    HW125769   0.307   3.944  12.394 -1.3034 -0.3925  0.0863
 4769SOL    HW225770   0.360   4.000  12.522 -0.2978  0.0473 -0.0453
 4770SOL     OW25771   2.457   2.538   4.220  0.3219  0.0738  0.1236
 4770SOL    HW125772   2.391   2.590   4.265  0.4333 -0.7700  1.2575
 4770SOL    HW225773   2.477   2.477   4.291  0.7138  0.5495  0.4230
 4771SOL     OW25774   1.972   3.014   6.531 -0.2124 -0.0211  0.1568
 4771SOL    HW125775   1.935   3.073   6.597 -0.0984 -1.0249  1.1233
 4771SOL    HW225776   1.936   2.929   6.557 -2.7416  0.8855 -0.4077
 4772SOL     OW25777   0.360   1.877  10.069  0.3088  0.1297 -0.5588
 4772SOL    HW125778   0.387   1.785  10.074  1.6923  0.6238  1.0993
 4772SOL    HW225779   0.353   1.894   9.975  1.6871 -0.6008 -0.7935
 4773SOL     OW25780   1.240   2.170   5.110  0.1361  0.1140 -0.3742
 4773SOL    HW125781   1.156   2.126   5.092 -0.6278  0.8113  1.5149
 4773SOL    HW225782   1.219   2.257   5.142 -0.0773 -0.1748  0.2621
 4774SOL     OW25783   3.054   4.077   8.254 -0.1073  0.4732 -0.5986
 4774SOL    HW125784   3.144   4.103   8.273 -0.1044 -1.3708  1.8501
 4774SOL    HW225785   3.068   4.021   8.177 -2.0457 -0.2505 -0.4255
 4775SOL     OW25786   3.121   4.354   7.892 -1.1147 -0.2428  0.4350
 4775SOL    HW125787   3.161   4.267   7.889  1.8675  1.1077  0.9585
 4775SOL    HW225788   3.064   4.344   7.816 -2.0501  1.9180  0.8619
 4776SOL     OW25789   1.184   1.303   4.853 -0.5989 -0.4617 -0.3289
 4776SOL    HW125790   1.212   1.220   4.892 -1.3677 -0.9524 -0.8150
 4776SOL    HW225791   1.117   1.266   4.795  0.8674 -0.5933 -1.9274
 4777SOL     OW25792   0.068   1.338   6.619  0.7490  0.5269 -0.3133
 4777SOL    HW125793   0.020   1.370   6.695 -0.2897  0.8242 -1.0874
 4777SOL    HW225794   0.030   1.254   6.593 -1.3499  1.2508  0.4257
 4778SOL     OW25795   2.120   3.874   7.117 -0.2217  0.0186  0.3409
 4778SOL    HW125796   2.119   3.965   7.146  2.9381 -1.1280  4.1501
 4778SOL    HW225797   2.146   3.822   7.193 -0.1895 -1.0953 -0.4387
 4779SOL     OW25798   1.159   0.950   3.701 -0.2313  0.6212  0.0999
 4779SOL    HW125799   1.073   0.909   3.691  0.1688 -0.6044  1.7123
 4779SOL    HW225800   1.197   0.879   3.753  0.2156  1.9767  1.5828
 4780SOL     OW25801   1.040   0.141   4.357 -0.3040 -0.4335  0.5101
 4780SOL    HW125802   1.015   0.230   4.331 -0.4257 -0.6767 -0.2063
 4780SOL    HW225803   0.970   0.136   4.422 -0.5187  1.7233  0.4294
 4781SOL     OW25804   1.119   0.459   6.238  0.1804  0.0251 -0.0039
 4781SOL    HW125805   1.088   0.370   6.251  1.2811 -0.5192 -1.2271
 4781SOL    HW225806   1.139   0.465   6.332  0.6581 -1.7112  0.0013
 4782SOL     OW25807   3.747   1.592   3.849  0.5001  0.4375 -0.6467
 4782SOL    HW125808   3.748   1.654   3.921 -0.0453  0.1835 -0.4164
 4782SOL    HW225809   3.778   1.509   3.884 -1.4345 -0.2394 -0.5331
 4783SOL     OW25810   4.308   3.796  13.555  0.1889  0.2232 -0.1749
 4783SOL    HW125811   4.240   3.738  13.522  0.2572  0.4725 -0.7661
 4783SOL    HW225812   4.378   3.775  13.494  1.9161  1.3055  1.4358
 4784SOL     OW25813   1.762   1.369   6.108  0.4853  0.6346  0.4764
 4784SOL    HW125814   1.849   1.393   6.140  0.6066  1.4107 -0.4316
 4784SOL    HW225815   1.777   1.289   6.058  1.5906  1.2060 -0.1023
 4785SOL     OW25816   0.593   1.139  13.286  0.3100  0.2783  0.3608
 4785SOL    HW125817   0.602   1.085  13.208  1.3554 -0.4462  0.9818
 4785SOL    HW225818   0.687   1.140  13.306  0.7099 -0.8610 -1.4250
 4786SOL     OW25819   3.066   1.411  12.159 -1.1676 -0.1490 -0.6433
 4786SOL    HW125820   3.044   1.327  12.201 -1.5636  0.2520 -0.0511
 4786SOL    HW225821   3.085   1.464  12.237  2.2243  1.1773 -2.4216
 4787SOL     OW25822   4.294   4.508   8.002 -0.6307  0.5668  0.1987
 4787SOL    HW125823   4.251   4.590   8.026  0.4692  1.4760 -0.9232
 4787SOL    HW225824   4.255   4.451   8.068  0.1323 -0.5764 -0.3175
 4788SOL     OW25825   2.484   2.783   5.915  0.1888  0.2154  0.3895
 4788SOL    HW125826   2.515   2.780   6.005 -0.7936  0.8291  0.7564
 4788SOL    HW225827   2.481   2.878   5.907  0.7521  0.2680  0.8966
 4789SOL     OW25828   3.256   3.481   9.507  0.0334  0.2531 -0.1703
 4789SOL    HW125829   3.234   3.562   9.460 -3.8153 -0.0623  1.0960
 4789SOL    HW225830   3.273   3.417   9.438  1.2714 -0.0276  0.3841
 4790SOL     OW25831   1.787   2.456   0.716 -0.0374 -0.2254  0.1335
 4790SOL    HW125832   1.837   2.531   0.749 -3.1547  0.7148  2.6537
 4790SOL    HW225833   1.723   2.436   0.784 -0.8719  2.6737  0.2331
 4791SOL     OW25834   3.521   1.912   7.101 -0.5987  0.1030  0.3419
 4791SOL    HW125835   3.487   1.839   7.049  0.6200 -0.6574  0.5962
 4791SOL    HW225836   3.552   1.969   7.031 -1.4486  0.0325 -0.0823
 4792SOL     OW25837   1.722   1.002  10.606 -0.5091 -0.6905 -0.2078
 4792SOL    HW125838   1.785   0.934  10.583 -0.4901 -1.4057  1.9867
 4792SOL    HW225839   1.739   1.032  10.695 -0.1003 -1.7239  0.0604
 4793SOL     OW25840   3.770   0.417   6.211  0.1535  0.5411 -0.2746
 4793SOL    HW125841   3.783   0.328   6.242 -0.6155 -0.1674 -2.0049
 4793SOL    HW225842   3.785   0.470   6.289 -1.2296  0.3125  0.1473
 4794SOL     OW25843   2.016   4.066  11.783  0.0460 -0.0927  0.2669
 4794SOL    HW125844   2.069   4.036  11.709  0.2390 -0.0880  0.4008
 4794SOL    HW225845   1.943   4.076  11.723 -0.7608  0.2812  1.3248
 4795SOL     OW25846   3.412   2.841   5.051  0.4061  0.1699 -0.3774
 4795SOL    HW125847   3.410   2.836   5.146  0.4919 -1.4488 -0.4727
 4795SOL    HW225848   3.384   2.751   5.033  0.5691  0.2664 -1.1342
 4796SOL     OW25849   1.435   2.076   8.277 -0.4134  0.3572  0.0908
 4796SOL    HW125850   1.445   2.170   8.267  1.4498  0.2732  1.1722
 4796SOL    HW225851   1.459   2.071   8.369  0.0907 -1.0627 -0.1193
 4797SOL     OW25852   2.164   4.513   7.001  0.1876 -0.3688 -0.1372
 4797SOL    HW125853   2.082   4.465   6.995  0.5465 -1.2362  1.9920
 4797SOL    HW225854   2.199   4.505   6.912 -1.1890 -0.1350 -0.6951
 4798SOL     OW25855   2.283   2.791   9.127 -0.3650 -0.2986  0.1856
 4798SOL    HW125856   2.197   2.832   9.139 -0.4873 -0.8804  1.3218
 4798SOL    HW225857   2.294   2.743   9.210 -1.2022  2.0064  1.6432
 4799SOL     OW25858   3.222   3.724   7.980 -0.1563  0.3327  0.7169
 4799SOL    HW125859   3.185   3.662   8.043  0.3161  0.2164  0.8800
 4799SOL    HW225860   3.291   3.667   7.946 -0.3034  0.6210 -0.0675
 4800SOL     OW25861   1.365   4.214   9.704  0.0547  0.4001 -0.5137
 4800SOL    HW125862   1.379   4.144   9.769  1.2968  1.2016  0.0877
 4800SOL    HW225863   1.325   4.287   9.751 -0.7401 -0.0094 -0.5433
 4801SOL     OW25864   0.961   2.950   2.501 -0.2277  0.0923  0.4929
 4801SOL    HW125865   0.954   3.017   2.570 -1.8600  1.3862 -0.9167
 4801SOL    HW225866   0.889   2.981   2.446  2.2057  0.5369 -2.4383
 4802SOL     OW25867   0.870   0.652   5.808 -0.1364  0.2367 -0.0241
 4802SOL    HW125868   0.924   0.677   5.883  0.5551  1.1034 -0.8125
 4802SOL    HW225869   0.838   0.567   5.838  0.3048 -0.5799 -1.8927
 4803SOL     OW25870   3.169   3.651   3.895 -0.6771 -0.0177 -0.7821
 4803SOL    HW125871   3.152   3.691   3.810 -2.0873 -0.6750 -0.7969
 4803SOL    HW225872   3.264   3.644   3.890 -0.3921  2.4486  0.7087
 4804SOL     OW25873   1.185   2.311   3.246 -0.1150  0.1450 -0.0715
 4804SOL    HW125874   1.270   2.275   3.273  0.4697  0.9438 -0.8021
 4804SOL    HW225875   1.202   2.335   3.154  3.2611 -0.4605  0.3688
 4805SOL     OW25876   2.056   3.697   8.215 -1.3606 -0.6529  0.3295
 4805SOL    HW125877   2.135   3.655   8.180 -1.3863 -0.2619 -0.2065
 4805SOL    HW225878   2.071   3.674   8.306  3.1175 -0.9928 -0.4962
 4806SOL     OW25879   1.948   1.111   6.777 -0.1637  0.1048 -0.3747
 4806SOL    HW125880   2.031   1.092   6.822  0.0620 -2.1067 -1.7254
 4806SOL    HW225881   1.885   1.089   6.845  0.4828  0.1716  0.2520
 4807SOL     OW25882   0.326   4.438  10.616 -0.2577 -0.0247 -0.1382
 4807SOL    HW125883   0.386   4.422  10.543  0.0521  0.5967 -0.0212
 4807SOL    HW225884   0.274   4.498  10.564  1.6499  1.8794  0.1515
 4808SOL     OW25885   0.479   0.294   6.104 -0.8089 -0.0728 -0.6513
 4808SOL    HW125886   0.417   0.223   6.125  0.5664 -1.3346 -0.8427
 4808SOL    HW225887   0.526   0.304   6.186 -3.1427 -0.1013  0.7067
 4809SOL     OW25888   2.657   4.312  15.936  0.4111 -0.2587 -0.1414
 4809SOL    HW125889   2.572   4.269  15.941  0.5605 -0.4570  0.5813
 4809SOL    HW225890   2.711   4.239  15.966  2.6803  0.8679 -1.4087
 4810SOL     OW25891   2.430   1.460  13.425 -0.4835 -0.2657 -0.1112
 4810SOL    HW125892   2.396   1.536  13.472  1.3162 -0.9699  2.3172
 4810SOL    HW225893   2.464   1.506  13.348  3.1699  0.4750  1.9211
 4811SOL     OW25894   0.589   3.275   3.004 -0.5646 -0.0851  0.1553
 4811SOL    HW125895   0.651   3.204   2.985 -0.5123  0.2721 -0.9754
 4811SOL    HW225896   0.512   3.238   2.961 -1.4030 -1.5157  2.8665
 4812SOL     OW25897   2.819   3.791   1.406  0.0822  0.0334  0.0884
 4812SOL    HW125898   2.783   3.789   1.318  1.6071  0.9117 -0.5598
 4812SOL    HW225899   2.745   3.749   1.450  0.4012 -1.4703 -0.8186
 4813SOL     OW25900   0.663   0.922  11.856  0.5771  0.7237  0.3109
 4813SOL    HW125901   0.752   0.893  11.833 -0.2050 -0.9121 -0.7281
 4813SOL    HW225902   0.690   0.988  11.919  1.7627 -0.0503  0.6127
 4814SOL     OW25903   3.876   2.347   5.174 -0.4347  0.0329  0.0974
 4814SOL    HW125904   3.901   2.431   5.136 -0.0556 -0.0268  0.2187
 4814SOL    HW225905   3.869   2.290   5.097  0.2735  1.1339 -0.7794
 4815SOL     OW25906   1.603   3.746   6.128 -0.1589  0.4062  0.5527
 4815SOL    HW125907   1.614   3.724   6.035  0.7722 -2.7518  1.4158
 4815SOL    HW225908   1.648   3.831   6.133 -0.8786  0.9322 -1.6668
 4816SOL     OW25909   2.649   2.527   9.048 -0.3266  0.1706  0.1140
 4816SOL    HW125910   2.683   2.600   9.100  0.1029  0.8027 -1.0597
 4816SOL    HW225911   2.661   2.471   9.125  0.0781 -0.1375 -0.1742
 4817SOL     OW25912   4.298   4.002  14.693  0.2083  0.0053 -0.0713
 4817SOL    HW125913   4.333   3.971  14.777 -2.5537  0.5856  1.2909
 4817SOL    HW225914   4.205   3.978  14.688  0.4577 -1.1391  0.7589
 4818SOL     OW25915   3.296   2.342  16.170  0.0349  0.4612 -0.1778
 4818SOL    HW125916   3.321   2.432  16.150 -0.2644  0.8822  1.3417
 4818SOL    HW225917   3.243   2.362  16.247 -2.2736 -1.8737 -1.1717
 4819SOL     OW25918   3.750   0.417  11.671 -0.7026 -0.2447 -0.6391
 4819SOL    HW125919   3.824   0.385  11.722 -3.1065 -1.7322  1.9233
 4819SOL    HW225920   3.753   0.345  11.609 -1.0812 -0.7773 -0.0449
 4820SOL     OW25921   2.215   2.863   5.030 -0.2568 -0.2824 -0.0111
 4820SOL    HW125922   2.258   2.778   5.040 -1.2185 -0.6148  1.2391
 4820SOL    HW225923   2.127   2.848   5.064  0.1942  1.0322  1.7056
 4821SOL     OW25924   2.059   1.309   5.697  0.1356  0.4194 -0.0776
 4821SOL    HW125925   1.995   1.377   5.720  1.4760  1.8919 -0.7386
 4821SOL    HW225926   2.070   1.330   5.605 -1.5516 -2.3549 -0.9133
 4822SOL     OW25927   3.810   0.925   4.964  0.1069  0.3049 -0.6720
 4822SOL    HW125928   3.799   0.882   4.880 -0.0218 -2.3030  0.6758
 4822SOL    HW225929   3.732   0.982   4.968  1.0175  1.3999  1.2997
 4823SOL     OW25930   0.443   4.318   1.675 -0.3092 -0.0132 -0.0833
 4823SOL    HW125931   0.425   4.301   1.768  0.3163 -3.4540 -0.5785
 4823SOL    HW225932   0.510   4.256   1.647  0.7220  0.7411  0.7253
 4824SOL     OW25933   4.720   0.319   6.581 -0.2776 -0.2902  0.1465
 4824SOL    HW125934   0.079   0.325   6.632 -1.1389  0.1574  1.4758
 4824SOL    HW225935   0.024   0.284   6.496  0.7999  0.8404 -0.0036
 4825SOL     OW25936   2.656   3.816   3.862  0.2765 -0.2047 -0.4101
 4825SOL    HW125937   2.577   3.764   3.844  1.7411 -1.5513 -3.0012
 4825SOL    HW225938   2.718   3.759   3.909  0.8982 -1.1786 -2.4182
 4826SOL     OW25939   0.006   4.050   5.032  0.8947  0.0436 -0.0790
 4826SOL    HW125940   0.073   4.095   4.980 -0.0523  0.9627 -0.4962
 4826SOL    HW225941   4.680   4.117   5.079  0.4395 -1.7571  2.0138
 4827SOL     OW25942   2.335   2.932   8.280 -0.1526 -0.4039  0.0805
 4827SOL    HW125943   2.384   2.854   8.253 -1.5754 -0.9871 -0.8213
 4827SOL    HW225944   2.276   2.902   8.348 -0.5767  0.7073  0.1988
 4828SOL     OW25945   1.808   4.205   0.841 -0.0052  0.4867 -0.4589
 4828SOL    HW125946   1.834   4.117   0.868 -3.6639 -0.2180  0.7768
 4828SOL    HW225947   1.800   4.187   0.747  0.5638  1.5808 -0.7226
 4829SOL     OW25948   1.074   4.696  14.560 -0.1944  0.2931 -0.5138
 4829SOL    HW125949   0.985   4.670  14.583 -0.1737  0.3047 -0.4204
 4829SOL    HW225950   1.112   4.611  14.540 -0.3775 -0.4624  2.3118
 4830SOL     OW25951   2.230   0.544   4.684  0.2419  0.0101 -0.3203
 4830SOL    HW125952   2.170   0.474   4.710  0.9636  0.3852  2.3771
 4830SOL    HW225953   2.315   0.503   4.701 -0.8905 -1.7983  1.0136
 4831SOL     OW25954   4.130   1.030   3.271  0.0885  0.2007  0.1870
 4831SOL    HW125955   4.058   0.991   3.221 -2.6858  1.2612  3.3136
 4831SOL    HW225956   4.084   1.026   3.355 -0.5843  0.9482 -0.1435
 4832SOL     OW25957   1.580   0.070  13.769  0.2698 -0.3108  0.2588
 4832SOL    HW125958   1.541   4.706  13.757 -0.8141 -0.1303  2.5298
 4832SOL    HW225959   1.564   0.111  13.684 -1.0931 -0.5492  0.4040
 4833SOL     OW25960   2.397   1.788   7.439  0.6898  0.2522  0.6822
 4833SOL    HW125961   2.344   1.733   7.497 -0.0138 -0.3252 -0.5007
 4833SOL    HW225962   2.393   1.745   7.354  1.1542 -0.7376  1.1550
 4834SOL     OW25963   0.309   2.922  12.368  0.0117  0.2790 -0.0868
 4834SOL    HW125964   0.335   2.919  12.276  0.0809 -0.7903 -0.0234
 4834SOL    HW225965   0.273   3.010  12.380  1.5763  0.8736  0.3296
 4835SOL     OW25966   1.673   0.767   2.689 -0.5896  0.7625 -0.2592
 4835SOL    HW125967   1.707   0.696   2.743 -0.7510  0.2060 -0.8850
 4835SOL    HW225968   1.641   0.716   2.615 -1.7878  2.4880 -0.9440
 4836SOL     OW25969   0.170   0.795   1.225  0.1152  0.0249  0.2037
 4836SOL    HW125970   0.157   0.717   1.172 -1.8794  0.9573 -0.6679
 4836SOL    HW225971   0.233   0.751   1.282 -0.5954  0.0763  1.0204
 4837SOL     OW25972   2.749   3.760   2.920  0.2004  0.0628  0.5682
 4837SOL    HW125973   2.749   3.694   2.850 -0.2189 -0.4485  1.0585
 4837SOL    HW225974   2.715   3.703   2.989 -0.8249  1.4327  1.1895
 4838SOL     OW25975   2.090   3.519   6.026  0.0758  0.1054 -0.1838
 4838SOL    HW125976   2.007   3.535   6.070  1.2329  1.0759  1.6596
 4838SOL    HW225977   2.158   3.553   6.084  0.5112 -0.5596 -0.3013
 4839SOL     OW25978   1.976   0.310   6.369  0.0396  0.3957 -0.3339
 4839SOL    HW125979   1.912   0.241   6.385 -0.4383  1.5177  2.6662
 4839SOL    HW225980   1.914   0.371   6.328 -0.5684 -0.7845 -1.1727
 4840SOL     OW25981   0.491   4.059  10.534  0.2285 -0.4186  0.4212
 4840SOL    HW125982   0.440   4.104  10.467 -2.8008 -2.9169  1.0508
 4840SOL    HW225983   0.517   3.985  10.479 -1.4317  0.7879 -1.9530
 4841SOL     OW25984   0.959   2.276   6.948 -0.0834 -0.3219 -0.1714
 4841SOL    HW125985   0.872   2.240   6.928  0.0606 -1.1698  0.7600
 4841SOL    HW225986   1.009   2.200   6.921  0.3134 -0.2754  0.4464
 4842SOL     OW25987   1.871   2.059   6.207  0.6040  0.2227 -0.6261
 4842SOL    HW125988   1.901   2.109   6.131  3.4470  0.8367  0.9267
 4842SOL    HW225989   1.855   2.131   6.268  1.0204  1.2062 -1.6619
 4843SOL     OW25990   1.146   4.690   2.886  0.1768  0.9091  0.1086
 4843SOL    HW125991   1.067   4.677   2.834 -2.6863  1.0783  4.4249
 4843SOL    HW225992   1.107   4.717   2.969  0.3203  2.1387 -0.2233
 4844SOL     OW25993   4.398   0.718   3.347 -0.0323 -0.1580 -0.1655
 4844SOL    HW125994   4.312   0.677   3.357 -0.6931  1.1855 -0.4373
 4844SOL    HW225995   4.413   0.719   3.252  1.3190 -1.8321  0.0084
 4845SOL     OW25996   1.551   2.395  11.979 -0.1177  0.6046  0.1266
 4845SOL    HW125997   1.588   2.464  12.034 -0.7057 -0.1313  1.4293
 4845SOL    HW225998   1.585   2.320  12.028  1.9527  0.8140 -0.9374
 4846SOL     OW25999   2.271   1.397   6.576  0.4046  0.7304 -0.3729
 4846SOL    HW126000   2.350   1.378   6.526 -0.0400  1.5050 -1.3623
 4846SOL    HW226001   2.214   1.334   6.534  2.3305 -0.8468 -0.6166
 4847SOL     OW26002   1.677   1.031   6.421  0.1863 -0.2397 -0.4482
 4847SOL    HW126003   1.738   0.989   6.361 -2.2711 -1.2688 -2.2189
 4847SOL    HW226004   1.612   1.064   6.358 -2.8999  0.5835  3.1677
 4848SOL     OW26005   3.631   0.854  17.178 -0.5208  0.2262 -0.3552
 4848SOL    HW126006   3.676   0.877  17.260 -1.8926  0.3617  0.3534
 4848SOL    HW226007   3.551   0.819  17.217 -0.5887 -1.5948 -2.1000
 4849SOL     OW26008   1.746   0.136   9.701 -0.1846 -0.0813 -0.3117
 4849SOL    HW126009   1.651   0.124   9.698  0.0423 -1.2145 -3.0532
 4849SOL    HW226010   1.762   0.062   9.760 -1.5440  2.5351  3.2923
 4850SOL     OW26011   4.235   3.659  16.706  0.0773  0.0046  0.1921
 4850SOL    HW126012   4.213   3.622  16.620 -1.4039 -0.5700  0.8296
 4850SOL    HW226013   4.295   3.732  16.689  1.8989 -1.8971 -1.4968
 4851SOL     OW26014   0.831   1.521   5.092  0.3402 -0.4750  0.1443
 4851SOL    HW126015   0.903   1.574   5.125  0.1311 -0.4303  0.5362
 4851SOL    HW226016   0.882   1.461   5.038  0.4725 -0.0516 -0.1942
 4852SOL     OW26017   1.568   4.113   7.745  0.4536 -0.1284  0.1496
 4852SOL    HW126018   1.640   4.175   7.758 -1.3061  1.4889  2.0988
 4852SOL    HW226019   1.524   4.108   7.830  2.2547 -0.6239  1.0665
 4853SOL     OW26020   1.832   0.526   8.612 -0.2258 -0.2231  0.2338
 4853SOL    HW126021   1.848   0.435   8.639  1.1910  0.2681  1.0384
 4853SOL    HW226022   1.737   0.518   8.601 -0.3816  0.5721  0.9964
 4854SOL     OW26023   2.540   0.487   3.945 -0.5260 -0.5065  0.0925
 4854SOL    HW126024   2.549   0.436   4.025  0.8562  2.0802  1.5968
 4854SOL    HW226025   2.549   0.418   3.879  3.2059 -0.5591  0.6240
 4855SOL     OW26026   1.839   1.217   8.720  0.1578 -0.0778  0.0161
 4855SOL    HW126027   1.920   1.167   8.710 -0.1857 -0.8527  1.1092
 4855SOL    HW226028   1.842   1.230   8.815  0.1160 -0.7316  0.1074
 4856SOL     OW26029   2.083   2.601   4.553 -0.2092  0.2337 -0.5584
 4856SOL    HW126030   1.998   2.627   4.587 -0.0771 -0.7195  0.5039
 4856SOL    HW226031   2.083   2.507   4.540 -1.2867  0.1853 -0.1354
 4857SOL     OW26032   0.275   4.277   9.234  0.2457 -0.3107  0.0825
 4857SOL    HW126033   0.260   4.371   9.223  1.1792 -0.1414  0.2041
 4857SOL    HW226034   0.370   4.287   9.221  0.1061  2.0177  0.7629
 4858SOL     OW26035   2.460   1.924   8.288 -0.0517  0.0320 -0.2642
 4858SOL    HW126036   2.514   1.852   8.254 -0.3229  0.1643 -0.9741
 4858SOL    HW226037   2.468   1.903   8.381 -3.1837  1.2383  0.2554
 4859SOL     OW26038   1.853   2.174   4.605 -0.2326 -0.1049  0.2846
 4859SOL    HW126039   1.874   2.211   4.691 -0.0608 -1.1859  0.7005
 4859SOL    HW226040   1.942   2.150   4.579 -0.3962  0.0609 -0.4153
 4860SOL     OW26041   3.562   2.201   5.090 -0.9324 -0.0454 -0.4786
 4860SOL    HW126042   3.650   2.216   5.056 -0.6750 -0.5876 -0.0540
 4860SOL    HW226043   3.531   2.156   5.012 -0.1620 -1.5018  0.0646
 4861SOL     OW26044   3.432   2.589   1.504 -0.1264  0.3994 -0.7279
 4861SOL    HW126045   3.504   2.620   1.560 -1.1611 -2.1687  2.0284
 4861SOL    HW226046   3.441   2.638   1.422  2.5832  1.8575  0.4267
 4862SOL     OW26047   1.650   2.723   8.530 -0.3588 -0.4828  0.0843
 4862SOL    HW126048   1.599   2.682   8.600 -0.7490  4.1483  2.4745
 4862SOL    HW226049   1.648   2.655   8.462  0.8817 -0.1637 -0.2645
 4863SOL     OW26050   4.628   3.396   3.353  0.3816 -0.1997  0.4824
 4863SOL    HW126051   4.547   3.391   3.302 -0.5164  0.1468  1.8588
 4863SOL    HW226052   4.642   3.303   3.373 -0.4537 -0.2018  1.0472
 4864SOL     OW26053   3.359   3.966   3.609  0.4891 -0.2307  0.3832
 4864SOL    HW126054   3.385   3.958   3.700 -1.3782 -1.7624  0.7980
 4864SOL    HW226055   3.315   4.051   3.612  0.8710 -0.0637  1.0406
 4865SOL     OW26056   3.970   0.703   4.250  0.0397  0.0869 -0.4413
 4865SOL    HW126057   4.028   0.629   4.230  2.1370  1.6352 -0.0344
 4865SOL    HW226058   3.880   0.670   4.239 -0.0534  0.3892 -0.5788
 4866SOL     OW26059   1.814   2.328  13.984  0.3364 -0.3156 -0.0228
 4866SOL    HW126060   1.851   2.335  13.896 -0.6216 -4.1616 -0.7234
 4866SOL    HW226061   1.875   2.262  14.017  0.9424 -0.2655 -1.0228
 4867SOL     OW26062   1.150   2.995   9.421  0.4330  0.0304  0.1069
 4867SOL    HW126063   1.236   2.999   9.378  0.0538 -1.6639 -0.7960
 4867SOL    HW226064   1.102   2.952   9.350 -0.5013 -1.0661  1.4027
 4868SOL     OW26065   2.397   2.717  13.664 -0.2276 -0.2111 -0.8590
 4868SOL    HW126066   2.426   2.686  13.578 -0.5639  2.2712 -1.8534
 4868SOL    HW226067   2.367   2.804  13.638  4.8563  2.0228  0.5747
 4869SOL     OW26068   2.896   3.613   7.975 -0.2915  0.5156  0.5326
 4869SOL    HW126069   2.972   3.569   8.012  0.2079  0.4181 -0.6077
 4869SOL    HW226070   2.928   3.691   7.929  0.2893 -0.1960 -0.2618
 4870SOL     OW26071   2.829   2.471  16.066 -0.3648 -0.2553  0.8838
 4870SOL    HW126072   2.790   2.510  15.988  1.0914 -0.2015  0.1763
 4870SOL    HW226073   2.919   2.456  16.035 -0.4628  1.1025 -0.0530
 4871SOL     OW26074   1.177   3.194  14.771  0.3203  0.0503 -0.7489
 4871SOL    HW126075   1.198   3.280  14.734 -0.1037  1.4404  2.2101
 4871SOL    HW226076   1.159   3.138  14.696 -0.8607 -1.8594  0.9842
 4872SOL     OW26077   4.676   0.264  16.841  0.1427  0.1324  0.0436
 4872SOL    HW126078   4.719   0.204  16.780 -0.7766 -0.3776 -0.1082
 4872SOL    HW226079   4.596   0.291  16.795  0.0585  1.1541  0.8092
 4873SOL     OW26080   3.637   2.053   9.042 -0.1023 -0.1469 -0.0057
 4873SOL    HW126081   3.692   2.060   9.120 -0.6749  0.3522  0.3552
 4873SOL    HW226082   3.580   2.128   9.061 -0.9993 -1.8207  3.7538
 4874SOL     OW26083   1.093   0.333   8.464 -0.3014  0.1184 -0.7994
 4874SOL    HW126084   1.069   0.244   8.488  0.8989  0.0196  0.0257
 4874SOL    HW226085   1.003   0.362   8.454 -0.1281  0.3185 -1.8216
 4875SOL     OW26086   2.331   0.553   9.628  0.0884 -0.2178 -0.0611
 4875SOL    HW126087   2.336   0.647   9.644 -0.0377 -0.2436  0.1393
 4875SOL    HW226088   2.318   0.519   9.717  1.7636 -0.9185 -0.0808
 4876SOL     OW26089   0.401   2.191  10.305  0.4006 -0.0443  0.0145
 4876SOL    HW126090   0.318   2.191  10.258  0.3688 -0.1813  0.0716
 4876SOL    HW226091   0.402   2.108  10.353  2.6164 -0.2736 -0.4461
 4877SOL     OW26092   3.651   1.647  12.984 -0.2677 -0.1483 -0.0172
 4877SOL    HW126093   3.730   1.661  13.037  1.0201 -0.1902 -1.9328
 4877SOL    HW226094   3.595   1.596  13.043  0.1143 -0.4673  0.0697
 4878SOL     OW26095   4.450   2.512   5.095  0.0346 -0.3274 -0.4340
 4878SOL    HW126096   4.362   2.500   5.060  0.8922 -1.1426 -2.3202
 4878SOL    HW226097   4.486   2.423   5.093 -2.0912 -1.1606 -1.6625
 4879SOL     OW26098   0.406   2.369   7.767  0.5060  0.4492 -0.2036
 4879SOL    HW126099   0.394   2.451   7.719 -4.3203 -0.3730 -0.3555
 4879SOL    HW226100   0.475   2.394   7.829  0.0433  0.0443  0.4640
 4880SOL     OW26101   0.396   1.562   7.151  0.1084 -0.4117  0.4200
 4880SOL    HW126102   0.424   1.472   7.165  0.3267 -0.5419 -0.8983
 4880SOL    HW226103   0.315   1.566   7.203  1.2118 -0.6735  2.1442
 4881SOL     OW26104   1.700   2.244   2.465  0.0525  1.2592  0.4066
 4881SOL    HW126105   1.606   2.256   2.454 -0.0654  0.3464  0.4652
 4881SOL    HW226106   1.701   2.168   2.523 -1.0020  1.2981  0.4698
 4882SOL     OW26107   0.293   4.432   1.388 -0.0623  0.2208  0.0158
 4882SOL    HW126108   0.247   4.351   1.369  0.7574 -0.4756  1.0170
 4882SOL    HW226109   0.385   4.405   1.394 -0.1761 -0.0687  0.4061
 4883SOL     OW26110   3.693   0.199   7.170  0.0039  0.0389 -0.0651
 4883SOL    HW126111   3.621   0.242   7.123 -0.7051 -0.1859  0.8340
 4883SOL    HW226112   3.726   0.132   7.110  1.2360 -0.3129  1.0150
 4884SOL     OW26113   4.571   1.110  14.952 -0.4652  0.3747 -0.9236
 4884SOL    HW126114   4.511   1.172  14.911  0.4888  0.8756 -1.5854
 4884SOL    HW226115   4.592   1.058  14.875 -0.4603 -0.7703 -0.1454
 4885SOL     OW26116   1.042   1.272   3.579 -0.3904  0.2674  0.0390
 4885SOL    HW126117   0.957   1.287   3.620  0.1034 -0.5773  1.3879
 4885SOL    HW226118   1.069   1.356   3.543 -1.0101  1.3821  2.1715
 4886SOL     OW26119   0.988   4.713  16.824  0.1636  0.3274 -0.0734
 4886SOL    HW126120   1.055   0.036  16.773  0.7594  2.0157  2.2269
 4886SOL    HW226121   1.054   4.650  16.853  0.5775 -0.5898 -2.9658
 4887SOL     OW26122   4.134   3.733   8.475  0.2864  0.5023 -0.1352
 4887SOL    HW126123   4.099   3.755   8.561 -0.0528  0.4185 -0.2519
 4887SOL    HW226124   4.224   3.703   8.486 -1.0002 -1.9449  3.6158
 4888SOL     OW26125   3.094   4.630   4.485 -0.1809  0.2255 -0.0834
 4888SOL    HW126126   3.102   4.535   4.499 -0.4695  0.2099 -0.0203
 4888SOL    HW226127   3.103   4.662   4.574 -0.8787  1.0157 -0.2999
 4889SOL     OW26128   2.810   2.332  10.489 -0.4641 -0.3396 -0.0013
 4889SOL    HW126129   2.848   2.417  10.469  1.1356 -0.9086  0.5219
 4889SOL    HW226130   2.880   2.312  10.552 -0.3802  1.3902  0.4330
 4890SOL     OW26131   4.443   2.627   8.799  0.0764  0.4529 -0.0146
 4890SOL    HW126132   4.492   2.629   8.717 -0.8945 -0.5937 -0.6137
 4890SOL    HW226133   4.364   2.577   8.782  1.4753 -2.4332  1.9556
 4891SOL     OW26134   4.683   4.313  11.501  0.8450 -0.3972 -0.3723
 4891SOL    HW126135   0.037   4.260  11.479  1.0898 -0.5296  0.8151
 4891SOL    HW226136   4.619   4.247  11.475 -1.5316  1.4336  0.7883
 4892SOL     OW26137   2.970   0.748   4.676  0.0633 -0.1580  0.5727
 4892SOL    HW126138   3.000   0.813   4.740  1.0574 -1.5628  1.5364
 4892SOL    HW226139   3.028   0.673   4.690  0.2576  0.2052  1.7551
 4893SOL     OW26140   3.839   1.911   5.988  0.3398  0.5977  0.1619
 4893SOL    HW126141   3.830   1.891   5.895 -0.1764  1.7709 -0.0377
 4893SOL    HW226142   3.765   1.968   6.009 -1.4518 -2.1458  1.3116
 4894SOL     OW26143   2.068   1.178   9.108  0.6168  0.0342 -0.0804
 4894SOL    HW126144   2.063   1.106   9.045 -1.9647 -0.1042  0.2470
 4894SOL    HW226145   2.153   1.206   9.076 -1.1269  1.1122 -3.7266
 4895SOL     OW26146   1.344   2.854   1.232  0.7972  0.4306  0.0648
 4895SOL    HW126147   1.368   2.946   1.223 -2.0801  1.0761 -1.1224
 4895SOL    HW226148   1.383   2.830   1.316 -2.0275 -3.5922  0.2435
 4896SOL     OW26149   0.686   2.989   3.602  0.2955 -0.0033 -0.1771
 4896SOL    HW126150   0.688   2.980   3.506  1.5238  1.4528 -0.2980
 4896SOL    HW226151   0.771   3.032   3.613  0.1716  0.5515 -1.3396
 4897SOL     OW26152   4.157   1.158  13.593  0.1931 -0.1858 -0.0688
 4897SOL    HW126153   4.213   1.091  13.553 -0.8848 -2.1696  1.7715
 4897SOL    HW226154   4.068   1.125  13.603  0.6056 -1.3146 -0.1225
 4898SOL     OW26155   2.170   1.566  10.302  0.0990  0.1849 -0.1058
 4898SOL    HW126156   2.114   1.493  10.330  0.5867 -1.1657 -2.6242
 4898SOL    HW226157   2.255   1.523  10.304  0.0032  0.0266  0.9275
 4899SOL     OW26158   2.355   1.365   3.243 -0.0022  0.1495  0.8074
 4899SOL    HW126159   2.265   1.374   3.274 -0.5227 -0.4503 -0.5310
 4899SOL    HW226160   2.363   1.426   3.171  1.0551  0.3041  1.0508
 4900SOL     OW26161   0.470   3.852   2.591  0.2659  0.0858  0.0051
 4900SOL    HW126162   0.463   3.929   2.535  1.1591 -0.9463 -1.5215
 4900SOL    HW226163   0.529   3.790   2.547  0.5222 -0.5507  1.2436
 4901SOL     OW26164   4.299   3.705   3.605 -0.6875 -0.0694  0.0174
 4901SOL    HW126165   4.228   3.648   3.575 -0.8229 -0.8283  1.7788
 4901SOL    HW226166   4.356   3.694   3.529  0.8561 -1.9821  1.4695
 4902SOL     OW26167   0.183   2.724   0.943  0.0476  0.0176 -0.1745
 4902SOL    HW126168   0.249   2.655   0.942  1.3980  1.2921 -0.6908
 4902SOL    HW226169   0.138   2.706   0.860  0.6621  1.1114 -0.7557
 4903SOL     OW26170   1.624   3.349  16.662  0.2849  0.1946 -0.7312
 4903SOL    HW126171   1.680   3.272  16.673 -2.3467 -1.7106 -0.7728
 4903SOL    HW226172   1.655   3.403  16.735 -0.6646 -1.4890  0.9266
 4904SOL     OW26173   2.985   3.857  11.881  0.1388 -0.8660 -0.0602
 4904SOL    HW126174   2.910   3.800  11.866 -0.0351 -0.5875 -0.2383
 4904SOL    HW226175   2.977   3.891  11.970 -1.5839  0.2008 -0.6240
 4905SOL     OW26176   3.389   1.377  12.714  0.0149  0.2163  0.7665
 4905SOL    HW126177   3.476   1.416  12.724  0.7292 -1.4650  0.9787
 4905SOL    HW226178   3.343   1.442  12.768 -1.4235 -1.3734  1.4265
 4906SOL     OW26179   2.125   4.267   4.305  0.1705 -0.1435  0.4780
 4906SOL    HW126180   2.149   4.177   4.283  1.3289  1.3483 -4.2168
 4906SOL    HW226181   2.202   4.309   4.344 -0.1699  0.2498  0.7348
 4907SOL     OW26182   1.055   0.625   2.039 -0.6835  0.6202  0.4959
 4907SOL    HW126183   1.112   0.608   2.113  0.4392  0.5092 -0.3890
 4907SOL    HW226184   0.968   0.602   2.073 -1.5057  1.8054 -0.8094
 4908SOL     OW26185   2.030   3.733   9.230 -0.5333 -0.1187 -0.1114
 4908SOL    HW126186   2.119   3.743   9.196 -0.8061  0.8694 -0.5333
 4908SOL    HW226187   2.019   3.638   9.239 -0.1607 -0.0990  0.5065
 4909SOL     OW26188   1.997   3.495   3.445  0.4274 -0.2211 -0.0290
 4909SOL    HW126189   1.911   3.500   3.486  0.0555  2.0589 -1.0595
 4909SOL    HW226190   1.985   3.554   3.370  2.2763  1.0007  0.6061
 4910SOL     OW26191   1.207   0.231  12.258 -0.0388 -0.7599  0.1589
 4910SOL    HW126192   1.203   0.137  12.274  0.5597 -0.8975 -0.4640
 4910SOL    HW226193   1.115   0.255  12.245  0.1310  1.1185  2.5780
 4911SOL     OW26194   0.178   2.842   1.215  0.9592 -0.5431 -0.7422
 4911SOL    HW126195   0.254   2.785   1.225  1.9401  0.9469  0.0962
 4911SOL    HW226196   0.146   2.847   1.124  2.8903 -3.1290 -1.5824
 4912SOL     OW26197   1.144   1.300   1.353  0.5590 -0.2929 -0.0654
 4912SOL    HW126198   1.067   1.357   1.360 -1.4236 -2.8753 -0.8839
 4912SOL    HW226199   1.217   1.360   1.366  0.8814 -0.6611 -0.1758
 4913SOL     OW26200   3.112   3.947  10.460  0.5694  0.1340 -0.8142
 4913SOL    HW126201   3.166   4.023  10.439  0.1873  1.4247  2.9582
 4913SOL    HW226202   3.024   3.981  10.441 -0.7378 -0.7683  3.7854
 4914SOL     OW26203   2.758   2.561   3.082 -0.4913  0.0786 -0.1964
 4914SOL    HW126204   2.737   2.650   3.111  0.5702  0.0424  0.6756
 4914SOL    HW226205   2.675   2.523   3.111 -1.1941  1.9116  0.1812
 4915SOL     OW26206   0.147   0.077   3.515 -0.4463 -0.1745  0.0659
 4915SOL    HW126207   0.179   0.052   3.429 -2.1190 -0.8508 -0.3625
 4915SOL    HW226208   0.150   4.711   3.552  0.4337 -0.2616 -0.2126
 4916SOL     OW26209   0.120   3.461   3.837  0.3999 -0.0540  0.1538
 4916SOL    HW126210   0.114   3.450   3.932  0.0028 -2.1600 -0.1112
 4916SOL    HW226211   0.215   3.447   3.827  0.7739  2.0239  0.7204
 4917SOL     OW26212   3.332   2.730   2.761 -0.1926  0.2651  0.2402
 4917SOL    HW126213   3.359   2.641   2.738  1.5469 -0.2676  4.1545
 4917SOL    HW226214   3.246   2.732   2.721 -0.2967 -0.3794  0.4340
 4918SOL     OW26215   1.742   2.485  12.329 -0.6938  0.0798  0.2053
 4918SOL    HW126216   1.824   2.528  12.354  0.8040 -2.2945 -0.5263
 4918SOL    HW226217   1.763   2.394  12.351 -2.3112 -0.3305  0.0035
 4919SOL     OW26218   0.992   2.214  12.225  0.0582 -0.0642 -0.2567
 4919SOL    HW126219   0.964   2.174  12.308  2.7445 -0.8562  0.2697
 4919SOL    HW226220   0.930   2.195  12.156  0.2423 -0.2727 -0.3650
 4920SOL     OW26221   0.150   2.112   4.565  0.4059 -0.0477 -0.2140
 4920SOL    HW126222   0.197   2.108   4.482 -1.1857 -0.8016 -1.0903
 4920SOL    HW226223   0.159   2.202   4.598 -1.0047 -0.3879  1.0715
 4921SOL     OW26224   2.955   0.495   3.538  0.3788 -0.6437  0.8619
 4921SOL    HW126225   2.981   0.479   3.447  2.8843 -0.3603  1.5300
 4921SOL    HW226226   2.867   0.531   3.526 -0.3099 -2.5344  0.1908
 4922SOL     OW26227   1.204   2.303  12.060 -0.6059  0.4012 -0.0912
 4922SOL    HW126228   1.128   2.296  12.118 -1.8674  2.4897 -1.5195
 4922SOL    HW226229   1.241   2.390  12.069 -1.1765  0.6590 -0.2033
 4923SOL     OW26230   2.043   2.963   4.308 -1.0348 -0.3213  0.2811
 4923SOL    HW126231   2.138   2.974   4.305 -0.9855 -0.9059 -0.3536
 4923SOL    HW226232   2.029   2.969   4.213 -0.2564 -3.4809 -0.0272
 4924SOL     OW26233   0.193   4.218   5.541 -0.2650 -0.5000  0.4296
 4924SOL    HW126234   0.264   4.261   5.588 -0.2642 -0.1129  0.0838
 4924SOL    HW226235   0.223   4.128   5.528 -1.8219 -0.8394 -0.8589
 4925SOL     OW26236   2.604   2.492   6.197 -0.2324 -0.2349 -0.2789
 4925SOL    HW126237   2.609   2.585   6.221 -0.0628  0.2778 -2.2931
 4925SOL    HW226238   2.696   2.470   6.183 -0.5657 -1.6563 -0.2108
 4926SOL     OW26239   3.937   1.372  10.380 -0.3159  0.3287 -0.9074
 4926SOL    HW126240   4.005   1.310  10.407 -0.4179  0.6695  0.1266
 4926SOL    HW226241   3.906   1.340  10.295  0.1169 -0.4420 -0.7778
 4927SOL     OW26242   1.687   4.291   6.538  0.0377  0.2344 -0.7864
 4927SOL    HW126243   1.630   4.356   6.499 -0.9911 -1.4407 -2.0507
 4927SOL    HW226244   1.730   4.347   6.604 -0.1399  0.5454 -0.9371
 4928SOL     OW26245   3.680   1.076  11.518  0.2262  0.4062  0.4364
 4928SOL    HW126246   3.599   1.121  11.542 -0.2209  0.4644 -1.2088
 4928SOL    HW226247   3.663   1.076  11.424 -0.5184 -0.6258  0.5715
 4929SOL     OW26248   4.380   2.919   7.797  0.0944 -0.0052 -0.3686
 4929SOL    HW126249   4.420   2.834   7.777 -0.6040 -0.2074 -0.8831
 4929SOL    HW226250   4.288   2.895   7.803 -0.1641  1.3094  0.9325
 4930SOL     OW26251   3.929   1.901   7.056 -0.8866  0.2662  0.2225
 4930SOL    HW126252   3.915   1.886   7.150  2.9501 -0.4066  0.6938
 4930SOL    HW226253   3.848   1.946   7.033  0.1361  1.4960 -0.9434
 4931SOL     OW26254   3.955   0.557   9.954  0.0590 -0.2786  0.2574
 4931SOL    HW126255   4.020   0.560   9.884 -1.7410  0.5169 -1.3691
 4931SOL    HW226256   4.001   0.621  10.008  0.4762  1.2123 -1.8743
 4932SOL     OW26257   1.101   4.232   8.262 -0.0832  0.7934 -0.2042
 4932SOL    HW126258   1.101   4.136   8.261 -0.9462  0.7917 -0.5418
 4932SOL    HW226259   1.028   4.253   8.204 -2.6888 -0.0546  2.7523
 4933SOL     OW26260   3.403   2.423  10.369  0.0443 -0.8560  0.6780
 4933SOL    HW126261   3.393   2.412  10.275  0.3452 -0.2154  0.5707
 4933SOL    HW226262   3.478   2.482  10.373 -0.5760  0.0510 -1.0155
 4934SOL     OW26263   3.011   2.864   0.282 -0.2208 -0.2479  0.3676
 4934SOL    HW126264   3.058   2.935   0.326  0.8061 -0.0123 -1.1028
 4934SOL    HW226265   3.000   2.801   0.354 -1.5862 -2.1067 -1.4803
 4935SOL     OW26266   0.000   2.704   4.286 -0.7901  0.2239 -0.2740
 4935SOL    HW126267   4.696   2.671   4.200  1.0529  0.7956 -1.0601
 4935SOL    HW226268   4.651   2.767   4.296  0.4995  1.2217  2.9351
 4936SOL     OW26269   1.364   3.074   9.275  0.1775  0.3386  0.4254
 4936SOL    HW126270   1.404   3.004   9.224  0.6800 -0.3483  1.7543
 4936SOL    HW226271   1.431   3.139   9.295  0.8111 -0.4287  0.7697
 4937SOL     OW26272   2.031   0.723  11.293  0.2932 -0.3066 -0.2864
 4937SOL    HW126273   2.074   0.807  11.308 -0.6090  0.9654 -4.9026
 4937SOL    HW226274   2.027   0.686  11.381 -2.4314 -0.3339 -0.4399
 4938SOL     OW26275   0.472   2.220  16.589  0.2220 -0.2328  0.1375
 4938SOL    HW126276   0.425   2.298  16.619 -0.1461 -0.4427  0.1008
 4938SOL    HW226277   0.494   2.247  16.500  0.1954  0.6849  0.4021
 4939SOL     OW26278   2.545   0.452   7.071 -0.0358 -0.4646  0.1044
 4939SOL    HW126279   2.550   0.421   6.981 -2.1261  0.9789 -0.5235
 4939SOL    HW226280   2.450   0.447   7.083 -0.1068  0.4232 -0.1129
 4940SOL     OW26281   0.809   3.902  17.636  0.3016 -0.4573  0.1926
 4940SOL    HW126282   0.750   3.861  17.574 -0.9876  1.6059  0.0612
 4940SOL    HW226283   0.830   3.827   0.002  1.9194  0.2058  0.4678
 4941SOL     OW26284   3.103   2.269   7.489  0.2186 -0.4414  0.4788
 4941SOL    HW126285   3.187   2.230   7.514  1.9730  3.6988  1.0824
 4941SOL    HW226286   3.061   2.185   7.472  1.2206 -0.4856 -1.8231
 4942SOL     OW26287   1.520   2.888  12.552  0.1441  0.3571 -0.0661
 4942SOL    HW126288   1.597   2.897  12.609 -0.1446 -0.0926  0.3987
 4942SOL    HW226289   1.564   2.904  12.469  1.2859  1.8078  0.8105
 4943SOL     OW26290   0.748   3.605   9.263 -0.2863 -0.3684  0.5399
 4943SOL    HW126291   0.816   3.540   9.280  0.2731  0.3612  1.0836
 4943SOL    HW226292   0.668   3.561   9.292 -0.7871  0.0880 -0.1447
 4944SOL     OW26293   1.798   0.989  11.876 -0.6519  0.3177  0.2993
 4944SOL    HW126294   1.743   0.983  11.798  0.6519 -0.6308 -0.5399
 4944SOL    HW226295   1.863   0.921  11.863  0.3086  1.1590  0.6825
 4945SOL     OW26296   4.272   0.527   5.905  0.2651 -0.2770 -0.5563
 4945SOL    HW126297   4.350   0.504   5.955 -1.7332 -0.8769  2.3536
 4945SOL    HW226298   4.307   0.560   5.822  0.4225 -2.9026 -1.5367
 4946SOL     OW26299   1.845   0.190  14.193 -0.4306 -0.4523  0.5100
 4946SOL    HW126300   1.901   0.133  14.140 -0.8187  1.8991 -2.4944
 4946SOL    HW226301   1.856   0.264  14.132 -1.0339 -0.6873  0.1152
 4947SOL     OW26302   0.877   0.090  17.058 -0.5037  0.0879 -0.7168
 4947SOL    HW126303   0.923   0.043  16.988  0.7507  0.8116 -0.3759
 4947SOL    HW226304   0.952   0.144  17.083 -0.0626 -0.5481 -0.6345
 4948SOL     OW26305   1.596   3.109   1.671 -0.7167 -0.1155 -0.7253
 4948SOL    HW126306   1.679   3.071   1.700  0.9876  2.0231 -2.7890
 4948SOL    HW226307   1.532   3.062   1.724 -0.5375 -0.1401 -0.5336
 4949SOL     OW26308   2.288   0.963   7.168  0.1267 -0.4037 -0.2011
 4949SOL    HW126309   2.326   0.876   7.179  0.2990 -0.6273 -2.5302
 4949SOL    HW226310   2.206   0.957   7.216  0.0127 -2.4373 -0.6372
 4950SOL     OW26311   4.450   3.463  14.345  0.8993 -0.1015  0.0840
 4950SOL    HW126312   4.369   3.488  14.301  1.3105  0.1415 -0.5304
 4950SOL    HW226313   4.509   3.480  14.272  1.0757 -3.0924 -0.4592
 4951SOL     OW26314   2.244   3.153   3.199 -0.0722  0.2974  0.5774
 4951SOL    HW126315   2.231   3.229   3.255  2.4864 -0.0830  1.6729
 4951SOL    HW226316   2.235   3.190   3.111 -0.3897 -2.1266 -0.4142
 4952SOL     OW26317   4.538   1.129   2.713 -0.3636 -0.2146  0.2611
 4952SOL    HW126318   4.626   1.157   2.737 -0.0999 -0.5699 -0.2964
 4952SOL    HW226319   4.518   1.204   2.658 -1.5239 -0.9029 -0.2436
 4953SOL     OW26320   0.727   0.257  11.369  0.6595 -0.0360 -0.5013
 4953SOL    HW126321   0.780   0.318  11.421 -0.4280  0.8100 -0.3733
 4953SOL    HW226322   0.790   0.186  11.357  0.8090  0.0168 -0.0364
 4954SOL     OW26323   2.843   4.638   1.257 -0.3863  0.1585  0.3627
 4954SOL    HW126324   2.869   4.656   1.167 -3.3472  1.2050 -0.3045
 4954SOL    HW226325   2.922   4.599   1.293 -0.0477  1.0457  0.5818
 4955SOL     OW26326   0.687   2.936  17.102  0.0098 -0.3023  0.3018
 4955SOL    HW126327   0.707   2.846  17.127  0.7609 -0.2518 -0.1359
 4955SOL    HW226328   0.678   2.921  17.007  3.0799  0.2173 -0.0622
 4956SOL     OW26329   1.729   2.409   1.952 -0.3015 -0.3611  0.1401
 4956SOL    HW126330   1.705   2.416   2.044 -3.2917  1.6303 -0.7869
 4956SOL    HW226331   1.653   2.446   1.907  0.7272  3.3863  1.4586
 4957SOL     OW26332   4.525   1.283  13.795 -0.8211 -0.3243  0.4476
 4957SOL    HW126333   4.446   1.321  13.755 -1.8768 -1.9648  0.9860
 4957SOL    HW226334   4.553   1.355  13.852 -0.6280 -1.0549  1.2686
 4958SOL     OW26335   3.868   4.194  10.210 -0.1041 -0.7292 -0.0135
 4958SOL    HW126336   3.897   4.188  10.301 -1.2072 -1.8271  0.2667
 4958SOL    HW226337   3.958   4.187  10.179  0.0557  0.8827  0.0799
 4959SOL     OW26338   3.917   4.367   5.368  0.2378  0.3548 -0.1652
 4959SOL    HW126339   3.915   4.333   5.278  1.9888 -1.9597  0.6580
 4959SOL    HW226340   3.934   4.284   5.413 -0.0778  0.3083 -0.1328
 4960SOL     OW26341   4.339   1.937   3.544 -0.3920 -0.5927  0.5329
 4960SOL    HW126342   4.322   1.988   3.465  0.8430  1.3707  1.5268
 4960SOL    HW226343   4.381   2.004   3.598  0.2971  1.6977 -2.8219
 4961SOL     OW26344   4.070   2.953   6.584 -0.5935 -0.5217  0.6756
 4961SOL    HW126345   4.072   2.866   6.623  2.7550 -2.0129 -2.8449
 4961SOL    HW226346   4.083   3.007   6.663 -0.4317  0.7998 -0.2549
 4962SOL     OW26347   2.335   3.791   1.630  0.2176 -0.0925 -0.2589
 4962SOL    HW126348   2.350   3.885   1.636 -3.6574  0.3964  2.1402
 4962SOL    HW226349   2.428   3.769   1.626 -0.0643 -1.2490 -0.5224
 4963SOL     OW26350   3.017   4.554   8.799  0.2975  0.4586 -0.0142
 4963SOL    HW126351   2.940   4.573   8.853 -0.8787 -1.8578 -0.8798
 4963SOL    HW226352   2.989   4.471   8.762  0.4830  1.0667 -1.4889
 4964SOL     OW26353   0.979   3.103   0.712 -0.5417  0.3949  0.6240
 4964SOL    HW126354   0.953   3.151   0.633  0.0691  0.3125  0.3675
 4964SOL    HW226355   0.896   3.103   0.760 -1.1634  1.2985 -0.4362
 4965SOL     OW26356   0.956   2.998   8.271 -0.6791 -0.1877 -0.0831
 4965SOL    HW126357   0.888   3.026   8.209  0.2881  1.3953 -0.4122
 4965SOL    HW226358   0.995   3.085   8.282  0.4020 -0.8190  1.1413
 4966SOL     OW26359   0.137   4.098   8.830 -0.2151  0.2007  0.1811
 4966SOL    HW126360   0.184   4.036   8.886 -1.4892 -1.2072 -0.2852
 4966SOL    HW226361   0.101   4.162   8.891 -0.2454 -0.0946  0.4696
 4967SOL     OW26362   4.496   3.826  15.738  0.0805  0.3740  0.0072
 4967SOL    HW126363   4.477   3.805  15.646  1.9042 -2.3703  0.2744
 4967SOL    HW226364   4.509   3.744  15.786 -0.8337 -0.5177 -1.2557
 4968SOL     OW26365   2.400   3.781   7.602 -0.0665 -0.3280 -0.1843
 4968SOL    HW126366   2.382   3.866   7.563 -0.6062 -0.8055 -0.9954
 4968SOL    HW226367   2.477   3.795   7.657  0.2194 -1.0811 -0.3947
 4969SOL     OW26368   2.936   2.490   3.347  0.5572  0.0240 -0.8380
 4969SOL    HW126369   3.030   2.506   3.343  0.5965  0.2383  0.7346
 4969SOL    HW226370   2.948   2.397   3.370 -0.2532 -0.3592 -1.9682
 4970SOL     OW26371   4.622   0.044   6.642 -0.2381 -0.3490 -0.0435
 4970SOL    HW126372   4.649   4.711   6.715  0.3896 -0.7685 -0.5931
 4970SOL    HW226373   4.631   0.136   6.669 -0.3397 -0.5487  0.6692
 4971SOL     OW26374   1.171   1.543   2.490  0.2577  0.0638 -0.3208
 4971SOL    HW126375   1.189   1.473   2.428 -0.3808  0.1848 -0.6343
 4971SOL    HW226376   1.214   1.610   2.437  0.1534 -0.7767 -1.4725
 4972SOL     OW26377   3.168   1.855  10.978 -0.1386  0.0490  0.4559
 4972SOL    HW126378   3.129   1.775  10.943 -1.2161  0.0479  1.6470
 4972SOL    HW226379   3.094   1.893  11.026 -2.3673 -0.6907 -2.3825
 4973SOL     OW26380   1.370   4.127  16.698  0.1316  0.1495 -1.3081
 4973SOL    HW126381   1.459   4.158  16.719  0.6319 -1.3562 -1.2089
 4973SOL    HW226382   1.316   4.180  16.756 -1.0770 -0.7449 -1.6226
 4974SOL     OW26383   1.286   1.489   6.824 -1.1072  0.7843  0.2195
 4974SOL    HW126384   1.198   1.473   6.859 -0.2370 -0.3073  1.9064
 4974SOL    HW226385   1.308   1.559   6.885 -1.1967  1.1314 -0.1419
 4975SOL     OW26386   1.246   3.910   8.246  0.1065 -0.2398  0.4239
 4975SOL    HW126387   1.157   3.890   8.218  0.0346 -0.4311  0.7953
 4975SOL    HW226388   1.289   3.838   8.200  1.6991  0.3354  1.0132
 4976SOL     OW26389   0.738   3.719   5.246 -0.3345  0.1945 -0.2906
 4976SOL    HW126390   0.690   3.660   5.304  1.2177 -0.6670  0.1289
 4976SOL    HW226391   0.828   3.687   5.259 -0.7052  0.2257  2.4165
 4977SOL     OW26392   0.619   1.573   6.556 -0.8435 -0.0300 -0.2212
 4977SOL    HW126393   0.670   1.654   6.553  3.0272 -2.4080  1.5780
 4977SOL    HW226394   0.552   1.592   6.490  0.1197  0.7650 -0.9833
 4978SOL     OW26395   0.077   3.888   9.210  0.3240 -0.4655  0.1922
 4978SOL    HW126396   0.015   3.888   9.283  1.9108  2.6668  1.5559
 4978SOL    HW226397   0.142   3.954   9.235  0.7308 -1.1457  0.9205
 4979SOL     OW26398   0.856   0.743   2.491 -0.4930  0.4317  0.3090
 4979SOL    HW126399   0.844   0.740   2.586  2.7466 -1.3377  0.6444
 4979SOL    HW226400   0.778   0.790   2.460  0.8152  1.1406 -1.8584
 4980SOL     OW26401   2.319   4.059   1.701 -0.0096  0.5689  0.4618
 4980SOL    HW126402   2.371   4.035   1.778 -0.7996 -1.3509  0.4009
 4980SOL    HW226403   2.372   4.132   1.668 -0.5270  0.4836 -0.5492
 4981SOL     OW26404   3.253   1.626   7.329  0.0165 -0.5122 -0.5358
 4981SOL    HW126405   3.231   1.627   7.236  0.4876 -1.7011 -0.6474
 4981SOL    HW226406   3.263   1.721   7.336  1.2203 -0.7442  0.8966
 4982SOL     OW26407   0.318   3.974   8.058 -0.0900  0.0540  0.1676
 4982SOL    HW126408   0.279   4.062   8.061 -1.5534 -0.5736 -0.3003
 4982SOL    HW226409   0.360   3.974   8.144  2.8771 -1.2754 -1.2686
 4983SOL     OW26410   0.432   1.271   7.249  0.1719  0.1077  0.3930
 4983SOL    HW126411   0.417   1.198   7.190 -0.8818  1.5170 -1.0792
 4983SOL    HW226412   0.528   1.273   7.247  0.2492 -2.1657  1.7757
 4984SOL     OW26413   1.365   3.309   8.312  0.6806 -0.3848  0.0108
 4984SOL    HW126414   1.329   3.355   8.236  1.6770  1.6188  0.7592
 4984SOL    HW226415   1.451   3.350   8.318 -1.4745  4.0668  0.6362
 4985SOL     OW26416   3.765   3.946   3.103 -0.4765  0.9592 -0.0204
 4985SOL    HW126417   3.731   3.901   3.025  1.7616 -0.4214 -0.1967
 4985SOL    HW226418   3.807   4.027   3.076  0.2503  0.3281 -0.7893
 4986SOL     OW26419   2.722   0.437   6.652 -0.0414  0.0330  0.1264
 4986SOL    HW126420   2.734   0.510   6.591 -0.4065  0.7815  0.9388
 4986SOL    HW226421   2.723   0.482   6.737  0.2942  1.9234 -0.8769
 4987SOL     OW26422   4.027   1.822  13.355 -0.0342  1.0056 -0.6346
 4987SOL    HW126423   4.087   1.895  13.340  1.5374 -0.0288  0.6075
 4987SOL    HW226424   4.064   1.785  13.435 -2.9299 -1.4463 -0.3969
 4988SOL     OW26425   3.379   2.592   8.484  0.3791 -0.3783 -0.2418
 4988SOL    HW126426   3.317   2.601   8.412  0.8461 -1.8334 -0.8415
 4988SOL    HW226427   3.369   2.672   8.535 -2.6624  1.0540 -3.0689
 4989SOL     OW26428   0.709   4.441   3.178  0.5001  0.0599  0.3165
 4989SOL    HW126429   0.720   4.489   3.096 -2.4592 -0.2224 -0.2606
 4989SOL    HW226430   0.708   4.516   3.238  0.9426 -0.8444  1.4515
 4990SOL     OW26431   1.823   3.853  10.495  0.2092  0.2510 -0.3583
 4990SOL    HW126432   1.847   3.872  10.404  0.4078  1.7400  0.0032
 4990SOL    HW226433   1.802   3.760  10.484  2.0484 -0.0774 -1.1137
 4991SOL     OW26434   3.870   3.891   8.966  0.0356  0.0824  0.0203
 4991SOL    HW126435   3.819   3.932   9.036 -1.6934 -1.8179 -0.1234
 4991SOL    HW226436   3.945   3.864   9.019 -0.9550  0.2276  1.4900
 4992SOL     OW26437   4.424   0.765  13.460  0.1726  0.3175 -0.1702
 4992SOL    HW126438   4.374   0.746  13.380  1.4975  0.6047 -1.0593
 4992SOL    HW226439   4.500   0.707  13.452  0.0578  0.1447 -0.0128
 4993SOL     OW26440   1.708   2.256   5.501 -0.0685 -0.3396  0.2794
 4993SOL    HW126441   1.733   2.339   5.462  1.1563 -1.7520 -1.9218
 4993SOL    HW226442   1.633   2.227   5.450  0.3943 -0.6667 -0.2187
 4994SOL     OW26443   3.428   3.556   7.571 -0.0477 -0.2418  0.1430
 4994SOL    HW126444   3.426   3.575   7.664  1.7678 -0.4931  0.2373
 4994SOL    HW226445   3.402   3.644   7.541 -2.4343 -0.5972  1.1632
 4995SOL     OW26446   0.654   3.139  12.668 -0.5930 -0.2815 -0.6673
 4995SOL    HW126447   0.735   3.093  12.689 -0.5412 -0.1184 -0.5105
 4995SOL    HW226448   0.590   3.070  12.653 -0.6006 -0.7774  1.5587
 4996SOL     OW26449   2.679   0.202  12.633  0.1275 -0.0309  0.3356
 4996SOL    HW126450   2.610   0.177  12.695 -0.6166  0.1777 -0.4102
 4996SOL    HW226451   2.757   0.158  12.666  0.0818 -0.4706 -0.1520
 4997SOL     OW26452   1.732   4.384   4.734 -0.1922  0.2882 -0.3555
 4997SOL    HW126453   1.801   4.391   4.668 -0.5629 -1.3394 -0.9277
 4997SOL    HW226454   1.786   4.363   4.811 -0.6462  0.2998 -0.0361
 4998SOL     OW26455   3.048   2.708   2.970 -0.2707  0.1443  0.0229
 4998SOL    HW126456   3.089   2.627   3.001  0.4220  0.4320 -0.1308
 4998SOL    HW226457   2.988   2.719   3.044 -2.4598 -4.0080 -1.1446
 4999SOL     OW26458   1.545   2.416  14.086  0.0669 -0.0328 -0.3643
 4999SOL    HW126459   1.632   2.387  14.057  0.5201 -0.8012  1.7742
 4999SOL    HW226460   1.557   2.399  14.179  0.6251 -1.4941 -0.7103
 5000SOL     OW26461   1.437   4.357   3.689 -0.1655  0.7201 -0.4529
 5000SOL    HW126462   1.495   4.426   3.720 -0.3994  0.6404  0.1612
 5000SOL    HW226463   1.503   4.288   3.698  0.3295  1.1768 -0.5491
 5001SOL     OW26464   0.363   1.676   5.125 -0.3330  0.6156  0.5021
 5001SOL    HW126465   0.318   1.726   5.056 -0.6609 -3.6591 -2.4382
 5001SOL    HW226466   0.453   1.696   5.101 -0.6836  0.2593 -1.1382
 5002SOL     OW26467   4.329   3.374  11.885  0.0048 -0.1475 -0.0799
 5002SOL    HW126468   4.386   3.375  11.962  2.7468 -0.9925 -2.0827
 5002SOL    HW226469   4.392   3.380  11.813 -0.1667 -0.1143 -0.2273
 5003SOL     OW26470   2.634   3.165   5.169 -0.5785 -0.1512 -0.4309
 5003SOL    HW126471   2.725   3.180   5.143 -0.4927  2.1343  1.1589
 5003SOL    HW226472   2.645   3.152   5.263 -0.0572  0.6987 -0.3752
 5004SOL     OW26473   0.123   2.395   9.943  0.1028  0.1811  0.2315
 5004SOL    HW126474   0.166   2.324   9.895  1.4531 -0.1415  1.9239
 5004SOL    HW226475   0.035   2.397   9.905  0.5482  0.1141 -0.8062
 5005SOL     OW26476   1.082   4.083  15.208 -0.1931  0.1728  0.1734
 5005SOL    HW126477   1.164   4.065  15.161 -1.1178 -0.7434 -1.0989
 5005SOL    HW226478   1.050   4.152  15.150 -0.3300  1.4446  1.7929
 5006SOL     OW26479   4.211   1.083  10.054  0.1785 -0.0993 -0.4952
 5006SOL    HW126480   4.301   1.065  10.025 -0.2100  0.5282 -2.0423
 5006SOL    HW226481   4.159   1.006  10.029  0.5739 -0.5968  0.2096
 5007SOL     OW26482   3.453   0.195  12.070  0.2216  0.2314  0.3708
 5007SOL    HW126483   3.489   0.200  12.159  2.1932  0.1783 -0.4338
 5007SOL    HW226484   3.517   0.136  12.030  0.7696  1.8134 -1.0961
 5008SOL     OW26485   2.864   0.539   2.617  0.1491  0.4656  0.3226
 5008SOL    HW126486   2.930   0.511   2.553  1.0667  1.3567  0.8789
 5008SOL    HW226487   2.826   0.454   2.640 -0.3327  0.5497 -0.1601
 5009SOL     OW26488   3.675   3.912   4.771  0.0572 -0.4332 -0.4478
 5009SOL    HW126489   3.662   4.007   4.779  0.4808 -0.4282  0.1437
 5009SOL    HW226490   3.763   3.915   4.734 -0.1413  2.3727 -0.7143
 5010SOL     OW26491   1.679   0.768   6.047  0.2691 -0.4053  0.2846
 5010SOL    HW126492   1.605   0.824   6.067  0.9237  0.5789 -0.0767
 5010SOL    HW226493   1.749   0.828   6.071 -1.0877  1.0976  0.4612
 5011SOL     OW26494   1.432   4.588   8.568 -0.3272  0.5581 -0.0435
 5011SOL    HW126495   1.442   4.681   8.586 -0.4008  1.0342 -2.5275
 5011SOL    HW226496   1.401   4.582   8.478 -1.0907  1.5060  0.1510
 5012SOL     OW26497   2.798   4.485  13.278 -0.4465  0.0474  0.1837
 5012SOL    HW126498   2.796   4.462  13.185  0.5075  1.4249 -0.1778
 5012SOL    HW226499   2.726   4.548  13.279  1.3073  2.1214 -3.9604
 5013SOL     OW26500   2.125   2.178   7.110 -0.0535  0.3763  0.0591
 5013SOL    HW126501   2.097   2.139   7.193 -1.7665 -0.6450 -0.9976
 5013SOL    HW226502   2.212   2.138   7.101  0.4391  1.5150 -0.1388
 5014SOL     OW26503   1.270   3.561   8.470 -0.4261 -0.2474 -0.6247
 5014SOL    HW126504   1.328   3.487   8.451  2.0061  1.4555  0.2145
 5014SOL    HW226505   1.324   3.616   8.528 -0.8418  0.0355 -0.5090
 5015SOL     OW26506   1.254   4.108   4.598 -0.0994 -0.3366 -0.6353
 5015SOL    HW126507   1.281   4.158   4.522 -3.0319  1.0968 -0.7347
 5015SOL    HW226508   1.330   4.095   4.655 -0.3133  0.2811 -0.2119
 5016SOL     OW26509   2.121   4.298  10.651 -0.2549  0.8768  0.2604
 5016SOL    HW126510   2.158   4.338  10.572 -0.1696  1.0289  0.3779
 5016SOL    HW226511   2.032   4.272  10.630 -0.6426  0.2018  2.7704
 5017SOL     OW26512   4.232   3.320  10.570  0.0015 -0.3683  0.1817
 5017SOL    HW126513   4.186   3.240  10.547 -0.3291  0.2579 -1.3767
 5017SOL    HW226514   4.316   3.292  10.533 -0.4073 -0.8295 -0.3836
 5018SOL     OW26515   3.014   3.622   3.430  0.3965 -0.1008 -0.0639
 5018SOL    HW126516   2.980   3.702   3.389  1.3810  0.2756 -0.1632
 5018SOL    HW226517   3.035   3.574   3.350 -0.4521 -0.9763  0.2441
 5019SOL     OW26518   3.552   0.026   6.841  0.4798  0.4449 -0.9170
 5019SOL    HW126519   3.606   0.002   6.917 -2.0781 -1.8325  0.1761
 5019SOL    HW226520   3.595   0.109   6.817 -0.1086  2.0953  3.7303
 5020SOL     OW26521   2.475   1.148   3.062 -0.4515  0.0617 -0.1951
 5020SOL    HW126522   2.453   1.240   3.048  1.0257  0.3076 -0.9241
 5020SOL    HW226523   2.522   1.127   2.981  0.3631 -2.4201  0.9297
 5021SOL     OW26524   2.102   3.806  11.311 -0.1640 -0.1362  0.1240
 5021SOL    HW126525   2.018   3.812  11.265 -0.2393 -0.7398  0.1811
 5021SOL    HW226526   2.116   3.895  11.342 -1.7139  0.4801 -0.9693
 5022SOL     OW26527   4.552   4.675  12.299 -0.3829  0.1003 -0.5151
 5022SOL    HW126528   4.579   4.592  12.339  0.1591  0.6785  0.3227
 5022SOL    HW226529   4.503   4.667  12.218 -1.3773 -1.6981  0.2651
 5023SOL     OW26530   3.649   1.248   3.542 -0.5944  0.1823 -0.4446
 5023SOL    HW126531   3.661   1.249   3.447 -1.5394  2.5400 -0.5591
 5023SOL    HW226532   3.572   1.306   3.538 -1.1384 -0.3873  1.6864
 5024SOL     OW26533   3.669   0.894   8.450 -0.1221  0.4138  0.5831
 5024SOL    HW126534   3.679   0.990   8.448  2.8181  0.0612 -0.1416
 5024SOL    HW226535   3.738   0.870   8.389  1.2495  0.5965  2.0664
 5025SOL     OW26536   1.114   3.567   1.071 -0.5285  0.2886 -0.0981
 5025SOL    HW126537   1.044   3.551   1.134  1.2105  0.8242  1.9552
 5025SOL    HW226538   1.184   3.510   1.103 -0.9329 -0.4040 -0.4385
 5026SOL     OW26539   2.186   0.073  16.175 -0.5315  0.4431  0.2446
 5026SOL    HW126540   2.191   4.707  16.138  1.2000  0.6838 -0.1092
 5026SOL    HW226541   2.101   0.100  16.143 -0.6602 -1.0659 -0.6941
 5027SOL     OW26542   1.630   3.051   6.812 -0.1114  1.1867 -0.2211
 5027SOL    HW126543   1.552   3.104   6.798 -0.9274 -0.8886 -3.6188
 5027SOL    HW226544   1.692   3.097   6.869 -0.5369  3.3834 -1.5673
 5028SOL     OW26545   3.310   2.711   7.781  0.5438  0.0424  0.0040
 5028SOL    HW126546   3.379   2.739   7.841  2.0617 -0.3985 -1.5526
 5028SOL    HW226547   3.364   2.668   7.715 -0.5980 -1.8610  0.2917
 5029SOL     OW26548   1.156   3.209  15.925  0.3875  0.3616 -0.0078
 5029SOL    HW126549   1.067   3.238  15.943  0.7686 -0.6040  3.4112
 5029SOL    HW226550   1.139   3.141  15.859 -1.1211 -1.2607  2.0548
 5030SOL     OW26551   3.658   3.159   4.552  0.0111 -0.5487 -0.2033
 5030SOL    HW126552   3.664   3.143   4.647 -1.7734 -0.5597 -0.0751
 5030SOL    HW226553   3.568   3.129   4.535 -0.6846  1.3309  0.1887
 5031SOL     OW26554   1.827   0.392   8.935 -0.0423 -0.2263  0.5976
 5031SOL    HW126555   1.890   0.369   8.866  0.3278 -0.0506  0.8793
 5031SOL    HW226556   1.887   0.370   9.006  1.2122  1.3021 -0.0036
 5032SOL     OW26557   3.176   2.154   0.633  0.2863 -0.5536  0.2281
 5032SOL    HW126558   3.167   2.249   0.645 -0.7983 -0.9564  2.6434
 5032SOL    HW226559   3.122   2.131   0.709  1.5854 -0.8843  1.0578
 5033SOL     OW26560   3.212   1.394   3.173  0.1279 -0.5694  0.0652
 5033SOL    HW126561   3.160   1.402   3.253 -0.3175  2.4708 -0.5428
 5033SOL    HW226562   3.252   1.477   3.150 -0.5916 -0.4449 -0.7424
 5034SOL     OW26563   0.487   0.884   3.370 -0.2528 -0.4520 -0.6535
 5034SOL    HW126564   0.446   0.903   3.286  1.3663  0.1504 -1.3131
 5034SOL    HW226565   0.469   0.964   3.421  1.0220 -0.0524 -0.8221
 5035SOL     OW26566   2.531   0.101   6.197 -0.4636  0.5318  0.7755
 5035SOL    HW126567   2.460   0.134   6.142  2.2400  0.8819 -2.4923
 5035SOL    HW226568   2.489   0.056   6.270 -1.0930  2.9944  1.9159
 5036SOL     OW26569   4.174   1.814   8.278 -0.5621  0.4929 -0.1285
 5036SOL    HW126570   4.252   1.798   8.224 -1.0711 -1.4746 -0.2601
 5036SOL    HW226571   4.183   1.899   8.322 -1.3492  0.3152  0.3595
 5037SOL     OW26572   0.305   0.285   4.565 -0.0844  0.4082  0.8215
 5037SOL    HW126573   0.396   0.288   4.594  0.3829  1.6611 -0.7266
 5037SOL    HW226574   0.266   0.332   4.639  1.6991  2.0754  0.6939
 5038SOL     OW26575   4.198   2.002   1.429  0.5685  0.2285  0.1763
 5038SOL    HW126576   4.216   1.916   1.465 -0.5072  0.1687  0.5965
 5038SOL    HW226577   4.117   1.984   1.381  0.7616  1.7520 -0.7276
 5039SOL     OW26578   1.139   3.094  10.456 -0.0232 -0.0364  0.1127
 5039SOL    HW126579   1.070   3.089  10.389  2.9356 -0.9666 -2.8770
 5039SOL    HW226580   1.215   3.070  10.403 -0.3907 -1.1024  0.0736
 5040SOL     OW26581   2.149   4.642   6.327 -0.0895  0.3946 -0.2532
 5040SOL    HW126582   2.218   4.698   6.364  0.7381 -1.0669  0.4014
 5040SOL    HW226583   2.117   4.686   6.248 -2.1188  1.2323  1.0456
 5041SOL     OW26584   3.492   1.621   4.680 -0.5500  0.1345  0.7894
 5041SOL    HW126585   3.470   1.529   4.691 -1.2629 -0.1222 -2.7514
 5041SOL    HW226586   3.583   1.602   4.701 -0.2604  0.6165 -0.0305
 5042SOL     OW26587   3.375   3.331   5.573 -0.9214  0.1619  0.2751
 5042SOL    HW126588   3.319   3.362   5.645 -1.1373 -1.0165  0.6089
 5042SOL    HW226589   3.454   3.313   5.623  0.1471  4.2989  0.1048
 5043SOL     OW26590   4.345   2.367  12.996  0.3520  0.5492 -0.2966
 5043SOL    HW126591   4.360   2.421  13.073 -0.3528  0.8770 -0.3915
 5043SOL    HW226592   4.323   2.430  12.927 -0.9974  0.2798 -0.1080
 5044SOL     OW26593   0.879   4.419   8.698 -0.3187  0.0492 -0.3873
 5044SOL    HW126594   0.832   4.425   8.782  1.6367  0.0781  0.6986
 5044SOL    HW226595   0.960   4.374   8.720  0.3349  1.7213  0.6622
 5045SOL     OW26596   1.011   3.257  15.494 -0.3232  0.2005 -0.5513
 5045SOL    HW126597   0.972   3.326  15.440  1.9769  2.4454  0.6797
 5045SOL    HW226598   1.025   3.185  15.432 -1.9225 -1.7220  1.3165
 5046SOL     OW26599   0.533   0.541   4.353 -0.4210 -0.0562 -0.4169
 5046SOL    HW126600   0.582   0.618   4.384 -1.2895  0.0075  0.7789
 5046SOL    HW226601   0.460   0.583   4.307 -1.3220  0.1398  1.2015
 5047SOL     OW26602   1.983   2.070   9.414  0.3270  0.0505  0.5014
 5047SOL    HW126603   2.035   2.007   9.464  2.3737  1.4423  0.1136
 5047SOL    HW226604   1.927   2.095   9.487 -1.4815  2.2140 -1.6503
 5048SOL     OW26605   0.660   0.983   1.816  0.0373 -0.0920 -0.1570
 5048SOL    HW126606   0.697   1.071   1.823  0.6292 -0.6832  4.1031
 5048SOL    HW226607   0.723   0.927   1.861 -0.1646 -0.6746 -0.5969
 5049SOL     OW26608   2.080   2.067  10.375 -0.1788  0.7515 -0.0691
 5049SOL    HW126609   2.173   2.084  10.385  0.2546 -1.9195  0.3193
 5049SOL    HW226610   2.086   1.974  10.355 -3.5358  0.1767  1.6024
 5050SOL     OW26611   2.386   2.043   6.158 -0.3475 -0.0209 -0.3614
 5050SOL    HW126612   2.413   2.123   6.114  0.8261 -1.5141 -2.3031
 5050SOL    HW226613   2.302   2.015   6.123 -0.3879 -1.2744  0.7556
 5051SOL     OW26614   2.222   0.390   2.893  0.3473  0.7525  0.1957
 5051SOL    HW126615   2.191   0.318   2.838  0.6890  0.0134  0.9763
 5051SOL    HW226616   2.269   0.450   2.834  0.0129  1.9615  1.1650
 5052SOL     OW26617   4.559   3.147   4.326  0.2012  0.2152  0.5627
 5052SOL    HW126618   4.495   3.216   4.311 -0.0651 -0.1501 -0.0190
 5052SOL    HW226619   4.636   3.194   4.357  1.4812 -1.5025 -0.0145
 5053SOL     OW26620   2.945   4.591  12.463  0.4152  0.0631 -0.0686
 5053SOL    HW126621   3.000   4.614  12.388 -1.7410  0.5986 -1.4817
 5053SOL    HW226622   2.872   4.652  12.453  0.1562  0.0718  1.9485
 5054SOL     OW26623   2.184   0.485  16.911 -0.3046 -0.3215 -0.0165
 5054SOL    HW126624   2.215   0.523  16.829  0.8320  2.1552  1.5514
 5054SOL    HW226625   2.216   0.540  16.983 -1.3814  1.5124 -0.9351
 5055SOL     OW26626   4.107   3.553   6.268  0.3470  0.1027  0.2109
 5055SOL    HW126627   4.043   3.565   6.198  0.0405 -1.6731  0.1988
 5055SOL    HW226628   4.062   3.605   6.334 -1.6405 -0.8179 -0.3953
 5056SOL     OW26629   3.528   1.948   3.735  0.4749  0.3815 -0.4443
 5056SOL    HW126630   3.474   1.985   3.805  0.0586 -0.4468 -0.3345
 5056SOL    HW226631   3.482   1.995   3.665  0.2682 -0.0973 -0.6248
 5057SOL     OW26632   1.946   3.665  11.592  0.0135  0.3118  0.2946
 5057SOL    HW126633   1.937   3.749  11.636 -0.6076 -0.3272  1.3654
 5057SOL    HW226634   2.039   3.642  11.598 -0.2522 -0.4915  1.3734
 5058SOL     OW26635   1.718   0.208   3.436  0.4692 -0.0967 -0.2340
 5058SOL    HW126636   1.712   0.278   3.371  0.4928  1.3009  1.2743
 5058SOL    HW226637   1.700   0.259   3.516 -0.2240 -0.0367 -0.4223
 5059SOL     OW26638   1.085   1.308   9.380  0.3304  0.3993  0.3212
 5059SOL    HW126639   1.064   1.243   9.313 -1.0318  1.0038  0.1483
 5059SOL    HW226640   1.050   1.253   9.451  1.7628  0.2129  0.8745
 5060SOL     OW26641   0.054   3.532   8.004  0.2595 -0.3726 -0.1081
 5060SOL    HW126642   0.002   3.605   7.972 -1.1681  0.3609  3.8154
 5060SOL    HW226643   0.117   3.585   8.053 -0.6250  0.0211  0.6052
 5061SOL     OW26644   0.322   4.497   8.876 -0.4151 -0.2494  0.1329
 5061SOL    HW126645   0.238   4.534   8.849  0.1411 -0.4769 -1.8746
 5061SOL    HW226646   0.343   4.550   8.953  0.5645  0.6437 -0.7474
 5062SOL     OW26647   3.805   1.586   6.988 -0.3959  0.0396  0.1974
 5062SOL    HW126648   3.889   1.615   7.023  0.2156  0.0276 -1.2676
 5062SOL    HW226649   3.809   1.630   6.903 -0.6476 -1.5193 -0.6364
 5063SOL     OW26650   0.662   1.511   8.398  0.1397  0.2572  0.4710
 5063SOL    HW126651   0.611   1.579   8.354 -0.7505 -0.9942 -0.4536
 5063SOL    HW226652   0.601   1.488   8.468 -0.4440 -2.1756 -0.8157
 5064SOL     OW26653   2.323   3.633   9.093 -0.4608  0.1956 -0.7632
 5064SOL    HW126654   2.389   3.682   9.141  1.5056 -0.4472 -2.8482
 5064SOL    HW226655   2.337   3.542   9.121  0.8846  0.8680  0.7226
 5065SOL     OW26656   3.327   2.762  12.522  0.1102  0.0214  0.2306
 5065SOL    HW126657   3.324   2.816  12.602 -0.5688  1.8783 -1.0465
 5065SOL    HW226658   3.420   2.764  12.502  0.1500  0.7586  0.4706
 5066SOL     OW26659   4.313   0.568   6.455 -0.3286 -0.1222 -0.0257
 5066SOL    HW126660   4.369   0.554   6.532 -0.3692 -2.7811 -0.4779
 5066SOL    HW226661   4.356   0.648   6.425 -0.6005  0.2708  0.6301
 5067SOL     OW26662   0.381   0.021   2.119 -0.0623  0.2097 -0.2447
 5067SOL    HW126663   0.343   0.085   2.179 -0.6455 -0.7927  0.4754
 5067SOL    HW226664   0.369   0.073   2.040 -1.1771  2.0506  1.1416
 5068SOL     OW26665   2.380   3.062   1.029 -1.1609  0.2064 -0.1674
 5068SOL    HW126666   2.346   3.046   1.117  1.5837 -1.4652  0.5864
 5068SOL    HW226667   2.301   3.105   0.995 -1.1900 -0.0003 -0.3590
 5069SOL     OW26668   3.953   2.346   3.082 -0.0626  0.0529  0.0428
 5069SOL    HW126669   3.941   2.431   3.040 -1.0022 -0.3942 -0.5865
 5069SOL    HW226670   3.974   2.384   3.168  0.6944 -1.1591  0.4011
 5070SOL     OW26671   1.009   4.333   3.716 -0.0088  0.1917  0.7093
 5070SOL    HW126672   0.981   4.305   3.628  0.5012 -0.3512  0.7124
 5070SOL    HW226673   0.931   4.381   3.741  0.4966  1.1660  0.4106
 5071SOL     OW26674   2.758   0.699   3.238 -0.3089  0.3913 -0.0194
 5071SOL    HW126675   2.746   0.672   3.329  2.3158 -0.0444  0.2026
 5071SOL    HW226676   2.745   0.794   3.246 -0.0180  0.3958  0.4004
 5072SOL     OW26677   1.011   0.301  14.580 -0.3783 -0.6571  0.0029
 5072SOL    HW126678   1.053   0.232  14.631 -1.1988  1.4624  3.5478
 5072SOL    HW226679   1.085   0.359  14.564  0.1308 -1.6004 -1.1440
 5073SOL     OW26680   3.455   1.019   5.889 -0.1319 -0.3006 -0.2760
 5073SOL    HW126681   3.484   1.001   5.979 -0.3131 -2.8661 -0.7313
 5073SOL    HW226682   3.437   0.929   5.861  3.5909 -0.7038 -1.3180
 5074SOL     OW26683   0.607   2.697   8.740 -0.1631  0.3717 -0.0424
 5074SOL    HW126684   0.664   2.683   8.664 -1.9812 -0.1178 -1.3254
 5074SOL    HW226685   0.668   2.669   8.808  0.6352  1.1189 -0.4516
 5075SOL     OW26686   0.853   3.012   8.965 -0.2894  0.4437 -0.3429
 5075SOL    HW126687   0.758   3.014   8.954 -0.2593  0.9592 -0.4985
 5075SOL    HW226688   0.876   3.092   8.917 -1.9947 -0.4266 -2.5921
 5076SOL     OW26689   2.629   1.039   2.797 -0.4255 -0.0386 -0.8780
 5076SOL    HW126690   2.685   1.083   2.861  0.4740  0.9812 -2.3471
 5076SOL    HW226691   2.682   1.014   2.721  1.8151  0.9271  0.3807
 5077SOL     OW26692   0.208   0.020   7.838 -0.2381  0.6086  0.4695
 5077SOL    HW126693   0.271   0.052   7.902  0.5551  3.9261 -1.9543
 5077SOL    HW226694   0.237   4.651   7.845  2.6971  1.6695  2.3275
 5078SOL     OW26695   3.038   2.411   1.393  0.1666  0.2791  0.2613
 5078SOL    HW126696   3.087   2.438   1.470  2.8288 -1.3521 -0.8852
 5078SOL    HW226697   2.988   2.339   1.432 -0.5045  2.2069  2.9152
 5079SOL     OW26698   3.733   3.374   3.023 -0.0253  0.2791 -0.1659
 5079SOL    HW126699   3.748   3.447   3.083 -0.8222 -1.7345  2.4890
 5079SOL    HW226700   3.795   3.307   3.050 -2.7411 -1.4246  1.7571
 5080SOL     OW26701   4.097   0.894   6.838  0.8226  0.7464  0.0834
 5080SOL    HW126702   4.056   0.959   6.781  0.2805  0.2487 -0.0964
 5080SOL    HW226703   4.083   0.815   6.784  1.6936  0.6970 -0.0574
 5081SOL     OW26704   1.154   0.726   5.247  0.1640 -0.4998 -0.2765
 5081SOL    HW126705   1.095   0.741   5.173  0.5598 -0.2697 -0.5448
 5081SOL    HW226706   1.126   0.786   5.316  1.6792 -2.1522  1.7591
 5082SOL     OW26707   3.888   4.518   7.188 -0.6771 -0.1498 -0.4233
 5082SOL    HW126708   3.899   4.557   7.275 -0.0580 -0.2113 -0.4749
 5082SOL    HW226709   3.977   4.489   7.171 -0.5376  1.6198 -2.6343
 5083SOL     OW26710   0.221   1.809   7.853 -0.4443 -0.2898  0.3678
 5083SOL    HW126711   0.236   1.900   7.828  0.5180 -0.5074  0.1554
 5083SOL    HW226712   0.177   1.817   7.938 -0.1753 -0.7235  0.5479
 5084SOL     OW26713   3.918   3.623   9.233 -0.5769 -0.0580  0.1204
 5084SOL    HW126714   3.951   3.562   9.299 -2.3522 -1.0288  0.1244
 5084SOL    HW226715   3.991   3.684   9.243 -0.2885 -0.3707 -0.0755
 5085SOL     OW26716   2.786   2.177  10.049 -0.1084 -0.0512  0.3863
 5085SOL    HW126717   2.835   2.236  10.105  0.0655 -0.0748  0.2585
 5085SOL    HW226718   2.782   2.091  10.090 -0.7961  0.4616  1.3793
 5086SOL     OW26719   1.177   2.372   4.725 -0.4927  0.2376 -0.3624
 5086SOL    HW126720   1.113   2.425   4.772 -0.7488 -1.6074  1.3702
 5086SOL    HW226721   1.130   2.350   4.644 -0.5344 -2.2792  0.3188
 5087SOL     OW26722   3.155   0.052  13.457  0.7691 -0.2102  0.1323
 5087SOL    HW126723   3.162   0.094  13.543  0.6099 -0.2059  0.1448
 5087SOL    HW226724   3.142   4.685  13.489 -0.4803 -0.5031 -1.1844
 5088SOL     OW26725   0.202   0.706   2.202  0.7095 -0.0733  0.2067
 5088SOL    HW126726   0.111   0.720   2.231  1.3573 -0.6270  2.5334
 5088SOL    HW226727   0.198   0.748   2.117 -1.9573 -0.8618 -0.0575
 5089SOL     OW26728   0.380   1.060   3.153 -0.5251  0.3828  0.5671
 5089SOL    HW126729   0.361   1.112   3.076  0.7787 -0.8818 -0.6015
 5089SOL    HW226730   0.443   1.119   3.194 -0.7962  0.6932  0.5419
 5090SOL     OW26731   0.469   0.274  14.797 -0.1659 -0.0650 -0.2746
 5090SOL    HW126732   0.548   0.263  14.745  0.5201  2.6708  0.1821
 5090SOL    HW226733   0.511   0.305  14.877  3.3592 -1.0473 -1.7539
 5091SOL     OW26734   1.752   0.269   7.549 -0.1659  0.2559  0.2232
 5091SOL    HW126735   1.717   0.340   7.495 -0.8028 -1.6710 -1.9016
 5091SOL    HW226736   1.807   0.223   7.486 -0.8877  0.7071 -0.7313
 5092SOL     OW26737   1.548   3.169   2.324  0.1486 -0.0761  0.8462
 5092SOL    HW126738   1.509   3.189   2.409  0.4376  1.0017  0.7270
 5092SOL    HW226739   1.509   3.087   2.295 -3.0309  1.3906  0.9752
 5093SOL     OW26740   4.298   2.349   3.928 -0.6609 -0.2188  0.1404
 5093SOL    HW126741   4.263   2.296   3.857  0.2871  0.4356 -0.8259
 5093SOL    HW226742   4.280   2.438   3.897 -1.6270 -0.4919 -0.0848
 5094SOL     OW26743   4.157   3.629   7.803  0.0113 -0.1100  0.4497
 5094SOL    HW126744   4.095   3.608   7.733  1.6987 -3.6488  0.0412
 5094SOL    HW226745   4.095   3.642   7.875 -1.0376 -0.6869 -0.3534
 5095SOL     OW26746   0.516   0.472   8.105  0.1694  0.6031  0.1069
 5095SOL    HW126747   0.594   0.468   8.050 -0.2725  0.3121 -0.4964
 5095SOL    HW226748   0.554   0.502   8.188  1.9479 -2.3815  0.3539
 5096SOL     OW26749   0.394   1.662   7.667 -0.3316 -0.0404 -0.2829
 5096SOL    HW126750   0.466   1.696   7.719  1.2975 -1.9366 -1.3028
 5096SOL    HW226751   0.328   1.696   7.728 -0.6920 -1.8676  0.3415
 5097SOL     OW26752   3.753   1.310   1.808 -0.1506 -0.1206  0.3699
 5097SOL    HW126753   3.747   1.399   1.774 -0.5424  0.0343  0.8363
 5097SOL    HW226754   3.695   1.277   1.740  0.1021  0.8256 -0.3088
 5098SOL     OW26755   2.906   0.088   5.706 -0.2428 -0.3850  0.1443
 5098SOL    HW126756   2.842   0.031   5.664 -0.0985  0.8850 -1.8168
 5098SOL    HW226757   2.895   0.164   5.649  1.0442  0.9058  1.5909
 5099SOL     OW26758   2.910   4.044  14.688  0.0811  0.1631 -0.2864
 5099SOL    HW126759   2.854   3.968  14.702  0.2335  0.3626  1.4162
 5099SOL    HW226760   2.996   4.002  14.689 -0.1983 -0.3311  2.4614
 5100SOL     OW26761   4.091   1.952   9.690 -0.3576  0.1204  0.8361
 5100SOL    HW126762   4.143   2.008   9.633  0.7240  0.2400  1.9244
 5100SOL    HW226763   4.120   1.862   9.675 -1.1329  0.3758 -2.1801
 5101SOL     OW26764   0.791   3.067  11.020  0.3578 -0.2625  0.4774
 5101SOL    HW126765   0.770   3.160  11.012  0.7417 -0.2383 -0.2370
 5101SOL    HW226766   0.883   3.080  11.043  0.7293 -0.2242 -1.0325
 5102SOL     OW26767   1.594   2.052   5.121  0.0553  0.5489  0.4412
 5102SOL    HW126768   1.597   2.083   5.030 -2.2438  0.1066  0.2206
 5102SOL    HW226769   1.678   2.006   5.115 -1.6040 -2.1085 -2.1590
 5103SOL     OW26770   0.055   2.820   5.453  0.3344  0.1114 -0.0225
 5103SOL    HW126771   0.080   2.862   5.536 -0.9405  0.3447  0.2533
 5103SOL    HW226772   4.681   2.819   5.459  0.2116  2.4413 -1.6318
 5104SOL     OW26773   0.497   3.222  13.158  0.7002 -0.6955  0.0736
 5104SOL    HW126774   0.440   3.149  13.133  0.8343 -1.0067  0.6896
 5104SOL    HW226775   0.433   3.286  13.128 -1.0492 -3.3934 -2.0010
 5105SOL     OW26776   4.247   3.642  15.925  0.3228  0.2397 -0.2832
 5105SOL    HW126777   4.215   3.572  15.982  0.9648  1.0994  1.1294
 5105SOL    HW226778   4.320   3.681  15.973  0.1562 -0.9139  0.9227
 5106SOL     OW26779   3.490   1.124   1.920 -0.0646 -0.2875  0.5859
 5106SOL    HW126780   3.507   1.069   1.996  1.2187 -1.0945 -0.2833
 5106SOL    HW226781   3.571   1.175   1.911 -0.1830 -0.4569 -1.3393
 5107SOL     OW26782   2.422   3.998  16.587 -0.4287 -0.0635  0.1295
 5107SOL    HW126783   2.495   3.938  16.577 -0.0470  0.3284  0.5743
 5107SOL    HW226784   2.346   3.945  16.614  0.7554 -2.0825 -0.5054
 5108SOL     OW26785   1.158   3.568   4.934 -0.2618 -0.2492  0.2369
 5108SOL    HW126786   1.231   3.604   4.883  0.8715  0.1975  2.1840
 5108SOL    HW226787   1.142   3.484   4.893  2.3032 -0.3038 -0.6042
 5109SOL     OW26788   0.512   1.221   2.485  0.0894 -0.5600  0.2926
 5109SOL    HW126789   0.596   1.260   2.459  1.0421 -2.4383  0.5710
 5109SOL    HW226790   0.503   1.168   2.406  0.6111  2.1542 -1.6063
 5110SOL     OW26791   3.301   2.486   2.584 -0.2021 -0.1794 -0.5548
 5110SOL    HW126792   3.240   2.436   2.637 -0.5071  0.5680 -0.2075
 5110SOL    HW226793   3.309   2.427   2.508 -2.1141 -1.6155  0.3780
 5111SOL     OW26794   1.485   2.273  15.244 -0.2481  0.0122 -0.4695
 5111SOL    HW126795   1.487   2.243  15.153 -0.4355  1.2052 -0.8596
 5111SOL    HW226796   1.518   2.198  15.292  1.6836 -0.1657 -2.0917
 5112SOL     OW26797   3.320   2.715   9.270  0.0798 -0.2210  0.4360
 5112SOL    HW126798   3.323   2.622   9.292 -2.3434 -0.1544  1.0607
 5112SOL    HW226799   3.293   2.701   9.180  2.2398  0.6517 -0.3435
 5113SOL     OW26800   4.085   1.574   8.828  0.0252  0.4114  0.1115
 5113SOL    HW126801   4.078   1.659   8.785  0.0362 -0.4442 -1.5837
 5113SOL    HW226802   3.997   1.560   8.863 -0.4278 -1.1968 -1.7127
 5114SOL     OW26803   4.459   3.121   7.959 -0.2303 -0.5549  0.2310
 5114SOL    HW126804   4.506   3.191   7.913  0.9510 -0.7420  1.1354
 5114SOL    HW226805   4.448   3.044   7.904  3.4553 -1.0408  0.1546
 5115SOL     OW26806   2.601   3.181  15.229  0.1878  0.2441  0.0135
 5115SOL    HW126807   2.597   3.238  15.153 -1.2795  1.2240  0.8333
 5115SOL    HW226808   2.523   3.202  15.279  1.2299  0.0278  1.7392
 5116SOL     OW26809   3.906   0.472   4.546  0.2557 -0.6554 -0.0744
 5116SOL    HW126810   3.961   0.538   4.588  0.8632 -0.0479 -1.8217
 5116SOL    HW226811   3.962   0.397   4.565  0.6620 -0.9532 -2.5552
 5117SOL     OW26812   2.416   1.814   7.114 -0.3501  0.1149 -0.0908
 5117SOL    HW126813   2.368   1.736   7.144  1.8130  0.0323  3.2156
 5117SOL    HW226814   2.508   1.787   7.126 -1.2133 -1.9929  1.8418
 5118SOL     OW26815   0.719   0.929   9.069 -0.0150 -0.4693  0.6645
 5118SOL    HW126816   0.743   1.006   9.120 -0.9612  0.8961 -0.9475
 5118SOL    HW226817   0.624   0.933   9.063  0.0658  0.7747  0.2093
 5119SOL     OW26818   4.053   3.337   6.743 -0.1981 -0.4403 -0.1464
 5119SOL    HW126819   4.141   3.313   6.714 -0.5029  0.3148 -1.6934
 5119SOL    HW226820   4.003   3.261   6.713 -3.8907  2.2667 -0.7525
 5120SOL     OW26821   3.198   3.193   7.512 -0.3019 -0.1641  0.5985
 5120SOL    HW126822   3.220   3.180   7.604 -0.5686  1.9513  0.9608
 5120SOL    HW226823   3.278   3.234   7.478  0.2763 -1.1825  0.7360
 5121SOL     OW26824   2.504   2.756   3.268  0.2130 -0.3526  0.1427
 5121SOL    HW126825   2.415   2.725   3.286  0.9214 -0.3444  3.6403
 5121SOL    HW226826   2.554   2.709   3.335 -0.8607 -1.9387 -0.1712
 5122SOL     OW26827   2.108   3.688  12.588  0.1295  0.2640  0.7715
 5122SOL    HW126828   2.114   3.760  12.526 -1.9005 -1.7296 -1.7607
 5122SOL    HW226829   2.182   3.629  12.575 -1.2598 -2.1549  3.7924
 5123SOL     OW26830   2.336   0.147  11.641 -0.4148  0.1247  0.0483
 5123SOL    HW126831   2.322   0.157  11.735  3.7727 -0.6813  0.7304
 5123SOL    HW226832   2.263   0.192  11.598 -2.1270  1.5058  4.3475
 5124SOL     OW26833   0.367   4.268   3.767 -0.1519  0.2292 -0.5933
 5124SOL    HW126834   0.386   4.294   3.857  0.6071  0.1549 -0.7347
 5124SOL    HW226835   0.283   4.311   3.753 -0.9159 -1.2369 -0.6066
 5125SOL     OW26836   1.618   1.505  15.701  0.2626  0.0240 -0.0885
 5125SOL    HW126837   1.694   1.456  15.670  1.4097  2.1361 -0.6641
 5125SOL    HW226838   1.659   1.584  15.736 -0.6979  0.0894  0.8712
 5126SOL     OW26839   3.071   2.403   8.857  0.1666  0.6413  0.1449
 5126SOL    HW126840   2.977   2.418   8.859  0.1357  0.3509  0.8097
 5126SOL    HW226841   3.087   2.454   8.777  2.0497  0.4817  0.4334
 5127SOL     OW26842   0.834   2.070   8.750 -0.5189 -0.1567  0.1852
 5127SOL    HW126843   0.910   2.128   8.744  0.2400 -0.8776  2.8843
 5127SOL    HW226844   0.804   2.094   8.837  0.6200 -0.7950  0.7487
 5128SOL     OW26845   2.766   3.250   6.938  0.9060 -0.2192  0.2542
 5128SOL    HW126846   2.782   3.178   6.999  2.1092 -0.5448 -0.4392
 5128SOL    HW226847   2.846   3.242   6.886  0.1182  0.9349 -1.1693
 5129SOL     OW26848   3.880   1.400   8.915  0.5219 -0.0298 -0.0958
 5129SOL    HW126849   3.818   1.410   8.843  0.4541 -1.4391 -0.2423
 5129SOL    HW226850   3.868   1.310   8.945 -0.4431 -0.1215 -0.7690
 5130SOL     OW26851   0.191   3.525   4.892  0.6558  0.1714 -0.5007
 5130SOL    HW126852   0.234   3.610   4.894 -1.8822  1.4285  0.9977
 5130SOL    HW226853   0.112   3.552   4.844  0.0924  0.0282  0.3435
 5131SOL     OW26854   1.562   4.043  15.202  0.0076  0.1889  0.1057
 5131SOL    HW126855   1.552   3.976  15.270 -1.0257  0.6246  0.3718
 5131SOL    HW226856   1.627   4.093  15.250 -0.6448  0.0051  1.1609
 5132SOL     OW26857   2.788   2.070   7.795  0.0637  0.1900 -0.3449
 5132SOL    HW126858   2.793   2.011   7.871 -1.9497 -0.6485 -0.8673
 5132SOL    HW226859   2.881   2.090   7.790 -0.5969  3.3883  0.4374
 5133SOL     OW26860   2.075   3.035   8.901  0.0082 -0.1963 -0.7707
 5133SOL    HW126861   2.117   3.055   8.817  3.5000  0.7640  1.1841
 5133SOL    HW226862   2.036   2.954   8.868 -2.6952  0.2941  1.1790
 5134SOL     OW26863   4.298   1.081   5.525  0.3158  0.6446 -0.4794
 5134SOL    HW126864   4.380   1.043   5.493  0.7853 -0.4263  2.0374
 5134SOL    HW226865   4.335   1.147   5.584 -1.0968 -0.0723  1.1881
 5135SOL     OW26866   2.602   2.846   7.410 -0.1373  0.4077 -0.0059
 5135SOL    HW126867   2.537   2.805   7.353  0.0981  0.5077 -0.3394
 5135SOL    HW226868   2.614   2.774   7.473  1.1716  0.4122 -0.2683
 5136SOL     OW26869   0.656   4.054   0.746 -0.1819 -0.0821  0.1403
 5136SOL    HW126870   0.663   3.986   0.813 -1.8651  0.0784  0.4790
 5136SOL    HW226871   0.725   4.115   0.770  2.6460 -2.9124 -0.7663
 5137SOL     OW26872   1.982   2.668   5.526 -0.2504 -0.3868 -0.0702
 5137SOL    HW126873   1.900   2.636   5.489 -0.9288  2.3211 -0.9041
 5137SOL    HW226874   1.990   2.750   5.477 -3.0391  0.9469  1.7202
 5138SOL     OW26875   0.459   2.807   3.425 -0.4004  0.1137  0.6660
 5138SOL    HW126876   0.431   2.876   3.485 -5.1637  0.0877 -1.5396
 5138SOL    HW226877   0.375   2.786   3.384  1.2193 -0.1823 -2.5449
 5139SOL     OW26878   4.421   4.598   0.189  0.8847 -0.1209  0.4721
 5139SOL    HW126879   4.399   4.690   0.177  1.6885 -0.1078 -0.9423
 5139SOL    HW226880   4.516   4.598   0.198  0.7931 -1.8774  1.3997
 5140SOL     OW26881   2.795   2.782   5.997 -0.2813 -0.3107  0.2215
 5140SOL    HW126882   2.779   2.842   5.924  0.7880 -0.4148 -0.0963
 5140SOL    HW226883   2.823   2.710   5.941  0.8078 -0.3181  0.7907
 5141SOL     OW26884   3.333   4.103  12.599 -0.2803  0.0988 -0.1199
 5141SOL    HW126885   3.413   4.153  12.613  0.1939 -0.1235 -1.9293
 5141SOL    HW226886   3.365   4.015  12.618  0.2272  0.2084 -0.4735
 5142SOL     OW26887   4.029   0.306   6.961  0.2746  0.1395 -0.0602
 5142SOL    HW126888   4.027   0.216   6.928  1.3027 -0.4840  1.5834
 5142SOL    HW226889   3.961   0.353   6.912  0.2390 -0.6683 -0.7860
 5143SOL     OW26890   0.529   1.269  17.086  0.0989 -0.0260  0.0663
 5143SOL    HW126891   0.508   1.184  17.124 -0.9289 -0.1993 -0.9125
 5143SOL    HW226892   0.475   1.274  17.007 -0.5803  2.2443  0.6855
 5144SOL     OW26893   2.939   3.431   6.640  0.1136  0.4916 -0.6826
 5144SOL    HW126894   2.951   3.360   6.703 -0.4234  1.0345  0.0342
 5144SOL    HW226895   2.938   3.509   6.695 -1.3065  1.4472 -2.0540
 5145SOL     OW26896   3.431   2.152   1.532 -0.0092  0.4717 -0.1991
 5145SOL    HW126897   3.399   2.224   1.587 -1.5698  0.2284 -0.7899
 5145SOL    HW226898   3.484   2.195   1.464  1.6488  2.2468  2.1757
 5146SOL     OW26899   3.853   2.168   1.317  0.2660 -0.3678 -0.4919
 5146SOL    HW126900   3.902   2.092   1.285  0.3807 -0.9818  1.1398
 5146SOL    HW226901   3.781   2.127   1.363  2.8348 -2.4477  1.6915
 5147SOL     OW26902   4.009   1.951   1.239  0.1680  0.0171  0.2934
 5147SOL    HW126903   4.003   1.866   1.283 -1.2057 -0.6189 -1.0918
 5147SOL    HW226904   3.991   1.924   1.149 -0.9398  0.8307  0.2749
 5148SOL     OW26905   3.415   3.542   6.617  0.0037 -0.0014 -0.1259
 5148SOL    HW126906   3.389   3.456   6.651  0.3224  0.1778  0.5787
 5148SOL    HW226907   3.460   3.571   6.697  1.6541  0.5248 -1.2512
 5149SOL     OW26908   1.823   0.652  14.891 -0.0505 -0.0829  0.2410
 5149SOL    HW126909   1.757   0.716  14.921 -0.1479  0.3632 -0.9069
 5149SOL    HW226910   1.846   0.690  14.806 -0.6556 -1.2891 -0.4588
 5150SOL     OW26911   0.109   3.316   1.598  0.6940 -0.6585  0.3296
 5150SOL    HW126912   0.094   3.410   1.610 -0.0977 -0.3314 -3.0874
 5150SOL    HW226913   0.200   3.322   1.569  0.6042 -0.6364  0.0535
 5151SOL     OW26914   3.542   0.604  16.538  0.2634  0.1056 -0.3143
 5151SOL    HW126915   3.449   0.589  16.523  0.0896  0.9458 -0.0945
 5151SOL    HW226916   3.557   0.510  16.539 -2.6046 -0.3694 -1.3415
 5152SOL     OW26917   1.787   3.081   4.939 -0.4674  0.1992  0.0494
 5152SOL    HW126918   1.868   3.083   4.889  0.2097  0.5477  1.1575
 5152SOL    HW226919   1.785   2.997   4.983  0.5548  0.7511  1.1482
 5153SOL     OW26920   4.187   0.543   3.790 -0.5370 -0.1640 -0.1660
 5153SOL    HW126921   4.147   0.581   3.713 -0.7915  0.8541  0.4773
 5153SOL    HW226922   4.273   0.585   3.786  0.3154 -1.7570  1.3624
 5154SOL     OW26923   2.445   3.812   5.260 -0.5013 -0.0931 -0.4008
 5154SOL    HW126924   2.415   3.861   5.184 -0.7428 -1.5389 -1.2348
 5154SOL    HW226925   2.508   3.749   5.226 -0.2380  0.0516 -0.1741
 5155SOL     OW26926   0.542   0.781   4.015  0.1216  0.3940  0.1127
 5155SOL    HW126927   0.510   0.691   4.021  1.9733 -0.1823  1.3432
 5155SOL    HW226928   0.475   0.820   3.959  0.5064 -0.5577 -1.0334
 5156SOL     OW26929   2.559   4.202   8.465  0.2087 -0.7420 -0.1014
 5156SOL    HW126930   2.570   4.154   8.383  0.3267  0.8256 -1.0082
 5156SOL    HW226931   2.562   4.294   8.438  2.4130 -0.6103  0.5971
 5157SOL     OW26932   3.380   2.591  16.069 -0.0854  0.5603  0.5367
 5157SOL    HW126933   3.289   2.615  16.052  0.1314  0.1239 -1.2557
 5157SOL    HW226934   3.417   2.650  16.134  0.3676  0.1131  0.6848
 5158SOL     OW26935   0.402   0.399  15.341 -0.3996  0.4122 -0.8612
 5158SOL    HW126936   0.443   0.360  15.418  1.2403  0.3795 -1.7602
 5158SOL    HW226937   0.315   0.394  15.381 -0.9386  1.0142 -1.9665
 5159SOL     OW26938   0.710   2.367   5.112  0.1017 -0.0127 -0.3459
 5159SOL    HW126939   0.619   2.393   5.096 -0.4513 -1.9362 -0.3657
 5159SOL    HW226940   0.698   2.285   5.160  3.0876 -0.2000  0.1004
 5160SOL     OW26941   0.526   2.919   0.320  0.1435  0.2123  0.1575
 5160SOL    HW126942   0.621   2.928   0.327  0.1553 -0.2238  0.5248
 5160SOL    HW226943   0.501   3.003   0.282  1.0808  0.2626 -0.3468
 5161SOL     OW26944   2.434   3.955   8.134  0.4072 -0.2315  0.2661
 5161SOL    HW126945   2.443   3.876   8.081 -1.1869  0.8312 -1.5986
 5161SOL    HW226946   2.524   3.961   8.167  0.7443 -0.9550 -0.5241
 5162SOL     OW26947   3.689   2.599  17.595  0.2844  0.2372 -0.4733
 5162SOL    HW126948   3.702   2.663  17.525  0.2476  0.2370 -0.4802
 5162SOL    HW226949   3.733   2.523  17.558  0.1567  0.5775 -1.3099
 5163SOL     OW26950   0.058   4.452   2.764  0.0083 -0.1227  0.1698
 5163SOL    HW126951   0.106   4.374   2.736  0.1270 -0.7390  2.0606
 5163SOL    HW226952   4.691   4.417   2.760  0.9085 -2.5185  1.1933
 5164SOL     OW26953   2.645   2.442  13.342 -0.0668 -0.0240 -0.0402
 5164SOL    HW126954   2.666   2.422  13.433 -1.4711  2.2802  0.8004
 5164SOL    HW226955   2.552   2.419  13.345  0.1328 -0.8667 -0.3858
 5165SOL     OW26956   3.196   3.379   0.845 -0.4335 -0.6739  0.5775
 5165SOL    HW126957   3.141   3.457   0.846 -0.6673 -0.8419  0.8535
 5165SOL    HW226958   3.279   3.422   0.823 -0.6109  0.8063  2.7661
 5166SOL     OW26959   0.170   4.095   9.443 -0.1988  0.1685  0.2878
 5166SOL    HW126960   0.195   4.168   9.386  1.0668 -2.4890 -2.5176
 5166SOL    HW226961   0.253   4.077   9.488 -1.2058 -0.7505  1.7702
 5167SOL     OW26962   2.829   1.738   4.154 -0.4667  0.1019  0.3318
 5167SOL    HW126963   2.798   1.790   4.079  1.6805 -1.0174 -1.3380
 5167SOL    HW226964   2.883   1.675   4.107 -0.1233  0.5332  0.1394
 5168SOL     OW26965   1.917   1.898   3.967 -0.4631 -0.0090  0.7217
 5168SOL    HW126966   1.913   1.807   3.993  0.0178 -0.5593 -1.0827
 5168SOL    HW226967   2.007   1.912   3.996  0.1508  0.0356 -1.2060
 5169SOL     OW26968   2.945   3.316   7.553 -1.0837 -0.0078 -0.0038
 5169SOL    HW126969   2.916   3.294   7.464 -2.6283 -1.6608  0.9207
 5169SOL    HW226970   3.023   3.261   7.543 -0.0719  1.5529 -0.8100
 5170SOL     OW26971   0.727   1.328   3.388  0.0474 -0.0856 -0.0872
 5170SOL    HW126972   0.689   1.413   3.408  0.8609  0.1814  0.3115
 5170SOL    HW226973   0.780   1.321   3.467 -0.2259  0.3658  0.1332
 5171SOL     OW26974   3.030   1.960   4.157  0.2348  0.4845 -0.6458
 5171SOL    HW126975   2.952   1.929   4.111  0.1363 -1.7970  1.0637
 5171SOL    HW226976   3.004   2.052   4.159  1.7277  0.9251 -1.5276
 5172SOL     OW26977   4.567   2.468  13.610 -0.3351  0.0173  0.1738
 5172SOL    HW126978   4.606   2.549  13.576  0.4796 -0.3580  0.2127
 5172SOL    HW226979   4.613   2.405  13.554 -0.7445  0.0496 -0.1976
 5173SOL     OW26980   0.947   1.371   7.294  0.0549 -0.5347  0.0322
 5173SOL    HW126981   0.891   1.370   7.371 -1.2176  0.9926 -0.8757
 5173SOL    HW226982   1.030   1.343   7.334 -0.7963 -0.3055  1.9587
 5174SOL     OW26983   2.307   2.173   4.330  0.1785  0.0420 -0.3797
 5174SOL    HW126984   2.332   2.203   4.243 -1.2800  0.1699 -0.7635
 5174SOL    HW226985   2.327   2.245   4.390 -1.0061  1.5629 -1.8060
 5175SOL     OW26986   3.236   4.337   4.801  0.2653 -0.1412 -0.0948
 5175SOL    HW126987   3.299   4.343   4.729 -0.7627  0.4411 -0.9338
 5175SOL    HW226988   3.155   4.355   4.753 -0.1509 -0.8440  0.3445
 5176SOL     OW26989   1.679   1.895   3.426  0.1243  0.5789  0.2001
 5176SOL    HW126990   1.601   1.890   3.481  1.7863 -3.1954  2.2446
 5176SOL    HW226991   1.747   1.849   3.475  1.2483  0.7488 -1.2231
 5177SOL     OW26992   0.894   0.739   0.521 -0.1329  0.0209 -0.3812
 5177SOL    HW126993   0.812   0.765   0.562  0.8195  1.3208  0.6900
 5177SOL    HW226994   0.925   0.818   0.475  1.3804 -2.4628 -3.6848
 5178SOL     OW26995   2.700   4.159   9.138 -0.2193  0.0899 -0.6165
 5178SOL    HW126996   2.763   4.219   9.178 -0.2012  1.2851 -2.4358
 5178SOL    HW226997   2.740   4.141   9.053 -0.0180  0.4403 -0.5987
 5179SOL     OW26998   2.164   1.817   6.940  0.1820 -0.4949 -0.7212
 5179SOL    HW126999   2.202   1.889   6.890  3.2063 -1.2142  0.5588
 5179SOL    HW227000   2.219   1.811   7.018 -3.7374 -2.5251  1.9188
 5180SOL     OW27001   4.024   1.641   9.437 -0.2613 -0.3638  0.4663
 5180SOL    HW127002   3.942   1.603   9.469 -0.0456 -0.1831  1.2363
 5180SOL    HW227003   3.989   1.724   9.404 -3.4212 -2.3748 -1.2164
 5181SOL     OW27004   4.498   1.874   8.456 -0.7703  0.6046  0.1411
 5181SOL    HW127005   4.450   1.930   8.395  0.3656  0.0746 -1.2399
 5181SOL    HW227006   4.583   1.917   8.454 -0.1623 -0.6963 -1.8409
 5182SOL     OW27007   2.412   1.218  10.345  0.8503  0.0059  0.2557
 5182SOL    HW127008   2.384   1.134  10.310 -1.5074  1.7760 -2.0698
 5182SOL    HW227009   2.499   1.203  10.383  1.0785 -0.7456 -0.5539
 5183SOL     OW27010   4.520   1.439   8.552  0.1907 -0.3269  0.6927
 5183SOL    HW127011   4.524   1.397   8.466 -2.3152  0.6040  0.1257
 5183SOL    HW227012   4.472   1.519   8.532 -2.7332 -1.7871  1.9348
 5184SOL     OW27013   0.056   3.572  12.604 -0.6046 -0.1563 -0.2481
 5184SOL    HW127014   4.716   3.501  12.620 -0.4335 -0.3883 -0.6190
 5184SOL    HW227015   0.004   3.653  12.606 -0.7205 -0.2980  2.1190
 5185SOL     OW27016   1.842   0.669   9.196 -0.2378  0.0967  0.4053
 5185SOL    HW127017   1.792   0.741   9.236 -2.6801 -1.9030  0.9679
 5185SOL    HW227018   1.785   0.592   9.202 -0.7665  0.4991  0.5711
 5186SOL     OW27019   1.153   2.986   9.979  0.6940 -0.0618 -0.0216
 5186SOL    HW127020   1.219   2.918   9.992  0.1952 -0.8571 -1.5840
 5186SOL    HW227021   1.116   2.978  10.067 -1.2689  0.9180 -0.7545
 5187SOL     OW27022   3.545   1.899  15.149  0.2305 -0.6164 -0.5705
 5187SOL    HW127023   3.462   1.936  15.119  0.5964 -0.4188 -1.3370
 5187SOL    HW227024   3.529   1.810  15.117  0.4848 -0.8270 -0.1073
 5188SOL     OW27025   0.621   3.418   5.884 -0.3464  0.4454  0.1476
 5188SOL    HW127026   0.571   3.371   5.817 -0.8677  0.7266  0.3352
 5188SOL    HW227027   0.690   3.354   5.895 -1.5087 -1.0246 -1.1788
 5189SOL     OW27028   4.318   2.551  12.501 -0.1539 -0.6724  0.4810
 5189SOL    HW127029   4.276   2.499  12.433 -1.4859  3.5168 -1.9300
 5189SOL    HW227030   4.382   2.605  12.455 -0.3632  2.1026  3.4306
 5190SOL     OW27031   4.051   3.085   5.064  0.8429  0.3270 -0.0344
 5190SOL    HW127032   3.971   3.137   5.072  0.8470  0.4721 -0.9653
 5190SOL    HW227033   4.035   3.020   5.133 -1.4316  0.2468 -0.6498
 5191SOL     OW27034   2.895   2.570   3.657 -0.1327 -0.0751  0.0561
 5191SOL    HW127035   2.817   2.622   3.674  0.3792  0.9555 -0.7363
 5191SOL    HW227036   2.912   2.589   3.564 -0.7609  0.6066  0.0884
 5192SOL     OW27037   1.394   1.021   7.787  0.2768 -0.4970  0.0515
 5192SOL    HW127038   1.465   0.969   7.826 -0.3183 -1.0918  0.3308
 5192SOL    HW227039   1.452   1.072   7.730  2.0139 -0.6943  1.6142
 5193SOL     OW27040   3.604   2.829  10.966  0.4726 -0.4295  0.0992
 5193SOL    HW127041   3.673   2.853  10.904 -0.1934  0.6074 -0.2428
 5193SOL    HW227042   3.581   2.914  11.004 -1.2745 -0.9240  0.1247
 5194SOL     OW27043   2.205   0.058   3.079  0.1847  0.2128 -0.4163
 5194SOL    HW127044   2.178   4.691   3.054 -0.7362  0.0781  1.0290
 5194SOL    HW227045   2.290   0.066   3.037  0.1446 -0.5070 -0.6397
 5195SOL     OW27046   3.964   1.000  10.218 -0.1846  0.0568 -0.0786
 5195SOL    HW127047   3.919   0.941  10.157  3.6931 -1.2616 -1.6303
 5195SOL    HW227048   4.008   0.934  10.272 -0.6361 -0.4985 -0.3899
 5196SOL     OW27049   2.263   0.905   5.785  0.1977  0.5335 -0.4100
 5196SOL    HW127050   2.258   0.966   5.711  2.9561 -2.0287 -2.7363
 5196SOL    HW227051   2.199   0.841   5.754 -0.0209 -0.0565  1.3068
 5197SOL     OW27052   0.708   0.532   5.542 -0.0326 -0.1200 -1.1927
 5197SOL    HW127053   0.683   0.444   5.568  1.2005  0.2755  1.2883
 5197SOL    HW227054   0.629   0.585   5.551  0.5434  0.5410 -0.0227
 5198SOL     OW27055   3.375   1.119   8.558 -0.5756 -0.6030 -0.0651
 5198SOL    HW127056   3.346   1.154   8.474  1.0940  1.3467  0.1798
 5198SOL    HW227057   3.466   1.147   8.552 -0.9427  0.5857 -0.0249
 5199SOL     OW27058   4.030   3.118   6.382  0.2148 -0.1881  0.0065
 5199SOL    HW127059   4.055   3.057   6.451  2.2503  0.2263 -0.3696
 5199SOL    HW227060   4.111   3.144   6.339  0.6129  2.2312  2.2222
 5200SOL     OW27061   2.675   4.240  13.359 -1.1314 -0.1813  0.0501
 5200SOL    HW127062   2.749   4.301  13.357 -0.6905 -0.6541  2.0877
 5200SOL    HW227063   2.633   4.258  13.275 -2.0441  0.8281  0.7244
 5201SOL     OW27064   3.908   4.355  16.379 -0.4414  0.3149 -0.2770
 5201SOL    HW127065   3.945   4.298  16.311 -0.6848 -1.3667  0.9765
 5201SOL    HW227066   3.837   4.303  16.416 -0.6117  1.4598  1.0011
 5202SOL     OW27067   3.668   2.792   9.709  0.3460  0.2662 -0.3636
 5202SOL    HW127068   3.636   2.750   9.789  1.5650 -2.0023 -1.0702
 5202SOL    HW227069   3.681   2.881   9.741 -3.2519  0.9601 -0.8431
 5203SOL     OW27070   2.407   2.349   8.598 -0.0220  0.1076  0.1986
 5203SOL    HW127071   2.327   2.401   8.606  1.3076  2.3455 -1.1854
 5203SOL    HW227072   2.439   2.355   8.688  0.5756 -0.7719  0.0415
 5204SOL     OW27073   0.096   3.371   5.478  0.2695 -0.3990  0.3499
 5204SOL    HW127074   0.006   3.394   5.458  0.8828  1.7966  0.1017
 5204SOL    HW227075   0.116   3.312   5.406  0.7289 -0.6931  0.7160
 5205SOL     OW27076   0.412   2.191  17.485  0.4054  0.3138  0.3648
 5205SOL    HW127077   0.457   2.261  17.533 -3.9525  3.3755 -0.0008
 5205SOL    HW227078   0.409   2.223  17.395 -0.5912  0.6568  0.5220
 5206SOL     OW27079   2.746   3.707  12.237 -0.1751  0.2321 -1.2907
 5206SOL    HW127080   2.811   3.777  12.232  0.9956 -0.7443  0.7521
 5206SOL    HW227081   2.786   3.638  12.184 -0.3422 -0.8975  0.0523
 5207SOL     OW27082   4.492   2.401   4.780  0.3829  0.7519  0.0973
 5207SOL    HW127083   4.513   2.368   4.867  2.6553  1.5786 -0.1477
 5207SOL    HW227084   4.536   2.485   4.790  1.0618  0.4391 -0.2105
 5208SOL     OW27085   0.336   4.544  15.391 -0.7820 -0.4429  0.0223
 5208SOL    HW127086   0.283   4.575  15.465 -0.4497 -0.5937  0.3236
 5208SOL    HW227087   0.421   4.534  15.433  0.3404  1.0073 -1.8750
 5209SOL     OW27088   0.299   2.533  10.367 -0.0941  0.3415  0.0377
 5209SOL    HW127089   0.353   2.475  10.313  1.8905  1.8375  0.4146
 5209SOL    HW227090   0.218   2.537  10.315 -0.9013 -2.3221  1.1004
 5210SOL     OW27091   0.223   2.310   3.632  0.5000  0.0922 -0.3768
 5210SOL    HW127092   0.186   2.234   3.676 -0.8215  0.6002 -0.5950
 5210SOL    HW227093   0.154   2.375   3.645 -0.5237 -1.1896  0.5983
 5211SOL     OW27094   1.568   3.929   6.689  0.1110 -0.5506 -0.3474
 5211SOL    HW127095   1.497   3.984   6.721 -1.0572 -1.5424 -1.2333
 5211SOL    HW227096   1.637   3.995   6.687 -0.7492  0.3645  0.6920
 5212SOL     OW27097   1.942   3.935   0.857  0.4344  0.0656  0.4135
 5212SOL    HW127098   1.971   3.849   0.826 -2.5138 -1.7142  2.6496
 5212SOL    HW227099   1.995   3.988   0.798  0.7895  0.3097  0.9459
 5213SOL     OW27100   1.475   2.319   7.721 -1.0903  0.4774 -0.0323
 5213SOL    HW127101   1.541   2.253   7.742 -0.9392  1.0429  1.2507
 5213SOL    HW227102   1.480   2.311   7.625 -0.1727 -1.1342  0.1471
 5214SOL     OW27103   4.567   1.802  10.096  0.0264 -0.1195 -0.0712
 5214SOL    HW127104   4.627   1.730  10.076  1.2791  1.3486 -1.6266
 5214SOL    HW227105   4.525   1.769  10.175  0.4707  0.9649  0.6346
 5215SOL     OW27106   2.858   4.160  16.132  0.2377 -0.5596  0.0872
 5215SOL    HW127107   2.851   4.077  16.180  0.3095  0.5883  2.0914
 5215SOL    HW227108   2.921   4.132  16.065 -2.4190  3.4872 -4.0832
 5216SOL     OW27109   3.671   3.200  11.242 -0.0009  0.1574  0.1618
 5216SOL    HW127110   3.666   3.106  11.263 -0.5445 -0.3155 -2.0236
 5216SOL    HW227111   3.765   3.196  11.223  0.1369  0.0415  0.8524
 5217SOL     OW27112   1.223   3.217   5.437 -0.3477  0.1699 -0.0929
 5217SOL    HW127113   1.193   3.305   5.415 -0.5137  0.2767  0.5710
 5217SOL    HW227114   1.234   3.225   5.532  0.9554 -0.8219 -0.1541
 5218SOL     OW27115   1.618   2.657   4.286 -0.0870  0.2971  0.5451
 5218SOL    HW127116   1.605   2.565   4.310 -0.4172  0.1758 -0.0743
 5218SOL    HW227117   1.546   2.687   4.230 -0.7236 -0.4513  0.9604
 5219SOL     OW27118   1.704   0.422  17.015 -0.1725  0.0951  0.2985
 5219SOL    HW127119   1.619   0.459  17.040  0.2419 -0.0284  1.8850
 5219SOL    HW227120   1.691   0.328  17.017 -1.3831  0.2561 -0.4014
 5220SOL     OW27121   0.142   1.786   1.187  0.2528  0.1687 -0.6132
 5220SOL    HW127122   0.110   1.870   1.218  0.0360  0.5874 -1.9500
 5220SOL    HW227123   0.136   1.728   1.263  1.4999 -0.8789 -1.3050
 5221SOL     OW27124   0.619   1.384   7.427  0.3812 -0.1807 -0.0320
 5221SOL    HW127125   0.690   1.409   7.485 -0.6981 -1.3426  1.7847
 5221SOL    HW227126   0.600   1.294   7.453  1.0886 -0.7437 -1.4693
 5222SOL     OW27127   3.483   4.182   8.464 -0.0341 -0.5821 -0.3791
 5222SOL    HW127128   3.396   4.216   8.483  0.7634 -0.3565  2.7416
 5222SOL    HW227129   3.475   4.179   8.368  1.5167 -2.7063 -0.4248
 5223SOL     OW27130   0.893   0.897   6.472 -0.8773 -0.3954 -0.0432
 5223SOL    HW127131   0.931   0.977   6.436 -3.6509  0.4580 -1.1199
 5223SOL    HW227132   0.896   0.836   6.397  2.9651  1.0518 -1.0433
 5224SOL     OW27133   1.493   0.154   1.668  0.4473  0.5451 -0.2152
 5224SOL    HW127134   1.579   0.131   1.703  1.3866  1.2839 -1.9930
 5224SOL    HW227135   1.502   0.248   1.685 -0.2182  0.4252  0.7331
 5225SOL     OW27136   0.489   1.156   8.244 -0.1036  0.3022 -0.4016
 5225SOL    HW127137   0.498   1.186   8.154 -1.1318  1.3246 -0.1600
 5225SOL    HW227138   0.580   1.143   8.269  0.0078 -1.0285 -1.5150
 5226SOL     OW27139   0.099   2.162  16.236  0.2641  0.2604  0.1944
 5226SOL    HW127140   0.105   2.257  16.247 -0.3047  0.1357  1.5683
 5226SOL    HW227141   0.126   2.123  16.319 -1.6582 -0.8817  0.2731
 5227SOL     OW27142   4.715   3.900  16.549 -0.0388 -0.2269  0.0271
 5227SOL    HW127143   4.683   3.866  16.633 -0.5499 -0.1282 -0.1299
 5227SOL    HW227144   4.665   3.864  16.476 -1.5124  0.5973  0.6347
 5228SOL     OW27145   2.070   3.339   8.801  0.6118  0.3543  0.4542
 5228SOL    HW127146   2.069   3.415   8.859  0.4510 -0.1204  1.0822
 5228SOL    HW227147   2.067   3.273   8.870 -0.0107  0.7589  0.8111
 5229SOL     OW27148   2.563   4.005   2.508 -0.4878  0.0023 -0.2551
 5229SOL    HW127149   2.509   3.990   2.430 -0.6861  0.2398 -0.1612
 5229SOL    HW227150   2.647   4.008   2.463  0.4487 -0.5355  1.4558
 5230SOL     OW27151   1.415   4.717   1.465  0.0802  0.0221  0.0182
 5230SOL    HW127152   1.381   4.658   1.533 -2.4341  1.7967  0.3007
 5230SOL    HW227153   1.441   0.060   1.530  2.3514 -0.6998 -0.1744
 5231SOL     OW27154   0.589   0.293   9.692 -0.0200  0.0627  0.6515
 5231SOL    HW127155   0.652   0.222   9.706  0.5101  0.2658 -0.6748
 5231SOL    HW227156   0.515   0.234   9.704 -1.1378  1.4949  0.6762
 5232SOL     OW27157   2.947   0.411  13.961 -0.3252 -0.0832  0.2582
 5232SOL    HW127158   2.934   0.336  14.020  1.5027 -0.6474 -0.0550
 5232SOL    HW227159   2.990   0.376  13.883 -0.2077  2.6014 -0.8686
 5233SOL     OW27160   1.064   2.277   4.484 -0.1083  0.6746 -0.3257
 5233SOL    HW127161   0.982   2.236   4.510 -0.7111  0.7648 -2.0896
 5233SOL    HW227162   1.040   2.314   4.399 -2.8935 -0.5867 -0.0825
 5234SOL     OW27163   3.205   1.890   3.611  0.3433 -0.6412 -0.8369
 5234SOL    HW127164   3.145   1.946   3.561  2.6930 -0.6630 -3.6789
 5234SOL    HW227165   3.288   1.931   3.588 -1.2519  2.2078 -1.5119
 5235SOL     OW27166   2.445   1.884   7.696  0.0775  0.0619 -0.3229
 5235SOL    HW127167   2.520   1.832   7.726  0.8515  0.7285 -1.0960
 5235SOL    HW227168   2.445   1.864   7.602  0.4413  1.8760 -0.7148
 5236SOL     OW27169   0.972   1.494   6.477  0.0859  0.0310 -0.3684
 5236SOL    HW127170   0.885   1.528   6.498 -0.6277 -1.1748 -1.3860
 5236SOL    HW227171   1.030   1.562   6.512  2.1624 -0.1583 -3.4700
 5237SOL     OW27172   4.586   2.618  14.213  0.2148  0.4372  0.1526
 5237SOL    HW127173   4.505   2.655  14.176 -0.4609 -0.3677  0.8218
 5237SOL    HW227174   4.618   2.603  14.124  2.0610  0.5267  0.8231
 5238SOL     OW27175   2.841   2.933   2.991 -0.1686 -0.4715  0.1063
 5238SOL    HW127176   2.920   2.890   3.025  0.2086 -0.4003 -0.6756
 5238SOL    HW227177   2.779   2.902   3.057  0.2057  1.4240  1.3345
 5239SOL     OW27178   1.276   3.437  14.655 -0.2878 -0.7886  0.1979
 5239SOL    HW127179   1.181   3.452  14.660 -0.3883 -1.2060 -0.4818
 5239SOL    HW227180   1.294   3.510  14.715 -0.0104 -0.4305 -0.3243
 5240SOL     OW27181   2.219   1.508   1.281 -0.4985  0.1226 -0.2721
 5240SOL    HW127182   2.255   1.574   1.222 -2.2228  0.1037 -1.3485
 5240SOL    HW227183   2.237   1.553   1.364  2.1314  0.2979 -0.9317
 5241SOL     OW27184   1.921   2.185   4.101  0.3307 -0.0393 -0.0253
 5241SOL    HW127185   1.942   2.275   4.078 -1.2861  0.6318  1.1688
 5241SOL    HW227186   1.971   2.135   4.037  2.6748  0.5505  1.3315
 5242SOL     OW27187   2.233   3.484  12.178 -0.3681 -0.4601  0.1529
 5242SOL    HW127188   2.249   3.543  12.252 -2.3209  0.4343 -0.1297
 5242SOL    HW227189   2.265   3.533  12.102  0.0841  1.6327  1.6691
 5243SOL     OW27190   2.813   2.287   3.757 -0.2170  0.8695 -0.7361
 5243SOL    HW127191   2.773   2.265   3.841 -1.7083  0.6753 -1.5024
 5243SOL    HW227192   2.832   2.380   3.766 -1.5473  0.9996  0.6426
 5244SOL     OW27193   2.938   4.502  11.655  0.2759  0.2777 -0.1794
 5244SOL    HW127194   2.887   4.583  11.652 -0.3672 -0.1898 -1.7828
 5244SOL    HW227195   2.876   4.440  11.693  1.7487 -0.2837  1.2779
 5245SOL     OW27196   4.120   3.875   7.222 -0.1512 -0.3228 -0.1924
 5245SOL    HW127197   4.153   3.961   7.247  0.3237  0.0207 -1.9851
 5245SOL    HW227198   4.189   3.814   7.249 -0.1749 -0.6611 -0.9040
 5246SOL     OW27199   0.071   2.922   7.886 -0.1317 -0.4439 -0.6565
 5246SOL    HW127200   0.047   2.912   7.794 -0.8903  0.3385 -0.5522
 5246SOL    HW227201   4.705   2.942   7.919 -0.3538  0.6274 -1.9115
 5247SOL     OW27202   1.322   0.864   7.144  0.4801  0.0005  0.1277
 5247SOL    HW127203   1.277   0.795   7.094 -1.3913  1.2170  0.1256
 5247SOL    HW227204   1.391   0.901   7.090  0.0080  1.0661  0.2648
 5248SOL     OW27205   1.902   1.853  13.469  0.5313  0.1895 -0.3243
 5248SOL    HW127206   1.919   1.946  13.485  0.1968  0.2100 -0.0775
 5248SOL    HW227207   1.984   1.840  13.421 -0.0289  0.4573 -1.3472
 5249SOL     OW27208   3.421   1.234   7.788  0.3937  0.5109  0.8028
 5249SOL    HW127209   3.491   1.178   7.823  1.2207  0.6677 -0.6161
 5249SOL    HW227210   3.439   1.320   7.826 -0.0034 -0.3136  2.8583
 5250SOL     OW27211   2.594   3.875   7.748  0.4724  0.3431  0.2409
 5250SOL    HW127212   2.576   3.956   7.794 -2.5522  0.3899 -1.0345
 5250SOL    HW227213   2.690   3.868   7.742  0.4251  0.6165 -0.9021
 5251SOL     OW27214   2.037   0.030  11.491  0.1847 -0.0048 -0.1658
 5251SOL    HW127215   1.958   4.704  11.516 -0.1341  0.5068 -0.1894
 5251SOL    HW227216   2.013   0.117  11.521  0.8801 -0.4597  1.7262
 5252SOL     OW27217   3.646   0.503   0.943 -0.5225  0.0806  0.3769
 5252SOL    HW127218   3.738   0.493   0.965 -1.3947 -2.5817  2.7531
 5252SOL    HW227219   3.623   0.412   0.925 -4.2846  1.1223 -0.2385
 5253SOL     OW27220   1.679   4.036   4.762 -0.1230  0.2255 -0.0485
 5253SOL    HW127221   1.710   3.954   4.723  2.9380  1.3104  0.1562
 5253SOL    HW227222   1.630   4.005   4.839 -0.7863  0.4252 -0.3916
 5254SOL     OW27223   1.159   0.017   6.722  0.4257 -0.3096 -0.7161
 5254SOL    HW127224   1.143   0.042   6.813  0.2576  0.2579 -0.9025
 5254SOL    HW227225   1.112   0.085   6.674 -1.4388 -1.2546 -0.2409
 5255SOL     OW27226   2.512   4.479   5.633  0.7592  0.3941  0.0221
 5255SOL    HW127227   2.596   4.523   5.622  2.0733 -1.5881  2.1010
 5255SOL    HW227228   2.496   4.463   5.540  0.7704 -1.3654  0.3158
 5256SOL     OW27229   3.616   0.750  12.725 -0.1517 -0.1951 -0.2852
 5256SOL    HW127230   3.624   0.681  12.791 -0.6881  1.1141  1.1402
 5256SOL    HW227231   3.697   0.796  12.748  0.2202  1.1568 -4.3959
 5257SOL     OW27232   0.286   0.958   8.395 -0.2380  0.2945  0.1700
 5257SOL    HW127233   0.266   0.874   8.437 -1.0944  0.2809 -0.2699
 5257SOL    HW227234   0.321   0.918   8.316 -0.6229  1.9849 -0.8495
 5258SOL     OW27235   2.047   0.375   5.099  0.7929 -0.7889 -0.0898
 5258SOL    HW127236   1.980   0.346   5.036  1.2269 -3.4440  0.6757
 5258SOL    HW227237   2.065   0.465   5.071 -1.9060 -0.1099  0.3660
 5259SOL     OW27238   3.770   1.844   6.249 -0.2446  0.0430  0.2066
 5259SOL    HW127239   3.804   1.900   6.179 -1.0553  1.3623  0.8646
 5259SOL    HW227240   3.694   1.810   6.200 -0.1932  2.0390 -1.2974
 5260SOL     OW27241   3.397   0.989   3.397  0.1601 -0.1166  0.0737
 5260SOL    HW127242   3.442   0.990   3.313  1.0059 -1.0068  0.5261
 5260SOL    HW227243   3.311   0.955   3.372 -0.1854 -0.1991  1.3740
 5261SOL     OW27244   3.626   4.245   0.989 -0.3487 -0.3712 -0.6169
 5261SOL    HW127245   3.600   4.325   1.036 -0.0982 -0.9487  0.5058
 5261SOL    HW227246   3.643   4.172   1.048 -1.1967  1.1064  1.4657
 5262SOL     OW27247   1.531   3.307   7.835  0.3110  0.1721  0.1855
 5262SOL    HW127248   1.470   3.369   7.795 -0.3963  0.6610  2.0618
 5262SOL    HW227249   1.620   3.340   7.822  0.2422 -0.6506 -2.4272
 5263SOL     OW27250   2.730   4.357   8.231  0.1171 -0.0052 -0.3928
 5263SOL    HW127251   2.749   4.324   8.319 -0.2501  0.9610  0.0524
 5263SOL    HW227252   2.797   4.324   8.172  0.4782  1.0427 -0.5552
 5264SOL     OW27253   1.163   2.095  17.016 -0.0607 -0.0039 -0.0665
 5264SOL    HW127254   1.203   2.015  17.049  1.9974  0.4393 -1.4652
 5264SOL    HW227255   1.118   2.125  17.094  2.8469  2.1219  0.7605
 5265SOL     OW27256   1.288   0.309   0.248 -0.0057 -0.1068  0.8752
 5265SOL    HW127257   1.298   0.368   0.323  3.0767  2.1720 -1.3657
 5265SOL    HW227258   1.378   0.277   0.245 -0.1129 -0.2611 -0.7061
 5266SOL     OW27259   0.080   4.616  16.103  0.0386 -0.5904 -0.4161
 5266SOL    HW127260   0.146   4.588  16.165  0.2881  0.4374 -0.2105
 5266SOL    HW227261   0.009   4.556  16.127  0.5330 -1.4840 -1.1929
 5267SOL     OW27262   1.559   2.508  17.674 -0.0174  0.6801  0.4103
 5267SOL    HW127263   1.637   2.491   0.036 -0.2337  0.1611  0.5650
 5267SOL    HW227264   1.491   2.503   0.051  0.1822 -1.3342  0.4462
 5268SOL     OW27265   2.171   3.890   1.909 -0.3213  0.8050 -0.2676
 5268SOL    HW127266   2.187   3.910   1.817  1.3099 -2.6207 -0.7461
 5268SOL    HW227267   2.121   3.809   1.899 -1.6632  1.6657 -0.4614
 5269SOL     OW27268   2.945   2.162  11.532  0.6496  0.4496  0.0786
 5269SOL    HW127269   2.904   2.077  11.548  1.1685 -0.2829 -2.4745
 5269SOL    HW227270   3.018   2.130  11.480 -1.4469 -1.6604 -1.5882
 5270SOL     OW27271   1.628   1.182   6.720  0.0266 -0.4616 -0.5884
 5270SOL    HW127272   1.651   1.100   6.678  0.9984 -0.5437  0.1055
 5270SOL    HW227273   1.586   1.165   6.805 -0.4319  2.3320 -0.2412
 5271SOL     OW27274   0.499   1.989  10.463  0.2594 -0.2083  0.2327
 5271SOL    HW127275   0.461   2.051  10.526 -1.8093 -1.2108 -0.0416
 5271SOL    HW227276   0.471   1.901  10.486 -2.3491  0.4261 -0.5911
 5272SOL     OW27277   0.898   2.051   0.605 -0.5244  0.3145  0.2950
 5272SOL    HW127278   0.972   2.067   0.664  1.3085 -0.1457 -1.8944
 5272SOL    HW227279   0.920   2.122   0.545  1.0919 -1.1325 -0.8067
 5273SOL     OW27280   1.269   0.428   6.473  0.1316  0.0429 -0.0054
 5273SOL    HW127281   1.309   0.342   6.488 -0.2652 -0.0886  0.2992
 5273SOL    HW227282   1.213   0.442   6.550  0.3903 -1.4069  0.4320
 5274SOL     OW27283   0.935   4.665   7.982 -0.1152  0.0382 -1.0705
 5274SOL    HW127284   0.878   4.598   8.019  2.9564 -1.1210  1.5592
 5274SOL    HW227285   0.891   4.672   7.897 -0.6031 -0.8202 -0.8857
 5275SOL     OW27286   0.381   3.750   4.945  0.6259 -0.2657 -0.4277
 5275SOL    HW127287   0.408   3.725   5.033  0.1647  1.8199  0.2942
 5275SOL    HW227288   0.350   3.838   4.966  0.2816 -0.7866  1.2012
 5276SOL     OW27289   2.635   3.243   0.292  0.9123 -0.1772 -0.0009
 5276SOL    HW127290   2.545   3.212   0.283  1.0354 -0.3523 -0.6834
 5276SOL    HW227291   2.631   3.315   0.229  0.0076 -0.0820  0.1724
 5277SOL     OW27292   1.844   1.758   7.454 -0.3049  0.2700  0.1987
 5277SOL    HW127293   1.775   1.786   7.394  0.8820 -0.3283 -1.4457
 5277SOL    HW227294   1.895   1.836   7.478 -0.4842 -0.2211  2.1691
 5278SOL     OW27295   3.482   3.721  11.003  0.2022 -0.0288  0.3740
 5278SOL    HW127296   3.508   3.695  10.914 -2.0726 -0.5381 -0.1546
 5278SOL    HW227297   3.390   3.694  10.995  0.6638 -2.0774  1.8740
 5279SOL     OW27298   0.964   0.403  12.203 -0.4381 -0.0033 -0.5380
 5279SOL    HW127299   1.003   0.466  12.144 -0.0826  0.3967  0.1265
 5279SOL    HW227300   0.896   0.355  12.155  1.2220 -1.6873 -1.1904
 5280SOL     OW27301   3.560   3.471  16.102 -0.4126  0.0688 -0.3648
 5280SOL    HW127302   3.609   3.534  16.155  1.3305 -1.0156 -0.7130
 5280SOL    HW227303   3.512   3.520  16.035  0.8152  1.9792  0.1582
 5281SOL     OW27304   2.134   4.135   7.161 -0.5959 -0.1315 -0.0780
 5281SOL    HW127305   2.043   4.153   7.183 -0.8549 -0.0100 -1.2568
 5281SOL    HW227306   2.184   4.217   7.162 -0.4424 -0.2185 -2.2829
 5282SOL     OW27307   0.472   2.119   5.103  0.2459 -0.0764  0.0902
 5282SOL    HW127308   0.442   2.080   5.185  2.0976 -0.3077  0.6589
 5282SOL    HW227309   0.566   2.099   5.103  1.0385  3.7282 -3.9176
 5283SOL     OW27310   1.467   2.949   1.844 -0.4721 -0.6710 -0.1825
 5283SOL    HW127311   1.484   2.907   1.928  2.7675 -0.0633 -0.5166
 5283SOL    HW227312   1.372   2.943   1.831 -0.4433 -1.3681 -0.0237
 5284SOL     OW27313   0.900   3.230  11.374 -0.6036  0.1712 -0.1550
 5284SOL    HW127314   0.970   3.286  11.406  0.1117 -0.1459 -1.1319
 5284SOL    HW227315   0.874   3.276  11.294  0.1202  1.0169  0.0974
 5285SOL     OW27316   1.095   1.232  10.302 -0.6710  0.0188 -0.1759
 5285SOL    HW127317   1.068   1.250  10.393  0.8586  3.1745 -0.3616
 5285SOL    HW227318   1.143   1.153  10.326  2.0065  1.0969 -2.0418
 5286SOL     OW27319   3.129   2.583   8.646 -0.5868  0.3148 -0.2349
 5286SOL    HW127320   3.167   2.646   8.707  0.4564  0.0020 -0.5636
 5286SOL    HW227321   3.040   2.615   8.632 -0.9417 -0.4504  0.2990
 5287SOL     OW27322   0.435   0.086  16.610  0.2265  0.1431  0.4058
 5287SOL    HW127323   0.471   0.013  16.661 -1.3578  0.6143  2.2031
 5287SOL    HW227324   0.480   0.160  16.651 -1.5946  1.2856  0.3577
 5288SOL     OW27325   1.311   4.642   7.059 -0.2977 -0.4803  0.6727
 5288SOL    HW127326   1.387   4.658   7.003  0.4706 -1.6961  1.3640
 5288SOL    HW227327   1.303   4.547   7.049  0.6136 -0.4544 -0.3024
 5289SOL     OW27328   0.047   4.486   7.336 -0.2358  0.6999  0.5625
 5289SOL    HW127329   0.085   4.524   7.415  1.1408  2.6707 -1.0503
 5289SOL    HW227330   0.052   4.392   7.352  4.0490  0.8049 -0.1656
 5290SOL     OW27331   2.584   2.481  15.236  0.0416 -0.2794 -0.6168
 5290SOL    HW127332   2.573   2.446  15.325  0.5164 -0.4170 -0.6118
 5290SOL    HW227333   2.551   2.413  15.178 -1.3681  2.6498 -3.2065
 5291SOL     OW27334   2.232   2.066   3.094  0.4728 -0.3109  0.3042
 5291SOL    HW127335   2.258   2.156   3.074  1.9992 -0.8786 -0.1757
 5291SOL    HW227336   2.137   2.073   3.079 -0.0682 -1.2969  3.1017
 5292SOL     OW27337   1.849   0.047  16.896 -0.0653 -0.1756  0.4944
 5292SOL    HW127338   1.850   0.143  16.901 -0.2354 -0.1339 -0.3856
 5292SOL    HW227339   1.872   0.025  16.806  0.9590  1.8330  0.2750
 5293SOL     OW27340   1.883   3.026   3.018  0.1645 -0.2444  0.5273
 5293SOL    HW127341   1.893   3.056   2.927 -0.5187 -2.7297 -0.3558
 5293SOL    HW227342   1.871   2.934   2.998 -2.5972 -0.0495  1.3235
 5294SOL     OW27343   1.866   3.230   6.695 -0.1834  0.5739  0.2265
 5294SOL    HW127344   1.902   3.214   6.782  1.3581 -2.9302 -1.0786
 5294SOL    HW227345   1.821   3.314   6.704  0.8872  1.1602  0.1728
 5295SOL     OW27346   3.630   2.648  11.609  0.0340 -0.3737  0.2931
 5295SOL    HW127347   3.576   2.578  11.644  0.5914 -0.8587  0.1822
 5295SOL    HW227348   3.559   2.706  11.582  1.2536 -0.1827 -2.5471
 5296SOL     OW27349   0.245   3.366   4.140 -0.6886  0.1196 -0.3756
 5296SOL    HW127350   0.299   3.344   4.216  0.9869  1.0022 -1.3070
 5296SOL    HW227351   0.164   3.316   4.149 -0.8294  0.9441  3.0875
 5297SOL     OW27352   1.117   1.797   9.136 -0.4354  0.0384 -0.3391
 5297SOL    HW127353   1.185   1.780   9.071  0.2245  0.6517  0.1898
 5297SOL    HW227354   1.130   1.718   9.188  1.5898 -0.8285 -2.1461
 5298SOL     OW27355   2.307   3.754  12.230 -0.2693  0.0460  0.4661
 5298SOL    HW127356   2.258   3.832  12.205  1.2867  1.7833  2.9313
 5298SOL    HW227357   2.383   3.787  12.277 -0.9190 -0.3403  1.7984
 5299SOL     OW27358   2.857   0.126   1.783  0.1960 -0.2348 -0.2924
 5299SOL    HW127359   2.842   0.043   1.737 -0.0541 -0.6947  0.6249
 5299SOL    HW227360   2.791   0.116   1.851  0.5802 -2.3962 -0.2568
 5300SOL     OW27361   0.624   3.255   4.871  0.7183 -0.1026 -0.0154
 5300SOL    HW127362   0.719   3.264   4.861  0.7853 -1.6891 -0.8427
 5300SOL    HW227363   0.596   3.346   4.871  1.2062  0.0516  0.5799
 5301SOL     OW27364   4.393   2.888   8.752  0.1869 -0.3335  0.3437
 5301SOL    HW127365   4.428   2.800   8.768 -0.4226 -0.9859 -1.9779
 5301SOL    HW227366   4.316   2.877   8.807 -1.8539  0.9477 -2.2459
 5302SOL     OW27367   3.587   4.680  12.050 -0.2775  0.1023 -0.1704
 5302SOL    HW127368   3.583   4.644  11.961 -0.1858 -1.4777  0.4628
 5302SOL    HW227369   3.588   4.600  12.103 -1.1211  1.8634  2.5006
 5303SOL     OW27370   4.596   3.170  12.588 -0.1362 -0.5355  0.0746
 5303SOL    HW127371   4.527   3.236  12.582  1.3462  0.8899 -1.5406
 5303SOL    HW227372   4.552   3.090  12.562  0.4977 -0.8415 -0.0620
 5304SOL     OW27373   2.268   2.751   6.382  0.0754  0.2498  0.1527
 5304SOL    HW127374   2.359   2.735   6.360 -0.0463 -0.7125  0.3303
 5304SOL    HW227375   2.255   2.726   6.473 -0.1042 -0.6971 -0.1299
 5305SOL     OW27376   0.513   0.217   7.067 -0.3355  0.2337 -0.0864
 5305SOL    HW127377   0.458   0.277   7.118 -3.0474 -1.2747 -1.1784
 5305SOL    HW227378   0.457   0.139   7.073 -0.0844  0.4466  4.9735
 5306SOL     OW27379   3.271   2.171   8.831  0.1083 -0.2134 -0.0611
 5306SOL    HW127380   3.180   2.194   8.852 -0.5801 -2.9079 -0.1167
 5306SOL    HW227381   3.288   2.228   8.755 -0.8691 -0.1688 -0.2472
 5307SOL     OW27382   4.423   1.149   9.467  0.2542  0.0554 -0.3734
 5307SOL    HW127383   4.440   1.220   9.405  0.0792  1.1958  0.8971
 5307SOL    HW227384   4.331   1.139   9.442 -0.2960 -0.4361  1.8489
 5308SOL     OW27385   0.789   2.077   9.033  0.7322 -0.2198 -0.5135
 5308SOL    HW127386   0.810   2.134   9.107 -2.1383 -1.6143  1.4198
 5308SOL    HW227387   0.703   2.045   9.063  0.0619  1.0019 -1.1509
 5309SOL     OW27388   3.566   2.591   1.013  0.0365 -0.4711  0.4912
 5309SOL    HW127389   3.627   2.589   0.940 -1.0192  0.0661 -0.4035
 5309SOL    HW227390   3.603   2.517   1.063  1.5584 -0.3810 -0.5074
 5310SOL     OW27391   2.441   2.118  12.470 -0.8322  0.1836  0.1536
 5310SOL    HW127392   2.367   2.159  12.426 -1.1540  0.6276  1.0976
 5310SOL    HW227393   2.432   2.143  12.562  0.4044  1.0261  0.0516
 5311SOL     OW27394   2.979   4.230   6.989 -0.5208 -0.1674  0.0270
 5311SOL    HW127395   2.968   4.317   6.951 -0.2413 -1.5532 -3.2392
 5311SOL    HW227396   2.982   4.260   7.080 -4.9922  3.2627 -0.9806
 5312SOL     OW27397   1.984   2.391   3.559 -0.2087  0.3667  0.6970
 5312SOL    HW127398   1.928   2.418   3.632  0.2185  3.2092  0.0003
 5312SOL    HW227399   1.934   2.321   3.518  2.9868 -0.2641 -2.1189
 5313SOL     OW27400   2.986   0.757   0.233  0.2679 -0.6402  0.4198
 5313SOL    HW127401   2.895   0.755   0.263 -0.2777  0.4788 -1.1972
 5313SOL    HW227402   3.009   0.817   0.304 -1.4483 -0.0022  0.4218
 5314SOL     OW27403   2.478   0.301   8.263 -0.1009 -0.3481  0.5020
 5314SOL    HW127404   2.533   0.274   8.188 -1.2409  0.6065 -0.6779
 5314SOL    HW227405   2.530   0.269   8.337 -0.8044 -1.5938  0.4610
 5315SOL     OW27406   3.619   4.286   6.047 -1.3719  0.1374 -0.1329
 5315SOL    HW127407   3.591   4.204   6.006  2.6026 -2.3716  2.1583
 5315SOL    HW227408   3.568   4.350   5.996  0.6050 -0.2425 -2.5928
 5316SOL     OW27409   2.475   3.712   5.912 -0.7221  0.6046  0.5160
 5316SOL    HW127410   2.429   3.712   5.827  0.6456 -0.6366 -0.2151
 5316SOL    HW227411   2.463   3.619   5.930 -2.3143  1.0165  1.6455
 5317SOL     OW27412   3.880   1.749   3.194  0.5965  0.4923 -0.0944
 5317SOL    HW127413   3.842   1.742   3.106 -1.6826 -0.9982  1.0102
 5317SOL    HW227414   3.807   1.717   3.246  0.0285  0.6921 -0.7640
 5318SOL     OW27415   3.082   4.245   4.115  0.5985  0.1500  0.0931
 5318SOL    HW127416   3.139   4.307   4.070 -2.6339  1.5469 -2.0666
 5318SOL    HW227417   3.001   4.296   4.108  1.1992  1.0772  0.0195
 5319SOL     OW27418   0.041   1.163   4.025  0.0006 -0.0825 -0.1467
 5319SOL    HW127419   4.680   1.208   4.036  0.8385  1.0055  1.5448
 5319SOL    HW227420   0.040   1.165   3.929 -0.2684 -0.7754 -0.1596
 5320SOL     OW27421   3.677   1.452  16.500  0.4466  0.5924 -0.7694
 5320SOL    HW127422   3.667   1.404  16.418  0.0918 -0.2989 -0.2083
 5320SOL    HW227423   3.768   1.481  16.500  0.0952  1.6822 -2.0678
 5321SOL     OW27424   1.050   0.324  17.194 -0.2168 -0.0894 -0.4782
 5321SOL    HW127425   1.032   0.306  17.287  0.6142 -1.7067 -0.6332
 5321SOL    HW227426   1.115   0.393  17.204 -0.0504 -0.4832  1.2580
 5322SOL     OW27427   2.754   3.715  11.861  0.1494  0.5544  0.5583
 5322SOL    HW127428   2.674   3.763  11.838  1.1873  0.6761 -2.8358
 5322SOL    HW227429   2.749   3.639  11.803 -1.2812 -0.3152  1.8224
 5323SOL     OW27430   0.702   4.523   5.887  0.2432 -0.1174  0.0732
 5323SOL    HW127431   0.713   4.458   5.818 -0.7320 -0.2603  0.0535
 5323SOL    HW227432   0.610   4.513   5.913 -0.3435  0.2038 -1.9041
 5324SOL     OW27433   3.907   0.583   6.904 -0.0832  0.5110  0.1779
 5324SOL    HW127434   3.943   0.606   6.989  0.4813  0.9394 -0.1779
 5324SOL    HW227435   3.815   0.604   6.919 -0.3096 -0.3459  0.0001
 5325SOL     OW27436   3.641   0.423   4.588  0.2067  0.2691 -0.1554
 5325SOL    HW127437   3.627   0.355   4.523 -0.7504 -0.4922  0.8329
 5325SOL    HW227438   3.736   0.432   4.595  0.2833 -0.6485 -0.1086
 5326SOL     OW27439   0.264   4.411   0.413 -0.3161 -0.0320  0.0877
 5326SOL    HW127440   0.326   4.342   0.391 -0.9201 -0.9301  1.1866
 5326SOL    HW227441   0.320   4.488   0.409 -0.5785  0.1399 -0.1892
 5327SOL     OW27442   1.274   0.671   4.720  0.0907  0.7362  0.2111
 5327SOL    HW127443   1.320   0.755   4.718  0.7274  0.4016  1.0020
 5327SOL    HW227444   1.219   0.674   4.641 -2.3202 -1.9656  1.8020
 5328SOL     OW27445   1.149   2.937   0.874 -0.4043 -0.2920  0.3307
 5328SOL    HW127446   1.209   2.995   0.921 -1.3283 -0.0263  1.1735
 5328SOL    HW227447   1.097   2.998   0.821 -2.1016 -1.0376  1.1351
 5329SOL     OW27448   2.620   0.813   2.000  1.1445  0.2568 -0.0232
 5329SOL    HW127449   2.712   0.839   2.006  0.7725  1.6083 -0.1439
 5329SOL    HW227450   2.588   0.850   2.082  1.9086  1.6527 -0.3411
 5330SOL     OW27451   4.308   2.550  12.812 -0.0293  0.1280  0.3767
 5330SOL    HW127452   4.380   2.613  12.825 -1.7508  1.7482  2.0326
 5330SOL    HW227453   4.317   2.531  12.718 -2.1849 -0.7855  0.3635
 5331SOL     OW27454   3.619   0.263   0.822 -0.2827 -0.3068  0.1268
 5331SOL    HW127455   3.605   0.183   0.771 -0.6777 -0.5251  0.5768
 5331SOL    HW227456   3.693   0.253   0.882 -0.5248  1.9102  0.8006
 5332SOL     OW27457   2.949   3.400   5.364 -0.3013  0.2485 -0.4920
 5332SOL    HW127458   2.993   3.480   5.393 -0.6820  0.5378 -0.7206
 5332SOL    HW227459   2.888   3.447   5.306  0.5337  1.5064 -0.3558
 5333SOL     OW27460   2.074   0.823  14.247 -0.5412 -0.3370 -0.0282
 5333SOL    HW127461   2.041   0.755  14.306 -1.5468  0.8089  0.7475
 5333SOL    HW227462   2.106   0.758  14.186  0.3812 -0.3051  0.4206
 5334SOL     OW27463   1.098   0.261   0.613 -0.3758 -0.5804 -0.0963
 5334SOL    HW127464   1.085   0.238   0.521  0.4631  1.1915 -0.6571
 5334SOL    HW227465   1.014   0.306   0.627 -0.4917 -0.8024 -0.0822
 5335SOL     OW27466   2.146   0.405   5.841  0.2379 -0.3446  0.3692
 5335SOL    HW127467   2.071   0.360   5.879 -0.7722 -0.1359 -1.3873
 5335SOL    HW227468   2.173   0.347   5.770 -0.3936  2.3104 -2.0143
 5336SOL     OW27469   4.660   0.267  14.293 -0.0087 -0.7253  0.1490
 5336SOL    HW127470   0.004   0.328  14.326  1.0403 -1.5189 -0.4809
 5336SOL    HW227471   4.645   0.226  14.379 -0.0324  1.9563  1.4347
 5337SOL     OW27472   0.774   3.280  15.757  0.0958  0.1460 -0.3259
 5337SOL    HW127473   0.798   3.369  15.730  0.0367  0.6691  1.3896
 5337SOL    HW227474   0.819   3.262  15.839 -1.1092 -0.5459  0.1895
 5338SOL     OW27475   4.363   2.973  17.535  0.2469  0.0444 -0.0060
 5338SOL    HW127476   4.291   3.016  17.489  0.6205 -1.4342 -1.9644
 5338SOL    HW227477   4.356   2.999  17.627 -0.2793  0.8804 -0.2837
 5339SOL     OW27478   4.348   2.385   7.766  0.0502 -0.0335  0.4795
 5339SOL    HW127479   4.342   2.395   7.861 -1.8777  3.1898  0.0323
 5339SOL    HW227480   4.440   2.370   7.745  0.2976 -1.8252  2.8264
 5340SOL     OW27481   0.825   3.250   8.158 -0.0138 -0.3288  0.3822
 5340SOL    HW127482   0.744   3.270   8.205  0.0768 -1.5227  1.0399
 5340SOL    HW227483   0.895   3.306   8.190 -0.3819 -0.1082  0.8059
 5341SOL     OW27484   2.590   0.595   9.343  0.5432 -0.0523 -0.1389
 5341SOL    HW127485   2.675   0.583   9.386 -0.4674  0.5315  2.0439
 5341SOL    HW227486   2.615   0.557   9.259 -0.4399 -3.4877  1.1436
 5342SOL     OW27487   1.648   3.195  11.744 -0.0895 -0.0598  0.0953
 5342SOL    HW127488   1.624   3.206  11.652  2.3964 -1.4973 -0.7165
 5342SOL    HW227489   1.726   3.250  11.749 -0.6048  0.8170 -1.4068
 5343SOL     OW27490   2.710   2.870   0.271  0.1424  0.3552 -0.6102
 5343SOL    HW127491   2.695   2.913   0.187  2.1486  0.9918 -0.6370
 5343SOL    HW227492   2.796   2.832   0.257  1.1470  2.2770  0.3358
 5344SOL     OW27493   4.393   2.651   1.163 -0.3212  0.9790  0.1350
 5344SOL    HW127494   4.411   2.594   1.237 -1.6954 -0.6859 -0.8184
 5344SOL    HW227495   4.484   2.676   1.147  0.0892 -1.4406 -1.3573
 5345SOL     OW27496   0.675   1.014   3.782  0.2563 -0.4990  0.1278
 5345SOL    HW127497   0.615   1.088   3.785  1.9541  0.8260  1.5200
 5345SOL    HW227498   0.690   1.000   3.876  3.5114  0.7726 -0.2198
 5346SOL     OW27499   1.421   3.990   9.892  0.0253  0.1072 -0.3039
 5346SOL    HW127500   1.448   3.915   9.944 -3.7234 -2.1393 -1.6049
 5346SOL    HW227501   1.369   3.945   9.825 -1.4279 -2.6108  2.6526
 5347SOL     OW27502   2.135   2.518  12.473  0.2591  0.0877 -0.4095
 5347SOL    HW127503   2.190   2.488  12.401 -0.1633 -0.1432 -0.6310
 5347SOL    HW227504   2.078   2.583  12.433  1.3380  0.7459 -0.8859
 5348SOL     OW27505   3.999   1.454   5.033  0.3552 -0.1720 -0.5981
 5348SOL    HW127506   3.981   1.484   5.122  0.5671 -1.3622 -0.1613
 5348SOL    HW227507   3.944   1.513   4.981 -1.0808  0.5810  1.8059
 5349SOL     OW27508   3.390   3.461   0.454 -0.2447 -0.3766  0.5164
 5349SOL    HW127509   3.423   3.458   0.364  0.8647  1.9557  0.8460
 5349SOL    HW227510   3.323   3.393   0.449 -1.1359  0.3951  1.9507
 5350SOL     OW27511   4.081   1.475   4.150 -0.5068 -0.6165 -0.3129
 5350SOL    HW127512   4.168   1.505   4.175 -0.2430 -0.4405 -1.4311
 5350SOL    HW227513   4.101   1.440   4.063  2.4607 -0.2911  0.2652
 5351SOL     OW27514   1.427   3.412   0.924  0.5572  0.3837 -0.2414
 5351SOL    HW127515   1.450   3.397   1.016 -0.6221 -1.3600 -0.2388
 5351SOL    HW227516   1.453   3.504   0.916  2.3679 -0.1275 -0.3283
 5352SOL     OW27517   0.491   2.781  13.136 -0.3146 -0.2499  0.2873
 5352SOL    HW127518   0.500   2.687  13.120 -1.5670 -0.5491  1.3811
 5352SOL    HW227519   0.546   2.809  13.063 -3.0640 -0.5278 -1.8722
 5353SOL     OW27520   0.337   1.457   7.483 -0.5347  0.0366  0.3173
 5353SOL    HW127521   0.360   1.516   7.555  0.7894  1.2276 -1.0826
 5353SOL    HW227522   0.424   1.427   7.458 -0.5614 -0.1868  0.4981
 5354SOL     OW27523   2.927   0.064   5.968  0.6852 -0.7377  0.3580
 5354SOL    HW127524   3.022   0.070   5.966  0.7144 -0.9071  1.1997
 5354SOL    HW227525   2.911   0.078   5.875  1.3161 -0.1736  0.3344
 5355SOL     OW27526   2.154   2.850   7.272  0.0449 -0.0519 -0.4455
 5355SOL    HW127527   2.133   2.905   7.347  3.4193  2.1863 -1.1385
 5355SOL    HW227528   2.113   2.768   7.300  0.5420  0.4278  1.6881
 5356SOL     OW27529   1.129   4.263  10.033  0.1482 -0.0428  0.1403
 5356SOL    HW127530   1.186   4.301   9.966 -0.7650  1.1044  0.0166
 5356SOL    HW227531   1.170   4.301  10.110  0.2504  0.0952  0.0173
 5357SOL     OW27532   1.033   3.885   2.451  0.0256 -0.5000  0.5927
 5357SOL    HW127533   1.109   3.830   2.471  0.2217  0.2437  1.8905
 5357SOL    HW227534   1.060   3.890   2.360  1.6951  1.3291  1.1769
 5358SOL     OW27535   1.004   0.250   9.070  0.3087  0.3494 -0.0513
 5358SOL    HW127536   1.095   0.242   9.042  0.5975 -3.2436  1.9296
 5358SOL    HW227537   0.969   0.170   9.031  1.4870 -1.0366  1.7190
 5359SOL     OW27538   2.790   1.326  13.504 -0.5184 -0.3060  0.1582
 5359SOL    HW127539   2.879   1.298  13.524 -0.4282  0.2226  0.5021
 5359SOL    HW227540   2.767   1.255  13.444  1.1405 -0.7043 -0.0058
 5360SOL     OW27541   1.779   1.374   3.105 -0.0661 -0.0652 -0.5534
 5360SOL    HW127542   1.824   1.376   3.021 -0.7049 -1.4864 -0.9251
 5360SOL    HW227543   1.815   1.452   3.146  1.9268 -2.1388  1.6339
 5361SOL     OW27544   3.024   2.121   2.017 -0.6662 -0.3106  0.3918
 5361SOL    HW127545   2.990   2.139   1.929  0.8981 -2.3353 -0.6352
 5361SOL    HW227546   3.073   2.200   2.042  2.3844 -1.4501 -2.0089
 5362SOL     OW27547   1.136   2.843   8.133 -0.1177 -0.2053  0.2113
 5362SOL    HW127548   1.187   2.832   8.213  2.3981 -1.0047 -1.5176
 5362SOL    HW227549   1.066   2.899   8.167 -0.3363  0.2619 -1.0412
 5363SOL     OW27550   1.856   0.062   7.150 -0.1827  0.0912 -0.8220
 5363SOL    HW127551   1.821   4.696   7.162  2.7183 -0.7332  1.6691
 5363SOL    HW227552   1.840   0.091   7.061 -1.5189  0.5989 -0.4181
 5364SOL     OW27553   4.662   3.520   1.341  0.0960  0.2836 -0.5534
 5364SOL    HW127554   4.619   3.595   1.299 -0.2580  0.1788 -0.3807
 5364SOL    HW227555   4.584   3.488   1.387  0.1474 -0.9499 -1.3437
 5365SOL     OW27556   0.096   2.323  15.932  1.0500 -0.4232 -0.6335
 5365SOL    HW127557   0.158   2.368  15.989  0.8589  0.3056 -1.0104
 5365SOL    HW227558   0.103   2.231  15.960  1.1997 -0.9131 -2.2581
 5366SOL     OW27559   4.613   4.430   3.071  0.9783 -0.2525  0.3889
 5366SOL    HW127560   4.654   4.347   3.046 -1.2469 -1.4915  0.8653
 5366SOL    HW227561   4.584   4.454   2.983 -0.5895  0.1033  0.9975
 5367SOL     OW27562   2.640   3.650   5.127  0.2777 -0.4747  0.1725
 5367SOL    HW127563   2.708   3.589   5.155  0.4526 -0.5945 -0.4984
 5367SOL    HW227564   2.696   3.714   5.081 -1.0640  1.4458  1.2048
 5368SOL     OW27565   3.176   1.132   1.015 -0.3139 -0.1097 -0.0796
 5368SOL    HW127566   3.155   1.126   0.922  1.1393 -0.6228 -0.3711
 5368SOL    HW227567   3.208   1.222   1.014  1.8906 -0.9314 -1.2618
 5369SOL     OW27568   1.642   0.232   5.594 -0.1622 -0.2234 -0.0359
 5369SOL    HW127569   1.734   0.204   5.592 -0.4790 -1.3445  0.9149
 5369SOL    HW227570   1.620   0.171   5.525 -0.4072 -0.4660  0.2571
 5370SOL     OW27571   0.843   4.442  13.887 -0.5174 -0.1791  0.4629
 5370SOL    HW127572   0.826   4.507  13.955  0.4995  1.8039 -1.1857
 5370SOL    HW227573   0.908   4.390  13.933  1.4508  0.2741 -1.8322
 5371SOL     OW27574   0.919   1.969   9.869  0.1559  0.8418 -0.1156
 5371SOL    HW127575   0.969   1.968   9.950 -0.7617  0.3093  0.4319
 5371SOL    HW227576   0.919   2.063   9.846  0.5487  0.7540 -0.4781
 5372SOL     OW27577   4.054   2.791   7.517  0.3274 -0.3264  0.2469
 5372SOL    HW127578   4.098   2.712   7.485 -1.0334 -1.4577  1.1662
 5372SOL    HW227579   4.098   2.807   7.601  1.7825  0.5649 -0.6845
 5373SOL     OW27580   2.387   0.501   4.384 -0.1805 -0.5609  0.1526
 5373SOL    HW127581   2.314   0.558   4.357 -0.6774 -1.1461  0.2713
 5373SOL    HW227582   2.427   0.568   4.440  1.6252 -0.7662 -0.9125
 5374SOL     OW27583   0.469   4.420   7.975  0.3622  0.2074  0.1369
 5374SOL    HW127584   0.560   4.399   7.996  0.0831 -0.8069  0.3247
 5374SOL    HW227585   0.415   4.419   8.053  1.4405  0.1628  0.8788
 5375SOL     OW27586   0.773   0.428   3.233 -0.4684  0.5142 -0.1656
 5375SOL    HW127587   0.798   0.499   3.291 -0.0449 -0.0074  0.2856
 5375SOL    HW227588   0.822   0.446   3.152  1.3064 -1.6797  0.4032
 5376SOL     OW27589   3.780   2.279  15.041 -0.2451  0.0404 -0.5077
 5376SOL    HW127590   3.764   2.199  15.090 -2.6679 -0.7001 -2.5117
 5376SOL    HW227591   3.745   2.348  15.098  0.7594  1.9793 -2.1977
 5377SOL     OW27592   2.748   1.983   8.348 -0.3597 -0.5048 -0.5557
 5377SOL    HW127593   2.730   2.070   8.384 -1.3697 -0.4193 -1.2489
 5377SOL    HW227594   2.704   1.987   8.263 -0.3353  1.5237 -0.4675
 5378SOL     OW27595   3.405   0.617   6.536  0.0996 -0.8050  0.2533
 5378SOL    HW127596   3.379   0.530   6.565  0.2458 -1.4281 -1.5062
 5378SOL    HW227597   3.430   0.655   6.620  0.5114  1.4611 -0.9017
 5379SOL     OW27598   4.709   1.942   0.757  0.2252  0.0654  1.3123
 5379SOL    HW127599   4.613   1.946   0.759  0.1433 -1.3530 -0.8313
 5379SOL    HW227600   0.007   1.871   0.818 -2.0539 -1.0965  0.6647
 5380SOL     OW27601   2.287   4.013   7.491  0.2736 -0.4820 -0.6266
 5380SOL    HW127602   2.286   4.084   7.555  2.2517 -1.3762  0.4006
 5380SOL    HW227603   2.194   3.998   7.476 -0.0242 -0.6306  1.3045
 5381SOL     OW27604   3.096   1.181   9.206 -0.6343 -0.7080  0.3452
 5381SOL    HW127605   3.073   1.265   9.167  1.9617  0.2631  0.9180
 5381SOL    HW227606   3.191   1.184   9.195 -0.7747  1.1523 -0.3389
 5382SOL     OW27607   0.145   1.637   1.477  0.3999 -0.2079 -0.0028
 5382SOL    HW127608   0.175   1.579   1.547  1.2226 -1.1440 -1.1289
 5382SOL    HW227609   0.189   1.720   1.490 -0.9901  0.6961 -1.0511
 5383SOL     OW27610   1.722   0.879   3.373  0.5453  0.3041  0.2554
 5383SOL    HW127611   1.730   0.841   3.461  0.0901  0.0661  0.1973
 5383SOL    HW227612   1.647   0.937   3.388 -0.1659 -0.3966 -0.5253
 5384SOL     OW27613   3.065   2.141   7.874 -0.0648  0.5316 -0.4039
 5384SOL    HW127614   3.078   2.120   7.967  0.1387 -0.2933 -0.6231
 5384SOL    HW227615   3.129   2.211   7.859  0.5752  0.3891  1.6480
 5385SOL     OW27616   0.785   0.034   3.627 -0.2064 -0.2902 -0.4240
 5385SOL    HW127617   0.759   0.124   3.610  1.9808  0.4226  0.0217
 5385SOL    HW227618   0.877   0.037   3.603  0.2464  0.7216  1.4239
 5386SOL     OW27619   4.110   4.314  15.587  0.1464 -0.6362  0.4476
 5386SOL    HW127620   4.104   4.399  15.629 -0.2411 -0.1761 -0.5398
 5386SOL    HW227621   4.022   4.283  15.608 -0.4809  0.4567 -0.5721
 5387SOL     OW27622   3.964   0.245   8.793  0.1479 -0.3598 -0.2293
 5387SOL    HW127623   3.944   0.261   8.885  0.1580  0.7800 -0.4262
 5387SOL    HW227624   3.984   0.333   8.762  2.1270 -0.4442  0.8232
 5388SOL     OW27625   2.019   2.593   8.391  0.3676  0.1707 -0.0491
 5388SOL    HW127626   2.049   2.536   8.462 -0.5881 -0.5073 -0.1784
 5388SOL    HW227627   1.967   2.533   8.337 -1.8207  0.7024  1.4626
 5389SOL     OW27628   2.732   1.417  12.908  0.5974  0.0859  0.0032
 5389SOL    HW127629   2.806   1.444  12.963  2.6379  0.2174 -2.8021
 5389SOL    HW227630   2.670   1.488  12.924  0.9717  0.2016  0.9786
 5390SOL     OW27631   1.665   0.643   8.907 -0.2700 -0.2150  0.2432
 5390SOL    HW127632   1.646   0.616   8.817 -2.2600 -0.6201  0.7745
 5390SOL    HW227633   1.697   0.559   8.939 -0.7862 -0.4642  0.1168
 5391SOL     OW27634   4.436   0.086   9.021  0.3164  0.0303  0.1392
 5391SOL    HW127635   4.446   0.176   8.988  2.5270 -0.6973 -1.1671
 5391SOL    HW227636   4.528   0.061   9.016  0.3223 -0.2506  1.7213
 5392SOL     OW27637   2.131   1.228   6.438 -0.0047  0.1804 -0.4229
 5392SOL    HW127638   2.042   1.254   6.413 -1.0972 -3.2809 -0.1170
 5392SOL    HW227639   2.174   1.221   6.353 -0.1844 -1.9882 -0.3366
 5393SOL     OW27640   4.054   2.488   7.516 -0.1742  0.0360 -0.1526
 5393SOL    HW127641   4.051   2.405   7.563  0.8832  1.4840  2.4568
 5393SOL    HW227642   4.143   2.521   7.530  0.3146 -0.5798 -1.8012
 5394SOL     OW27643   4.281   2.004   0.364 -0.3509 -0.3141 -0.0893
 5394SOL    HW127644   4.243   2.032   0.281 -0.8617 -1.1615 -0.1333
 5394SOL    HW227645   4.223   2.051   0.425 -0.2343  1.0903 -1.0625
 5395SOL     OW27646   3.051   3.164   5.755  0.4530 -0.2288  0.0422
 5395SOL    HW127647   3.053   3.181   5.661  1.6617  0.7715  0.2411
 5395SOL    HW227648   3.134   3.206   5.777  0.5644 -0.1231 -0.6031
 5396SOL     OW27649   3.036   1.267   6.202 -0.1081  1.3418  0.4301
 5396SOL    HW127650   3.099   1.308   6.143  0.0592 -2.3698 -1.9548
 5396SOL    HW227651   3.067   1.177   6.197 -0.6076  1.0277  3.1110
 5397SOL     OW27652   3.914   0.847   8.317  0.2242 -0.3868  0.4098
 5397SOL    HW127653   4.000   0.845   8.275 -0.3192  0.0193 -0.7126
 5397SOL    HW227654   3.861   0.886   8.248 -0.6274  0.1460  1.3532
 5398SOL     OW27655   3.369   3.414   5.311  0.0966 -0.0020  0.4520
 5398SOL    HW127656   3.364   3.410   5.407  1.5897  2.7832  0.6715
 5398SOL    HW227657   3.304   3.480   5.287  0.8003 -0.3746 -2.4760
 5399SOL     OW27658   1.326   2.264   4.360 -0.5719 -0.0334 -0.0805
 5399SOL    HW127659   1.237   2.274   4.393 -1.2688 -0.5803 -1.8023
 5399SOL    HW227660   1.352   2.178   4.394 -0.4869  0.2442  0.5677
 5400SOL     OW27661   4.258   0.832   5.843  0.2635 -0.7405 -0.1266
 5400SOL    HW127662   4.210   0.768   5.790  1.4700 -0.0392 -2.0758
 5400SOL    HW227663   4.345   0.821   5.805 -0.0437  4.6411 -2.4697
 5401SOL     OW27664   3.020   1.231   9.698 -0.6763 -0.4580  0.1576
 5401SOL    HW127665   3.051   1.245   9.608  0.6602  0.7948  0.8193
 5401SOL    HW227666   2.966   1.155   9.678  2.1350 -1.7036 -2.5325
 5402SOL     OW27667   3.240   1.368   6.614  0.1254  0.3477  0.2428
 5402SOL    HW127668   3.153   1.340   6.585 -0.1645  2.8722 -1.3153
 5402SOL    HW227669   3.287   1.327   6.541 -2.1549 -0.8996 -0.5608
 5403SOL     OW27670   2.255   2.816   4.617  0.1853  0.2703  0.0579
 5403SOL    HW127671   2.198   2.887   4.646 -0.1512 -1.2017  2.9990
 5403SOL    HW227672   2.191   2.747   4.632 -0.4181  0.7468 -0.3433
 5404SOL     OW27673   3.337   1.866  13.953 -0.2970 -0.8995 -1.0234
 5404SOL    HW127674   3.278   1.923  14.002 -0.3064  0.3446 -2.4815
 5404SOL    HW227675   3.270   1.801  13.932  1.0322 -2.4968 -0.3293
 5405SOL     OW27676   2.641   3.345  10.795  0.2247  0.2788  0.3516
 5405SOL    HW127677   2.578   3.386  10.854  0.5962  1.6538 -0.1818
 5405SOL    HW227678   2.705   3.330  10.865 -1.1951  0.4374  1.6892
 5406SOL     OW27679   4.673   3.582   6.411 -0.1327  0.1938  0.6419
 5406SOL    HW127680   4.714   3.643   6.350  1.8951 -1.1796  0.6380
 5406SOL    HW227681   0.023   3.523   6.432 -0.1686 -0.1347 -0.1303
 5407SOL     OW27682   2.584   0.202   6.534  0.4056 -0.2629  0.3282
 5407SOL    HW127683   2.587   0.264   6.607 -1.4787 -0.8722  0.9304
 5407SOL    HW227684   2.640   0.132   6.566  2.2819  1.4343  0.6983
 5408SOL     OW27685   3.600   0.574   8.495  0.5416 -0.0902 -0.0661
 5408SOL    HW127686   3.659   0.600   8.565  1.5469  0.4651 -1.1304
 5408SOL    HW227687   3.656   0.525   8.435  2.1689  1.8836 -0.1165
 5409SOL     OW27688   2.696   3.711   8.466 -0.0635  0.0636 -0.1903
 5409SOL    HW127689   2.778   3.679   8.504  0.8687  4.4091  1.5186
 5409SOL    HW227690   2.724   3.698   8.375  0.8754 -1.5903  0.3421
 5410SOL     OW27691   3.929   3.570   5.527 -0.0505 -0.0131 -0.4301
 5410SOL    HW127692   3.972   3.486   5.510  0.6585  0.2337  0.1214
 5410SOL    HW227693   3.847   3.559   5.480 -1.4450 -1.6987  2.3741
 5411SOL     OW27694   2.064   0.993  11.304  0.1852  0.3546  0.0111
 5411SOL    HW127695   2.097   1.038  11.226  0.0105  0.9439  0.2781
 5411SOL    HW227696   1.973   1.023  11.301 -0.4478 -1.6400 -1.0063
 5412SOL     OW27697   1.918   4.106   7.757 -0.7252 -1.3778  0.2986
 5412SOL    HW127698   1.866   4.084   7.680 -1.8352  1.9358  0.0968
 5412SOL    HW227699   1.856   4.168   7.796  2.0977  0.5227  1.7394
 5413SOL     OW27700   2.475   3.056   8.665 -0.1135  0.5978  0.3073
 5413SOL    HW127701   2.511   3.120   8.726 -0.8431 -0.3028  1.6767
 5413SOL    HW227702   2.553   3.032   8.615 -0.9786 -1.3316 -0.1240
 5414SOL     OW27703   1.220   0.134   1.758  0.3940 -0.0305  0.5099
 5414SOL    HW127704   1.304   0.154   1.717  0.9887 -0.9154  1.2753
 5414SOL    HW227705   1.247   0.058   1.811 -0.0082 -0.9602 -0.6210
 5415SOL     OW27706   0.038   4.298  13.408  0.1803 -0.2479 -0.2709
 5415SOL    HW127707   0.081   4.310  13.323  1.8294 -0.3878  0.5336
 5415SOL    HW227708   0.103   4.319  13.475 -2.3501  2.2443  1.3948
 5416SOL     OW27709   0.402   2.895   6.353 -0.0550  0.0374  0.1133
 5416SOL    HW127710   0.337   2.966   6.348  0.1514  0.5867  4.5554
 5416SOL    HW227711   0.460   2.936   6.417  0.0922 -0.1336  0.0870
 5417SOL     OW27712   0.427   0.552  16.844  0.3389 -0.1785 -0.0793
 5417SOL    HW127713   0.406   0.627  16.900  0.7281  0.1730 -0.4090
 5417SOL    HW227714   0.376   0.486  16.891  0.6162 -0.6934 -0.5032
 5418SOL     OW27715   1.432   4.397   8.079  0.5214  0.2393  0.3752
 5418SOL    HW127716   1.429   4.335   8.151  0.2249  0.1920  0.3203
 5418SOL    HW227717   1.352   4.364   8.039  0.7746 -1.3611  1.1999
 5419SOL     OW27718   2.253   2.104  16.706 -0.1454 -0.0709 -0.1341
 5419SOL    HW127719   2.314   2.079  16.637  1.9909 -0.2002  1.8045
 5419SOL    HW227720   2.177   2.138  16.658  0.1663  3.7625  2.0975
 5420SOL     OW27721   1.877   4.269  17.000  0.0352 -0.0009 -0.2428
 5420SOL    HW127722   1.833   4.354  16.993  0.2404  0.1808  0.6732
 5420SOL    HW227723   1.807   4.226  17.049  0.5697 -0.0400  0.4801
 5421SOL     OW27724   3.195   1.325   9.484  0.0062  0.3695  0.2754
 5421SOL    HW127725   3.185   1.274   9.403 -1.2958  2.1540 -0.6819
 5421SOL    HW227726   3.224   1.411   9.454  1.0298  0.3934  1.3326
 5422SOL     OW27727   0.462   2.644   9.212  0.4352 -0.5833 -0.5193
 5422SOL    HW127728   0.460   2.658   9.307 -0.1438 -0.3354 -0.5657
 5422SOL    HW227729   0.486   2.552   9.217 -0.5287 -0.8423 -0.6493
 5423SOL     OW27730   4.077   4.297  14.358 -0.0949 -0.4237  0.0662
 5423SOL    HW127731   4.083   4.386  14.323  0.7184 -0.3816  0.3122
 5423SOL    HW227732   4.085   4.314  14.451 -0.2597 -3.7462  0.6784
 5424SOL     OW27733   2.797   2.394  10.898 -0.1757  0.1263 -0.2772
 5424SOL    HW127734   2.783   2.309  10.857  1.2916  0.0436 -0.6038
 5424SOL    HW227735   2.842   2.436  10.825 -0.4681  1.3465  0.2438
 5425SOL     OW27736   3.175   3.247   1.104 -0.3210 -0.0691 -0.1925
 5425SOL    HW127737   3.204   3.287   1.022  0.5980  0.7852  0.5489
 5425SOL    HW227738   3.086   3.281   1.097 -0.8521 -1.1041  1.6025
 5426SOL     OW27739   0.894   3.456   0.807  0.4190  0.0793  0.2204
 5426SOL    HW127740   0.847   3.433   0.887 -0.5629 -0.0720 -0.3973
 5426SOL    HW227741   0.850   3.538   0.785  0.1887  0.0282  0.4998
 5427SOL     OW27742   0.870   2.785   9.412  0.0826 -0.3793 -0.3166
 5427SOL    HW127743   0.831   2.798   9.326  1.5507  2.8890 -0.4927
 5427SOL    HW227744   0.872   2.874   9.448  0.7733 -0.5970  0.1962
 5428SOL     OW27745   4.465   3.362   9.775  0.1311  0.2226 -0.1204
 5428SOL    HW127746   4.557   3.387   9.789 -0.0970  1.4064 -0.6975
 5428SOL    HW227747   4.434   3.405   9.696 -2.6118  0.3098  0.9993
 5429SOL     OW27748   0.475   1.135   4.858 -0.1034 -0.1076  0.5351
 5429SOL    HW127749   0.402   1.164   4.913 -1.0392 -0.2258 -0.6681
 5429SOL    HW227750   0.519   1.217   4.839 -0.8786  0.2386  0.2520
 5430SOL     OW27751   2.036   2.124   5.589  0.1998  0.0276  0.0945
 5430SOL    HW127752   2.036   2.164   5.502 -0.4912  0.3973  0.2690
 5430SOL    HW227753   1.960   2.166   5.628 -0.2080  1.2597 -1.9847
 5431SOL     OW27754   3.262   1.838   4.228 -0.1453 -0.4671 -0.6759
 5431SOL    HW127755   3.167   1.852   4.226 -0.1762 -0.3554  1.3592
 5431SOL    HW227756   3.296   1.891   4.156 -2.1907  0.8860 -0.6290
 5432SOL     OW27757   4.646   1.636   5.380 -0.0503 -0.0631 -0.2943
 5432SOL    HW127758   4.677   1.657   5.468 -2.1461 -1.5545  0.7848
 5432SOL    HW227759   4.718   1.682   5.337  0.2074  0.9367  1.1915
 5433SOL     OW27760   1.050   2.418   1.090 -0.1543 -0.2673 -0.1432
 5433SOL    HW127761   1.103   2.492   1.120 -2.1497  1.0409  0.1460
 5433SOL    HW227762   0.984   2.454   1.030 -0.4672 -0.5088  0.0575
 5434SOL     OW27763   4.234   1.569   9.037  0.0524  0.4822  0.7778
 5434SOL    HW127764   4.285   1.613   8.969 -4.2219  0.3589 -2.5040
 5434SOL    HW227765   4.150   1.562   8.992  1.0211  0.5490 -1.0529
 5435SOL     OW27766   0.310   4.449   4.859  0.2216 -0.0753  0.3745
 5435SOL    HW127767   0.237   4.509   4.872  1.4851  1.4461  0.4737
 5435SOL    HW227768   0.384   4.506   4.879 -0.1821  0.9238 -0.9891
 5436SOL     OW27769   4.252   3.866   1.424 -0.3450 -0.0824  1.0529
 5436SOL    HW127770   4.201   3.912   1.357  0.0294  0.6236  1.2557
 5436SOL    HW227771   4.223   3.911   1.503 -1.1601 -0.0029  0.7029
 5437SOL     OW27772   1.867   2.867  13.453 -0.3452  0.2113 -0.1415
 5437SOL    HW127773   1.814   2.801  13.498 -2.4384  0.0827 -2.7767
 5437SOL    HW227774   1.954   2.862  13.491 -0.5642  0.0420  0.3384
 5438SOL     OW27775   3.068   1.692   3.356  0.2302 -0.1138  0.6515
 5438SOL    HW127776   3.041   1.711   3.266 -0.3725 -0.3050  0.7908
 5438SOL    HW227777   3.140   1.755   3.367  0.3140 -0.2204  0.7084
 5439SOL     OW27778   4.312   3.294   6.661 -0.1002  0.2000 -0.3166
 5439SOL    HW127779   4.339   3.304   6.570 -1.8784 -3.4112 -1.2557
 5439SOL    HW227780   4.396   3.270   6.702 -0.7091 -0.8733  0.3290
 5440SOL     OW27781   4.211   2.095   6.305 -0.1140 -0.0241 -0.0140
 5440SOL    HW127782   4.118   2.080   6.326 -0.0007  0.1548  0.6116
 5440SOL    HW227783   4.257   2.015   6.333  2.6780  2.2395  1.8683
 5441SOL     OW27784   4.668   1.080   1.015  0.1306 -0.3960  0.9621
 5441SOL    HW127785   0.038   1.095   0.993  0.0764  1.4327  2.0290
 5441SOL    HW227786   4.653   1.031   0.934  1.2943  0.3798  0.2848
 5442SOL     OW27787   1.138   4.303   7.006  0.0080 -0.5588  0.2899
 5442SOL    HW127788   1.146   4.252   7.086 -2.2649  1.0014  1.5107
 5442SOL    HW227789   1.046   4.328   7.011  0.4480  1.2143 -0.4125
 5443SOL     OW27790   4.047   4.203   4.678 -0.1511 -0.0411  0.6478
 5443SOL    HW127791   4.075   4.284   4.635 -0.1629  0.0342  0.7800
 5443SOL    HW227792   3.958   4.234   4.695 -0.1693 -0.4703  1.3165
 5444SOL     OW27793   0.386   2.633   6.954 -0.4915  0.3733 -0.1785
 5444SOL    HW127794   0.476   2.654   6.978 -0.4876 -0.4709  0.5806
 5444SOL    HW227795   0.389   2.539   6.936  1.1403  0.0203  1.9207
 5445SOL     OW27796   3.671   4.624  16.891 -0.2567 -0.0082 -0.0740
 5445SOL    HW127797   3.725   4.701  16.910 -2.1503  1.2665  0.1632
 5445SOL    HW227798   3.594   4.672  16.922 -0.0289  0.1993  0.1700
 5446SOL     OW27799   4.318   2.401   3.247 -0.5053  0.2676 -0.5214
 5446SOL    HW127800   4.245   2.448   3.288  2.1891  2.9183  1.2205
 5446SOL    HW227801   4.300   2.404   3.153 -0.9353  0.3572 -0.4370
 5447SOL     OW27802   1.167   2.258   7.169  0.3161 -0.0850 -0.0985
 5447SOL    HW127803   1.169   2.322   7.098  2.1218 -1.0015 -0.8756
 5447SOL    HW227804   1.088   2.212   7.140  2.2121 -2.8878 -0.7858
 5448SOL     OW27805   1.146   0.168   3.764  0.2652 -0.5782  0.1613
 5448SOL    HW127806   1.240   0.164   3.780  0.2460  1.5900  0.7200
 5448SOL    HW227807   1.122   0.075   3.767  4.9515 -1.7522  1.1220
 5449SOL     OW27808   4.690   3.266   8.449  0.0309  0.1881  0.4783
 5449SOL    HW127809   0.046   3.238   8.401 -0.3001  0.2723 -0.1026
 5449SOL    HW227810   4.697   3.362   8.452 -3.1993  0.3596  2.3053
 5450SOL     OW27811   3.155   0.018   3.685 -0.6024 -0.4660  0.4404
 5450SOL    HW127812   3.150   0.024   3.590 -0.4881 -1.2779  0.3817
 5450SOL    HW227813   3.089   0.084   3.706  0.5704  1.0827 -0.8103
 5451SOL     OW27814   3.890   1.899   7.804  0.3063  0.0676  0.3171
 5451SOL    HW127815   3.976   1.865   7.783 -0.2147 -0.5588 -0.7928
 5451SOL    HW227816   3.846   1.821   7.839 -2.4674  1.1095 -0.8492
 5452SOL     OW27817   1.310   2.583   7.710 -0.1048  0.4642 -0.4333
 5452SOL    HW127818   1.294   2.599   7.803 -0.4125 -1.2341 -0.1942
 5452SOL    HW227819   1.394   2.537   7.720 -1.0325 -1.0670  0.2329
 5453SOL     OW27820   4.642   2.862  11.377  0.0414 -0.2169 -0.1911
 5453SOL    HW127821   4.610   2.917  11.448 -3.1481 -1.3555 -0.7616
 5453SOL    HW227822   4.717   2.822  11.423 -0.4138 -0.8942 -0.0348
 5454SOL     OW27823   3.395   0.243   3.612 -0.1441  0.1383 -0.2652
 5454SOL    HW127824   3.436   0.158   3.627  2.2408  1.2845 -0.3860
 5454SOL    HW227825   3.469   0.285   3.568  0.7178 -1.2939 -0.2017
 5455SOL     OW27826   3.770   0.345  14.600  0.4614 -0.0474 -0.6400
 5455SOL    HW127827   3.715   0.343  14.678  0.0167 -0.7952 -0.9661
 5455SOL    HW227828   3.738   0.421  14.552 -2.1926 -0.1786  0.9173
 5456SOL     OW27829   1.800   1.673   4.850 -0.3757 -0.1996  0.1148
 5456SOL    HW127830   1.717   1.720   4.843 -0.5129 -0.2043  1.6297
 5456SOL    HW227831   1.819   1.709   4.937 -2.4348  0.0404  0.4667
 5457SOL     OW27832   4.549   2.847  10.061  0.1913 -0.4048  0.2353
 5457SOL    HW127833   4.639   2.879  10.067 -0.0369 -0.2777  3.0626
 5457SOL    HW227834   4.546   2.815  10.151  2.0192 -1.5283 -0.1146
 5458SOL     OW27835   2.050   2.457   1.623  0.1934  0.2537  0.3421
 5458SOL    HW127836   1.998   2.420   1.694 -0.5366 -0.2982 -0.4803
 5458SOL    HW227837   2.094   2.379   1.590 -1.2943 -1.0097  1.3343
 5459SOL     OW27838   1.674   2.207   1.000  0.0326  0.2573  0.5582
 5459SOL    HW127839   1.769   2.203   0.994 -0.2409 -2.3076 -2.2568
 5459SOL    HW227840   1.658   2.115   0.976 -1.7807  0.4086  1.2069
 5460SOL     OW27841   3.948   0.702   2.319  0.0849  0.2259  0.0309
 5460SOL    HW127842   3.976   0.765   2.252 -1.2580 -1.2606 -1.9354
 5460SOL    HW227843   3.895   0.643   2.265 -2.9422  2.8743  0.0502
 5461SOL     OW27844   0.855   1.892   4.352  0.0387 -0.6509 -0.4654
 5461SOL    HW127845   0.940   1.931   4.332 -0.4919  0.3084 -0.8469
 5461SOL    HW227846   0.875   1.809   4.309  3.1959 -0.6461  0.9182
 5462SOL     OW27847   3.224   3.466   2.274 -0.6141 -0.6059  0.1933
 5462SOL    HW127848   3.305   3.434   2.312  0.3677 -0.4602 -1.7592
 5462SOL    HW227849   3.224   3.438   2.182  1.6387 -2.5668  0.7884
 5463SOL     OW27850   2.467   1.451  12.606  0.1221 -0.2471 -0.0566
 5463SOL    HW127851   2.464   1.365  12.564 -0.6947 -0.0297 -0.4559
 5463SOL    HW227852   2.435   1.508  12.535 -0.3879  0.0344  0.3999
 5464SOL     OW27853   0.731   1.784   2.768  0.4481  0.3409 -0.4646
 5464SOL    HW127854   0.666   1.818   2.707 -0.5123 -0.1510  0.2807
 5464SOL    HW227855   0.751   1.694   2.741 -0.8829 -0.6539  1.8299
 5465SOL     OW27856   1.564   0.508   8.678 -0.1565 -0.3997  0.2216
 5465SOL    HW127857   1.475   0.522   8.645 -0.0518 -1.7558 -0.6398
 5465SOL    HW227858   1.547   0.461   8.759 -2.7228  1.2956  0.6644
 5466SOL     OW27859   0.713   1.318   2.962  0.5699  0.6743 -0.8507
 5466SOL    HW127860   0.765   1.255   2.912 -3.0152 -2.5103 -0.5331
 5466SOL    HW227861   0.711   1.266   3.042 -2.2828  0.4393 -1.0755
 5467SOL     OW27862   2.096   3.511  13.738  0.1838 -0.5162  0.1925
 5467SOL    HW127863   2.017   3.457  13.729  1.0318 -2.1620  2.7855
 5467SOL    HW227864   2.105   3.549  13.650  1.8272 -1.9801 -0.2475
 5468SOL     OW27865   2.980   4.191  13.568 -0.7705 -0.1367 -0.1674
 5468SOL    HW127866   2.971   4.222  13.658  1.0711 -0.9237  0.2928
 5468SOL    HW227867   2.915   4.121  13.565 -2.9185  1.7984  0.9654
 5469SOL     OW27868   2.432   4.517   9.628 -0.0412  0.2340  0.3004
 5469SOL    HW127869   2.427   4.572   9.706 -1.6424 -0.7263  0.8770
 5469SOL    HW227870   2.347   4.474   9.641  0.8119 -0.9848  1.8805
 5470SOL     OW27871   0.609   0.255   2.120  0.0515  0.0113  0.2051
 5470SOL    HW127872   0.515   0.270   2.115  0.0255  0.1537  1.1349
 5470SOL    HW227873   0.645   0.340   2.147 -0.9003  0.1653  1.0064
 5471SOL     OW27874   4.359   3.562  16.290  0.0516 -0.3253  0.1611
 5471SOL    HW127875   4.400   3.528  16.369 -0.3846 -2.5073 -0.5639
 5471SOL    HW227876   4.303   3.630  16.329 -0.0660  0.3276 -1.1403
 5472SOL     OW27877   3.902   2.542  12.649 -0.0248  0.0049  0.2058
 5472SOL    HW127878   3.888   2.541  12.554  0.9571 -1.6250  0.0720
 5472SOL    HW227879   3.819   2.572  12.685  0.5042 -1.8747  2.9773
 5473SOL     OW27880   1.221   1.027  10.391 -0.2558  0.2161 -0.3491
 5473SOL    HW127881   1.181   0.976  10.462  0.1033 -1.6786 -1.5113
 5473SOL    HW227882   1.295   0.969  10.374  0.5826 -0.0756  4.2362
 5474SOL     OW27883   4.293   2.853   4.104  0.4228 -0.3083 -0.3868
 5474SOL    HW127884   4.286   2.927   4.043 -0.8582  0.4869  0.7057
 5474SOL    HW227885   4.353   2.800   4.053 -0.7056 -0.8141 -1.1813
 5475SOL     OW27886   2.506   1.748   6.069  0.3829  0.4601 -0.2798
 5475SOL    HW127887   2.434   1.759   6.131  1.1590 -1.9030  1.0483
 5475SOL    HW227888   2.465   1.798   5.999  0.5770  1.7911  0.5700
 5476SOL     OW27889   1.648   0.503   5.225  0.5055 -0.0235  0.4571
 5476SOL    HW127890   1.697   0.432   5.266  0.3570 -1.0289 -1.0832
 5476SOL    HW227891   1.558   0.471   5.228  0.8169 -0.9559 -0.0751
 5477SOL     OW27892   0.085   3.121   6.937  0.2079 -0.4352 -0.5550
 5477SOL    HW127893   0.031   3.048   6.907 -1.6910  1.1282 -0.9434
 5477SOL    HW227894   0.084   3.100   7.030 -1.8762 -2.3416 -1.0062
 5478SOL     OW27895   3.017   2.647  11.883 -0.2647 -0.0812  0.6705
 5478SOL    HW127896   2.982   2.571  11.929 -0.2161 -1.4349 -1.5259
 5478SOL    HW227897   2.967   2.643  11.802  2.7021 -1.9049 -1.0915
 5479SOL     OW27898   3.510   0.229   8.296 -0.3626 -0.1045  0.0687
 5479SOL    HW127899   3.553   0.219   8.211  3.4479  0.7099  1.9028
 5479SOL    HW227900   3.426   0.186   8.280  0.9049 -3.6275  3.0019
 5480SOL     OW27901   1.598   4.149   6.906  0.7651  0.8551 -0.6051
 5480SOL    HW127902   1.680   4.123   6.864  0.0741  0.6556 -1.8366
 5480SOL    HW227903   1.629   4.135   6.996 -0.1554  3.9673  0.1907
 5481SOL     OW27904   3.650   3.325   0.257 -0.4487  0.1883 -0.1477
 5481SOL    HW127905   3.691   3.378   0.326  1.4537 -0.3025 -0.8874
 5481SOL    HW227906   3.587   3.390   0.224 -0.2376  0.8558  0.7611
 5482SOL     OW27907   0.451   4.633  14.438  0.0601 -0.0875 -0.0288
 5482SOL    HW127908   0.383   4.666  14.380  0.8831 -0.4572 -1.1981
 5482SOL    HW227909   0.494   4.573  14.377 -0.7475 -1.1279  0.4041
 5483SOL     OW27910   3.802   1.685   4.539  0.3556  0.2570 -0.3080
 5483SOL    HW127911   3.897   1.684   4.556  0.1669 -1.0815  0.6548
 5483SOL    HW227912   3.801   1.686   4.443 -3.8041  1.3249 -0.2220
 5484SOL     OW27913   3.186   0.023  12.548 -0.3090  0.1498 -0.4004
 5484SOL    HW127914   3.268   4.706  12.517  0.6186 -0.5512  2.8538
 5484SOL    HW227915   3.131   4.719  12.475  0.0512 -1.7401  0.0036
 5485SOL     OW27916   1.757   2.622   9.200  0.0198 -0.7916  0.4303
 5485SOL    HW127917   1.706   2.703   9.196  1.2436 -0.0345  0.3424
 5485SOL    HW227918   1.758   2.608   9.294  0.5291 -0.9259  0.4032
 5486SOL     OW27919   4.632   0.518  13.193 -0.0824  0.0060  0.7415
 5486SOL    HW127920   4.545   0.482  13.209  0.2152 -0.7792  0.6164
 5486SOL    HW227921   4.656   0.556  13.277 -0.4030 -0.8230  1.2165
 5487SOL     OW27922   4.226   0.957   2.632 -0.1703  0.1346 -0.2102
 5487SOL    HW127923   4.289   0.980   2.564 -3.2586 -0.8664 -3.4266
 5487SOL    HW227924   4.170   1.034   2.641  1.9417  1.6926 -0.3265
 5488SOL     OW27925   2.571   1.531   2.470  0.5316  0.1755 -0.0218
 5488SOL    HW127926   2.635   1.551   2.538  1.2986 -0.0188 -0.6894
 5488SOL    HW227927   2.489   1.511   2.516  1.0041  0.2000  0.8312
 5489SOL     OW27928   3.108   3.777   3.652  0.7558  0.0174 -0.5839
 5489SOL    HW127929   3.068   3.864   3.658  1.0218 -0.0283  1.7680
 5489SOL    HW227930   3.046   3.719   3.608  0.8541  0.0712 -0.7937
 5490SOL     OW27931   1.189   4.158   8.547 -0.5931  0.7012 -0.0942
 5490SOL    HW127932   1.097   4.170   8.523 -0.9342 -0.2387  0.7896
 5490SOL    HW227933   1.204   4.245   8.584 -1.3668  1.7101 -2.1080
 5491SOL     OW27934   3.371   3.251   2.610  0.2505 -0.2558  0.3735
 5491SOL    HW127935   3.399   3.337   2.579 -2.1028 -0.0713 -1.2556
 5491SOL    HW227936   3.360   3.213   2.523 -2.3976 -0.5677  0.8437
 5492SOL     OW27937   4.536   2.807   3.917  0.1615 -0.1181  0.5025
 5492SOL    HW127938   4.546   2.822   3.823  0.9681  1.2664  0.8102
 5492SOL    HW227939   4.550   2.712   3.917 -0.7887 -0.2630  0.3407
 5493SOL     OW27940   0.480   2.274   9.737  0.0945 -0.1582 -0.4646
 5493SOL    HW127941   0.534   2.202   9.770  1.6269  0.8874 -0.6946
 5493SOL    HW227942   0.393   2.246   9.763 -1.0327  2.3105 -1.6496
 5494SOL     OW27943   1.570   3.177   4.234  0.1067  0.0480  0.4264
 5494SOL    HW127944   1.618   3.140   4.308  1.4638  1.8378  0.4445
 5494SOL    HW227945   1.616   3.137   4.161  1.2589  1.3062  0.4693
 5495SOL     OW27946   4.499   3.136   6.815  0.3669  0.4262  0.2430
 5495SOL    HW127947   4.468   3.046   6.804 -0.6673  0.6302  1.6227
 5495SOL    HW227948   4.507   3.159   6.907  1.0041 -0.5240  0.4242
 5496SOL     OW27949   3.403   1.841   7.562 -0.0488 -0.3512  0.1309
 5496SOL    HW127950   3.325   1.849   7.617  0.6821  1.4896  0.9051
 5496SOL    HW227951   3.394   1.904   7.491  1.0127 -1.1135 -0.6841
 5497SOL     OW27952   0.937   3.270   5.814  0.4300  0.0182 -0.5479
 5497SOL    HW127953   0.917   3.178   5.832 -0.0081  0.4222  1.0034
 5497SOL    HW227954   0.934   3.311   5.901  1.9946 -0.8051 -0.1103
 5498SOL     OW27955   3.641   3.927   2.439 -0.0855 -0.2615 -0.5207
 5498SOL    HW127956   3.623   3.867   2.367 -0.2132 -0.3825 -0.3874
 5498SOL    HW227957   3.681   3.869   2.503 -0.2681  0.5863  0.3596
 5499SOL     OW27958   0.337   2.366   1.955 -0.1972 -0.9548 -0.3193
 5499SOL    HW127959   0.335   2.275   1.926  1.1192 -1.5092  1.3275
 5499SOL    HW227960   0.359   2.408   1.872 -2.3416 -1.7225 -1.2747
 5500SOL     OW27961   4.380   2.418   1.312 -0.1693  0.5477 -0.1554
 5500SOL    HW127962   4.449   2.373   1.265  0.4443  0.7782  0.5177
 5500SOL    HW227963   4.300   2.397   1.263  1.4198 -1.6556 -1.7772
 5501SOL     OW27964   1.274   3.501   7.465  0.6220  0.5204 -0.1549
 5501SOL    HW127965   1.299   3.416   7.430  0.4833  0.5181 -0.2496
 5501SOL    HW227966   1.231   3.538   7.388  2.5645  1.8507 -0.5878
 5502SOL     OW27967   0.256   2.046   3.474  0.3516 -0.4036 -0.1960
 5502SOL    HW127968   0.268   2.117   3.538  1.6708  0.5340 -1.4738
 5502SOL    HW227969   0.162   2.027   3.478  0.0703  0.9126 -0.5454
 5503SOL     OW27970   3.668   0.857   7.698 -1.1378 -0.4568  0.7297
 5503SOL    HW127971   3.699   0.786   7.754  1.5630  0.3743  0.2928
 5503SOL    HW227972   3.574   0.871   7.713 -1.1139  0.2687  0.2086
 5504SOL     OW27973   0.829   3.811   8.417  0.2497 -0.5831  0.3271
 5504SOL    HW127974   0.841   3.726   8.460  2.4765 -1.0373 -1.2160
 5504SOL    HW227975   0.919   3.821   8.388  0.4911  0.3522  1.3929
 5505SOL     OW27976   4.173   3.765  16.362  0.4821  0.2108  0.2166
 5505SOL    HW127977   4.083   3.780  16.393  0.3413  0.4381 -0.2921
 5505SOL    HW227978   4.220   3.814  16.429 -1.3135 -0.1653  1.7310
 5506SOL     OW27979   3.134   0.895   9.469  0.0653  0.2741  0.3061
 5506SOL    HW127980   3.069   0.965   9.466  1.2102  1.2989 -0.6264
 5506SOL    HW227981   3.162   0.912   9.559 -0.9908  2.2169  0.2853
 5507SOL     OW27982   3.133   0.499   6.724 -0.2077  0.0687 -0.4614
 5507SOL    HW127983   3.190   0.496   6.648  1.2459  1.2134  0.5811
 5507SOL    HW227984   3.194   0.472   6.793 -0.4009  0.9310  0.0474
 5508SOL     OW27985   2.606   2.087  13.697  0.3130  0.6633 -0.0630
 5508SOL    HW127986   2.678   2.024  13.707  1.0575  1.6758  1.0198
 5508SOL    HW227987   2.544   2.033  13.649  0.8704 -1.2709  1.4098
 5509SOL     OW27988   1.635   1.173  14.443  0.4119 -0.6084 -0.3634
 5509SOL    HW127989   1.691   1.130  14.508  1.4685  0.2578 -0.6956
 5509SOL    HW227990   1.583   1.098  14.416  1.6744 -1.0445 -1.5643
 5510SOL     OW27991   0.676   4.172   1.617  0.3740  0.1719  0.0439
 5510SOL    HW127992   0.696   4.100   1.559  0.3739 -0.1701  0.4669
 5510SOL    HW227993   0.748   4.231   1.595  2.1454 -2.3704 -0.8314
 5511SOL     OW27994   1.114   0.610   2.743  0.0318  0.5684  0.2595
 5511SOL    HW127995   1.053   0.642   2.810 -0.0251 -0.8888  0.9070
 5511SOL    HW227996   1.132   0.525   2.782 -0.3611 -0.2539 -1.3544
 5512SOL     OW27997   2.129   3.891  13.682 -0.0134 -0.2729  0.0447
 5512SOL    HW127998   2.116   3.977  13.723 -0.8889 -0.6190  0.5048
 5512SOL    HW227999   2.056   3.876  13.621  0.2627 -1.9004  0.1307
 5513SOL     OW28000   2.476   3.647   2.307  0.1225  0.2924  0.1245
 5513SOL    HW128001   2.490   3.664   2.401  1.4478  0.7043 -0.1480
 5513SOL    HW228002   2.515   3.726   2.270  0.9231 -0.2409 -0.1553
 5514SOL     OW28003   1.007   1.385   8.648 -0.6817 -0.3934 -0.0416
 5514SOL    HW128004   0.917   1.362   8.673 -0.5706 -0.2560  0.4720
 5514SOL    HW228005   0.999   1.435   8.567  0.5318 -0.8629 -0.4597
 5515SOL     OW28006   0.938   1.360   9.750  0.1184  0.0562  0.2323
 5515SOL    HW128007   0.872   1.404   9.803  0.5122 -0.0259  0.7891
 5515SOL    HW228008   0.970   1.438   9.704  0.4805 -0.2950 -0.1121
 5516SOL     OW28009   0.136   3.077   8.137 -0.3861 -0.0491 -0.5037
 5516SOL    HW128010   0.128   3.070   8.041 -0.3469  0.0257 -0.5127
 5516SOL    HW228011   0.179   3.162   8.150  1.6018 -0.9750 -1.0417
 5517SOL     OW28012   3.101   2.794   8.102  0.2110 -0.2982 -0.1805
 5517SOL    HW128013   3.164   2.861   8.078 -1.4168  1.2835 -0.0374
 5517SOL    HW228014   3.021   2.835   8.069 -1.4746 -1.0788  2.9565
 5518SOL     OW28015   1.191   3.241   5.734 -0.1155  0.5580  0.2665
 5518SOL    HW128016   1.102   3.263   5.762 -0.8029 -1.3004 -0.4059
 5518SOL    HW228017   1.214   3.152   5.760  2.7077  1.6837  1.6301
 5519SOL     OW28018   0.361   1.990  16.721  0.4457 -0.3553 -0.2296
 5519SOL    HW128019   0.444   1.949  16.742  0.1615 -0.6848  0.2468
 5519SOL    HW228020   0.399   2.047  16.653 -0.4246 -1.1957 -1.4176
 5520SOL     OW28021   2.783   0.785   8.068  0.1852  0.4098 -0.0796
 5520SOL    HW128022   2.838   0.859   8.041  3.4941 -1.8455  0.5795
 5520SOL    HW228023   2.856   0.724   8.077  0.3714  1.1273  3.4034
 5521SOL     OW28024   0.283   4.523  14.647  0.5960 -0.2627  0.2680
 5521SOL    HW128025   0.337   4.560  14.577 -0.3612 -1.3064 -1.0292
 5521SOL    HW228026   0.326   4.441  14.674 -1.2881 -2.0143 -2.1482
 5522SOL     OW28027   0.784   2.335   4.728 -0.4551 -0.3897  0.1556
 5522SOL    HW128028   0.697   2.370   4.708 -0.0939  0.7057  0.4907
 5522SOL    HW228029   0.822   2.411   4.771 -0.4062  0.2789 -1.0849
 5523SOL     OW28030   1.005   1.218   4.654 -0.0574  0.4791 -0.0343
 5523SOL    HW128031   1.062   1.168   4.596 -1.0524  0.2212 -0.7843
 5523SOL    HW228032   0.952   1.152   4.699 -1.5054  0.8663 -1.2025
 5524SOL     OW28033   1.428   3.745   8.632 -0.0315 -0.4891 -0.3085
 5524SOL    HW128034   1.410   3.826   8.583 -0.7971 -1.0108 -0.8923
 5524SOL    HW228035   1.523   3.734   8.633  0.2924  2.1539 -0.6495
 5525SOL     OW28036   3.032   2.134   8.143  0.0005 -0.3014 -0.4423
 5525SOL    HW128037   2.943   2.161   8.120 -0.4821 -2.0798 -0.6465
 5525SOL    HW228038   3.051   2.207   8.201  0.0408 -0.7930  0.1683
 5526SOL     OW28039   0.308   3.804   6.725  0.2224  0.1924  0.0247
 5526SOL    HW128040   0.325   3.870   6.657 -0.4287  0.3108 -0.0274
 5526SOL    HW228041   0.214   3.788   6.722  0.5024 -1.8712  2.5328
 5527SOL     OW28042   3.590   4.450  12.217  0.3428  0.6769 -0.8199
 5527SOL    HW128043   3.627   4.406  12.140  0.0355  0.1998 -0.6904
 5527SOL    HW228044   3.664   4.448  12.278 -0.3819 -1.6528 -0.0336
 5528SOL     OW28045   1.043   2.171  10.313  0.6318  0.6989 -0.6351
 5528SOL    HW128046   0.967   2.229  10.315  0.3160  0.2607 -0.0369
 5528SOL    HW228047   1.063   2.174  10.407  1.1013  0.0178 -0.7107
 5529SOL     OW28048   4.453   3.978   4.025 -0.0611  0.4138  0.1133
 5529SOL    HW128049   4.488   4.053   4.073  1.5574  0.0515 -0.4886
 5529SOL    HW228050   4.516   3.912   4.055 -1.6142 -1.8106 -1.5003
 5530SOL     OW28051   2.763   4.688   1.526 -0.1929 -0.3205 -0.1549
 5530SOL    HW128052   2.786   4.685   1.434  0.4317 -0.0019 -0.0130
 5530SOL    HW228053   2.724   0.053   1.538 -1.0411 -0.1975 -3.9080
 5531SOL     OW28054   4.065   3.006   1.309 -0.0053  0.3412  0.1871
 5531SOL    HW128055   3.977   3.043   1.314 -0.4821 -0.9717  1.6559
 5531SOL    HW228056   4.053   2.914   1.285 -2.0052  0.7775 -0.4910
 5532SOL     OW28057   0.413   1.130   6.112 -0.3384 -0.3493  0.1822
 5532SOL    HW128058   0.322   1.143   6.088  0.5071  0.1651 -2.8271
 5532SOL    HW228059   0.454   1.103   6.029  0.5513  0.8681  0.2294
 5533SOL     OW28060   1.312   4.661   0.949  0.1801  0.4809 -0.0230
 5533SOL    HW128061   1.268   4.704   0.875 -1.4490 -0.7448  0.2365
 5533SOL    HW228062   1.313   0.013   1.010 -0.3016 -0.9307  1.7020
 5534SOL     OW28063   2.430   3.470   7.774 -0.5629 -0.9552  0.6568
 5534SOL    HW128064   2.392   3.518   7.847  0.2428  1.0379 -0.2293
 5534SOL    HW228065   2.511   3.517   7.752 -0.5402 -2.2479 -2.1005
 5535SOL     OW28066   3.613   3.270  16.258  0.0389 -0.0325 -0.2538
 5535SOL    HW128067   3.588   3.331  16.189  3.3504 -0.1245 -1.5384
 5535SOL    HW228068   3.700   3.255  16.222  0.6171 -0.3195  1.2527
 5536SOL     OW28069   0.062   1.439   0.582  0.2010  0.3721 -0.1056
 5536SOL    HW128070   0.074   1.352   0.544  2.1313  1.1622 -1.3039
 5536SOL    HW228071   0.013   1.422   0.663  0.1597  2.8774  0.4102
 5537SOL     OW28072   2.068   2.886   6.268  0.7574 -0.3641  0.5401
 5537SOL    HW128073   2.107   2.964   6.309 -1.5059  2.7954 -3.2290
 5537SOL    HW228074   2.139   2.828   6.294 -0.2280 -1.2680  1.1952
 5538SOL     OW28075   4.514   0.570   2.268  0.0565 -0.3569  0.5843
 5538SOL    HW128076   4.555   0.487   2.242  2.6357  0.2290  2.6829
 5538SOL    HW228077   4.438   0.537   2.314 -1.5742  0.6925 -1.3735
 5539SOL     OW28078   2.011   3.557   4.913 -0.0021  0.1969 -0.2870
 5539SOL    HW128079   1.949   3.499   4.958  1.1883 -1.4036 -0.6997
 5539SOL    HW228080   2.020   3.510   4.830  2.0879  0.7784 -0.3816
 5540SOL     OW28081   1.335   4.105   4.191 -0.0392 -0.0881  0.3286
 5540SOL    HW128082   1.408   4.148   4.147 -1.2111 -0.6414 -2.1522
 5540SOL    HW228083   1.305   4.168   4.256 -0.1655  0.2829 -0.0876
 5541SOL     OW28084   0.846   1.203   2.746 -0.2011  0.8008  0.1924
 5541SOL    HW128085   0.932   1.231   2.778  0.0524  0.3955 -0.1168
 5541SOL    HW228086   0.861   1.220   2.653  0.8154  1.7929  0.5397
 5542SOL     OW28087   1.795   0.243  16.650  0.5161 -0.1769  0.6092
 5542SOL    HW128088   1.867   0.306  16.641  0.5389 -0.0656  1.6476
 5542SOL    HW228089   1.783   0.206  16.562  0.1714  2.1997 -0.3598
 5543SOL     OW28090   3.778   0.308  12.781  0.2520 -0.8522  0.0444
 5543SOL    HW128091   3.802   0.216  12.774  3.0310 -0.0855 -0.3328
 5543SOL    HW228092   3.683   0.297  12.774  0.3142 -1.9552  0.9601
 5544SOL     OW28093   2.808   3.037   9.378 -0.3505 -0.7914 -0.0119
 5544SOL    HW128094   2.862   3.115   9.363  1.4911 -2.2522 -0.9854
 5544SOL    HW228095   2.748   3.076   9.441 -1.8071  0.5660 -2.2342
 5545SOL     OW28096   1.277   1.193   3.732  0.1327 -0.5530  0.0688
 5545SOL    HW128097   1.230   1.110   3.731 -2.0784  0.6926  0.5437
 5545SOL    HW228098   1.208   1.250   3.698  0.2226  0.8001  2.1436
 5546SOL     OW28099   1.505   3.007   7.191 -0.0011  0.3324 -0.2410
 5546SOL    HW128100   1.563   3.038   7.261  1.5911 -3.4478  0.1171
 5546SOL    HW228101   1.483   3.093   7.156  0.9368 -0.0269 -1.7118
 5547SOL     OW28102   1.673   4.696   5.479  0.1610  0.0757  0.1710
 5547SOL    HW128103   1.762   0.009   5.473  0.7629 -1.4626  0.2930
 5547SOL    HW228104   1.677   4.654   5.393  1.5845 -2.2365  1.3577
 5548SOL     OW28105   2.562   2.102   5.866 -0.2927 -0.0367 -0.1343
 5548SOL    HW128106   2.508   2.180   5.852  0.0806  0.2636  0.0836
 5548SOL    HW228107   2.532   2.061   5.785  0.0762  0.9120 -0.7605
 5549SOL     OW28108   3.635   1.724   9.362  0.9667 -0.3609  0.9918
 5549SOL    HW128109   3.635   1.630   9.343 -1.0664 -0.6578  2.4503
 5549SOL    HW228110   3.656   1.720   9.456  0.7264  0.7547  1.0970
 5550SOL     OW28111   0.084   0.171   3.837 -0.4982 -0.5308  0.1034
 5550SOL    HW128112   4.714   0.143   3.843  0.2713 -2.7014  1.8248
 5550SOL    HW228113   0.112   0.150   3.748 -2.4694 -2.0375 -0.1650
 5551SOL     OW28114   1.248   3.378  15.617  0.1171  0.2960  0.2173
 5551SOL    HW128115   1.301   3.300  15.601 -0.5325 -0.6369  2.5503
 5551SOL    HW228116   1.163   3.335  15.623  0.3714 -0.3086 -0.6130
 5552SOL     OW28117   1.440   0.685   6.416 -0.3331  0.0496 -0.1473
 5552SOL    HW128118   1.370   0.622   6.433 -0.6147  0.3088 -0.3438
 5552SOL    HW228119   1.516   0.664   6.469 -0.3008  1.2391  0.2678
 5553SOL     OW28120   2.178   2.689   5.827  0.9191 -0.5212 -0.4979
 5553SOL    HW128121   2.270   2.687   5.852  0.5726 -2.1695  0.6108
 5553SOL    HW228122   2.168   2.753   5.756 -0.3067 -1.0361 -0.7874
 5554SOL     OW28123   1.049   1.449   9.121 -0.3494  0.1192 -0.6059
 5554SOL    HW128124   1.071   1.428   9.212  1.8471 -0.8857 -1.3871
 5554SOL    HW228125   1.127   1.488   9.081  0.1824  1.7133  1.9917
 5555SOL     OW28126   2.727   2.491   4.376  0.3102  0.2433  0.0455
 5555SOL    HW128127   2.808   2.447   4.404  0.9245 -0.0735 -2.2754
 5555SOL    HW228128   2.726   2.495   4.281 -3.1331  2.5302  0.2105
 5556SOL     OW28129   1.594   3.742   2.395 -0.4483 -0.2042 -0.0874
 5556SOL    HW128130   1.535   3.669   2.413 -1.4847  1.0280  1.4972
 5556SOL    HW228131   1.649   3.709   2.324  0.1140  1.1255 -0.2739
 5557SOL     OW28132   0.180   3.459   3.253 -0.4037  0.2941  0.8283
 5557SOL    HW128133   0.092   3.471   3.288 -0.8223 -0.2329 -0.0429
 5557SOL    HW228134   0.184   3.370   3.218 -1.6865  0.3624  0.4928
 5558SOL     OW28135   2.863   4.583  15.371 -0.2994 -0.0862 -0.3829
 5558SOL    HW128136   2.830   4.593  15.461  0.7633 -3.3662  0.3637
 5558SOL    HW228137   2.779   4.562  15.329 -0.5975 -1.5206  0.9075
 5559SOL     OW28138   2.382   2.320   5.853  0.6642 -0.0110  0.1920
 5559SOL    HW128139   2.377   2.319   5.949  2.7084  1.5258  0.3102
 5559SOL    HW228140   2.428   2.403   5.845  0.5891 -0.1566 -1.6979
 5560SOL     OW28141   2.611   2.958   9.115  0.3416  0.3103 -0.2715
 5560SOL    HW128142   2.574   2.899   9.050  2.1990 -0.1048 -0.9346
 5560SOL    HW228143   2.609   2.903   9.193 -1.1285 -0.3484 -0.7850
 5561SOL     OW28144   0.034   2.123   3.037 -0.1512 -0.0643  0.2641
 5561SOL    HW128145   4.710   2.066   3.099  0.3529  0.9006  1.5369
 5561SOL    HW228146   0.117   2.141   3.080 -0.2939  3.0186 -0.7258
 5562SOL     OW28147   0.016   3.599   4.321 -0.0280 -0.1753  0.4885
 5562SOL    HW128148   0.094   3.601   4.377  0.1717 -2.9940  0.3098
 5562SOL    HW228149   4.677   3.639   4.383 -2.0440 -0.5934 -1.2402
 5563SOL     OW28150   4.478   4.171   8.836  0.5153  0.0867  0.1211
 5563SOL    HW128151   4.515   4.255   8.865 -1.0939  0.3373  1.4348
 5563SOL    HW228152   4.387   4.193   8.856 -0.6673 -2.5964 -2.3602
 5564SOL     OW28153   3.661   3.904   5.893  0.6084 -0.1797 -0.2595
 5564SOL    HW128154   3.621   3.984   5.858  0.3487 -0.8810 -1.5755
 5564SOL    HW228155   3.581   3.860   5.922 -0.7212  0.8562 -2.3866
 5565SOL     OW28156   1.063   0.202   2.572 -0.5894 -0.3918 -0.1917
 5565SOL    HW128157   1.002   0.192   2.645  1.3391 -0.8324  1.3847
 5565SOL    HW228158   1.010   0.234   2.499 -3.9468 -2.2656  1.4363
 5566SOL     OW28159   2.667   3.228   9.155 -0.3252 -0.4457 -0.1752
 5566SOL    HW128160   2.591   3.245   9.211  0.0170  0.8087 -0.0791
 5566SOL    HW228161   2.663   3.133   9.152  1.2994 -0.4790 -1.1905
 5567SOL     OW28162   3.160   4.364   3.711 -0.5647  0.6689 -0.3877
 5567SOL    HW128163   3.071   4.389   3.689 -1.0012  2.6801  3.7501
 5567SOL    HW228164   3.153   4.277   3.751  0.5198  0.4119 -0.7510
 5568SOL     OW28165   4.640   2.674   8.255  0.4519 -0.5643 -0.2783
 5568SOL    HW128166   4.680   2.760   8.256 -1.1943  0.2141 -1.4001
 5568SOL    HW228167   4.679   2.621   8.325 -0.6668  1.0446  1.5364
 5569SOL     OW28168   2.211   4.084   8.243 -0.0002  0.4755 -0.3367
 5569SOL    HW128169   2.238   4.140   8.316  0.0406  2.0496 -1.5889
 5569SOL    HW228170   2.280   4.017   8.240  0.1866  0.7231 -1.4229
 5570SOL     OW28171   1.228   2.269   2.651  0.4821  0.0059  0.4275
 5570SOL    HW128172   1.184   2.200   2.701 -2.4225  0.4303 -1.5648
 5570SOL    HW228173   1.170   2.344   2.658 -2.0666 -1.7379 -2.2166
 5571SOL     OW28174   3.970   0.942  14.860  0.0614  0.8319  0.3088
 5571SOL    HW128175   3.877   0.959  14.843  0.0153  0.2391 -0.0520
 5571SOL    HW228176   3.958   0.913  14.951  0.9234  1.9554  0.7817
 5572SOL     OW28177   3.426   0.569  12.988  0.2575 -0.4246 -0.6096
 5572SOL    HW128178   3.405   0.479  12.964  0.5957 -1.1443  1.7745
 5572SOL    HW228179   3.519   0.571  12.966  0.3818 -0.6846 -0.1183
 5573SOL     OW28180   2.439   4.385   5.382  1.2069  0.1584 -0.4316
 5573SOL    HW128181   2.444   4.309   5.324 -0.3918 -0.1422 -0.1683
 5573SOL    HW228182   2.353   4.380   5.424  1.6491 -0.6239  0.3639
 5574SOL     OW28183   2.062   0.089   8.201 -0.1878 -0.3138  0.7459
 5574SOL    HW128184   2.050   0.077   8.107  0.0568  1.6846  0.4590
 5574SOL    HW228185   1.984   0.139   8.228 -0.7519 -0.9400  0.2735
 5575SOL     OW28186   3.160   1.649   6.446  0.1580  0.1780  0.0621
 5575SOL    HW128187   3.108   1.639   6.366 -2.0297  0.3374  1.4608
 5575SOL    HW228188   3.245   1.615   6.420  0.1642 -1.3212  2.0123
 5576SOL     OW28189   2.830   0.814   3.699  0.8293  0.0203 -0.4157
 5576SOL    HW128190   2.769   0.886   3.715 -2.2345 -2.8254  0.7091
 5576SOL    HW228191   2.803   0.760   3.773 -0.2159 -0.1440 -0.9230
 5577SOL     OW28192   0.364   0.476   2.344 -0.0615 -0.9631 -0.1933
 5577SOL    HW128193   0.328   0.555   2.305  1.1169  1.0334  2.7185
 5577SOL    HW228194   0.347   0.487   2.438 -1.4810  0.6229 -0.6382
 5578SOL     OW28195   2.064   3.275   7.150  0.3889  0.7833  0.0591
 5578SOL    HW128196   2.124   3.330   7.200  0.6332  1.0843 -0.5629
 5578SOL    HW228197   2.057   3.320   7.066  1.0656  0.5972 -0.1008
 5579SOL     OW28198   1.217   3.287   9.230  0.0050  0.7642 -0.3837
 5579SOL    HW128199   1.253   3.199   9.233  0.8659  1.1397  0.4586
 5579SOL    HW228200   1.174   3.285   9.315  0.4125  1.2745 -0.1651
 5580SOL     OW28201   3.847   1.066  17.164 -0.1209 -0.0464 -0.1025
 5580SOL    HW128202   3.759   1.031  17.151  0.1502 -0.1665 -1.5878
 5580SOL    HW228203   3.880   1.072  17.074  0.0036 -2.5457 -0.2012
 5581SOL     OW28204   1.188   2.678   0.812  0.0776  0.4633  0.0696
 5581SOL    HW128205   1.268   2.682   0.759  0.1352  0.4725  0.1575
 5581SOL    HW228206   1.181   2.769   0.841 -1.3013  0.4902 -0.3570
 5582SOL     OW28207   4.649   4.510  13.814 -0.0506 -0.6145 -0.2478
 5582SOL    HW128208   4.585   4.560  13.865 -0.9318 -2.2205  0.2281
 5582SOL    HW228209   4.643   4.429  13.865 -2.0292  0.3224  1.0242
 5583SOL     OW28210   4.630   4.082   6.853  0.1461  0.0681 -0.5696
 5583SOL    HW128211   4.564   4.043   6.797  1.5154 -0.5047 -1.7783
 5583SOL    HW228212   4.703   4.095   6.793  0.4667 -1.3008 -0.4825
 5584SOL     OW28213   4.321   3.940  13.800  0.0068  0.2970  0.1802
 5584SOL    HW128214   4.372   3.892  13.866  0.1096 -1.3540 -1.0991
 5584SOL    HW228215   4.322   3.870  13.734 -1.0516 -0.3211  0.8222
 5585SOL     OW28216   2.088   2.367   2.167  0.2369 -0.1186 -0.1704
 5585SOL    HW128217   2.161   2.385   2.226 -0.2131 -1.1575  0.7227
 5585SOL    HW228218   2.010   2.399   2.214 -1.1472  0.9083 -3.2004
 5586SOL     OW28219   2.289   1.316  17.583  0.5189 -0.4783  0.4681
 5586SOL    HW128220   2.303   1.261  17.660 -0.3087  0.1051  1.0387
 5586SOL    HW228221   2.312   1.258  17.510 -0.9095  1.1740 -1.3068
 5587SOL     OW28222   4.663   4.258   8.257  0.0192 -0.2518 -0.1928
 5587SOL    HW128223   4.630   4.310   8.330 -2.0988  0.4213 -1.6317
 5587SOL    HW228224   4.628   4.299   8.178 -2.2595 -0.4332  0.7034
 5588SOL     OW28225   3.510   1.051   3.951  0.3703 -0.0644  0.0517
 5588SOL    HW128226   3.596   1.018   3.977  0.1823 -0.9259 -0.4058
 5588SOL    HW228227   3.528   1.098   3.869 -0.3871 -2.2105 -1.3670
 5589SOL     OW28228   0.008   4.235   9.032 -0.2918 -0.3482  0.2600
 5589SOL    HW128229   0.049   4.274   9.109 -1.2155 -0.8449  1.0101
 5589SOL    HW228230   4.679   4.305   8.992  2.4193  1.6040  0.2288
 5590SOL     OW28231   1.755   4.612   3.050 -0.2573  0.0968  0.5295
 5590SOL    HW128232   1.796   4.684   3.099  2.6425 -0.7434 -0.6991
 5590SOL    HW228233   1.826   4.597   2.987 -0.1426  1.0511  0.4207
 5591SOL     OW28234   3.179   4.616   9.047 -0.2775  0.2093 -0.0960
 5591SOL    HW128235   3.125   4.625   8.969 -0.6598 -0.2673  0.1150
 5591SOL    HW228236   3.255   4.585   8.996  0.0538 -1.0007  1.1186
 5592SOL     OW28237   4.384   3.618   5.953 -0.5218 -0.9336  0.7235
 5592SOL    HW128238   4.433   3.674   6.015  0.5965 -1.4008  0.2569
 5592SOL    HW228239   4.308   3.674   5.943  0.8108  0.4834 -1.4498
 5593SOL     OW28240   1.018   1.634   2.740 -0.1899  0.1611 -0.1080
 5593SOL    HW128241   0.936   1.608   2.699 -0.1450 -0.5459  0.2558
 5593SOL    HW228242   1.077   1.620   2.666 -0.0018  0.4084 -0.0046
 5594SOL     OW28243   2.353   2.600  13.136 -0.4731  0.6055 -0.1009
 5594SOL    HW128244   2.280   2.579  13.079  0.1816 -1.1754 -0.2924
 5594SOL    HW228245   2.416   2.634  13.072  1.1687  2.5501  2.5303
 5595SOL     OW28246   3.221   4.140   6.935  0.0906  0.2922 -0.0606
 5595SOL    HW128247   3.130   4.171   6.940 -0.5204 -0.8662 -4.1022
 5595SOL    HW228248   3.269   4.217   6.967 -1.4615  1.0215  0.5053
 5596SOL     OW28249   1.335   4.165  13.282  0.3324 -0.0391  0.5903
 5596SOL    HW128250   1.245   4.133  13.274  0.8862 -1.2567 -0.7678
 5596SOL    HW228251   1.386   4.084  13.282  0.0239 -0.2333  0.6314
 5597SOL     OW28252   0.335   3.626  14.214  0.1426 -0.3123 -0.2676
 5597SOL    HW128253   0.266   3.645  14.277  0.8800 -1.7478  0.9640
 5597SOL    HW228254   0.319   3.692  14.146 -0.8604 -0.5522 -0.2565
 5598SOL     OW28255   4.077   0.032  17.225  0.1552  0.2946  0.4805
 5598SOL    HW128256   4.008   4.699  17.188  2.3617 -1.4716 -0.9923
 5598SOL    HW228257   4.034   0.108  17.265 -2.1960 -1.6485  1.6825
 5599SOL     OW28258   0.477   0.262   1.797 -0.1396  0.3642  0.0359
 5599SOL    HW128259   0.478   0.324   1.870 -2.0235  0.6930 -0.2111
 5599SOL    HW228260   0.382   0.253   1.801 -0.3053  1.4950 -1.4946
 5600SOL     OW28261   0.578   0.854   4.823 -0.3266  0.4741  0.0783
 5600SOL    HW128262   0.488   0.884   4.810  0.2720  1.5538 -1.5569
 5600SOL    HW228263   0.607   0.907   4.898 -1.9514  0.9275  0.3717
 5601SOL     OW28264   1.088   2.998   3.364  0.2351 -0.1419 -0.3723
 5601SOL    HW128265   1.067   3.035   3.278 -0.0555  1.8219  0.5361
 5601SOL    HW228266   1.119   3.078   3.408 -0.2472 -0.0151 -0.2671
 5602SOL     OW28267   2.428   3.646   2.933 -0.1557  0.3839  0.6688
 5602SOL    HW128268   2.426   3.738   2.959 -1.3474  0.1099  1.5323
 5602SOL    HW228269   2.507   3.612   2.976 -0.2695  0.3147  0.8250
 5603SOL     OW28270   0.475   2.096   4.492  0.1438  0.0393 -0.2100
 5603SOL    HW128271   0.513   2.056   4.414 -0.9346  2.5413 -2.0320
 5603SOL    HW228272   0.476   2.181   4.449  1.0054  0.8473  1.4225
 5604SOL     OW28273   1.503   0.872  14.645  0.8971  0.2797 -0.1628
 5604SOL    HW128274   1.428   0.902  14.696  0.8855 -2.2472  1.3073
 5604SOL    HW228275   1.488   0.906  14.557 -0.0503 -0.2483 -0.2017
 5605SOL     OW28276   1.040   0.539   3.531 -0.1899  0.2389  0.0267
 5605SOL    HW128277   0.950   0.554   3.503 -0.2691  0.1468  0.2379
 5605SOL    HW228278   1.020   0.449   3.557  1.4097 -0.1888 -0.2336
 5606SOL     OW28279   0.176   3.851   4.451  0.2260 -0.2009 -0.4676
 5606SOL    HW128280   0.128   3.901   4.385  1.7708  0.9002 -0.7417
 5606SOL    HW228281   0.254   3.904   4.464 -0.3628  0.2983  1.0468
 5607SOL     OW28282   4.062   3.459   8.861 -0.3375 -0.4794  0.3973
 5607SOL    HW128283   4.105   3.415   8.789  0.1505 -1.3544  1.2214
 5607SOL    HW228284   4.113   3.540   8.865 -2.8717  1.0766  1.5860
 5608SOL     OW28285   2.023   3.185  13.561 -0.3228 -0.3737  0.1112
 5608SOL    HW128286   2.029   3.097  13.599 -1.8266 -2.2452 -4.0754
 5608SOL    HW228287   1.991   3.234  13.637  1.1347  0.3603  0.2382
 5609SOL     OW28288   2.023   2.230  10.580 -0.3312  0.7009 -0.5391
 5609SOL    HW128289   2.046   2.157  10.522 -0.1028 -0.8876  1.5135
 5609SOL    HW228290   2.014   2.292  10.508  0.2395 -0.2401 -1.4155
 5610SOL     OW28291   2.519   3.721   2.557  0.3740 -0.0443  0.1099
 5610SOL    HW128292   2.511   3.808   2.596 -2.1521 -0.7312  1.0983
 5610SOL    HW228293   2.490   3.668   2.630 -0.1757 -0.1181 -0.1634
 5611SOL     OW28294   3.126   2.936  14.824  0.7568 -0.1130  0.1220
 5611SOL    HW128295   3.063   3.009  14.820 -0.7052 -1.4418 -0.9227
 5611SOL    HW228296   3.210   2.982  14.827 -0.0197  1.4870 -2.4278
 5612SOL     OW28297   3.550   4.579   4.951 -0.6172  0.1331 -0.6463
 5612SOL    HW128298   3.497   4.640   5.003 -1.6338 -1.4995  0.2206
 5612SOL    HW228299   3.633   4.625   4.935 -0.6154 -0.2968 -1.9034
 5613SOL     OW28300   3.834   4.343  11.781  0.0758 -0.4107 -0.4717
 5613SOL    HW128301   3.858   4.422  11.830 -0.3983 -0.7721  0.3490
 5613SOL    HW228302   3.912   4.288  11.770  0.7162  0.2612  0.6918
 5614SOL     OW28303   2.668   2.719  13.360  0.0384 -0.1778 -0.1207
 5614SOL    HW128304   2.694   2.629  13.342 -0.0278  0.1764 -2.0011
 5614SOL    HW228305   2.735   2.749  13.422  0.3864  0.5526 -0.8450
 5615SOL     OW28306   1.397   2.201   9.971  0.3060 -0.1450 -0.6720
 5615SOL    HW128307   1.360   2.159  10.048 -1.5410  1.3011 -0.7601
 5615SOL    HW228308   1.490   2.196   9.992 -0.1672  0.9274  1.6780
 5616SOL     OW28309   3.651   2.191   4.534  0.5170 -0.1165 -0.4315
 5616SOL    HW128310   3.668   2.180   4.440  0.3631  0.3065 -0.5088
 5616SOL    HW228311   3.628   2.284   4.534 -0.2065 -0.3119  2.1584
 5617SOL     OW28312   2.787   4.650   8.493  0.5319 -0.1265  0.2271
 5617SOL    HW128313   2.765   4.683   8.580 -4.4018 -1.5568 -0.5095
 5617SOL    HW228314   2.856   4.584   8.504  0.8067  0.0106 -0.7327
 5618SOL     OW28315   3.407   2.979   2.846  0.9642  0.5749  0.7272
 5618SOL    HW128316   3.490   2.932   2.861  0.4269 -0.8315 -0.7031
 5618SOL    HW228317   3.367   2.895   2.822 -1.3562  2.2087 -0.9711
 5619SOL     OW28318   1.151   3.242  13.087 -0.1498  0.0709 -0.4008
 5619SOL    HW128319   1.077   3.201  13.132 -0.1103 -0.4801 -0.8454
 5619SOL    HW228320   1.112   3.265  13.003 -2.3625 -0.7913  0.3841
 5620SOL     OW28321   0.198   4.195   2.757 -0.6346  0.3911  0.0985
 5620SOL    HW128322   0.231   4.214   2.669 -0.4168  2.1665  0.5598
 5620SOL    HW228323   0.250   4.117   2.774  0.7976  1.0372 -1.2838
 5621SOL     OW28324   2.867   4.196   3.270  0.1407 -0.3457  0.0156
 5621SOL    HW128325   2.860   4.142   3.348 -0.8950 -1.5799 -0.9341
 5621SOL    HW228326   2.872   4.281   3.313 -0.4475  0.6014 -1.7812
 5622SOL     OW28327   0.343   1.917  13.663  0.1568  0.3798 -0.3242
 5622SOL    HW128328   0.320   1.963  13.745 -1.5698  0.1551 -0.6863
 5622SOL    HW228329   0.257   1.920  13.621  0.1991  0.7884 -0.3874
 5623SOL     OW28330   0.185   3.801   8.903 -0.1819 -0.6380 -0.1840
 5623SOL    HW128331   0.140   3.817   8.820 -0.5618 -3.1924 -0.4676
 5623SOL    HW228332   0.271   3.842   8.896 -0.8975  0.6881 -1.1761
 5624SOL     OW28333   0.723   0.041   5.055 -0.1792 -0.6536  0.0944
 5624SOL    HW128334   0.686   0.098   5.122  0.0993  0.6587 -0.8530
 5624SOL    HW228335   0.809   0.030   5.094 -0.1730  0.8653  0.5034
 5625SOL     OW28336   1.124   4.358   4.962 -0.5506 -0.1333 -0.5018
 5625SOL    HW128337   1.115   4.275   4.915 -0.8050  0.1317 -0.9257
 5625SOL    HW228338   1.185   4.400   4.901 -0.2576  0.9171  0.5130
 5626SOL     OW28339   1.012   4.517   1.867  0.0254 -0.2103 -0.0313
 5626SOL    HW128340   1.107   4.526   1.872  0.3918 -2.1322 -3.5958
 5626SOL    HW228341   0.990   4.598   1.821  0.6578 -0.4747 -0.8106
 5627SOL     OW28342   2.902   0.571  16.502  0.2101 -0.6006 -0.1708
 5627SOL    HW128343   2.838   0.562  16.572  0.9881 -0.4712  0.5588
 5627SOL    HW228344   2.977   0.612  16.545 -0.2375 -0.1987  0.2373
 5628SOL     OW28345   0.563   2.877   0.656 -0.4207 -0.3737  0.3076
 5628SOL    HW128346   0.468   2.890   0.662 -0.4859 -0.5207 -0.3162
 5628SOL    HW228347   0.585   2.968   0.673 -2.3709  0.3340 -1.0284
 5629SOL     OW28348   4.012   0.414   7.645 -0.1371  0.5588  0.3013
 5629SOL    HW128349   4.097   0.456   7.655 -2.2200  4.5291  1.4234
 5629SOL    HW228350   3.959   0.468   7.586 -0.9626 -0.7230 -0.1512
 5630SOL     OW28351   3.887   0.209   9.907 -0.4288 -0.1705 -0.1022
 5630SOL    HW128352   3.883   0.254   9.992  0.6847  0.6906 -0.5075
 5630SOL    HW228353   3.865   0.120   9.933  1.8984 -1.2948 -2.0136
 5631SOL     OW28354   3.615   3.390  10.675  0.4978 -0.1876 -0.4243
 5631SOL    HW128355   3.553   3.340  10.728 -0.5284  1.8545  0.3506
 5631SOL    HW228356   3.632   3.332  10.602  0.8710 -0.3142 -0.2371
 5632SOL     OW28357   4.385   2.350   7.444  0.2810  0.1922 -0.1055
 5632SOL    HW128358   4.459   2.290   7.440 -0.8970 -1.2702  0.2551
 5632SOL    HW228359   4.316   2.302   7.398  0.3912 -0.6622  0.6367
 5633SOL     OW28360   1.430   1.921   3.219 -0.1948  0.7543  0.8202
 5633SOL    HW128361   1.358   1.886   3.271  0.6738  0.8674  2.1122
 5633SOL    HW228362   1.503   1.921   3.281  0.1636  0.4867  0.4005
 5634SOL     OW28363   3.734   2.343   6.060 -0.1417  0.3369  0.3120
 5634SOL    HW128364   3.811   2.331   6.115  0.1325  2.3083  0.3507
 5634SOL    HW228365   3.698   2.256   6.080 -1.8571  0.8364 -0.6014
 5635SOL     OW28366   1.319   0.052   5.777  0.3658 -0.1786 -0.2160
 5635SOL    HW128367   1.263   0.081   5.705 -1.8056 -1.0055  1.1451
 5635SOL    HW228368   1.344   4.694   5.731 -0.5029 -1.5031  1.6286
 5636SOL     OW28369   1.709   3.863  16.145 -0.1897  0.4595 -0.1519
 5636SOL    HW128370   1.786   3.807  16.134 -1.1868 -0.9100 -0.2705
 5636SOL    HW228371   1.658   3.803  16.200  0.3587 -1.3288 -1.5719
 5637SOL     OW28372   3.837   2.595   7.691  0.0320 -0.7578  0.2320
 5637SOL    HW128373   3.905   2.555   7.636 -1.1209 -0.9521 -1.0605
 5637SOL    HW228374   3.861   2.573   7.781  1.0158 -1.0246 -0.0936
 5638SOL     OW28375   1.594   2.137   8.767 -0.6556 -0.4521 -0.0983
 5638SOL    HW128376   1.546   2.146   8.850  1.3897  1.9052  0.8465
 5638SOL    HW228377   1.682   2.159   8.796 -0.2879 -0.2204 -1.4311
 5639SOL     OW28378   3.849   0.837  10.035  0.0315  0.8297 -0.0799
 5639SOL    HW128379   3.767   0.886  10.032 -0.7196 -0.5575 -2.2229
 5639SOL    HW228380   3.816   0.748  10.048 -1.8201  1.5936  0.4354
 5640SOL     OW28381   3.618   2.506   5.714 -0.2189  0.2611  0.6036
 5640SOL    HW128382   3.535   2.479   5.675  0.6224 -1.7236  0.1734
 5640SOL    HW228383   3.594   2.535   5.802 -0.1033  0.4165  0.5848
 5641SOL     OW28384   0.991   2.353   4.246 -0.2793  0.0789 -0.0828
 5641SOL    HW128385   0.902   2.365   4.211 -0.5572 -0.4357  0.4512
 5641SOL    HW228386   1.038   2.320   4.170  0.4339  0.7451  0.0734
 5642SOL     OW28387   2.459   3.196   6.933 -0.1067  0.2643 -0.2461
 5642SOL    HW128388   2.548   3.187   6.966 -0.5868 -0.8917  0.7421
 5642SOL    HW228389   2.402   3.172   7.006  0.4578  1.1971  0.4899
 5643SOL     OW28390   0.938   4.169   5.630  0.3327  0.3089  0.0611
 5643SOL    HW128391   0.899   4.084   5.612 -3.1484  1.8918 -0.0818
 5643SOL    HW228392   0.964   4.196   5.542 -0.6711 -1.0393 -0.6429
 5644SOL     OW28393   2.750   0.655   5.606 -0.3285 -0.4726  0.0976
 5644SOL    HW128394   2.786   0.744   5.603 -0.3242 -0.4866 -0.2829
 5644SOL    HW228395   2.663   0.670   5.645  0.1232  0.0065  0.9247
 5645SOL     OW28396   1.131   2.734   9.249  0.3028 -0.1311  0.2356
 5645SOL    HW128397   1.225   2.718   9.256  0.3931 -0.0704 -0.8211
 5645SOL    HW228398   1.136   2.820   9.207 -0.4058 -0.2817 -0.1492
 5646SOL     OW28399   4.372   3.566   8.548 -0.0170 -0.5939  0.2830
 5646SOL    HW128400   4.452   3.558   8.497  0.8285  0.9859  1.3839
 5646SOL    HW228401   4.401   3.636   8.606 -0.5140  0.5679 -0.8808
 5647SOL     OW28402   3.276   0.635   5.516  0.2906 -0.2753 -0.8030
 5647SOL    HW128403   3.254   0.543   5.499 -0.4711 -0.1311 -0.6012
 5647SOL    HW228404   3.227   0.652   5.597  0.6352  0.6818 -0.7896
 5648SOL     OW28405   1.774   2.246   9.002  0.0744  0.2949 -0.5464
 5648SOL    HW128406   1.777   2.268   9.095  0.2747  0.2564 -0.5443
 5648SOL    HW228407   1.758   2.329   8.957 -0.1458 -1.2444 -3.3164
 5649SOL     OW28408   4.467   4.283   4.844 -1.1126 -0.0548  0.4554
 5649SOL    HW128409   4.464   4.249   4.933  1.8655 -0.7752  0.2744
 5649SOL    HW228410   4.555   4.261   4.814 -0.0403 -0.2099  3.7649
 5650SOL     OW28411   1.313   1.977   8.060  0.4522  0.6658 -0.5862
 5650SOL    HW128412   1.376   2.014   8.121 -1.9224  0.4456  1.9916
 5650SOL    HW228413   1.377   1.924   8.011  1.9650  0.3967  1.6841
 5651SOL     OW28414   4.064   2.565   6.812  0.3122  0.0865  0.4395
 5651SOL    HW128415   3.976   2.600   6.828 -0.2496 -0.7624 -0.7838
 5651SOL    HW228416   4.084   2.607   6.728  3.2174 -0.7544  0.7080
 5652SOL     OW28417   3.292   1.910   7.287  0.1951 -0.5719  0.5513
 5652SOL    HW128418   3.230   1.983   7.296  0.8433 -0.1178  1.4215
 5652SOL    HW228419   3.340   1.948   7.214  0.7361 -2.9865 -0.3320
 5653SOL     OW28420   1.703   4.570  14.283  0.5734 -0.2042 -0.3037
 5653SOL    HW128421   1.769   4.587  14.216 -2.6777  0.7099 -3.2886
 5653SOL    HW228422   1.622   4.537  14.243 -0.1538  0.6994  0.4088
 5654SOL     OW28423   1.144   2.688   2.186  0.1784  0.4369 -0.3239
 5654SOL    HW128424   1.148   2.630   2.262 -0.2426 -1.0027 -1.3895
 5654SOL    HW228425   1.053   2.716   2.192 -0.4029 -1.5953  0.3751
 5655SOL     OW28426   0.758   0.041  12.608  0.5313  0.0492  0.2853
 5655SOL    HW128427   0.790   0.010  12.523  1.5201  1.4753  0.1378
 5655SOL    HW228428   0.837   0.093  12.623  2.4539 -1.8833 -3.1626
 5656SOL     OW28429   2.272   0.610   4.032 -0.0801  0.4122 -0.1559
 5656SOL    HW128430   2.357   0.567   4.030  0.4912  1.5171  1.0829
 5656SOL    HW228431   2.263   0.631   4.125 -0.3914  0.6211 -0.2319
 5657SOL     OW28432   0.146   0.451   4.773  0.3397 -0.1490  0.1673
 5657SOL    HW128433   0.067   0.481   4.727  0.7037 -2.7812 -2.2160
 5657SOL    HW228434   0.189   0.530   4.807 -2.3405  1.2606  0.3141
 5658SOL     OW28435   4.382   4.645  13.779  0.6050 -0.2328  0.3308
 5658SOL    HW128436   4.320   4.605  13.841  0.8564  1.3321  1.5778
 5658SOL    HW228437   4.375   0.016  13.800  0.2000  0.3527 -2.3497
 5659SOL     OW28438   2.929   1.871   9.061 -0.3327  0.5188 -0.0671
 5659SOL    HW128439   2.965   1.930   9.127 -1.2488 -0.0385  0.9368
 5659SOL    HW228440   2.865   1.928   9.018  0.8930  3.5692  2.1321
 5660SOL     OW28441   2.084   2.288   3.829  0.3727 -0.2295 -0.2560
 5660SOL    HW128442   2.083   2.340   3.910  0.1887  0.4169 -0.6751
 5660SOL    HW228443   1.994   2.291   3.797  0.6919  4.3631 -0.6824
 5661SOL     OW28444   3.320   3.074   6.427  0.0856 -0.3446 -0.2046
 5661SOL    HW128445   3.332   2.983   6.455 -1.4250 -0.6719 -0.6256
 5661SOL    HW228446   3.229   3.070   6.397 -0.4944 -0.0327  1.4775
 5662SOL     OW28447   2.302   1.038  10.601  0.3262  0.2981 -0.4062
 5662SOL    HW128448   2.209   1.051  10.621  0.3394 -1.3601  0.8130
 5662SOL    HW228449   2.314   1.088  10.520 -1.2246  0.8083 -0.3240
 5663SOL     OW28450   2.974   3.339   9.107 -0.4460  0.3621 -0.2584
 5663SOL    HW128451   2.900   3.377   9.154 -1.3298 -2.0132  0.2693
 5663SOL    HW228452   2.948   3.250   9.084  0.7655  0.1842 -0.9214
 5664SOL     OW28453   3.284   2.403   7.817 -0.5556  0.3102 -0.1416
 5664SOL    HW128454   3.379   2.397   7.822 -0.5366 -0.4756 -1.4451
 5664SOL    HW228455   3.274   2.494   7.788 -0.5765  0.1313 -0.6909
 5665SOL     OW28456   1.942   1.326  14.612 -0.3564 -0.4917  0.0713
 5665SOL    HW128457   1.941   1.331  14.517 -1.8013 -1.5366  0.0328
 5665SOL    HW228458   1.874   1.260  14.627 -1.2143  0.6312  1.1323
 5666SOL     OW28459   1.292   4.651   0.201 -0.1912  0.2595 -0.1109
 5666SOL    HW128460   1.367   4.705   0.177  0.2661  0.4384  1.6786
 5666SOL    HW228461   1.278   4.674   0.293  0.2172 -0.3989  0.1145
 5667SOL     OW28462   3.253   0.342  14.034  0.5063 -0.0451 -0.0890
 5667SOL    HW128463   3.294   0.296  13.961  0.3521  0.3206 -0.4073
 5667SOL    HW228464   3.178   0.283  14.044 -0.3686  1.2273  1.0745
 5668SOL     OW28465   1.224   1.431   7.989  0.2435 -0.0766 -0.4393
 5668SOL    HW128466   1.314   1.411   7.966  0.4230 -1.6224  1.6242
 5668SOL    HW228467   1.234   1.522   8.017  0.9730  0.3379 -2.0985
 5669SOL     OW28468   0.108   0.185   4.884 -0.5022 -0.2721 -0.1832
 5669SOL    HW128469   0.059   0.205   4.964 -2.3010 -1.0516 -1.1118
 5669SOL    HW228470   0.107   0.269   4.839  0.1083 -0.0787  0.1512
 5670SOL     OW28471   1.080   4.247   0.355 -0.2049 -0.1839 -0.4718
 5670SOL    HW128472   1.166   4.222   0.323  0.2476 -0.6728  1.1180
 5670SOL    HW228473   1.074   4.327   0.303  0.1370  0.7370  0.8921
 5671SOL     OW28474   1.507   0.387   3.723 -0.2713  0.0227 -0.2989
 5671SOL    HW128475   1.601   0.368   3.718  0.0025  1.6242 -1.3490
 5671SOL    HW228476   1.509   0.476   3.758  2.0264  0.1930 -0.8384
 5672SOL     OW28477   2.532   4.266  11.396 -0.5192  0.1757  0.4112
 5672SOL    HW128478   2.584   4.229  11.324 -0.9514 -0.4284  0.4065
 5672SOL    HW228479   2.589   4.275  11.472  1.3172 -1.3309 -0.7854
 5673SOL     OW28480   0.147   1.774   5.278  0.2013  0.0525  0.0860
 5673SOL    HW128481   0.223   1.733   5.238  1.8834  2.4636  0.8468
 5673SOL    HW228482   0.153   1.857   5.231  0.5471  1.3033  2.3115
 5674SOL     OW28483   4.126   2.390   1.199  0.2946  0.0725 -0.5820
 5674SOL    HW128484   4.090   2.310   1.160 -0.6661  1.7395 -3.1619
 5674SOL    HW228485   4.067   2.452   1.154 -0.1004  0.2516  0.1890
 5675SOL     OW28486   3.661   2.267  17.287  0.2491  0.1780 -0.8729
 5675SOL    HW128487   3.582   2.306  17.250 -1.0040 -1.1032  0.4632
 5675SOL    HW228488   3.719   2.343  17.283  2.8532 -1.8423 -1.9035
 5676SOL     OW28489   2.599   1.243   3.303  0.2153 -0.0872 -0.2293
 5676SOL    HW128490   2.622   1.180   3.235 -1.4501 -0.4251 -0.4866
 5676SOL    HW228491   2.519   1.285   3.271  0.6824  0.3655 -0.7985
 5677SOL     OW28492   3.734   1.041  15.122 -0.4605 -0.2507 -0.2600
 5677SOL    HW128493   3.812   0.986  15.115  0.1152  1.0063 -3.4245
 5677SOL    HW228494   3.722   1.055  15.216 -0.8340 -3.2198  0.1309
 5678SOL     OW28495   0.199   1.107   0.919 -0.8563  0.2121 -0.3101
 5678SOL    HW128496   0.208   1.012   0.930 -0.4394  0.3493  0.5889
 5678SOL    HW228497   0.276   1.120   0.864 -0.8323  1.2450 -0.0305
 5679SOL     OW28498   0.864   2.759   5.671 -0.2917  0.2879 -0.5217
 5679SOL    HW128499   0.952   2.746   5.706 -0.1162  2.1931 -0.2882
 5679SOL    HW228500   0.823   2.672   5.675 -0.8197  0.4259 -2.6354
 5680SOL     OW28501   0.814   0.152   3.258  0.5565  0.2438 -0.1278
 5680SOL    HW128502   0.799   0.149   3.164  0.5770  0.5990 -0.1410
 5680SOL    HW228503   0.804   0.245   3.279  0.3363  0.1285  0.2902
 5681SOL     OW28504   4.706   3.619  14.607  0.4840  0.5231  0.1482
 5681SOL    HW128505   4.713   3.580  14.694  0.1657  0.2770  0.0630
 5681SOL    HW228506   4.654   3.694  14.637  1.5224  0.1293  2.9341
 5682SOL     OW28507   2.670   4.021   8.252  0.1753 -0.3450  0.6165
 5682SOL    HW128508   2.667   4.067   8.168 -2.1581  2.7389  2.3975
 5682SOL    HW228509   2.756   3.981   8.263  0.0804 -0.1679  1.9370
 5683SOL     OW28510   3.968   2.744   0.893  0.2757 -0.1950  0.3113
 5683SOL    HW128511   3.957   2.816   0.954  0.1411 -0.2987  0.4102
 5683SOL    HW228512   4.060   2.731   0.870 -0.4940 -0.1431 -2.8795
 5684SOL     OW28513   3.428   1.487  13.139  0.4097  0.3607 -0.6531
 5684SOL    HW128514   3.354   1.499  13.198 -0.6437 -1.6132 -1.5879
 5684SOL    HW228515   3.490   1.444  13.198 -1.1101  0.2109  0.8159
 5685SOL     OW28516   1.684   4.102   5.595 -0.4957  0.4812 -1.0015
 5685SOL    HW128517   1.614   4.095   5.530 -1.6639  0.7044  0.2125
 5685SOL    HW228518   1.628   4.111   5.673 -0.2876 -1.0206 -0.6815
 5686SOL     OW28519   0.135   1.120   2.195  0.2112 -0.0544 -0.5497
 5686SOL    HW128520   0.120   1.036   2.151 -1.8036 -0.2682  0.5496
 5686SOL    HW228521   0.147   1.168   2.113  2.6967 -1.4813 -1.0258
 5687SOL     OW28522   1.450   4.182   2.274 -0.5634 -0.5201 -0.1257
 5687SOL    HW128523   1.411   4.095   2.267  0.1914 -0.9032  0.4347
 5687SOL    HW228524   1.409   4.226   2.199 -0.0174 -2.7211 -1.7154
 5688SOL     OW28525   0.325   2.210   2.485 -0.0468 -0.1206  0.4657
 5688SOL    HW128526   0.278   2.162   2.418  0.8698 -0.1257 -0.1776
 5688SOL    HW228527   0.258   2.232   2.550 -1.5660  0.0697 -1.1851
 5689SOL     OW28528   2.175   1.902   6.578 -0.0202 -0.2201 -0.3995
 5689SOL    HW128529   2.147   1.923   6.489  2.9326 -1.9602 -1.7474
 5689SOL    HW228530   2.167   1.807   6.577 -0.0281 -0.2169 -0.5968
 5690SOL     OW28531   0.172   2.683  14.382 -0.6358  0.0004  0.3607
 5690SOL    HW128532   0.263   2.694  14.353 -0.5095  1.5418  1.3001
 5690SOL    HW228533   0.145   2.748  14.317  1.8083  0.5593 -0.1168
 5691SOL     OW28534   2.807   3.690   8.832  0.1936  0.6469  0.4492
 5691SOL    HW128535   2.728   3.744   8.831 -0.0198  0.2770 -2.0009
 5691SOL    HW228536   2.786   3.631   8.759 -1.1240  1.0801  0.4793
 5692SOL     OW28537   1.725   3.552   4.599 -0.0355 -0.2871 -0.2944
 5692SOL    HW128538   1.759   3.470   4.635  0.3053 -0.0208 -0.0143
 5692SOL    HW228539   1.633   3.528   4.614  0.1559 -0.6720  0.3170
 5693SOL     OW28540   2.471   3.566   4.379 -0.0271 -0.3313 -0.2025
 5693SOL    HW128541   2.471   3.642   4.321  2.8728  0.2757  0.6207
 5693SOL    HW228542   2.384   3.527   4.364  0.0460 -0.9786  1.0124
 5694SOL     OW28543   2.419   3.301  14.925 -0.2715 -0.0150 -0.2789
 5694SOL    HW128544   2.424   3.280  14.832  0.9661 -1.2131  0.0654
 5694SOL    HW228545   2.509   3.290  14.956 -1.1774 -1.7070  1.7690
 5695SOL     OW28546   4.245   1.851   6.468  0.6530 -0.0484 -0.0222
 5695SOL    HW128547   4.200   1.845   6.552 -0.1937 -1.0064 -0.5520
 5695SOL    HW228548   4.316   1.914   6.483 -0.8618  1.1889  2.1236
 5696SOL     OW28549   3.646   0.901   7.448 -0.2615 -0.0418  0.3638
 5696SOL    HW128550   3.674   0.885   7.538 -0.1361  0.0766  0.3450
 5696SOL    HW228551   3.696   0.981   7.432 -0.0084 -0.4439 -0.8952
 5697SOL     OW28552   0.005   3.130   3.315 -0.5190 -0.0567 -0.0567
 5697SOL    HW128553   4.650   3.075   3.298  0.2296 -1.1513  0.1342
 5697SOL    HW228554   0.026   3.163   3.227  0.3099 -0.2839  0.0619
 5698SOL     OW28555   2.184   3.147   5.902  0.0843  0.1126 -0.1963
 5698SOL    HW128556   2.095   3.173   5.928 -0.2724  1.0155 -2.3544
 5698SOL    HW228557   2.236   3.194   5.967  0.9078 -1.4786  0.2854
 5699SOL     OW28558   1.370   4.693  14.627  0.7482  0.0031 -0.3256
 5699SOL    HW128559   1.408   0.030  14.562  1.2939  0.7876  0.7127
 5699SOL    HW228560   1.280   0.003  14.616  0.1804 -1.2415  0.5888
 5700SOL     OW28561   1.463   0.286   5.792  0.6611 -0.1393  0.2351
 5700SOL    HW128562   1.413   0.204   5.788  1.9945 -0.8343 -1.8980
 5700SOL    HW228563   1.535   0.277   5.730  0.3164 -0.9276 -0.0510
 5701SOL     OW28564   1.397   0.323  17.449  0.6914  0.1662  0.6261
 5701SOL    HW128565   1.350   0.288  17.525 -2.1207  0.2186 -1.1003
 5701SOL    HW228566   1.414   0.250  17.390  1.2097  0.7304  0.0826
 5702SOL     OW28567   2.960   4.489   6.569 -0.1440 -0.2255 -0.6039
 5702SOL    HW128568   2.912   4.524   6.494  0.6054 -0.1264 -1.0346
 5702SOL    HW228569   3.002   4.563   6.614 -0.5391 -0.3203 -0.0799
 5703SOL     OW28570   2.898   1.320  12.700 -0.4811  0.1716  0.2649
 5703SOL    HW128571   2.821   1.362  12.739 -1.9015 -0.9611 -1.3688
 5703SOL    HW228572   2.960   1.371  12.752 -0.9030  1.0950 -0.1398
 5704SOL     OW28573   0.770   0.573  13.081  0.5539  0.0171 -0.2098
 5704SOL    HW128574   0.752   0.482  13.107 -0.1346 -0.1396 -1.2462
 5704SOL    HW228575   0.749   0.608  13.168  0.5405  1.4585 -0.7985
 5705SOL     OW28576   0.948   2.927   3.969 -0.0596  0.2052 -0.5144
 5705SOL    HW128577   0.868   2.880   3.988 -0.7060  2.0612  1.3598
 5705SOL    HW228578   0.982   2.945   4.057  0.2882 -1.8533 -0.2223
 5706SOL     OW28579   2.309   0.496   6.073 -0.7098  0.1059 -0.0340
 5706SOL    HW128580   2.363   0.574   6.087 -0.9475  0.4634 -1.1213
 5706SOL    HW228581   2.290   0.503   5.979 -0.9989 -1.6131 -0.1134
 5707SOL     OW28582   2.219   4.230   8.714 -0.1068  0.4018 -0.3464
 5707SOL    HW128583   2.221   4.239   8.809 -1.7027 -2.7045 -0.0025
 5707SOL    HW228584   2.197   4.137   8.720 -0.3345  0.4019 -1.1870
 5708SOL     OW28585   3.963   4.303  12.995  1.1061  0.3016 -0.0100
 5708SOL    HW128586   3.982   4.230  13.055 -1.0430  0.8809  1.3951
 5708SOL    HW228587   3.880   4.268  12.962  0.3822  1.2855  0.7649
 5709SOL     OW28588   3.029   2.628   0.153  0.2278 -0.1869  0.0300
 5709SOL    HW128589   2.961   2.658   0.093  1.2495  0.3090 -0.8742
 5709SOL    HW228590   3.041   2.710   0.202  0.0785 -0.2831  0.2307
 5710SOL     OW28591   0.436   1.861   7.460 -0.3305  0.5103 -0.3036
 5710SOL    HW128592   0.410   1.782   7.507 -3.0926 -0.0314 -2.7065
 5710SOL    HW228593   0.516   1.827   7.421 -0.6137 -0.8289  0.2912
 5711SOL     OW28594   4.257   0.261  13.092 -0.0394  0.3598 -0.0106
 5711SOL    HW128595   4.238   0.170  13.115 -0.2901  1.1260  2.9226
 5711SOL    HW228596   4.352   0.262  13.108 -0.1878  1.2731  0.8385
 5712SOL     OW28597   0.027   3.007   7.191  0.5618  0.3548  0.0259
 5712SOL    HW128598   0.098   2.970   7.244  0.0815  0.2697  0.6049
 5712SOL    HW228599   4.717   2.941   7.130  1.6146  0.8517 -1.0873
 5713SOL     OW28600   3.717   0.708  13.347 -0.1812  0.2448  0.0702
 5713SOL    HW128601   3.795   0.669  13.308 -0.7621  0.2521 -1.1146
 5713SOL    HW228602   3.650   0.668  13.291 -0.3992 -0.7961  1.0861
 5714SOL     OW28603   3.188   2.418   8.112  0.2479  0.4657  0.6297
 5714SOL    HW128604   3.100   2.443   8.143 -0.4086 -0.1758 -0.7331
 5714SOL    HW228605   3.183   2.426   8.017  0.8559  0.5896  0.6086
 5715SOL     OW28606   2.514   4.183  15.600 -0.0274  0.4208  0.3173
 5715SOL    HW128607   2.433   4.145  15.635 -0.3877 -0.7038 -1.7190
 5715SOL    HW228608   2.487   4.258  15.547 -0.8324 -0.6547 -0.7957
 5716SOL     OW28609   3.202   3.456  11.152 -0.0016  0.4995 -0.3043
 5716SOL    HW128610   3.244   3.434  11.068 -0.1378 -2.1592  0.3238
 5716SOL    HW228611   3.270   3.510  11.192  0.1348 -0.1458  0.3330
 5717SOL     OW28612   3.790   2.779   7.168  0.2297  0.2744  0.4202
 5717SOL    HW128613   3.725   2.844   7.140 -1.1202 -2.0751 -1.7983
 5717SOL    HW228614   3.839   2.822   7.238  1.0121 -0.2016  0.1583
 5718SOL     OW28615   4.720   3.567   8.712 -0.9586 -0.2550  0.2306
 5718SOL    HW128616   4.667   3.488   8.711  0.3969 -1.1482 -1.1410
 5718SOL    HW228617   4.710   3.596   8.803 -1.4878  0.8046 -0.1554
 5719SOL     OW28618   1.511   1.312  14.697 -0.1090  0.4489 -0.2036
 5719SOL    HW128619   1.572   1.307  14.623  0.3270  2.9216 -0.0110
 5719SOL    HW228620   1.503   1.407  14.686 -1.5127  0.2744 -0.6908
 5720SOL     OW28621   2.141   3.954  17.532 -0.2307  0.5201 -0.5150
 5720SOL    HW128622   2.124   4.020  17.465  0.6890  1.4848  0.1921
 5720SOL    HW228623   2.076   3.985  17.595  1.2714 -2.0403  2.2967
 5721SOL     OW28624   3.502   0.916   0.223  0.0888  0.1349 -0.0900
 5721SOL    HW128625   3.491   0.900   0.129 -2.1181 -0.5199  0.2821
 5721SOL    HW228626   3.474   0.829   0.251  2.6743 -0.1723  1.4999
 5722SOL     OW28627   0.555   1.392   5.041 -0.5068 -0.4386 -0.0414
 5722SOL    HW128628   0.483   1.439   4.998  0.9797  1.0028 -0.9598
 5722SOL    HW228629   0.631   1.449   5.032  0.0994 -1.3149 -0.4624
 5723SOL     OW28630   2.077   2.192  16.882 -0.0378  0.3084 -0.0305
 5723SOL    HW128631   2.078   2.117  16.942 -2.4925 -1.0195 -1.6436
 5723SOL    HW228632   2.143   2.165  16.818 -1.3290 -0.8183 -0.8766
 5724SOL     OW28633   2.697   0.473  11.832 -0.6670  0.1003  0.6475
 5724SOL    HW128634   2.790   0.466  11.809 -0.5059  0.4780  1.1766
 5724SOL    HW228635   2.675   0.432  11.916  2.3221 -0.5998  1.1046
 5725SOL     OW28636   3.285   0.324   4.010  0.3413  0.0987  0.3121
 5725SOL    HW128637   3.259   0.311   3.919 -0.6142 -0.2943  0.6450
 5725SOL    HW228638   3.299   0.415   4.034  0.4638 -0.7021  3.3943
 5726SOL     OW28639   4.518   2.181   4.065 -0.3284  0.0374  0.0830
 5726SOL    HW128640   4.434   2.178   4.018  1.1019 -1.8837 -2.3612
 5726SOL    HW228641   4.495   2.249   4.127  1.7409  0.5028  0.3338
 5727SOL     OW28642   2.350   3.548   7.497 -0.1848 -0.1393 -0.5643
 5727SOL    HW128643   2.367   3.482   7.564 -1.8986  1.7303  1.7275
 5727SOL    HW228644   2.379   3.629   7.540  0.7758 -1.1426  0.6777
 5728SOL     OW28645   3.308   1.535  17.251 -0.3557 -0.2948 -0.1261
 5728SOL    HW128646   3.286   1.623  17.282  1.1768  0.4822 -1.2182
 5728SOL    HW228647   3.220   1.500  17.238 -0.2422 -0.5891 -0.1099
 5729SOL     OW28648   3.303   1.812   4.804 -0.1754  0.5175 -0.0899
 5729SOL    HW128649   3.368   1.754   4.765 -2.8055 -2.4395 -0.1044
 5729SOL    HW228650   3.303   1.786   4.896  0.0026  2.3397  0.4390
 5730SOL     OW28651   3.969   4.624   3.971  0.3318 -0.3960  0.3960
 5730SOL    HW128652   3.890   4.608   3.919  1.1391  0.1290 -0.9964
 5730SOL    HW228653   4.038   4.640   3.906 -0.4637 -1.0761 -0.6061
 5731SOL     OW28654   0.906   3.325   7.208 -0.0723 -0.1018  0.4421
 5731SOL    HW128655   0.978   3.263   7.198 -0.3832 -0.6202  1.3786
 5731SOL    HW228656   0.923   3.398   7.148  0.8998 -0.3254  0.4585
 5732SOL     OW28657   3.699   1.347   6.878 -0.5280  0.5520  0.3685
 5732SOL    HW128658   3.735   1.270   6.922 -2.2138  0.4288  1.5342
 5732SOL    HW228659   3.727   1.417   6.938 -1.1719 -1.5745  3.1535
 5733SOL     OW28660   1.423   1.639   6.564 -0.5859 -0.1653 -0.0203
 5733SOL    HW128661   1.489   1.678   6.621 -0.8583 -0.0949  0.2435
 5733SOL    HW228662   1.447   1.547   6.576  1.0869  0.2337 -0.2465
 5734SOL     OW28663   2.725   2.809   0.675  0.7485  0.1910 -0.3181
 5734SOL    HW128664   2.684   2.826   0.590 -0.6970  2.3962  0.8292
 5734SOL    HW228665   2.742   2.897   0.707  1.5654  0.6495 -2.0147
 5735SOL     OW28666   4.406   4.496   0.451  0.0078 -0.2593  0.1649
 5735SOL    HW128667   4.380   4.526   0.364  1.5898  0.2574 -0.1449
 5735SOL    HW228668   4.352   4.419   0.469  1.0336 -1.0309 -0.0222
 5736SOL     OW28669   4.072   4.545  14.199 -0.3789 -0.3838  0.1348
 5736SOL    HW128670   4.073   4.637  14.173  2.1476 -0.8080 -1.2296
 5736SOL    HW228671   4.165   4.526  14.213  0.0364 -1.7468 -4.3712
 5737SOL     OW28672   0.765   2.215   4.487  0.2278 -0.1580 -0.2767
 5737SOL    HW128673   0.767   2.258   4.572 -1.8839  0.3855 -0.4948
 5737SOL    HW228674   0.679   2.241   4.453  0.7268  0.3445 -1.1680
 5738SOL     OW28675   2.802   2.996   5.802 -0.2461  0.6029  0.1439
 5738SOL    HW128676   2.865   3.049   5.753 -0.0648  1.3467  1.1779
 5738SOL    HW228677   2.720   3.046   5.801  1.2338  3.0061  0.1522
 5739SOL     OW28678   4.011   3.709   6.479 -0.9773 -0.5115  0.2485
 5739SOL    HW128679   3.962   3.650   6.536 -0.2173  0.5834  2.0316
 5739SOL    HW228680   3.942   3.771   6.456  0.3465 -0.1253 -2.7796
 5740SOL     OW28681   0.325   0.652   1.381  0.3468 -0.7484 -0.3038
 5740SOL    HW128682   0.401   0.703   1.353  0.2969  0.0355  0.9717
 5740SOL    HW228683   0.375   0.581   1.423 -0.7716 -0.9587  0.6623
 5741SOL     OW28684   0.409   3.788   6.284  0.4543  0.9722  0.3903
 5741SOL    HW128685   0.494   3.760   6.318  0.0237 -1.4823 -0.5867
 5741SOL    HW228686   0.419   3.783   6.189 -2.9133  0.7869  0.0340
 5742SOL     OW28687   3.207   3.628   2.827 -0.0585  0.3356  0.2659
 5742SOL    HW128688   3.118   3.607   2.855  0.4544 -0.2621  1.4497
 5742SOL    HW228689   3.257   3.581   2.894 -2.9720 -2.8955  0.1777
 5743SOL     OW28690   0.685   1.494  17.000  0.4165  0.0776  0.6798
 5743SOL    HW128691   0.669   1.405  17.030  0.0678 -0.0142  0.2206
 5743SOL    HW228692   0.596   1.531  16.998 -0.6080 -2.4502 -0.2496
 5744SOL     OW28693   3.182   0.730   6.875 -0.3652 -0.1134 -0.2919
 5744SOL    HW128694   3.260   0.710   6.824 -0.4241  0.2914 -0.5387
 5744SOL    HW228695   3.115   0.673   6.836 -0.7374  1.3912 -1.8149
 5745SOL     OW28696   0.098   4.145  16.499  0.3752  0.0266  0.1484
 5745SOL    HW128697   0.082   4.136  16.405  0.8488  0.6235  0.0075
 5745SOL    HW228698   0.078   4.055  16.524  2.9956 -0.5246  0.2803
 5746SOL     OW28699   4.106   0.244   5.433 -0.6599  0.1215  0.0154
 5746SOL    HW128700   4.101   0.267   5.526 -0.8935 -0.2386  0.0931
 5746SOL    HW228701   4.079   0.152   5.442 -0.3511 -0.2702 -3.3645
 5747SOL     OW28702   3.119   0.096   8.632 -0.1842  0.1769  0.8639
 5747SOL    HW128703   3.119   0.158   8.705 -1.6279 -0.3671  1.3315
 5747SOL    HW228704   3.117   0.010   8.674 -0.6505 -0.5659 -0.7008
 5748SOL     OW28705   3.989   1.589   8.361  0.3208  0.3266  0.7212
 5748SOL    HW128706   4.058   1.648   8.332 -1.0625  0.3835 -2.4642
 5748SOL    HW228707   3.940   1.641   8.425  2.2842  1.4609  1.2799
 5749SOL     OW28708   2.026   2.049   7.770  0.0656  0.1354 -0.3098
 5749SOL    HW128709   2.065   1.968   7.804  1.5330  0.7765 -0.4428
 5749SOL    HW228710   2.100   2.109   7.780  0.6640 -0.2684 -2.3513
 5750SOL     OW28711   1.803   0.958  14.295  0.4033  0.0990 -0.4165
 5750SOL    HW128712   1.801   0.867  14.325  0.6712 -0.2000 -1.2936
 5750SOL    HW228713   1.715   0.968  14.258  0.2264 -1.5920 -0.4623
 5751SOL     OW28714   3.754   2.497  13.685  0.2708  0.0896 -0.0616
 5751SOL    HW128715   3.843   2.468  13.666  0.0335  0.3139 -1.5425
 5751SOL    HW228716   3.759   2.548  13.766  0.6486  2.3592 -1.5102
 5752SOL     OW28717   3.569   2.087   3.014  0.2492  0.1068 -0.3025
 5752SOL    HW128718   3.518   2.148   2.961 -0.9143  1.1660  2.0491
 5752SOL    HW228719   3.543   2.004   2.973 -1.2465  0.7778 -0.7043
 5753SOL     OW28720   0.259   2.460  16.803  1.0010  0.2039 -0.4320
 5753SOL    HW128721   0.254   2.450  16.898 -1.8503  0.7728 -0.5438
 5753SOL    HW228722   0.354   2.456  16.792  0.7757 -1.3354 -1.7192
 5754SOL     OW28723   3.239   1.416  15.908 -0.2033 -0.3324  0.1111
 5754SOL    HW128724   3.304   1.467  15.957  1.2993  0.7415 -2.9398
 5754SOL    HW228725   3.291   1.376  15.838 -1.8225 -1.9144 -0.1890
 5755SOL     OW28726   3.396   3.475   8.860  0.6082 -0.1440  0.7576
 5755SOL    HW128727   3.302   3.468   8.874  0.1577  0.3828 -2.0635
 5755SOL    HW228728   3.402   3.569   8.840 -0.7371 -0.4991 -1.2749
 5756SOL     OW28729   2.415   1.343   2.853  0.6613  0.0274 -0.0965
 5756SOL    HW128730   2.500   1.375   2.822  0.4678  0.6955  0.0673
 5756SOL    HW228731   2.360   1.379   2.784 -2.6637  0.4089  2.8049
 5757SOL     OW28732   3.040   1.481  16.384  0.0349 -0.1610 -0.6376
 5757SOL    HW128733   3.095   1.560  16.380 -0.8974  0.6446  2.1636
 5757SOL    HW228734   3.100   1.426  16.334  0.7341 -1.7740  2.0223
 5758SOL     OW28735   3.581   1.886  12.112  0.1785 -1.2500  0.4528
 5758SOL    HW128736   3.521   1.811  12.113 -1.6231  0.1765 -0.2613
 5758SOL    HW228737   3.632   1.862  12.189  0.1669 -0.6568  0.6446
 5759SOL     OW28738   0.209   4.366   5.275  0.3841 -0.6461  0.4080
 5759SOL    HW128739   0.147   4.326   5.214 -0.7106  1.6327 -0.0092
 5759SOL    HW228740   0.239   4.286   5.317  0.6364 -1.1610 -0.7680
 5760SOL     OW28741   0.464   3.328   0.448 -0.3196 -0.1586  0.3321
 5760SOL    HW128742   0.420   3.275   0.514 -0.2764 -0.4227  0.1490
 5760SOL    HW228743   0.497   3.265   0.385  2.1960  0.5558  0.9469
 5761SOL     OW28744   4.193   1.763   2.125  0.2376  0.0091  0.1918
 5761SOL    HW128745   4.129   1.794   2.189 -0.6156 -1.8411  0.2552
 5761SOL    HW228746   4.185   1.835   2.063 -0.0061 -1.2521 -1.2452
 5762SOL     OW28747   3.581   3.700   8.229  0.0549  0.4889 -0.1121
 5762SOL    HW128748   3.650   3.754   8.266 -0.2721  0.9471 -0.1782
 5762SOL    HW228749   3.633   3.624   8.204 -0.6742  0.1661 -0.6690
 5763SOL     OW28750   0.530   0.723   5.525 -0.4396 -0.3401  0.2504
 5763SOL    HW128751   0.442   0.725   5.488  0.3690  0.9023 -1.6359
 5763SOL    HW228752   0.522   0.749   5.616 -1.3370  0.3765 -0.0283
 5764SOL     OW28753   0.166   1.099  14.989 -0.0734 -0.5267 -0.3224
 5764SOL    HW128754   0.111   1.023  14.970 -0.7004 -0.2575  0.4317
 5764SOL    HW228755   0.232   1.067  15.050  0.6982  2.0686  0.1804
 5765SOL     OW28756   3.332   2.322   3.565  0.0083 -0.2012  0.0195
 5765SOL    HW128757   3.344   2.405   3.610  1.3537 -0.1310 -0.4864
 5765SOL    HW228758   3.255   2.281   3.606 -0.5942  1.9689  1.0223
 5766SOL     OW28759   1.538   4.411   6.768  0.0611  0.6060  0.2236
 5766SOL    HW128760   1.557   4.320   6.793  1.4611  0.8785  0.1812
 5766SOL    HW228761   1.445   4.404   6.749  0.0090 -0.8724  0.9890
 5767SOL     OW28762   1.857   3.120   6.189 -0.0148  0.2497  0.2014
 5767SOL    HW128763   1.792   3.079   6.247 -0.0393 -0.1531 -0.1179
 5767SOL    HW228764   1.921   3.127   6.260 -2.2739  0.7476  2.2242
 5768SOL     OW28765   3.427   0.850  17.658  0.1574  0.1392 -0.2729
 5768SOL    HW128766   3.420   0.910  17.584 -0.1191  0.5711  0.1049
 5768SOL    HW228767   3.355   0.787  17.653  1.6154 -1.7151  1.9399
 5769SOL     OW28768   0.037   4.054   3.904  0.3390  0.3389  0.1296
 5769SOL    HW128769   0.022   4.144   3.932  0.3187  0.8380 -1.4668
 5769SOL    HW228770   0.057   4.020   3.991 -1.8680 -2.6861 -0.5186
 5770SOL     OW28771   3.812   4.545   9.689  0.2508  0.0013 -0.6824
 5770SOL    HW128772   3.904   4.538   9.660  0.4451  1.4813 -0.4212
 5770SOL    HW228773   3.803   4.459   9.729 -3.8451  2.1132  2.9033
 5771SOL     OW28774   4.310   4.149  15.523 -0.3111 -0.3336  0.1193
 5771SOL    HW128775   4.285   4.153  15.431  0.1161 -2.3434 -0.0866
 5771SOL    HW228776   4.255   4.216  15.563  0.2413 -0.6631  1.4331
 5772SOL     OW28777   1.152   3.090  11.406  0.6015 -0.2993  0.1053
 5772SOL    HW128778   1.173   3.060  11.317  2.9217  0.2767  0.4550
 5772SOL    HW228779   1.066   3.130  11.392  1.2230  0.7425 -0.7416
 5773SOL     OW28780   3.989   2.003   2.116  0.4807 -0.6416 -0.2960
 5773SOL    HW128781   3.953   2.012   2.028  1.4554  0.1012 -0.6211
 5773SOL    HW228782   3.924   1.966   2.176  1.6111  0.4564  1.6131
 5774SOL     OW28783   3.256   0.529   9.011 -0.0845 -0.3023 -0.0434
 5774SOL    HW128784   3.208   0.610   9.025  0.3010 -0.2285  0.8739
 5774SOL    HW228785   3.309   0.544   8.933  0.1345 -0.1317  0.1376
 5775SOL     OW28786   1.258   4.393   0.898 -0.1575  0.3695 -0.4452
 5775SOL    HW128787   1.281   4.482   0.923  0.3668 -0.1655  0.9574
 5775SOL    HW228788   1.211   4.404   0.815 -0.3951 -1.0386 -0.5120
 5776SOL     OW28789   2.514   4.500   3.522 -0.0248  0.7419 -0.2831
 5776SOL    HW128790   2.608   4.519   3.518  0.2943 -0.4569  1.4652
 5776SOL    HW228791   2.477   4.526   3.438 -1.4795  1.3297  0.5286
 5777SOL     OW28792   1.019   1.452  10.148  0.3287  0.0276 -0.2062
 5777SOL    HW128793   1.056   1.386  10.206 -0.0833 -0.7668 -0.8395
 5777SOL    HW228794   0.940   1.472  10.198  0.9117  0.9874  0.3301
 5778SOL     OW28795   3.230   3.743  10.621 -0.0152  0.2021  0.0357
 5778SOL    HW128796   3.325   3.742  10.620  0.0263  3.5132  1.9556
 5778SOL    HW228797   3.210   3.812  10.558  0.1898  1.0204  0.8631
 5779SOL     OW28798   1.736   0.397  13.066 -0.2808 -0.2975  0.6298
 5779SOL    HW128799   1.775   0.475  13.107  1.9409 -0.8793 -0.4195
 5779SOL    HW228800   1.711   0.440  12.984  0.3438  1.6250  1.4253
 5780SOL     OW28801   4.602   1.537  15.275 -0.2284 -0.1015 -0.4991
 5780SOL    HW128802   4.645   1.482  15.210 -0.1375  0.3511 -0.8201
 5780SOL    HW228803   4.639   1.618  15.240 -0.1784 -0.5200 -1.4177
 5781SOL     OW28804   1.638   1.219   0.989  0.4025  0.1666 -0.6785
 5781SOL    HW128805   1.725   1.210   0.950 -0.1230 -0.0159 -1.8074
 5781SOL    HW228806   1.663   1.171   1.068  2.5094  0.4188 -1.2020
 5782SOL     OW28807   1.946   3.449   9.239 -0.4314  0.1779 -0.0476
 5782SOL    HW128808   2.003   3.379   9.270 -2.3727 -0.1438  2.7644
 5782SOL    HW228809   1.872   3.442   9.299 -0.5630 -0.3266 -0.2637
 5783SOL     OW28810   2.803   2.001  17.597  0.0879 -0.1740  0.3903
 5783SOL    HW128811   2.745   2.070  17.630  0.1917 -1.2279  2.7195
 5783SOL    HW228812   2.869   2.053  17.550 -0.1844  0.3253  0.5618
 5784SOL     OW28813   0.447   0.024   2.740  0.1735  0.0959  0.3149
 5784SOL    HW128814   0.385   4.685   2.781  0.0206 -0.0771 -0.1722
 5784SOL    HW228815   0.385   0.069   2.682  0.8773 -1.0070 -1.2626
 5785SOL     OW28816   1.328   3.772  12.821  0.8112  0.1721  0.8741
 5785SOL    HW128817   1.413   3.729  12.836  1.0094  1.3260  3.1846
 5785SOL    HW228818   1.332   3.830  12.897 -1.1319  3.2081 -1.3727
 5786SOL     OW28819   1.362   1.251   2.547 -0.3686 -0.0070  0.4229
 5786SOL    HW128820   1.456   1.255   2.527 -0.3768 -1.9619 -0.0386
 5786SOL    HW228821   1.342   1.165   2.509 -1.0943  0.2427  0.2443
 5787SOL     OW28822   3.436   2.722   7.103  0.4493 -0.4115 -0.5317
 5787SOL    HW128823   3.400   2.634   7.111  0.6608 -0.4645 -0.1572
 5787SOL    HW228824   3.423   2.750   7.193  0.7944  0.1647 -0.6554
 5788SOL     OW28825   0.718   2.749   9.197 -0.4567  0.3471 -0.0303
 5788SOL    HW128826   0.625   2.727   9.188 -0.9285  0.9242  3.4447
 5788SOL    HW228827   0.740   2.760   9.104 -1.0169  2.6652  0.1104
 5789SOL     OW28828   4.322   4.202   3.710 -0.6890 -0.0608  0.3172
 5789SOL    HW128829   4.371   4.120   3.723  1.4332  1.0289 -0.8717
 5789SOL    HW228830   4.242   4.181   3.758  0.0566  0.3299  1.7206
 5790SOL     OW28831   3.943   3.697   6.796  0.1435 -0.0034  0.3621
 5790SOL    HW128832   4.031   3.669   6.820  0.0754 -0.7095 -0.2198
 5790SOL    HW228833   3.888   3.624   6.826 -1.0441  1.0378  0.7599
 5791SOL     OW28834   4.623   0.388  12.295 -0.0053  0.4580  0.0612
 5791SOL    HW128835   4.670   0.416  12.373  0.6034  0.0496 -0.1611
 5791SOL    HW228836   4.576   0.470  12.282  0.9139  1.1298  0.9751
 5792SOL     OW28837   1.086   0.695   0.240 -0.4428  0.2600  0.3343
 5792SOL    HW128838   1.161   0.636   0.230  2.7010  3.7572  3.1320
 5792SOL    HW228839   1.011   0.636   0.235 -1.7836  1.7993  2.1154
 5793SOL     OW28840   0.232   3.752   7.281  0.2180 -0.4439  0.3233
 5793SOL    HW128841   0.294   3.726   7.349 -0.8537  0.5836  1.7008
 5793SOL    HW228842   0.291   3.784   7.213 -0.3941 -0.8897 -0.4072
 5794SOL     OW28843   4.669   4.203   2.908 -0.0987  0.0602 -0.1216
 5794SOL    HW128844   0.026   4.202   2.854  0.9484  1.4518  1.3718
 5794SOL    HW228845   4.695   4.137   2.973 -2.8478  0.5905  1.5151
 5795SOL     OW28846   1.992   2.198   5.939 -0.4292  0.2619  0.2474
 5795SOL    HW128847   2.043   2.277   5.916 -1.3000  0.0130 -2.5896
 5795SOL    HW228848   1.914   2.214   5.886  1.0278  1.4447 -1.5347
 5796SOL     OW28849   0.108   3.571  15.570 -0.0873 -0.2995  0.5588
 5796SOL    HW128850   0.157   3.496  15.605 -1.1466 -1.1237  0.2704
 5796SOL    HW228851   0.053   3.591  15.646 -1.2948 -1.4870 -0.0018
 5797SOL     OW28852   2.468   3.096   7.451  0.1583 -0.3363 -0.3378
 5797SOL    HW128853   2.490   3.131   7.365 -0.4238 -1.3602 -0.8978
 5797SOL    HW228854   2.499   3.005   7.444  2.0141  0.0703  2.7628
 5798SOL     OW28855   1.812   0.776   7.309  0.2963 -1.1380 -0.1581
 5798SOL    HW128856   1.903   0.792   7.282 -0.0106  1.6327  0.5290
 5798SOL    HW228857   1.777   0.717   7.242  1.5618 -1.3862 -0.5988
 5799SOL     OW28858   1.815   4.208   2.421  0.1041  0.4987  0.0919
 5799SOL    HW128859   1.836   4.115   2.429  0.5047  0.6536  0.9658
 5799SOL    HW228860   1.871   4.241   2.492 -0.1573  0.5971  0.2504
 5800SOL     OW28861   1.406   0.204  11.857  0.7156  0.1039 -0.3210
 5800SOL    HW128862   1.485   0.160  11.827  0.8509  0.3321 -0.2967
 5800SOL    HW228863   1.350   0.198  11.779 -0.1062 -0.0266  0.2718
 5801SOL     OW28864   3.178   0.342   5.926 -0.1387  0.3955  0.3526
 5801SOL    HW128865   3.258   0.298   5.896 -0.9846 -0.3624 -0.7819
 5801SOL    HW228866   3.127   0.347   5.845 -0.6519 -2.4778  0.4929
 5802SOL     OW28867   2.627   0.980   2.505 -0.7507 -0.0787 -0.3320
 5802SOL    HW128868   2.648   1.069   2.535  0.4732 -0.5436  0.2034
 5802SOL    HW228869   2.689   0.971   2.433 -0.2348 -1.0988  0.2449
 5803SOL     OW28870   1.985   3.216  14.312  0.0442 -0.2008  1.2404
 5803SOL    HW128871   1.893   3.223  14.336 -0.8422 -0.9994 -1.9574
 5803SOL    HW228872   2.031   3.204  14.395  1.7895 -0.6992  0.2105
 5804SOL     OW28873   2.393   4.195   8.020  0.8373 -0.1283  0.1879
 5804SOL    HW128874   2.307   4.222   8.052  1.1594  0.9468  0.1594
 5804SOL    HW228875   2.401   4.104   8.048 -1.3239 -0.4259 -0.1543
 5805SOL     OW28876   1.663   2.890  12.328  0.0079 -0.2049  0.0070
 5805SOL    HW128877   1.593   2.880  12.263 -0.0273 -0.7347  0.1219
 5805SOL    HW228878   1.744   2.864  12.283 -0.8814 -2.2830 -0.4099
 5806SOL     OW28879   0.391   4.609   5.901  0.0020  0.0633 -0.1582
 5806SOL    HW128880   0.301   4.639   5.889  0.2726  0.5278 -1.0557
 5806SOL    HW228881   0.431   4.636   5.818 -2.4237  1.9898 -0.6851
 5807SOL     OW28882   1.967   2.003  14.450  0.2852  0.5670  0.1794
 5807SOL    HW128883   1.877   2.016  14.422  0.6556  1.0020 -0.8010
 5807SOL    HW228884   1.968   1.984  14.544  1.3925 -1.8257 -0.3164
 5808SOL     OW28885   1.710   3.527  16.860  0.0307 -0.2261  0.0277
 5808SOL    HW128886   1.738   3.524  16.952  0.7672 -0.9529 -0.2147
 5808SOL    HW228887   1.629   3.577  16.862  0.3788  0.3400  0.2634
 5809SOL     OW28888   4.093   2.762   5.115 -0.2439 -0.1491 -0.1123
 5809SOL    HW128889   4.108   2.692   5.178  0.4433  0.2112  0.1219
 5809SOL    HW228890   3.998   2.773   5.117 -0.2181 -0.0726  0.7953
 5810SOL     OW28891   0.912   0.617   9.670  0.3195  0.0072 -0.2351
 5810SOL    HW128892   0.951   0.600   9.584 -0.2854  1.3916 -0.7985
 5810SOL    HW228893   0.826   0.576   9.662  1.0374 -1.3483 -0.9352
 5811SOL     OW28894   0.565   3.004  10.427 -0.5516  0.1618  0.5852
 5811SOL    HW128895   0.531   2.991  10.515 -0.2007  0.2895  0.7400
 5811SOL    HW228896   0.531   3.092  10.411  2.7481  1.7947  2.7323
 5812SOL     OW28897   0.333   3.093   5.533 -0.6053 -0.5146 -0.3118
 5812SOL    HW128898   0.398   3.055   5.473  1.4185 -0.4064  1.7737
 5812SOL    HW228899   0.278   3.135   5.468 -0.6706 -0.7513 -0.4105
 5813SOL     OW28900   4.486   2.003   5.992  0.4553 -0.2205 -0.1438
 5813SOL    HW128901   4.577   2.031   5.984  0.4546  0.4177  1.9159
 5813SOL    HW228902   4.491   1.919   5.947 -1.3367  0.5268 -1.7366
 5814SOL     OW28903   0.348   3.749   9.828 -0.1439  0.6844  0.1166
 5814SOL    HW128904   0.443   3.734   9.828 -0.1951  0.3312  0.6654
 5814SOL    HW228905   0.337   3.840   9.802 -1.4078  0.3972 -0.3705
 5815SOL     OW28906   0.606   4.189   8.145  0.2783  0.0018  0.2032
 5815SOL    HW128907   0.606   4.156   8.055  0.8951 -2.2445  1.0191
 5815SOL    HW228908   0.519   4.166   8.178  1.0312 -2.0090  0.7841
 5816SOL     OW28909   3.218   2.983  11.456 -0.1626  0.5715 -0.0216
 5816SOL    HW128910   3.130   2.988  11.491  0.3420  1.3363  1.1232
 5816SOL    HW228911   3.261   2.915  11.508  1.3295  0.4867 -1.3447
 5817SOL     OW28912   0.539   4.012  11.199  0.1562  0.4027 -0.2396
 5817SOL    HW128913   0.525   4.066  11.121  1.1444  0.1837 -0.5786
 5817SOL    HW228914   0.460   3.963  11.220  1.6201 -1.9926 -0.2619
 5818SOL     OW28915   3.050   1.431  12.914 -0.0319 -0.7666  0.3278
 5818SOL    HW128916   3.032   1.475  12.998 -0.1031  0.4380 -0.3220
 5818SOL    HW228917   3.069   1.345  12.951 -2.6124 -0.6600  1.9118
 5819SOL     OW28918   3.002   3.775  10.778  0.2732  0.1648 -0.4082
 5819SOL    HW128919   3.066   3.799  10.712  2.4561  0.8113  1.9364
 5819SOL    HW228920   2.930   3.732  10.732 -0.9166  0.5023  1.1443
 5820SOL     OW28921   0.102   0.457   3.857 -0.2073 -0.3277 -0.4944
 5820SOL    HW128922   0.121   0.467   3.764  1.6973 -0.2514 -0.1047
 5820SOL    HW228923   0.077   0.364   3.855 -0.2232 -0.3633  1.4349
 5821SOL     OW28924   3.020   3.843   8.751 -0.2940  0.1264  0.2863
 5821SOL    HW128925   2.977   3.799   8.824 -1.6554  0.4440 -0.3206
 5821SOL    HW228926   3.104   3.867   8.790 -0.2735  1.6622 -0.6754
 5822SOL     OW28927   0.322   3.028  13.095  0.4173  0.0012  0.7269
 5822SOL    HW128928   0.363   2.945  13.119  0.9912  0.2553  0.6309
 5822SOL    HW228929   0.259   2.990  13.034  1.5931 -0.7037 -0.0499
 5823SOL     OW28930   0.743   1.472   4.300 -0.5585 -0.4078 -0.1697
 5823SOL    HW128931   0.778   1.480   4.389 -1.1805  2.3040 -0.1704
 5823SOL    HW228932   0.738   1.377   4.294 -1.7737 -0.4452  1.3291
 5824SOL     OW28933   4.491   1.083   4.949  0.2513  0.1096  0.1481
 5824SOL    HW128934   4.569   1.135   4.971 -0.0706  1.1393 -1.1248
 5824SOL    HW228935   4.452   1.140   4.883 -1.7774  0.6722  1.8637
 5825SOL     OW28936   3.864   0.253   0.971 -0.2615 -0.1020  0.1025
 5825SOL    HW128937   3.936   0.260   0.908 -0.5982  1.6702 -0.0953
 5825SOL    HW228938   3.911   0.289   1.046 -1.4147 -1.0561  1.2889
 5826SOL     OW28939   3.417   1.582   2.992  0.1181  0.1528  0.0505
 5826SOL    HW128940   3.375   1.538   2.918  0.7560 -0.3667  0.0024
 5826SOL    HW228941   3.357   1.654   3.010 -1.8365 -1.3479 -0.5064
 5827SOL     OW28942   1.274   4.240   3.188  0.5345  0.8399 -0.4211
 5827SOL    HW128943   1.336   4.203   3.125  0.9644  0.3558  0.2937
 5827SOL    HW228944   1.298   4.196   3.270  1.0452  2.0122  0.0606
 5828SOL     OW28945   3.903   0.917  11.524 -0.5336 -0.0070  0.1746
 5828SOL    HW128946   3.836   0.981  11.548 -0.0309 -0.7203  3.5461
 5828SOL    HW228947   3.978   0.977  11.527 -0.8600  0.2817  2.4629
 5829SOL     OW28948   2.456   4.263   3.606  1.0116 -0.1556 -0.2781
 5829SOL    HW128949   2.477   4.348   3.567  0.0543  0.1971 -0.0253
 5829SOL    HW228950   2.461   4.295   3.696  1.1783  1.5233 -0.8906
 5830SOL     OW28951   0.354   2.990   3.602 -0.1915  0.3662 -0.1523
 5830SOL    HW128952   0.398   3.019   3.682 -1.1694 -2.4797  1.4021
 5830SOL    HW228953   0.303   3.070   3.589  0.7494  0.9040 -0.5712
 5831SOL     OW28954   0.616   4.491   7.693  0.5503  0.3807 -0.4124
 5831SOL    HW128955   0.615   4.451   7.780  1.7554  0.1318 -0.5110
 5831SOL    HW228956   0.530   4.458   7.666  0.4057  0.4253 -0.0118
 5832SOL     OW28957   2.815   1.916  13.747  0.2467 -0.0482 -0.6796
 5832SOL    HW128958   2.883   1.967  13.789  0.8187 -1.0441 -0.3821
 5832SOL    HW228959   2.833   1.835  13.795  1.5466 -0.6226 -2.1395
 5833SOL     OW28960   0.898   3.664   7.995  0.2004 -0.3406  0.0762
 5833SOL    HW128961   0.979   3.714   7.985  1.3183 -1.7422  2.0900
 5833SOL    HW228962   0.913   3.586   7.941  1.4738 -0.0390  0.0017
 5834SOL     OW28963   3.489   1.210  13.465  0.0780 -0.0876 -0.0544
 5834SOL    HW128964   3.446   1.125  13.460 -0.3245  0.2259 -2.0226
 5834SOL    HW228965   3.420   1.273  13.443 -1.0114 -0.5381  2.0623
 5835SOL     OW28966   1.279   1.252   8.684 -0.4442  0.3834 -0.0972
 5835SOL    HW128967   1.191   1.217   8.698  0.9202 -2.8050  0.5371
 5835SOL    HW228968   1.311   1.269   8.772  0.0951 -2.6863  0.3040
 5836SOL     OW28969   3.626   4.176   6.454  0.5832 -0.2185 -0.0862
 5836SOL    HW128970   3.598   4.126   6.377 -2.7206  2.0379 -0.3551
 5836SOL    HW228971   3.631   4.258   6.406 -0.0727  0.3523  0.8319
 5837SOL     OW28972   2.013   0.978   6.540  0.0121 -0.4919  0.2312
 5837SOL    HW128973   1.964   1.000   6.619  2.4847 -0.3381  1.6856
 5837SOL    HW228974   2.052   1.058   6.506  2.7780 -1.1783  1.8520
 5838SOL     OW28975   0.501   0.812   2.796  0.3080  0.8269 -0.2220
 5838SOL    HW128976   0.503   0.908   2.792 -1.2207  0.9150  1.2925
 5838SOL    HW228977   0.444   0.798   2.871  0.8202  0.1188  0.0287
 5839SOL     OW28978   2.016   0.612   6.005 -0.0321 -0.0873  0.3233
 5839SOL    HW128979   1.963   0.551   5.954  0.3897  1.0880 -1.5201
 5839SOL    HW228980   2.090   0.560   6.035 -0.8030 -1.2693  0.1841
 5840SOL     OW28981   0.088   3.381  16.732 -0.1566 -0.6191 -0.2180
 5840SOL    HW128982   0.130   3.296  16.737  1.7635  0.4240  1.0486
 5840SOL    HW228983   0.092   3.418  16.820 -0.2901  1.2008 -0.9626
 5841SOL     OW28984   4.065   1.976   5.317 -0.6331 -0.0539  0.7581
 5841SOL    HW128985   4.094   2.008   5.232 -4.2638  2.1575  0.3512
 5841SOL    HW228986   4.110   2.038   5.374 -2.5723  1.5101  0.5870
 5842SOL     OW28987   2.813   4.592   4.698 -0.1835 -0.7750  0.2767
 5842SOL    HW128988   2.787   4.542   4.621  1.1718 -0.7503 -0.1904
 5842SOL    HW228989   2.757   4.561   4.769 -2.0246  3.5813  0.7557
 5843SOL     OW28990   2.986   1.352   6.844  0.0295 -0.5261  0.0574
 5843SOL    HW128991   2.929   1.405   6.788  0.5389 -0.3964 -0.3370
 5843SOL    HW228992   3.067   1.396   6.817  0.1102 -0.0924  1.0129
 5844SOL     OW28993   4.178   3.216   8.957 -0.0415 -0.1094 -0.6244
 5844SOL    HW128994   4.131   3.300   8.960  2.1777  1.1192  0.2053
 5844SOL    HW228995   4.257   3.238   8.908 -1.6717  0.7126 -2.8633
 5845SOL     OW28996   1.347   3.906   0.968  0.2226  1.1156  0.8838
 5845SOL    HW128997   1.316   3.930   0.881 -2.4934  0.3586  1.6434
 5845SOL    HW228998   1.385   3.990   0.995 -2.1882  2.7135 -0.7295
 5846SOL     OW28999   1.266   1.048   5.564 -0.6845  0.2579 -0.4453
 5846SOL    HW129000   1.218   1.045   5.647  1.4326 -1.1126  0.7105
 5846SOL    HW229001   1.355   1.040   5.598 -0.1110  3.0052 -1.2695
 5847SOL     OW29002   1.293   4.524   8.988  0.3818 -0.4084 -0.6041
 5847SOL    HW129003   1.385   4.498   8.976  0.8693  0.4468  1.3439
 5847SOL    HW229004   1.268   4.448   9.040 -0.0498  0.6991  0.8107
 5848SOL     OW29005   2.316   3.106  15.229  0.2026  0.2032  0.1153
 5848SOL    HW129006   2.288   3.144  15.312  0.0558  0.5518 -0.0939
 5848SOL    HW229007   2.349   3.022  15.261 -1.5287 -1.4300 -2.4245
 5849SOL     OW29008   3.373   2.999  17.624 -0.2275  0.3981 -0.6203
 5849SOL    HW129009   3.401   3.050   0.010 -1.1518 -2.0530  1.3738
 5849SOL    HW229010   3.448   3.013  17.566 -0.7640 -0.5200 -1.5323
 5850SOL     OW29011   3.021   0.224   4.945  0.1511 -0.5568  0.1517
 5850SOL    HW129012   3.031   0.134   4.974  1.0012 -0.5425 -0.1043
 5850SOL    HW229013   3.091   0.220   4.881  0.5915 -1.0350  0.6659
 5851SOL     OW29014   1.016   0.116   8.592 -0.2365  0.3699  0.1147
 5851SOL    HW129015   0.929   0.079   8.611  0.3589 -0.6665  0.8135
 5851SOL    HW229016   1.069   0.069   8.656  0.8026  1.9699  0.4297
 5852SOL     OW29017   3.790   1.747   1.564 -0.3443  0.6621  0.5286
 5852SOL    HW129018   3.711   1.776   1.517  0.5442  1.9929 -0.1321
 5852SOL    HW229019   3.770   1.654   1.570  0.2303  0.5194  0.1515
 5853SOL     OW29020   1.621   2.004   2.605  0.0673  0.7472 -0.5269
 5853SOL    HW129021   1.532   2.007   2.641  0.1465 -1.0017 -0.1658
 5853SOL    HW229022   1.658   1.917   2.619  1.0418  1.2118 -0.2243
 5854SOL     OW29023   0.534   3.385   9.135  0.0329 -0.2318  0.3144
 5854SOL    HW129024   0.526   3.314   9.198  1.4224 -0.1386  0.5996
 5854SOL    HW229025   0.529   3.460   9.194  0.3387  0.1692 -0.1547
 5855SOL     OW29026   0.243   2.207   2.884 -0.0109  0.0936 -0.0139
 5855SOL    HW129027   0.149   2.210   2.903  0.0912 -0.2393  0.5429
 5855SOL    HW229028   0.280   2.291   2.912 -0.8603 -0.1927  1.9765
 5856SOL     OW29029   2.401   0.742   2.256  0.0563 -0.2850  0.1668
 5856SOL    HW129030   2.398   0.681   2.182 -0.6705  0.9575 -0.8414
 5856SOL    HW229031   2.429   0.677   2.319 -0.8526  1.4513  2.3669
 5857SOL     OW29032   3.303   0.086   9.315  0.1361  0.3765  0.0927
 5857SOL    HW129033   3.318   0.170   9.358  1.8157  1.4390 -2.5411
 5857SOL    HW229034   3.253   0.096   9.234 -1.7001 -2.8247  0.8369
 5858SOL     OW29035   0.322   1.374  16.845  0.1332 -0.7635 -0.2860
 5858SOL    HW129036   0.341   1.281  16.832  0.9070 -0.7734  0.8815
 5858SOL    HW229037   0.227   1.366  16.831  0.0913 -2.5196  0.9662
 5859SOL     OW29038   1.382   0.712   2.997  0.2382 -0.1091  0.2658
 5859SOL    HW129039   1.439   0.789   3.011  3.2834 -2.2462 -0.3406
 5859SOL    HW229040   1.309   0.747   3.047  0.8860 -0.0933  1.1926
 5860SOL     OW29041   1.319   1.760   5.722  0.2547  0.5989 -0.3246
 5860SOL    HW129042   1.258   1.748   5.649 -0.2511 -0.3234  0.2468
 5860SOL    HW229043   1.260   1.781   5.796  0.6872 -1.3387  0.5612
 5861SOL     OW29044   2.167   2.420   3.348 -0.4926  0.5144  0.4828
 5861SOL    HW129045   2.249   2.404   3.393 -1.2763 -2.6024  0.8479
 5861SOL    HW229046   2.110   2.404   3.423  1.5527 -0.2457  1.8545
 5862SOL     OW29047   1.522   0.735   6.920 -0.1686  0.0946  0.0399
 5862SOL    HW129048   1.503   0.828   6.919 -0.2404  0.0819  0.1905
 5862SOL    HW229049   1.508   0.712   6.828  1.4248 -1.2175  0.1211
 5863SOL     OW29050   1.547   0.481  16.573 -0.6585  0.2628  0.1984
 5863SOL    HW129051   1.580   0.461  16.661  2.6622 -4.2904 -2.1027
 5863SOL    HW229052   1.464   0.434  16.585 -0.4748 -0.3745 -1.0500
 5864SOL     OW29053   0.456   3.580   6.812 -0.1728  0.3031  0.4273
 5864SOL    HW129054   0.377   3.573   6.866 -1.5690 -1.4328 -1.8346
 5864SOL    HW229055   0.433   3.648   6.749  1.9752 -1.4432 -2.2269
 5865SOL     OW29056   3.957   3.402   1.280 -0.2914  0.1294  0.1640
 5865SOL    HW129057   4.034   3.447   1.245  1.4187 -1.2877  2.1123
 5865SOL    HW229058   3.957   3.424   1.373 -0.8378  2.5164 -0.4116
 5866SOL     OW29059   2.313   2.264   9.130 -0.1128  0.2196  0.3347
 5866SOL    HW129060   2.222   2.267   9.159 -0.2199 -1.3281  0.1386
 5866SOL    HW229061   2.353   2.228   9.209  0.8290  0.7411  0.0972
 5867SOL     OW29062   2.692   0.973   8.436 -0.0203 -0.0205  0.6816
 5867SOL    HW129063   2.732   0.887   8.448 -0.8857 -0.6831 -1.2035
 5867SOL    HW229064   2.675   0.967   8.342  1.1346  1.6778  0.3521
 5868SOL     OW29065   2.467   4.673  14.453 -0.5280 -0.0704  0.0001
 5868SOL    HW129066   2.496   0.013  14.520 -1.1786 -0.4001  0.5861
 5868SOL    HW229067   2.475   4.593  14.506  3.8329  0.1013 -0.3803
 5869SOL     OW29068   0.737   2.521   7.539  0.0232 -0.1564 -0.0952
 5869SOL    HW129069   0.751   2.429   7.559 -1.6437 -0.5937 -1.0040
 5869SOL    HW229070   0.660   2.535   7.594  1.7411 -0.3682  2.4001
 5870SOL     OW29071   4.401   0.014   6.288  0.0101  0.9085 -0.4592
 5870SOL    HW129072   4.408   0.108   6.307  3.3072  0.2602  1.4235
 5870SOL    HW229073   4.448   4.695   6.360  1.8668 -0.8821 -2.6865
 5871SOL     OW29074   2.064   0.343   8.757 -0.7609 -0.0161 -1.1813
 5871SOL    HW129075   2.086   0.384   8.674  0.3833 -1.2473 -1.4939
 5871SOL    HW229076   2.074   0.251   8.735 -1.3824  0.0542 -1.7420
 5872SOL     OW29077   2.547   3.871   3.212 -0.1624  0.2403 -0.3233
 5872SOL    HW129078   2.536   3.915   3.296  2.0856  2.4392 -1.1916
 5872SOL    HW229079   2.586   3.787   3.239 -2.6131 -0.4829  0.9600
 5873SOL     OW29080   4.130   1.334   3.933 -0.4363  0.0592  0.1855
 5873SOL    HW129081   4.141   1.246   3.897 -0.1228  0.6852 -1.2533
 5873SOL    HW229082   4.128   1.382   3.850  0.5581 -2.4955 -1.2985
 5874SOL     OW29083   2.495   4.549   1.431  0.7297  0.3994 -0.0515
 5874SOL    HW129084   2.537   4.466   1.409 -0.2983  0.1797 -1.2215
 5874SOL    HW229085   2.561   4.617   1.420 -1.1286  2.1383 -0.4560
 5875SOL     OW29086   3.906   3.169   3.493 -0.1823  0.4355 -0.0392
 5875SOL    HW129087   3.975   3.142   3.553 -1.4248 -0.3692  1.0058
 5875SOL    HW229088   3.888   3.259   3.522 -0.2313  0.8312 -1.2797
 5876SOL     OW29089   0.779   1.729   3.890 -0.0704 -0.3207 -0.9212
 5876SOL    HW129090   0.849   1.761   3.833 -1.5337  0.1977 -2.4488
 5876SOL    HW229091   0.819   1.732   3.977  1.2758  0.8865 -1.5829
 5877SOL     OW29092   3.567   3.629   6.817 -0.0969  0.1447  0.3464
 5877SOL    HW129093   3.580   3.681   6.896 -1.6870 -0.9436  1.3157
 5877SOL    HW229094   3.648   3.580   6.806  0.1345  0.4808  0.5430
 5878SOL     OW29095   1.477   0.906   0.254 -0.5878 -0.1206 -0.3326
 5878SOL    HW129096   1.410   0.964   0.220 -1.3692  0.6596  2.5290
 5878SOL    HW229097   1.557   0.938   0.213  0.0781  1.3008  2.0278
 5879SOL     OW29098   4.636   1.224   5.692  0.4472  0.2511  0.2532
 5879SOL    HW129099   0.009   1.228   5.678  0.2570 -0.9579 -1.4038
 5879SOL    HW229100   4.615   1.201   5.602 -2.0534  2.1952  0.3393
 5880SOL     OW29101   4.693   2.229   0.739  0.0214 -0.4079  0.0841
 5880SOL    HW129102   0.023   2.209   0.661  0.6357 -2.6505  1.0601
 5880SOL    HW229103   4.681   2.139   0.770 -0.5616 -0.3552  0.0130
 5881SOL     OW29104   0.706   2.766  15.620  0.7965  0.2878 -0.0651
 5881SOL    HW129105   0.661   2.850  15.619 -0.6862 -0.5029 -0.9531
 5881SOL    HW229106   0.653   2.701  15.574  2.1161 -0.7987 -0.0434
 5882SOL     OW29107   4.206   3.452  11.013 -0.5578  0.5177 -0.2410
 5882SOL    HW129108   4.235   3.413  11.096 -0.2764 -0.4790 -0.8072
 5882SOL    HW229109   4.110   3.453  11.020 -0.5069  1.1719  0.3091
 5883SOL     OW29110   4.553   0.082   3.803 -0.3622 -0.4327  0.0805
 5883SOL    HW129111   4.497   0.067   3.727  1.3286  0.3001 -1.3171
 5883SOL    HW229112   4.498   0.134   3.862  0.8198 -0.1317  0.9197
 5884SOL     OW29113   2.690   2.557   3.404 -0.5082  0.4769 -0.0146
 5884SOL    HW129114   2.689   2.483   3.465  1.6640  0.4175 -0.0284
 5884SOL    HW229115   2.778   2.548   3.366 -0.4494 -0.1631  0.2665
 5885SOL     OW29116   2.610   0.277   5.672  0.3409 -0.1419  0.4689
 5885SOL    HW129117   2.541   0.339   5.651  0.0723 -0.6791 -0.2124
 5885SOL    HW229118   2.564   0.199   5.703 -1.0282  0.5104  0.0229
 5886SOL     OW29119   2.465   0.495  13.327  0.8989 -0.3221 -0.0106
 5886SOL    HW129120   2.481   0.585  13.299 -0.5491 -0.1120 -0.1461
 5886SOL    HW229121   2.377   0.489  13.291  0.7760  0.6165  0.1315
 5887SOL     OW29122   3.639   4.181   4.783 -0.7522  0.4156  0.2821
 5887SOL    HW129123   3.608   4.214   4.868  3.0404  1.3350  1.3375
 5887SOL    HW229124   3.709   4.242   4.759  1.3300 -1.6281  1.1480
 5888SOL     OW29125   2.076   1.211   7.128 -0.4485 -0.3483  0.2039
 5888SOL    HW129126   2.055   1.276   7.194  1.6455 -0.4788  0.9885
 5888SOL    HW229127   2.143   1.253   7.073  1.4961 -3.1828  0.3703
 5889SOL     OW29128   4.570   3.134   6.398 -0.6178  0.2739 -0.0690
 5889SOL    HW129129   4.539   3.145   6.309  0.3218 -0.2863 -0.4667
 5889SOL    HW229130   4.602   3.224   6.404  0.7293 -0.2202  0.4012
 5890SOL     OW29131   3.184   2.298  14.181  0.1059  0.3605  0.0466
 5890SOL    HW129132   3.123   2.364  14.214  0.3745  1.6293 -1.9747
 5890SOL    HW229133   3.231   2.337  14.107  2.0160 -2.8681 -0.4348
 5891SOL     OW29134   4.539   0.553  15.785 -0.3138 -0.1906 -0.4094
 5891SOL    HW129135   4.493   0.599  15.715 -0.8935 -0.4373 -0.1911
 5891SOL    HW229136   4.562   0.626  15.842 -1.4391  0.4269 -0.7679
 5892SOL     OW29137   1.819   0.327   4.978  0.3676 -0.5720 -0.1904
 5892SOL    HW129138   1.808   0.263   5.049 -0.8973  0.2912  0.3828
 5892SOL    HW229139   1.730   0.361   4.974  0.0959 -1.3043 -0.3584
 5893SOL     OW29140   2.168   0.790   4.546  0.3195  0.4081  0.4075
 5893SOL    HW129141   2.244   0.844   4.566  1.6462 -1.3356  0.0744
 5893SOL    HW229142   2.187   0.705   4.586  1.8934  0.6301  0.1205
 5894SOL     OW29143   1.432   0.712   5.184 -0.2600  0.2392  0.1857
 5894SOL    HW129144   1.481   0.733   5.263  0.7011  1.8017 -0.8416
 5894SOL    HW229145   1.348   0.757   5.193 -2.1460 -3.7299  2.5838
 5895SOL     OW29146   2.886   0.658   2.998  0.1440 -0.7842 -0.6218
 5895SOL    HW129147   2.814   0.698   2.949 -0.8670 -1.6941  0.1079
 5895SOL    HW229148   2.863   0.684   3.087  0.2464  0.2398 -0.8898
 5896SOL     OW29149   4.538   3.953  16.875  0.0387  0.0606  0.0132
 5896SOL    HW129150   4.617   4.005  16.887  0.3987 -0.6324  0.5694
 5896SOL    HW229151   4.477   4.025  16.855 -1.2302 -1.3377 -1.1203
 5897SOL     OW29152   2.446   3.635  17.012  0.2331  0.2011 -0.0619
 5897SOL    HW129153   2.381   3.697  17.044 -1.4222 -0.6633 -1.7498
 5897SOL    HW229154   2.433   3.556  17.065 -2.3491  1.0898  0.5757
 5898SOL     OW29155   0.047   4.355  15.883  0.0983  0.1832 -0.1537
 5898SOL    HW129156   0.122   4.410  15.861 -0.7732  1.1177 -0.7853
 5898SOL    HW229157   0.020   4.345  15.792  1.5653  0.6873 -0.6406
 5899SOL     OW29158   4.350   2.420   8.027  0.0586 -0.1347 -0.6995
 5899SOL    HW129159   4.384   2.338   8.062 -0.8063 -0.1077  0.2222
 5899SOL    HW229160   4.341   2.485   8.097 -3.6464 -0.1742 -1.1327
 5900SOL     OW29161   0.567   1.732   5.810 -0.0945  0.0186 -0.6885
 5900SOL    HW129162   0.567   1.644   5.847  0.3843  1.1083  1.8966
 5900SOL    HW229163   0.592   1.781   5.888 -0.1821  0.1505 -0.7442
 5901SOL     OW29164   4.181   0.833   8.235 -0.5812  0.1582  0.0538
 5901SOL    HW129165   4.207   0.925   8.232  0.6581 -0.1899  0.2117
 5901SOL    HW229166   4.264   0.786   8.241 -1.9438 -2.0346  1.7673
 5902SOL     OW29167   4.265   1.236   3.155  0.5074  0.2462 -0.1070
 5902SOL    HW129168   4.223   1.184   3.223  0.6001  0.7122  0.3032
 5902SOL    HW229169   4.185   1.241   3.103  1.2782  2.7873 -1.0660
 5903SOL     OW29170   1.314   0.456   8.953 -0.2348  0.4131  0.1693
 5903SOL    HW129171   1.402   0.450   8.916 -0.0578 -0.5627  0.7448
 5903SOL    HW229172   1.296   0.543   8.916 -0.2287  1.2515  2.1194
 5904SOL     OW29173   1.165   4.596   1.284 -0.0614  0.4655 -0.0650
 5904SOL    HW129174   1.255   4.592   1.316 -0.1542 -1.5267 -0.0429
 5904SOL    HW229175   1.159   4.654   1.207 -0.8783 -0.4947 -0.7281
 5905SOL     OW29176   1.449   2.926   4.374  0.2645 -0.4416  0.9909
 5905SOL    HW129177   1.400   2.921   4.292  1.0098 -1.5429  0.6269
 5905SOL    HW229178   1.372   2.936   4.431  0.1786 -0.0579  0.8128
 5906SOL     OW29179   1.781   4.497   1.963  0.0580 -0.1209 -0.0616
 5906SOL    HW129180   1.812   4.427   2.020 -0.4648 -0.5939 -0.3622
 5906SOL    HW229181   1.746   4.562   2.025  2.7794 -0.3176  1.6727
 5907SOL     OW29182   2.741   0.994   9.359  0.0105  0.4396 -0.3173
 5907SOL    HW129183   2.674   0.942   9.403 -0.4935  2.8205  1.7129
 5907SOL    HW229184   2.704   0.993   9.271 -2.0300  0.0165  0.5409
 5908SOL     OW29185   2.202   3.965   2.984 -0.7138 -0.0356  0.3997
 5908SOL    HW129186   2.197   4.054   3.019  0.4737  0.5212 -0.8419
 5908SOL    HW229187   2.108   3.950   2.971 -0.3710 -0.9385 -0.9813
 5909SOL     OW29188   1.753   1.998   8.227  0.0009 -0.6170 -0.6947
 5909SOL    HW129189   1.680   1.939   8.209 -0.4913  0.0279 -0.7700
 5909SOL    HW229190   1.828   1.938   8.232 -1.2374 -2.1502 -0.5106
 5910SOL     OW29191   0.075   2.226   8.858  0.2766  0.4860  0.4238
 5910SOL    HW129192   0.066   2.319   8.880 -3.6620 -0.0608  1.2675
 5910SOL    HW229193   0.072   2.229   8.762 -0.1773  2.1635  0.4876
 5911SOL     OW29194   0.608   1.196   6.505  0.3147  0.3977  0.0019
 5911SOL    HW129195   0.548   1.271   6.505  0.6730  0.6842 -0.6561
 5911SOL    HW229196   0.590   1.156   6.420 -1.6750 -1.5244  1.3345
 5912SOL     OW29197   1.984   3.135   7.727 -0.1174 -0.8498  0.0801
 5912SOL    HW129198   1.954   3.224   7.745 -0.0122 -0.3567 -2.2095
 5912SOL    HW229199   2.068   3.145   7.682  1.5056 -1.9189  2.9170
 5913SOL     OW29200   1.392   2.745   9.304 -0.4628 -0.5265 -0.5139
 5913SOL    HW129201   1.419   2.653   9.295  1.2524 -0.0447 -0.3211
 5913SOL    HW229202   1.461   2.793   9.259 -0.9685  1.4455  0.8113
 5914SOL     OW29203   0.310   4.005   9.735  0.3562 -0.1169  0.4135
 5914SOL    HW129204   0.315   4.099   9.754 -3.7477  0.0711  0.6216
 5914SOL    HW229205   0.350   3.997   9.649  2.2508  1.2667  1.1669
 5915SOL     OW29206   3.785   3.584  10.805  0.2539  0.2540  0.2075
 5915SOL    HW129207   3.707   3.542  10.769 -0.0766  0.1553  1.0316
 5915SOL    HW229208   3.816   3.650  10.743  1.9621 -1.2619 -0.5622
 5916SOL     OW29209   0.333   0.561   8.283 -0.4785 -0.0059  0.4161
 5916SOL    HW129210   0.360   0.552   8.192  1.3157  1.0589  0.8420
 5916SOL    HW229211   0.423   0.568   8.314 -0.3558  1.0489 -0.1971
 5917SOL     OW29212   3.865   2.733  11.527  0.5359  0.1289  0.0965
 5917SOL    HW129213   3.879   2.784  11.607  1.4506 -1.9194  1.2570
 5917SOL    HW229214   3.777   2.699  11.541  0.7296 -0.1751  0.6061
 5918SOL     OW29215   0.001   3.947   7.960  0.2602  0.4046 -0.2228
 5918SOL    HW129216   4.658   3.878   7.976 -1.7426  2.3224 -0.1039
 5918SOL    HW229217   0.017   3.968   8.053 -1.9260  0.7345  0.0766
 5919SOL     OW29218   2.696   0.096   5.238 -0.5871 -0.4050  0.1483
 5919SOL    HW129219   2.654   0.182   5.250  2.1094  0.4172  3.8055
 5919SOL    HW229220   2.621   0.039   5.255  1.3181 -2.9699 -0.0580
 5920SOL     OW29221   3.324   3.770   5.476  0.2735 -0.3574 -0.0869
 5920SOL    HW129222   3.388   3.762   5.406 -0.6134 -0.3635 -0.8917
 5920SOL    HW229223   3.245   3.729   5.441  0.3864 -0.1021 -0.6353
 5921SOL     OW29224   0.856   4.339   1.284 -0.3815 -0.0144  0.2868
 5921SOL    HW129225   0.773   4.386   1.273 -0.3562 -0.2795 -1.0412
 5921SOL    HW229226   0.912   4.380   1.219 -1.7326  1.7563  0.2221
 5922SOL     OW29227   4.117   0.265   5.719  0.0185  0.3262 -0.2797
 5922SOL    HW129228   4.058   0.215   5.776  0.6854 -0.5788 -0.3795
 5922SOL    HW229229   4.159   0.326   5.780 -0.2926  0.4456 -0.1838
 5923SOL     OW29230   4.144   1.808   7.737  0.2329  0.8549 -0.3000
 5923SOL    HW129231   4.136   1.840   7.647 -0.8628 -1.2341 -0.9604
 5923SOL    HW229232   4.212   1.860   7.779  0.7894  0.1805 -0.3704
 5924SOL     OW29233   1.747   3.586  16.550  0.2552 -0.3585 -0.2082
 5924SOL    HW129234   1.742   3.510  16.492  0.5918 -0.0645 -0.6249
 5924SOL    HW229235   1.736   3.548  16.637  0.1167  1.1972  0.4556
 5925SOL     OW29236   2.518   4.430   3.091 -0.3421 -0.2731  0.6505
 5925SOL    HW129237   2.562   4.368   3.149 -1.1998 -0.4604  1.1086
 5925SOL    HW229238   2.509   4.505   3.150 -0.5124  0.8997 -0.8508
 5926SOL     OW29239   3.222   4.653  15.368  0.2439  0.6435  0.5783
 5926SOL    HW129240   3.240   4.716  15.437 -0.6032  0.5792  0.8551
 5926SOL    HW229241   3.278   4.670  15.292  1.2258  2.0174  1.5993
 5927SOL     OW29242   3.704   1.041  15.984 -0.0223  0.7047  0.5122
 5927SOL    HW129243   3.794   1.047  16.018  0.5347  1.9766 -1.1715
 5927SOL    HW229244   3.676   0.958  16.021 -2.3504  1.5675  0.6578
 5928SOL     OW29245   3.274   1.092   1.271 -0.4204  0.2600 -0.2565
 5928SOL    HW129246   3.236   1.079   1.184  1.1496 -2.8380 -0.4914
 5928SOL    HW229247   3.324   1.172   1.256  2.6734 -1.3155  1.8486
 5929SOL     OW29248   3.912   0.302   7.860  0.7603 -0.1091 -0.4515
 5929SOL    HW129249   3.878   0.215   7.839  0.2457  0.0851 -0.4392
 5929SOL    HW229250   3.949   0.324   7.775 -1.7487  0.7224 -1.3416
 5930SOL     OW29251   0.553   0.235  12.931 -0.0121 -0.5490 -0.0938
 5930SOL    HW129252   0.466   0.242  12.891 -0.0042  1.4056  0.2263
 5930SOL    HW229253   0.530   0.256  13.021  1.5376 -1.3291  0.4807
 5931SOL     OW29254   0.364   3.181  16.709 -0.7145 -0.1800  0.1557
 5931SOL    HW129255   0.364   3.139  16.623  1.6985  0.4293 -0.1447
 5931SOL    HW229256   0.279   3.150  16.739  0.9722 -2.3731  2.6519
 5932SOL     OW29257   2.215   0.412  15.929  0.3087 -0.1235 -0.7578
 5932SOL    HW129258   2.265   0.482  15.887  0.8051  0.4428  0.7765
 5932SOL    HW229259   2.203   0.358  15.851  1.7619 -0.7854 -0.5228
 5933SOL     OW29260   0.422   4.290   6.390  0.1901 -0.2940 -0.4903
 5933SOL    HW129261   0.381   4.316   6.308 -0.2027  0.0866 -0.1754
 5933SOL    HW229262   0.457   4.203   6.369 -0.3644 -0.8853  0.9799
 5934SOL     OW29263   0.697   0.834   6.907 -0.1504 -0.5806 -0.3323
 5934SOL    HW129264   0.700   0.846   6.812  0.4965  1.3407 -0.0687
 5934SOL    HW229265   0.604   0.847   6.923 -0.1225 -1.0292  0.1953
 5935SOL     OW29266   3.230   2.574   3.391  0.0856 -0.3249  0.0517
 5935SOL    HW129267   3.231   2.647   3.329 -1.6631 -0.5647 -0.2517
 5935SOL    HW229268   3.271   2.504   3.341  0.3978  0.4714 -0.8042
 5936SOL     OW29269   1.299   1.257  13.321  0.3093  0.3049 -0.7824
 5936SOL    HW129270   1.212   1.285  13.295 -0.4918  1.6715  3.3107
 5936SOL    HW229271   1.361   1.285  13.253  0.5777  0.2488 -0.5631
 5937SOL     OW29272   4.177   3.199   4.104 -0.2930 -0.3019  0.3836
 5937SOL    HW129273   4.143   3.152   4.180 -3.7848  0.9353 -0.3914
 5937SOL    HW229274   4.113   3.167   4.040 -0.6204  1.4488 -0.1595
 5938SOL     OW29275   4.241   0.404   8.029  0.1428 -0.5372  0.0012
 5938SOL    HW129276   4.204   0.480   8.074  0.3024 -0.1228 -0.5841
 5938SOL    HW229277   4.243   0.329   8.089  1.2658 -1.7215 -1.5283
 5939SOL     OW29278   0.693   2.227   6.046 -0.7228  0.0914  0.3138
 5939SOL    HW129279   0.676   2.183   6.129  0.7963  0.2513  0.7070
 5939SOL    HW229280   0.780   2.193   6.024 -1.1218 -0.6750 -0.0569
 5940SOL     OW29281   0.833   3.884   1.926  0.7255  0.5999  0.1376
 5940SOL    HW129282   0.916   3.932   1.925 -0.1129  2.0657  1.0849
 5940SOL    HW229283   0.769   3.952   1.904 -0.1315 -0.3251 -0.2083
 5941SOL     OW29284   4.177   2.229   7.333  0.2037  0.2579 -0.2028
 5941SOL    HW129285   4.214   2.169   7.267 -0.0913 -0.1817  0.0277
 5941SOL    HW229286   4.118   2.173   7.382 -1.3186  1.5349 -0.5827
 5942SOL     OW29287   3.253   1.130  12.402  0.0614  0.0176  0.7590
 5942SOL    HW129288   3.164   1.133  12.436 -0.6689  0.9043 -1.1935
 5942SOL    HW229289   3.276   1.223  12.401  1.2542 -0.2724  1.2880
 5943SOL     OW29290   2.577   2.825   8.083  0.1109 -0.0396  0.1380
 5943SOL    HW129291   2.663   2.856   8.110 -0.6027  2.1272 -0.0276
 5943SOL    HW229292   2.536   2.899   8.036  0.2582  0.1338  0.2840
 5944SOL     OW29293   1.000   4.078   0.753  0.3006  0.3713  0.0683
 5944SOL    HW129294   1.091   4.093   0.778  0.4526  0.3815 -0.5063
 5944SOL    HW229295   1.010   4.008   0.688  0.5970 -2.4617  3.1272
 5945SOL     OW29296   1.062   3.927  11.855 -0.3987  0.2178 -0.0285
 5945SOL    HW129297   1.020   3.980  11.787  1.4048  2.4702  0.6592
 5945SOL    HW229298   1.123   3.986  11.898  0.4428 -0.3215 -0.4880
 5946SOL     OW29299   4.038   1.766   4.864  0.3885 -0.0440 -0.1422
 5946SOL    HW129300   3.961   1.714   4.887 -1.7151  3.1541  0.0025
 5946SOL    HW229301   4.002   1.854   4.870 -3.3396 -1.4969 -1.0591
 5947SOL     OW29302   1.116   2.949   4.521 -0.4932  0.2666  0.2352
 5947SOL    HW129303   1.050   2.961   4.589 -1.0835  1.6246 -0.5942
 5947SOL    HW229304   1.151   2.863   4.544  1.0756  0.7311 -0.4481
 5948SOL     OW29305   1.057   4.509   7.716 -0.2317  0.3376  0.9869
 5948SOL    HW129306   0.985   4.487   7.657  2.2582 -0.6484 -1.6977
 5948SOL    HW229307   1.015   4.588   7.750  2.6123  1.8795  0.9997
 5949SOL     OW29308   3.542   1.455   3.190 -0.1705 -0.1817 -0.4904
 5949SOL    HW129309   3.573   1.378   3.142 -0.2171 -0.4406 -0.1128
 5949SOL    HW229310   3.509   1.499   3.112 -0.9428 -0.5491 -0.3700
 5950SOL     OW29311   2.468   1.122   6.865 -0.8195 -0.4965 -0.1934
 5950SOL    HW129312   2.559   1.134   6.891 -1.2440  0.5004  0.8180
 5950SOL    HW229313   2.463   1.074   6.782 -1.2000  0.6575 -0.8343
 5951SOL     OW29314   1.280   4.295   6.776 -0.1684 -0.4125 -0.1295
 5951SOL    HW129315   1.221   4.318   6.704  1.5241 -0.4460 -1.5260
 5951SOL    HW229316   1.220   4.301   6.850 -1.7860 -2.0481 -1.3099
 5952SOL     OW29317   0.391   2.970   7.476 -0.1952  0.0132 -0.2542
 5952SOL    HW129318   0.409   2.876   7.479  0.5712  0.1722  0.0501
 5952SOL    HW229319   0.481   2.992   7.501  0.3466 -0.1023 -2.1085
 5953SOL     OW29320   2.959   2.189   6.868  0.2480  0.2927  0.1720
 5953SOL    HW129321   3.002   2.209   6.785 -0.3884  0.3879 -0.1339
 5953SOL    HW229322   2.895   2.123   6.844 -0.7838  2.3106 -2.7544
 5954SOL     OW29323   0.612   0.109   6.426 -0.2045  0.3965 -0.3991
 5954SOL    HW129324   0.658   0.135   6.346  1.0042  1.9293  0.7960
 5954SOL    HW229325   0.671   0.042   6.458 -0.8651 -0.1376 -0.2921
 5955SOL     OW29326   3.667   0.640   4.220  0.2385  0.0364  0.0894
 5955SOL    HW129327   3.639   0.568   4.277 -0.6847  1.2593  1.1948
 5955SOL    HW229328   3.583   0.685   4.210  0.6477  1.0683  1.2177
 5956SOL     OW29329   3.493   1.978  14.431 -0.2065 -0.4699 -0.0229
 5956SOL    HW129330   3.413   2.013  14.470 -2.0587 -1.5037 -2.9215
 5956SOL    HW229331   3.539   1.948  14.510  1.9310 -0.6880 -1.3637
 5957SOL     OW29332   2.698   0.815   6.883 -0.1003  0.0168 -0.5998
 5957SOL    HW129333   2.642   0.753   6.838 -0.9560 -1.4611  2.5049
 5957SOL    HW229334   2.746   0.841   6.804  1.1413 -1.1060 -0.2058
 5958SOL     OW29335   4.471   1.725   2.675  0.1945  0.2477  0.3058
 5958SOL    HW129336   4.501   1.690   2.759 -0.3111  0.4187  0.5588
 5958SOL    HW229337   4.392   1.772   2.702 -0.2439  0.5356 -1.4635
 5959SOL     OW29338   3.795   2.667   6.837 -0.3766 -0.0058 -0.1602
 5959SOL    HW129339   3.772   2.608   6.909 -0.9051 -2.2251 -2.1178
 5959SOL    HW229340   3.770   2.749   6.879  0.6953  0.5811 -0.6876
 5960SOL     OW29341   2.439   2.815   2.587 -0.4595 -0.0615 -0.4340
 5960SOL    HW129342   2.399   2.730   2.569 -2.2867  1.1496 -2.0852
 5960SOL    HW229343   2.502   2.779   2.650 -1.6121  1.1702  1.4202
 5961SOL     OW29344   1.240   4.702   3.974 -0.0172  0.5477 -0.1926
 5961SOL    HW129345   1.166   4.648   4.002 -0.9802  1.8154 -0.3017
 5961SOL    HW229346   1.212   0.061   4.016 -1.6654 -1.2848  2.2965
 5962SOL     OW29347   0.348   2.814   7.790 -0.2575 -0.0376 -0.2296
 5962SOL    HW129348   0.278   2.752   7.767  0.7573 -0.8129 -1.2279
 5962SOL    HW229349   0.317   2.864   7.865  1.2170 -0.6422  0.7788
 5963SOL     OW29350   2.024   0.195   9.632 -0.2221  0.8915  0.5604
 5963SOL    HW129351   1.931   0.193   9.655 -0.4813 -1.4880 -0.6422
 5963SOL    HW229352   2.049   0.102   9.641 -0.5074  0.8760  1.1555
 5964SOL     OW29353   4.147   3.810   4.011  0.3780 -0.2602  0.2803
 5964SOL    HW129354   4.219   3.752   3.986 -1.4204 -1.8834 -1.2615
 5964SOL    HW229355   4.144   3.793   4.105 -0.3061 -3.4873 -0.3256
 5965SOL     OW29356   0.015   4.667   7.118 -0.8810 -0.4998 -0.1368
 5965SOL    HW129357   0.042   4.600   7.180 -0.2749  0.2726  0.4360
 5965SOL    HW229358   4.719   0.016   7.180 -2.0760  0.3648 -1.4675
 5966SOL     OW29359   3.319   1.409  15.404 -0.3699 -0.3969  0.1037
 5966SOL    HW129360   3.369   1.400  15.323  1.1406  1.3294  0.8436
 5966SOL    HW229361   3.253   1.474  15.378  1.7657  1.5022 -0.6038
 5967SOL     OW29362   0.103   4.619   4.937 -0.4839 -0.1213  0.0172
 5967SOL    HW129363   0.037   4.611   5.005  0.3944  1.7555  1.0953
 5967SOL    HW229364   0.110   4.715   4.937 -0.4513 -0.1237  0.0392
 5968SOL     OW29365   4.370   0.452   7.332 -0.4435  0.1722 -0.4220
 5968SOL    HW129366   4.363   0.392   7.258  2.4234 -0.3589 -0.2853
 5968SOL    HW229367   4.417   0.400   7.397  1.2040  0.4068 -1.4342
 5969SOL     OW29368   2.205   2.444   4.922 -0.4170 -0.2354 -0.4638
 5969SOL    HW129369   2.237   2.398   4.844  1.0701  0.5796 -0.3121
 5969SOL    HW229370   2.267   2.515   4.937  0.1522 -0.3124 -2.4970
 5970SOL     OW29371   4.308   3.807   7.681  0.4091 -0.2160  0.1813
 5970SOL    HW129372   4.234   3.763   7.722  1.8675 -2.0925  0.7932
 5970SOL    HW229373   4.379   3.745   7.694  0.8852  0.3953  0.5143
 5971SOL     OW29374   2.720   4.220  14.551  0.2486 -0.5572 -0.4178
 5971SOL    HW129375   2.758   4.219  14.464 -2.2922 -0.1384 -1.5436
 5971SOL    HW229376   2.766   4.160  14.609 -0.7870 -0.3173  0.6718
 5972SOL     OW29377   0.009   1.429   8.763 -0.2750 -0.2175  0.2932
 5972SOL    HW129378   4.702   1.503   8.711 -0.1293 -0.3538  0.0194
 5972SOL    HW229379   4.653   1.418   8.818 -0.4210  1.3619  0.3907
 5973SOL     OW29380   1.431   3.982   5.513  0.3898  0.2098 -0.2163
 5973SOL    HW129381   1.338   3.995   5.494 -0.3384 -0.2219  3.1518
 5973SOL    HW229382   1.431   3.932   5.594  0.7045  2.9901  1.5003
 5974SOL     OW29383   1.980   3.836   4.879  0.3416  0.1623  0.0515
 5974SOL    HW129384   1.997   3.768   4.944 -0.9837  0.7867  1.0568
 5974SOL    HW229385   1.909   3.810   4.819  0.8681  0.8390 -0.8739
 5975SOL     OW29386   4.601   0.049   3.135  0.0477  0.0456 -0.2687
 5975SOL    HW129387   4.619   0.030   3.227  0.9468  1.5426 -0.1362
 5975SOL    HW229388   4.689   0.065   3.100  1.0854 -0.7154  2.0171
 5976SOL     OW29389   3.193   4.446   6.740 -0.2094  0.2938 -0.2580
 5976SOL    HW129390   3.103   4.416   6.756  0.2130 -0.4811  0.6579
 5976SOL    HW229391   3.180   4.539   6.722  0.7903  0.7641  1.3965
 5977SOL     OW29392   3.921   3.980   5.101 -0.1133  0.2477 -0.0272
 5977SOL    HW129393   3.901   3.892   5.068 -0.2394  0.1044  0.4295
 5977SOL    HW229394   3.840   3.988   5.151 -0.8788  2.0026 -1.5394
 5978SOL     OW29395   2.233   4.384   3.312 -0.1952 -0.2458 -0.7850
 5978SOL    HW129396   2.169   4.454   3.298  0.1103  0.4021  1.1348
 5978SOL    HW229397   2.309   4.442   3.310 -0.3553 -0.0170 -0.2821
 5979SOL     OW29398   4.013   3.353   2.156 -0.2099 -0.0643  0.2802
 5979SOL    HW129399   4.049   3.275   2.197  1.6517  1.3923  1.4292
 5979SOL    HW229400   3.942   3.313   2.106  0.5500 -0.0416 -0.8272
 5980SOL     OW29401   3.017   0.567   8.767  0.5073 -0.0936 -0.5915
 5980SOL    HW129402   2.981   0.560   8.679 -1.0944 -0.8926  0.1379
 5980SOL    HW229403   3.111   0.580   8.753  0.9398 -3.2763 -0.5356
 5981SOL     OW29404   3.044   1.130   4.367 -0.3937  0.0110 -0.1671
 5981SOL    HW129405   3.064   1.180   4.446  1.4728  0.4394 -0.9268
 5981SOL    HW229406   3.111   1.062   4.373  0.0497  0.6055  1.5324
 5982SOL     OW29407   3.513   0.704   8.819  0.6246 -0.4668 -0.3747
 5982SOL    HW129408   3.432   0.676   8.776  1.0070 -1.4560 -0.4632
 5982SOL    HW229409   3.554   0.627   8.858  0.9215  0.2929  0.8085
 5983SOL     OW29410   1.478   0.935   0.529  0.0387 -0.3372  1.1298
 5983SOL    HW129411   1.479   0.921   0.434  1.7468 -0.2469  1.1310
 5983SOL    HW229412   1.550   0.876   0.551  1.0871  1.3223  2.1282
 5984SOL     OW29413   4.225   2.480   4.180 -0.0214  0.3325  0.1051
 5984SOL    HW129414   4.298   2.437   4.224  0.8479  1.9628  0.2341
 5984SOL    HW229415   4.223   2.433   4.097  1.5590  1.8363 -0.7708
 5985SOL     OW29416   0.300   1.744   5.997 -0.9550 -0.0493 -0.2432
 5985SOL    HW129417   0.395   1.727   5.997 -0.4276  2.8693 -1.2070
 5985SOL    HW229418   0.275   1.686   6.068 -0.0223  0.5390  0.5775
 5986SOL     OW29419   4.336   1.745   9.599 -0.3342 -0.0590 -0.6491
 5986SOL    HW129420   4.322   1.675   9.536  2.9629  0.1998 -1.6730
 5986SOL    HW229421   4.432   1.745   9.597 -0.3897 -3.4633 -2.8838
 5987SOL     OW29422   1.116   1.473   8.289  0.3025 -0.1895 -0.4909
 5987SOL    HW129423   1.045   1.496   8.349 -2.0030 -3.6080 -1.9111
 5987SOL    HW229424   1.141   1.384   8.315 -0.1109  0.1928  1.2054
 5988SOL     OW29425   4.279   4.662   8.381 -0.0945  0.2587  0.1626
 5988SOL    HW129426   4.226   4.707   8.447  1.0422 -0.3470  1.4793
 5988SOL    HW229427   4.222   4.621   8.317  0.3082 -0.4933  0.2931
 5989SOL     OW29428   4.569   1.198   6.507  0.3884 -0.1286 -0.0998
 5989SOL    HW129429   4.536   1.288   6.507  2.4917  0.6202  1.5467
 5989SOL    HW229430   4.504   1.144   6.552 -0.9623  1.4921 -0.1101
 5990SOL     OW29431   1.390   3.861   6.481 -0.0831  0.1618 -0.1485
 5990SOL    HW129432   1.458   3.888   6.543 -1.9443 -1.3401  2.5510
 5990SOL    HW229433   1.432   3.780   6.453  0.4592  0.0707  0.9443
 5991SOL     OW29434   3.583   4.712   7.332 -0.2334 -0.1913  0.2403
 5991SOL    HW129435   3.648   0.054   7.304 -0.0781  0.6236  2.4115
 5991SOL    HW229436   3.536   4.701   7.250 -3.2076 -2.3656  2.2194
 5992SOL     OW29437   0.219   4.483   9.525  0.5520  0.3266 -0.3743
 5992SOL    HW129438   0.238   4.516   9.437  0.3501 -0.3424 -0.6651
 5992SOL    HW229439   0.137   4.528   9.547  0.5816  0.3727 -0.3580
 5993SOL     OW29440   4.475   4.483   0.730 -0.7236  0.2693 -0.4334
 5993SOL    HW129441   4.501   4.573   0.751 -2.7704  0.3489  1.7443
 5993SOL    HW229442   4.444   4.486   0.639  0.2557 -2.5268 -0.8564
 5994SOL     OW29443   1.201   1.520   3.419 -0.2575  0.1360 -0.4637
 5994SOL    HW129444   1.268   1.573   3.461  1.3801 -1.0667 -1.5429
 5994SOL    HW229445   1.127   1.555   3.467  0.2027 -0.2828  0.5448
 5995SOL     OW29446   3.138   1.783   8.884  0.0333 -0.1033  0.1919
 5995SOL    HW129447   3.077   1.808   8.953 -0.9366  1.6656 -1.3046
 5995SOL    HW229448   3.079   1.763   8.811 -0.3877 -0.3740  0.6086
 5996SOL     OW29449   1.045   1.114   6.357  0.0899 -0.0816 -0.5007
 5996SOL    HW129450   1.014   1.193   6.312 -0.4434  0.0872  0.1517
 5996SOL    HW229451   1.046   1.138   6.450 -1.3748  0.3700 -0.6060
 5997SOL     OW29452   1.102   4.610   5.318 -0.0550  0.5313  0.1729
 5997SOL    HW129453   1.059   4.601   5.402  1.7607 -1.1011  0.9345
 5997SOL    HW229454   1.142   4.524   5.305 -0.6066 -0.1547  3.1020
 5998SOL     OW29455   3.572   1.434   7.588  0.3647 -0.4323  0.2857
 5998SOL    HW129456   3.555   1.378   7.513 -1.7938  1.0683 -0.3468
 5998SOL    HW229457   3.614   1.507   7.544  0.3961  0.1585  1.2856
 5999SOL     OW29458   0.957   1.057  12.178  0.3461  0.3007  0.6080
 5999SOL    HW129459   0.992   0.990  12.119 -3.5829 -0.0066 -1.3921
 5999SOL    HW229460   1.032   1.111  12.205 -0.8443  1.7716  0.9465
 6000SOL     OW29461   1.943   4.118  17.680  0.6008 -0.0022  0.6686
 6000SOL    HW129462   1.883   4.190  17.661  3.6335  2.5723  0.8375
 6000SOL    HW229463   2.005   4.157   0.050  2.2965  2.3072 -2.5901
 6001SOL     OW29464   0.441   1.877   1.508 -0.3126  0.4864  0.0415
 6001SOL    HW129465   0.483   1.963   1.509  0.8790 -0.0788 -1.3164
 6001SOL    HW229466   0.369   1.913   1.456  1.0232  1.0375 -1.4288
 6002SOL     OW29467   3.440   4.532   7.110  0.4086 -0.0362 -0.1495
 6002SOL    HW129468   3.352   4.569   7.103 -1.2543 -4.0268 -0.0892
 6002SOL    HW229469   3.424   4.462   7.047 -0.8175 -0.7891  0.9821
 6003SOL     OW29470   1.657   0.132   6.953  0.0527 -0.1337 -0.2842
 6003SOL    HW129471   1.575   0.152   6.908  0.5675 -0.5883 -1.4213
 6003SOL    HW229472   1.640   0.043   6.985 -0.4252  0.2701  0.5689
 6004SOL     OW29473   0.682   4.656   6.124 -0.2407  0.3590 -0.5678
 6004SOL    HW129474   0.692   4.608   6.042  1.0745 -0.1250 -0.1257
 6004SOL    HW229475   0.626   4.585   6.154 -1.0839  1.4041  0.3512
 6005SOL     OW29476   0.835   0.301   7.639 -0.0739  0.4822  0.4445
 6005SOL    HW129477   0.894   0.322   7.711 -1.5096 -0.9335  2.0470
 6005SOL    HW229478   0.753   0.316   7.686  0.5012 -1.1287  1.9713
 6006SOL     OW29479   4.562   1.171   7.198 -0.2309 -0.2412  0.0420
 6006SOL    HW129480   4.650   1.135   7.185  0.2972  0.8242  0.6706
 6006SOL    HW229481   4.504   1.095   7.189 -0.6978  0.1999 -0.6842
 6007SOL     OW29482   3.201   0.903   4.391  0.2462  0.1044 -0.1379
 6007SOL    HW129483   3.195   0.811   4.415 -0.7342  0.3268  0.4376
 6007SOL    HW229484   3.192   0.897   4.296  0.0737  0.0868 -0.1212
 6008SOL     OW29485   0.688   4.157   4.520  0.5766  0.0145  0.4944
 6008SOL    HW129486   0.635   4.229   4.487 -0.2378  0.7845  3.4623
 6008SOL    HW229487   0.705   4.103   4.443  1.4281  2.1700 -0.8330
 6009SOL     OW29488   1.179   3.865   6.708 -0.6467  0.2463 -0.0964
 6009SOL    HW129489   1.102   3.892   6.758 -0.9572 -1.0677  0.1272
 6009SOL    HW229490   1.235   3.940   6.725 -0.6227 -0.1652  1.5621
 6010SOL     OW29491   0.230   3.503   8.529  0.2749  1.1047 -0.2568
 6010SOL    HW129492   0.296   3.460   8.585 -1.1741 -1.4177 -0.4802
 6010SOL    HW229493   0.161   3.511   8.595  1.1766 -1.1836  0.9938
 6011SOL     OW29494   0.145   3.715  14.394  0.1273  0.1917 -0.0377
 6011SOL    HW129495   0.106   3.665  14.465 -0.7350  0.7971 -0.0949
 6011SOL    HW229496   0.135   3.804  14.427  0.6146  1.3095 -2.9084
 6012SOL     OW29497   1.263   1.914   0.217  0.5964 -0.5891  0.5421
 6012SOL    HW129498   1.325   1.949   0.282  1.4136  0.8838 -1.0452
 6012SOL    HW229499   1.317   1.901   0.139  1.7568  1.8763  0.9502
 6013SOL     OW29500   1.742   4.042   7.545  0.0049 -0.1575 -0.5043
 6013SOL    HW129501   1.723   3.949   7.534 -1.3193 -0.1149  1.4215
 6013SOL    HW229502   1.662   4.050   7.597  1.0599  0.8296  0.9629
 6014SOL     OW29503   4.353   2.084  12.993  0.1107  0.2740  0.3096
 6014SOL    HW129504   4.334   2.175  12.969 -1.5177 -0.8873 -2.8635
 6014SOL    HW229505   4.384   2.098  13.082  0.6867 -1.7532  0.4258
 6015SOL     OW29506   1.740   3.209  15.594 -0.3386  0.6939 -0.0034
 6015SOL    HW129507   1.661   3.214  15.540  0.2642 -0.3638 -0.9916
 6015SOL    HW229508   1.702   3.220  15.681 -0.0540  0.5024  0.1448
 6016SOL     OW29509   3.140   4.117   9.215 -0.3924  0.4449 -0.3455
 6016SOL    HW129510   3.056   4.155   9.187  0.2455  1.1157 -1.3558
 6016SOL    HW229511   3.121   4.029   9.182  1.4813  0.2966 -1.0491
 6017SOL     OW29512   3.607   1.618   3.603  0.0541  0.0691 -0.2766
 6017SOL    HW129513   3.514   1.639   3.617 -0.3624 -2.0727  0.1041
 6017SOL    HW229514   3.645   1.578   3.681 -4.0596  1.9324  2.7350
 6018SOL     OW29515   2.274   1.037   4.356  0.3886  0.3770  0.0964
 6018SOL    HW129516   2.201   1.003   4.303 -1.7240  1.9483  1.9973
 6018SOL    HW229517   2.350   1.042   4.297  0.5083 -1.7075  0.0494
 6019SOL     OW29518   1.923   4.255   8.142 -0.0784 -0.0082  0.3972
 6019SOL    HW129519   1.943   4.338   8.185 -0.8120  0.9670 -1.1563
 6019SOL    HW229520   1.992   4.196   8.173  2.2136  2.1101 -0.7787
 6020SOL     OW29521   1.363   0.082   4.943  0.3938  0.5119 -0.1129
 6020SOL    HW129522   1.380   0.006   4.999 -1.1923  0.6424  0.5389
 6020SOL    HW229523   1.412   0.050   4.867 -2.5799 -0.6234 -1.5480
 6021SOL     OW29524   1.006   0.448   0.388 -0.1963  0.6899  0.4293
 6021SOL    HW129525   0.953   0.482   0.316 -1.5367  1.5229  1.7996
 6021SOL    HW229526   1.027   0.357   0.366 -0.4180  0.8672 -0.4825
 6022SOL     OW29527   2.077   1.814   4.751  0.0538 -0.1370  0.0553
 6022SOL    HW129528   2.006   1.795   4.691 -1.6569  0.1658  1.9872
 6022SOL    HW229529   2.143   1.751   4.725  1.1776 -0.1050  2.7760
 6023SOL     OW29530   4.076   2.660   5.584  0.3281 -0.1567  0.1460
 6023SOL    HW129531   4.129   2.605   5.642  1.2700  3.0922  2.4236
 6023SOL    HW229532   4.070   2.738   5.640 -1.3358  0.1586 -0.4648
 6024SOL     OW29533   2.929   2.331  10.211 -0.3451 -0.2884  0.6142
 6024SOL    HW129534   2.934   2.401  10.277  0.8617  0.3541 -0.1650
 6024SOL    HW229535   3.001   2.274  10.236  1.1229  0.9648 -0.8368
 6025SOL     OW29536   1.763   3.022   2.515  0.0902 -0.5234 -0.3242
 6025SOL    HW129537   1.743   3.067   2.433  1.3888  1.4704  0.4336
 6025SOL    HW229538   1.677   2.994   2.546  0.3977 -1.4644 -0.3428
 6026SOL     OW29539   0.812   1.134   4.855 -0.1870  0.0852  0.0774
 6026SOL    HW129540   0.754   1.201   4.820 -1.1420 -0.1953  1.1292
 6026SOL    HW229541   0.772   1.112   4.939 -0.6244  1.1724  0.1469
 6027SOL     OW29542   2.165   1.103   5.016 -0.2918 -0.3944 -0.2454
 6027SOL    HW129543   2.084   1.056   5.035 -0.3679  0.4126  1.3992
 6027SOL    HW229544   2.215   1.040   4.964  1.3942  0.8966 -0.1794
 6028SOL     OW29545   3.516   4.137  12.884 -0.5698 -0.0714  0.1306
 6028SOL    HW129546   3.510   4.070  12.815 -0.9920  1.0562 -0.9355
 6028SOL    HW229547   3.607   4.162  12.875 -0.0816 -1.1524  2.0784
 6029SOL     OW29548   2.726   3.428   3.817 -0.2915 -0.5088 -0.0298
 6029SOL    HW129549   2.783   3.491   3.861 -0.7443  1.7474 -2.7123
 6029SOL    HW229550   2.783   3.400   3.746  0.2298  0.1938  0.1184
 6030SOL     OW29551   0.294   0.820   0.269 -0.4802  0.0947 -0.1463
 6030SOL    HW129552   0.309   0.828   0.363 -0.4053 -0.9356 -0.0672
 6030SOL    HW229553   0.302   0.911   0.241  1.9184  0.2658  1.0834
 6031SOL     OW29554   4.642   0.593   5.947  0.0681 -0.4792  0.2148
 6031SOL    HW129555   4.600   0.671   5.909  2.0680  0.5593  0.1451
 6031SOL    HW229556   0.013   0.615   5.944 -0.0928  0.0051 -1.5762
 6032SOL     OW29557   2.123   2.152  15.464  0.4041  0.1472  0.0755
 6032SOL    HW129558   2.186   2.172  15.533  0.2539  4.4439 -1.0111
 6032SOL    HW229559   2.038   2.159  15.508  0.4440 -1.0383  0.3419
 6033SOL     OW29560   2.583   3.744   4.795 -0.0543 -0.4897 -0.1084
 6033SOL    HW129561   2.513   3.785   4.743 -0.3730 -1.5520 -0.5147
 6033SOL    HW229562   2.572   3.654   4.767  2.4144 -0.7112 -0.3030
 6034SOL     OW29563   3.677   4.564   3.814 -0.1484 -0.0718 -0.1077
 6034SOL    HW129564   3.602   4.545   3.758  0.4626  0.4054 -1.0971
 6034SOL    HW229565   3.682   4.659   3.801  1.3358 -0.1309  0.0265
 6035SOL     OW29566   3.704   1.840  12.369  0.1120 -0.1354 -0.5436
 6035SOL    HW129567   3.729   1.748  12.378  0.4790 -0.0921 -1.0949
 6035SOL    HW229568   3.776   1.876  12.421 -0.8446  0.8960  0.0645
 6036SOL     OW29569   1.261   4.655   1.973 -0.9367  0.2932 -0.0506
 6036SOL    HW129570   1.347   4.623   1.947 -0.6411 -0.8646  2.4563
 6036SOL    HW229571   1.280   4.675   2.064 -0.6539  0.4405 -0.1413
 6037SOL     OW29572   1.613   3.148  11.178 -0.1904 -0.2917 -0.2686
 6037SOL    HW129573   1.690   3.093  11.166  0.8751  1.3257 -0.7629
 6037SOL    HW229574   1.596   3.167  11.086 -0.1917 -1.4946 -0.5113
 6038SOL     OW29575   2.052   4.657   2.623  0.1310 -0.4771  0.3714
 6038SOL    HW129576   1.976   4.692   2.671  0.1145 -3.1411  2.2631
 6038SOL    HW229577   2.084   4.584   2.676  1.1713  0.0962  0.5259
 6039SOL     OW29578   1.691   3.314   2.728  0.3231  0.3352  0.2046
 6039SOL    HW129579   1.604   3.340   2.699  0.2192  0.0114  0.2238
 6039SOL    HW229580   1.743   3.391   2.703 -0.3609  0.8892  0.4903
 6040SOL     OW29581   2.132   2.217  14.348  0.7441 -0.6274 -0.5338
 6040SOL    HW129582   2.073   2.285  14.315  1.7578  0.8292  0.6012
 6040SOL    HW229583   2.070   2.148  14.371 -0.3328  0.3147 -0.6130
 6041SOL     OW29584   3.752   0.035   4.872  0.5969  0.8445 -0.0456
 6041SOL    HW129585   3.804   0.112   4.852  1.6633  0.3893  0.9832
 6041SOL    HW229586   3.696   0.032   4.794 -2.2628  2.6636  1.9572
 6042SOL     OW29587   4.383   2.294   9.556 -0.0543  0.2275  0.3146
 6042SOL    HW129588   4.294   2.322   9.577  0.2610  0.4534  1.3474
 6042SOL    HW229589   4.386   2.314   9.462  1.1743 -1.1874  0.0561
 6043SOL     OW29590   2.084   3.696   1.531  0.2138  0.5182 -0.3567
 6043SOL    HW129591   2.164   3.719   1.580  1.1559  0.1874 -1.7443
 6043SOL    HW229592   2.063   3.776   1.482  3.0537  2.4238  1.4964
 6044SOL     OW29593   1.143   4.683  12.256 -0.5099 -0.6225 -0.5371
 6044SOL    HW129594   1.181   4.691  12.169  0.8577 -1.8481 -0.0631
 6044SOL    HW229595   1.208   4.620  12.286  0.6399  0.1547 -1.4126
 6045SOL     OW29596   2.008   0.273   2.345  0.0895 -0.5829  0.0603
 6045SOL    HW129597   2.035   0.309   2.430  0.1436 -0.1671 -0.1333
 6045SOL    HW229598   2.024   0.356   2.299 -2.4552 -0.6368 -0.8886
 6046SOL     OW29599   2.097   3.279   0.316 -0.5728 -0.1775  0.0506
 6046SOL    HW129600   2.028   3.264   0.380  0.5821 -0.2675  1.2792
 6046SOL    HW229601   2.128   3.189   0.305  1.8307  0.4868  1.5294
 6047SOL     OW29602   2.417   0.490   5.603  0.2261 -0.2371 -0.4898
 6047SOL    HW129603   2.457   0.556   5.546 -0.3819  0.1602 -0.4556
 6047SOL    HW229604   2.393   0.546   5.676 -1.8370 -1.6855 -0.0363
 6048SOL     OW29605   2.109   2.875   2.219  0.1684 -0.0752  0.3066
 6048SOL    HW129606   2.122   2.970   2.216  1.3180 -0.2315  0.4275
 6048SOL    HW229607   2.074   2.870   2.308 -1.9934 -2.7392 -0.6718
 6049SOL     OW29608   2.529   2.953   7.748  0.6870  0.1469 -0.3173
 6049SOL    HW129609   2.492   3.003   7.822  0.1548 -2.0156  0.8745
 6049SOL    HW229610   2.560   3.024   7.692  0.8939  0.2763 -0.0422
 6050SOL     OW29611   2.568   2.372  12.859  0.2025  0.3820  0.6287
 6050SOL    HW129612   2.647   2.383  12.808 -0.7890  2.0478 -0.5383
 6050SOL    HW229613   2.530   2.293  12.819  2.4616 -0.9535  1.1234
 6051SOL     OW29614   1.516   0.425   4.098  0.1464 -0.0510 -0.0177
 6051SOL    HW129615   1.605   0.428   4.060 -0.3907 -1.9640 -1.4476
 6051SOL    HW229616   1.476   0.490   4.040 -2.8960 -1.3785  0.5891
 6052SOL     OW29617   3.147   0.862   3.286 -0.0499 -0.1896 -0.1155
 6052SOL    HW129618   3.181   0.773   3.280  0.9277  0.3276 -2.3103
 6052SOL    HW229619   3.119   0.864   3.378 -1.9999  0.6576 -0.7242
 6053SOL     OW29620   0.137   1.050  16.459 -0.8270 -0.4541 -0.1965
 6053SOL    HW129621   0.050   1.050  16.499 -1.2941 -1.2709 -1.2166
 6053SOL    HW229622   0.174   0.976  16.506  0.8353  0.5596  0.1086
 6054SOL     OW29623   4.135   3.409  16.169 -0.1850  0.4432  0.4433
 6054SOL    HW129624   4.187   3.469  16.222 -0.1085 -0.4304  1.3551
 6054SOL    HW229625   4.200   3.375  16.108 -0.4865  0.8484 -0.1010
 6055SOL     OW29626   0.922   2.095  16.877 -0.2270  0.3860 -0.2855
 6055SOL    HW129627   1.005   2.113  16.919  1.0737 -2.7263 -1.4835
 6055SOL    HW229628   0.954   2.062  16.793  1.8813 -0.2308  0.7548
 6056SOL     OW29629   4.564   2.687   8.546 -0.7611  0.1595 -0.2381
 6056SOL    HW129630   4.478   2.728   8.534 -0.7825  1.1494  3.2649
 6056SOL    HW229631   4.615   2.767   8.561 -1.6002  0.1600  2.6305
 6057SOL     OW29632   3.942   1.466   8.107 -0.5192  0.6849 -0.0578
 6057SOL    HW129633   4.024   1.421   8.086 -0.4520 -0.1051  1.9223
 6057SOL    HW229634   3.962   1.513   8.188  0.2211  0.9045 -0.3705
 6058SOL     OW29635   3.925   0.520  13.210  0.3748  0.1142  0.4711
 6058SOL    HW129636   4.013   0.524  13.248  0.9443 -0.0972 -0.8386
 6058SOL    HW229637   3.920   0.440  13.158 -0.2906  0.8532 -0.5970
 6059SOL     OW29638   4.290   2.512   1.853  0.2030 -0.4862 -0.0133
 6059SOL    HW129639   4.320   2.482   1.767  2.0066 -1.8217  1.0731
 6059SOL    HW229640   4.251   2.433   1.891 -2.2033  0.6652 -0.0612
 6060SOL     OW29641   1.349   3.396   9.041  0.4187 -1.2852  0.5218
 6060SOL    HW129642   1.292   3.358   9.108 -1.2459 -2.4490 -1.5543
 6060SOL    HW229643   1.353   3.488   9.065  0.0337 -0.8817 -0.9952
 6061SOL     OW29644   1.570   0.766   4.069  0.7296 -0.1376 -0.6763
 6061SOL    HW129645   1.515   0.841   4.091  3.4932  2.4392 -2.3854
 6061SOL    HW229646   1.507   0.695   4.068  0.5009  0.0698 -1.7667
 6062SOL     OW29647   2.234   1.919   8.671  0.6421 -0.0918  0.3828
 6062SOL    HW129648   2.247   1.894   8.762 -2.0558 -1.1448  0.4793
 6062SOL    HW229649   2.156   1.866   8.654  0.1805  0.7463 -0.1040
 6063SOL     OW29650   4.642   0.632   2.021 -0.3234  0.1498 -0.1502
 6063SOL    HW129651   4.608   0.547   1.992 -0.2677 -0.2993  1.1333
 6063SOL    HW229652   4.594   0.645   2.103  0.9051  0.7725  0.4642
 6064SOL     OW29653   2.324   3.213   2.694 -0.4512 -0.4596 -0.0537
 6064SOL    HW129654   2.230   3.228   2.703 -0.2559  0.6242  0.1864
 6064SOL    HW229655   2.339   3.155   2.620 -0.1937  0.6771 -0.8887
 6065SOL     OW29656   2.311   0.044   7.005 -0.4887 -0.1356  0.2694
 6065SOL    HW129657   2.260   4.688   7.026 -2.0396  0.1487 -2.4556
 6065SOL    HW229658   2.371   0.051   7.079  1.0245 -3.6900 -0.6093
 6066SOL     OW29659   0.734   2.368   3.114 -0.1768  0.2372  0.0567
 6066SOL    HW129660   0.793   2.443   3.110  1.9088 -1.3160  1.7416
 6066SOL    HW229661   0.652   2.408   3.143  1.2402  1.6850  2.0234
 6067SOL     OW29662   2.918   1.793   6.787  0.6524  0.0318  0.3661
 6067SOL    HW129663   2.826   1.766   6.788  1.2693 -2.1053 -0.5575
 6067SOL    HW229664   2.905   1.867   6.845 -0.2706  0.3060 -0.1955
 6068SOL     OW29665   3.517   4.319   9.175 -0.7308  0.0552 -0.0850
 6068SOL    HW129666   3.448   4.380   9.201 -1.2906 -0.2819 -0.7468
 6068SOL    HW229667   3.562   4.319   9.259  0.7669  0.9908 -0.8782
 6069SOL     OW29668   4.429   1.731   5.878 -0.6945  0.3505 -0.2684
 6069SOL    HW129669   4.366   1.743   5.807  0.7049 -0.1158 -1.5977
 6069SOL    HW229670   4.392   1.650   5.914 -1.4788  0.4098 -0.9437
 6070SOL     OW29671   0.025   2.798   7.598 -0.4699 -0.3264  0.1404
 6070SOL    HW129672   0.080   2.792   7.520 -1.8463 -3.5472 -0.6105
 6070SOL    HW229673   4.658   2.806   7.563 -0.4757  0.8988  0.4408
 6071SOL     OW29674   0.252   2.102   6.770 -0.1279  0.4134 -0.3104
 6071SOL    HW129675   0.303   2.178   6.798  0.6225 -0.1567 -0.1240
 6071SOL    HW229676   0.270   2.054   6.851  1.7551  1.3768 -0.1424
 6072SOL     OW29677   2.374   1.892   3.885  0.1772  0.1686  0.0545
 6072SOL    HW129678   2.457   1.909   3.842 -0.9241 -2.6743 -3.2128
 6072SOL    HW229679   2.317   1.960   3.849 -1.0840 -0.1028  1.5040
 6073SOL     OW29680   4.699   3.543   7.553 -0.3949  0.1307 -0.6127
 6073SOL    HW129681   0.065   3.579   7.539 -0.2474  0.0065 -0.0124
 6073SOL    HW229682   4.716   3.449   7.545 -0.9801  0.1215 -1.8670
 6074SOL     OW29683   3.740   4.472  17.483 -0.2968  0.1450  0.0260
 6074SOL    HW129684   3.773   4.393  17.440  1.8300  1.3311 -0.5593
 6074SOL    HW229685   3.739   4.536  17.412  0.7721 -0.9739 -0.9959
 6075SOL     OW29686   1.637   3.939   5.330 -0.1969  0.2995  0.1847
 6075SOL    HW129687   1.660   3.854   5.370 -1.3321 -0.5362 -0.9636
 6075SOL    HW229688   1.552   3.953   5.371 -0.6349 -1.1830 -0.1857
 6076SOL     OW29689   3.220   1.930  12.835  0.0758  0.0322 -0.7786
 6076SOL    HW129690   3.155   1.998  12.851  0.2324 -0.5131  2.1082
 6076SOL    HW229691   3.297   1.963  12.881 -0.6807  0.2578  0.3093
 6077SOL     OW29692   4.705   3.467   9.855 -0.0606  0.1555 -0.3434
 6077SOL    HW129693   4.658   3.500   9.932  0.2705 -0.2784  0.0491
 6077SOL    HW229694   0.012   3.550   9.817 -0.6868  0.6895  0.3459
 6078SOL     OW29695   3.805   2.570   8.343  0.3812  0.0588 -0.5126
 6078SOL    HW129696   3.772   2.570   8.254 -0.1765 -2.2231 -0.3041
 6078SOL    HW229697   3.758   2.497   8.382 -0.4551  0.6942 -0.3290
 6079SOL     OW29698   4.447   1.181   4.395  0.0117  0.3915  0.1720
 6079SOL    HW129699   4.378   1.117   4.379 -0.6985  1.1851  0.0862
 6079SOL    HW229700   4.489   1.135   4.467  0.5848 -0.3957 -0.6629
 6080SOL     OW29701   4.665   4.459   9.682 -0.7565 -0.0655 -0.4366
 6080SOL    HW129702   4.589   4.497   9.725 -1.2724  0.2540 -1.6352
 6080SOL    HW229703   4.691   4.540   9.639  2.7421 -0.7166  0.3764
 6081SOL     OW29704   1.520   0.325   2.324 -0.7479  0.2710 -0.1769
 6081SOL    HW129705   1.522   0.368   2.409 -1.0074 -1.0268  0.4899
 6081SOL    HW229706   1.602   0.279   2.342  1.2415  2.6297 -3.0868
 6082SOL     OW29707   2.046   0.575  12.968  0.0865  0.4979  0.5184
 6082SOL    HW129708   1.988   0.611  13.036  0.2563  0.2931  0.7713
 6082SOL    HW229709   1.980   0.567  12.899  1.6837  0.0063 -0.9442
 6083SOL     OW29710   1.353   1.753   7.800  0.1483  0.4649 -0.6497
 6083SOL    HW129711   1.426   1.733   7.858 -1.2611 -0.2947  0.8702
 6083SOL    HW229712   1.381   1.734   7.711  2.2871 -0.5811  0.2612
 6084SOL     OW29713   2.790   3.407   5.109 -0.3050  0.2293  0.2590
 6084SOL    HW129714   2.854   3.336   5.103 -0.4183 -0.0720  2.6243
 6084SOL    HW229715   2.779   3.435   5.019  2.7481  3.2816  0.8533
 6085SOL     OW29716   3.785   1.352   0.472 -0.3046  0.0607 -0.3070
 6085SOL    HW129717   3.878   1.349   0.493 -0.9691  0.2017  2.6784
 6085SOL    HW229718   3.782   1.398   0.388  1.3272  1.5875  0.4605
 6086SOL     OW29719   2.650   4.330   2.839  0.4484  0.0343  0.1948
 6086SOL    HW129720   2.666   4.275   2.762  0.0669  0.0023  0.1352
 6086SOL    HW229721   2.710   4.300   2.906 -0.9285  1.9463  2.2572
 6087SOL     OW29722   3.893   1.817   9.271  0.1857  0.3043 -0.2155
 6087SOL    HW129723   3.891   1.748   9.205 -2.2297  0.7367 -0.6239
 6087SOL    HW229724   3.798   1.829   9.275  0.3821  1.1771  1.9363
 6088SOL     OW29725   2.624   3.874   2.190 -0.0556  0.0407 -0.0885
 6088SOL    HW129726   2.551   3.933   2.207 -0.8172 -0.9331 -0.0468
 6088SOL    HW229727   2.687   3.941   2.219 -0.7226  1.0914 -1.0493
 6089SOL     OW29728   2.389   0.289  16.140  0.3998  0.1651 -0.3142
 6089SOL    HW129729   2.337   0.217  16.175  3.0849 -0.5769  2.2183
 6089SOL    HW229730   2.322   0.337  16.091  1.3319  1.5837 -0.1857
 6090SOL     OW29731   0.067   2.986  10.063  0.0455  0.0787 -0.1818
 6090SOL    HW129732   0.128   3.040  10.113  1.7452 -1.7072 -0.3485
 6090SOL    HW229733   0.050   3.039   9.986 -1.6483  1.6708  1.2787
 6091SOL     OW29734   2.965   4.099   4.525  0.2886 -0.5226  0.0176
 6091SOL    HW129735   2.929   4.123   4.610  0.1560 -1.3555  0.1971
 6091SOL    HW229736   2.891   4.054   4.483 -0.5237 -1.1197  2.1112
 6092SOL     OW29737   2.400   3.571   7.109  0.2290  0.0477 -0.5344
 6092SOL    HW129738   2.464   3.527   7.054  1.1075  0.6763 -0.0185
 6092SOL    HW229739   2.444   3.655   7.122 -1.4115  0.7998  0.1892
 6093SOL     OW29740   0.579   0.716   7.973  0.1540  0.7404  0.5727
 6093SOL    HW129741   0.660   0.756   8.005 -0.5808  1.6504  1.3041
 6093SOL    HW229742   0.596   0.623   7.958  0.0834  1.2865 -2.7244
 6094SOL     OW29743   0.173   2.146   1.769  0.3728  0.0034  0.0391
 6094SOL    HW129744   0.265   2.133   1.790 -0.0454 -1.6626  0.7989
 6094SOL    HW229745   0.168   2.098   1.687 -0.5616 -1.3846  0.8966
 6095SOL     OW29746   3.385   2.384   5.602  0.4390 -0.5939  0.0849
 6095SOL    HW129747   3.348   2.441   5.535  1.8353  0.4583  0.1907
 6095SOL    HW229748   3.420   2.309   5.553  1.1752 -1.4038  1.8321
 6096SOL     OW29749   1.496   1.437   7.658  0.1059  0.2308  0.1099
 6096SOL    HW129750   1.401   1.445   7.655 -0.0256 -1.6727 -0.6638
 6096SOL    HW229751   1.519   1.451   7.750 -1.4054 -0.6073  0.6190
 6097SOL     OW29752   2.678   3.489   8.698 -0.3655 -0.2625  0.1903
 6097SOL    HW129753   2.599   3.501   8.644 -0.7522  0.9316  1.0221
 6097SOL    HW229754   2.644   3.444   8.775  0.8399 -0.3433  0.6660
 6098SOL     OW29755   4.206   1.446   4.849  0.0901 -0.3711  0.0342
 6098SOL    HW129756   4.153   1.429   4.927  0.3594 -0.0279  0.2945
 6098SOL    HW229757   4.237   1.534   4.872 -0.0115  0.0751 -1.5746
 6099SOL     OW29758   1.339   0.689   3.532  0.1159  0.4700 -0.4000
 6099SOL    HW129759   1.345   0.784   3.528  1.1841  0.3220 -2.5987
 6099SOL    HW229760   1.317   0.676   3.624 -0.2088  1.0697 -0.3935
 6100SOL     OW29761   0.155   4.286   8.609  0.2337  0.0924  0.0304
 6100SOL    HW129762   0.153   4.209   8.665 -0.7156 -0.4198 -0.7047
 6100SOL    HW229763   0.235   4.271   8.559 -0.4599 -1.9621 -0.4513
 6101SOL     OW29764   1.285   2.418   5.437 -0.3687 -1.1245 -0.1369
 6101SOL    HW129765   1.227   2.343   5.423 -1.3992 -0.3646  0.0362
 6101SOL    HW229766   1.356   2.384   5.492  0.7147  0.9099 -0.2665
 6102SOL     OW29767   0.432   2.513  10.819  0.4063  0.3376 -0.4509
 6102SOL    HW129768   0.526   2.519  10.836 -0.0038  1.3873  1.5172
 6102SOL    HW229769   0.412   2.432  10.866  1.1986 -0.1510 -0.9610
 6103SOL     OW29770   2.807   0.643   7.257 -0.1821 -0.0002 -0.2809
 6103SOL    HW129771   2.811   0.589   7.178 -1.3318 -0.3780 -0.0824
 6103SOL    HW229772   2.722   0.613   7.288  1.2111 -2.1454  1.4683
 6104SOL     OW29773   2.232   1.055   3.129  0.2118  0.4025  0.1426
 6104SOL    HW129774   2.322   1.087   3.121  0.9098 -2.0580 -1.9362
 6104SOL    HW229775   2.248   0.998   3.204  0.1924 -1.9393 -1.6164
 6105SOL     OW29776   1.430   1.363   6.630  0.6071  0.0892 -1.0980
 6105SOL    HW129777   1.378   1.399   6.702 -0.5644  1.7201 -2.7587
 6105SOL    HW229778   1.494   1.302   6.668  1.8723  2.7454  0.9916
 6106SOL     OW29779   3.334   3.967  17.663 -0.2975  0.5181 -0.2016
 6106SOL    HW129780   3.249   3.941   0.009  0.7705 -2.1769  0.3198
 6106SOL    HW229781   3.323   3.968  17.568  2.5847  0.8133 -0.5344
 6107SOL     OW29782   0.347   2.099  13.867  0.2331  0.3132 -0.1225
 6107SOL    HW129783   0.374   2.190  13.856  2.7292 -0.3647  0.4498
 6107SOL    HW229784   0.251   2.099  13.874  0.2151 -0.0791 -0.3982
 6108SOL     OW29785   1.951   2.365   6.780  0.3628  0.4237  0.7744
 6108SOL    HW129786   2.006   2.297   6.742 -0.5526  1.1769 -1.9022
 6108SOL    HW229787   1.958   2.430   6.710 -1.6156 -0.0361  0.1493
 6109SOL     OW29788   2.106   1.389   9.656  0.1614 -0.3134 -0.2250
 6109SOL    HW129789   2.111   1.468   9.709 -0.2169 -0.6956  0.3809
 6109SOL    HW229790   2.090   1.431   9.572  0.8871 -0.2949 -0.3542
 6110SOL     OW29791   1.715   3.657   5.418  0.0634  0.0044 -0.3167
 6110SOL    HW129792   1.771   3.672   5.342 -0.2033 -0.3004 -0.5692
 6110SOL    HW229793   1.688   3.568   5.397 -1.6844  0.2279  0.9979
 6111SOL     OW29794   0.064   0.489   1.315  0.2462  0.5849 -0.1463
 6111SOL    HW129795   0.089   0.403   1.281 -1.3731 -1.9024  4.8414
 6111SOL    HW229796   0.152   0.526   1.315  1.2468 -1.7894  1.6983
 6112SOL     OW29797   1.289   3.425   8.068  0.1548 -0.7794  0.1218
 6112SOL    HW129798   1.209   3.381   8.040  1.4412 -3.0402 -0.0343
 6112SOL    HW229799   1.358   3.400   8.006  0.9485 -1.2528  1.2105
 6113SOL     OW29800   4.081   0.415  11.538 -0.0803 -1.0071  0.9389
 6113SOL    HW129801   4.096   0.440  11.629 -3.1243  1.7125  0.6785
 6113SOL    HW229802   4.049   0.499  11.508  0.1308 -0.7222  1.5056
 6114SOL     OW29803   0.607   1.411   6.969 -0.5157  0.3548 -0.6216
 6114SOL    HW129804   0.541   1.398   6.901  0.4953 -0.9903 -1.3429
 6114SOL    HW229805   0.621   1.328   7.015  0.9903  0.0350 -1.6563
 6115SOL     OW29806   0.510   0.123   4.294  0.1869 -0.0634 -0.0053
 6115SOL    HW129807   0.551   0.171   4.367  1.0101 -0.3464 -0.2798
 6115SOL    HW229808   0.481   0.197   4.241  0.5432  0.2781  0.2686
 6116SOL     OW29809   1.001   1.919  10.192  0.1646 -0.1161  0.5306
 6116SOL    HW129810   0.991   2.005  10.231 -1.5504 -0.6879  1.3623
 6116SOL    HW229811   0.961   1.859  10.255  0.0496 -0.1866  0.3929
 6117SOL     OW29812   3.328   0.390  17.683  0.4480  0.2418 -0.3316
 6117SOL    HW129813   3.339   0.313   0.049 -2.1564  0.7256  0.8513
 6117SOL    HW229814   3.421   0.405  17.663  1.2563 -0.5049  2.8411
 6118SOL     OW29815   0.031   1.960   8.414  0.1911 -0.2971  0.8202
 6118SOL    HW129816   0.090   2.001   8.478  0.1404  0.8750  0.1128
 6118SOL    HW229817   0.061   1.869   8.421  1.2690 -0.0214 -0.2854
 6119SOL     OW29818   1.484   0.147   2.041 -0.5384 -0.1487 -0.0804
 6119SOL    HW129819   1.553   0.102   1.992  0.4451 -0.1607  1.3101
 6119SOL    HW229820   1.462   0.063   2.082  1.1301 -0.5287  0.0481
 6120SOL     OW29821   4.246   3.557   6.727 -0.1308 -0.1099  0.0190
 6120SOL    HW129822   4.341   3.546   6.715 -0.1574 -1.0887  0.7169
 6120SOL    HW229823   4.220   3.467   6.709  2.0769 -0.9637  1.0693
 6121SOL     OW29824   3.433   4.028   3.873 -0.2211 -0.0381 -0.3650
 6121SOL    HW129825   3.469   4.094   3.813  1.2484  0.1541  0.6991
 6121SOL    HW229826   3.516   4.009   3.917 -0.2261 -0.8472 -0.7207
 6122SOL     OW29827   2.638   0.439   3.184  0.3394  0.0282  0.3670
 6122SOL    HW129828   2.646   0.532   3.208 -2.0484  0.4726 -0.6162
 6122SOL    HW229829   2.640   0.456   3.090  1.1988 -0.1242  0.3571
 6123SOL     OW29830   1.438   1.288   3.470  0.3187  0.0126 -0.2840
 6123SOL    HW129831   1.482   1.373   3.474  0.0383  0.0978  0.8997
 6123SOL    HW229832   1.352   1.319   3.440  0.0788 -1.2225 -0.8510
 6124SOL     OW29833   1.671   1.256   8.521  0.2047  0.3281 -0.3713
 6124SOL    HW129834   1.722   1.243   8.441 -0.9052  1.4073 -1.2531
 6124SOL    HW229835   1.734   1.224   8.586 -0.0399  3.0801  1.2233
 6125SOL     OW29836   4.392   2.425  15.363 -0.2055 -0.8012 -0.2655
 6125SOL    HW129837   4.379   2.385  15.277 -0.3117 -1.1323 -0.0933
 6125SOL    HW229838   4.416   2.345  15.410 -0.3425 -0.2280  0.7913
 6126SOL     OW29839   4.642   3.991   8.248  0.5329 -0.0244  0.2166
 6126SOL    HW129840   4.549   3.984   8.226  0.8549  2.0255 -1.7841
 6126SOL    HW229841   4.636   4.077   8.290 -2.5157  0.2726 -0.8559
 6127SOL     OW29842   1.108   1.647   1.035 -0.0698  0.0074 -0.4840
 6127SOL    HW129843   1.023   1.625   1.073  0.0783 -0.1096 -0.2258
 6127SOL    HW229844   1.086   1.735   1.003  1.2516  0.7934  0.7697
 6128SOL     OW29845   2.113   4.492  12.772 -0.5225  0.9313 -0.5205
 6128SOL    HW129846   2.184   4.475  12.835 -0.1344 -1.1673 -1.5321
 6128SOL    HW229847   2.039   4.502  12.832 -1.3163  0.4804 -1.4178
 6129SOL     OW29848   3.162   3.483   7.228 -0.1570  0.5842  0.0220
 6129SOL    HW129849   3.162   3.393   7.197  2.1083  1.1692 -1.7037
 6129SOL    HW229850   3.235   3.520   7.178 -0.1172  1.0807  0.4486
 6130SOL     OW29851   2.467   3.221   4.438  0.4398 -0.2289 -0.6225
 6130SOL    HW129852   2.413   3.223   4.517  0.4189 -1.2765 -0.6092
 6130SOL    HW229853   2.498   3.130   4.448  1.4901  0.1071 -0.7842
 6131SOL     OW29854   3.345   3.329  14.979 -0.1712  0.3180  0.3425
 6131SOL    HW129855   3.256   3.335  15.014  0.6598 -0.7422  2.6229
 6131SOL    HW229856   3.339   3.283  14.895  2.2058 -0.6721  0.7097
 6132SOL     OW29857   4.645   2.198   2.805 -0.1223 -0.3743 -0.0710
 6132SOL    HW129858   4.698   2.278   2.796 -4.4160  2.2277 -2.4522
 6132SOL    HW229859   4.672   2.165   2.890 -0.0301  2.9208  1.1824
 6133SOL     OW29860   4.433   3.525   7.479 -0.0041 -0.2370  0.1033
 6133SOL    HW129861   4.524   3.551   7.463 -0.3305  0.3210 -0.8950
 6133SOL    HW229862   4.445   3.442   7.525 -0.4279 -0.2194  0.2516
 6134SOL     OW29863   0.226   2.197   9.808 -0.3796  0.1161 -0.0616
 6134SOL    HW129864   0.211   2.103   9.817 -1.3120  0.1408 -1.3742
 6134SOL    HW229865   0.180   2.214   9.726  0.9769  0.1915 -0.7981
 6135SOL     OW29866   2.547   2.065   3.774 -0.5064  0.0588 -0.2183
 6135SOL    HW129867   2.478   2.130   3.763  0.1179  0.4561 -1.8352
 6135SOL    HW229868   2.617   2.110   3.820  1.0292 -1.2075 -1.3008
 6136SOL     OW29869   0.480   1.952   8.830  0.0097  0.3328  0.7352
 6136SOL    HW129870   0.542   1.879   8.825 -1.0887 -0.5487  0.0423
 6136SOL    HW229871   0.536   2.025   8.858  0.6856 -1.0571  3.0250
 6137SOL     OW29872   3.691   2.413   6.706  0.3921  0.0396 -0.0499
 6137SOL    HW129873   3.747   2.401   6.629 -0.4936  1.5149 -0.9287
 6137SOL    HW229874   3.755   2.452   6.766  0.4657  0.8313 -0.6503
 6138SOL     OW29875   1.484   4.159   3.012  0.1196 -0.7795  0.3358
 6138SOL    HW129876   1.473   4.064   3.008  2.0393 -1.0924  1.9526
 6138SOL    HW229877   1.519   4.167   2.923 -1.6087 -0.7883 -0.3303
 6139SOL     OW29878   0.214   2.097   4.285  0.3225  0.2171  0.2666
 6139SOL    HW129879   0.272   2.036   4.239 -0.2541  0.9362 -1.4033
 6139SOL    HW229880   0.148   2.128   4.223  0.8522  1.1281  0.1594
 6140SOL     OW29881   1.433   3.638   5.192  0.0744 -0.5411  0.0853
 6140SOL    HW129882   1.437   3.561   5.136 -0.4020  0.5329 -1.4003
 6140SOL    HW229883   1.525   3.659   5.209 -0.4586  0.8676  1.2191
 6141SOL     OW29884   0.156   4.309  13.696  0.2405 -0.0235 -0.4120
 6141SOL    HW129885   0.245   4.316  13.662 -0.8773  0.0264 -3.3705
 6141SOL    HW229886   0.171   4.344  13.784 -0.7124 -3.6913  1.2033
 6142SOL     OW29887   2.543   1.666   4.301 -0.0111  0.1118 -0.1232
 6142SOL    HW129888   2.533   1.629   4.213 -0.8397 -0.8862  0.3911
 6142SOL    HW229889   2.536   1.759   4.279  0.3875 -0.2784 -1.8698
 6143SOL     OW29890   2.381   3.279  13.769  0.2551 -0.1681 -0.5861
 6143SOL    HW129891   2.409   3.232  13.848  0.1525  0.8577  0.0599
 6143SOL    HW229892   2.447   3.251  13.706  2.1206  1.5851  0.5993
 6144SOL     OW29893   0.275   1.583  17.225  0.1221  0.3155  0.4555
 6144SOL    HW129894   0.319   1.626  17.299  0.4842 -0.5551  0.7443
 6144SOL    HW229895   0.316   1.623  17.149  0.4001  0.4493  0.6746
 6145SOL     OW29896   4.381   3.724  10.370  0.8060 -0.7119 -0.1290
 6145SOL    HW129897   4.435   3.662  10.418  0.5267 -0.6899  0.2090
 6145SOL    HW229898   4.341   3.669  10.302 -1.2658  1.1236 -0.4180
 6146SOL     OW29899   1.002   3.133   6.194  0.5775 -0.0498 -0.4244
 6146SOL    HW129900   1.072   3.077   6.162  0.0842 -0.9011 -0.0560
 6146SOL    HW229901   1.003   3.104   6.286 -3.7308  0.7739 -0.1035
 6147SOL     OW29902   0.487   2.695   7.387 -0.0147 -0.2839 -0.4356
 6147SOL    HW129903   0.542   2.651   7.452  0.3299  0.3937 -0.2751
 6147SOL    HW229904   0.401   2.665   7.416  0.6507  0.8330  2.6722
 6148SOL     OW29905   0.481   3.887   4.419 -0.3530 -0.2538  0.2039
 6148SOL    HW129906   0.523   3.801   4.412  0.0289 -0.1342  0.9863
 6148SOL    HW229907   0.464   3.891   4.513 -0.1589  0.2264  0.2175
 6149SOL     OW29908   1.988   2.651  17.067 -0.8247  0.1824 -0.0658
 6149SOL    HW129909   2.016   2.639  17.157 -1.0681 -0.8883 -0.1290
 6149SOL    HW229910   1.899   2.614  17.068  0.0930 -2.0610 -0.9946
 6150SOL     OW29911   2.097   2.018   4.949 -0.2082  0.2761  0.1433
 6150SOL    HW129912   2.176   1.986   4.992  0.0540 -0.0284 -0.5535
 6150SOL    HW229913   2.079   1.946   4.889  0.6176  0.7691 -0.7034
 6151SOL     OW29914   2.741   1.986   8.900  0.0818 -0.0271  0.4899
 6151SOL    HW129915   2.775   1.990   8.811 -0.4282 -0.3590  0.2880
 6151SOL    HW229916   2.658   2.033   8.897 -0.1263 -0.4840 -0.8198
 6152SOL     OW29917   1.038   0.685   6.790 -0.2893  0.8207  0.1246
 6152SOL    HW129918   1.037   0.779   6.807 -1.1406  0.8781 -0.2446
 6152SOL    HW229919   0.951   0.646   6.798  1.3524 -2.7354  0.6843
 6153SOL     OW29920   0.183   0.372   9.680 -0.6125  0.0514  0.1267
 6153SOL    HW129921   0.090   0.362   9.701 -0.2238 -1.2229  1.2520
 6153SOL    HW229922   0.174   0.430   9.604 -1.1108 -1.2561 -0.8298
 6154SOL     OW29923   3.755   0.177   2.711 -0.2564  0.3380 -0.1444
 6154SOL    HW129924   3.816   0.117   2.752 -0.2402  0.3681 -0.1241
 6154SOL    HW229925   3.668   0.139   2.727 -0.4870  0.4595 -1.0913
 6155SOL     OW29926   0.143   0.375   3.266  0.1086 -1.0031 -0.2082
 6155SOL    HW129927   0.203   0.439   3.227 -0.5716 -0.3212 -0.1235
 6155SOL    HW229928   0.165   0.296   3.216 -2.0382 -0.8396 -1.4175
 6156SOL     OW29929   1.297   3.327   3.960 -0.0677 -1.0063 -0.0568
 6156SOL    HW129930   1.375   3.350   4.011 -0.0909  0.9456 -0.8979
 6156SOL    HW229931   1.244   3.280   4.024  1.5656 -0.9599  1.3208
 6157SOL     OW29932   3.118   0.526   4.688 -0.0914 -0.2702 -0.1175
 6157SOL    HW129933   3.169   0.500   4.611  1.2424  1.3711  0.2128
 6157SOL    HW229934   3.188   0.522   4.753 -0.2897  0.1824  0.1194
 6158SOL     OW29935   4.415   2.055   4.888  0.3402  0.6067 -0.2817
 6158SOL    HW129936   4.321   2.038   4.891  0.0197  2.7165  1.4765
 6158SOL    HW229937   4.443   2.008   4.809  1.9642  0.7851  0.1942
 6159SOL     OW29938   2.909   0.806   6.145  0.2826  0.0619 -0.2473
 6159SOL    HW129939   2.850   0.743   6.186  0.9726 -0.3834  0.0562
 6159SOL    HW229940   2.946   0.757   6.071  0.3682  0.8849 -0.7534
 6160SOL     OW29941   4.486   2.106   8.897  0.1259  0.1603 -0.1837
 6160SOL    HW129942   4.430   2.093   8.974  2.5971  0.4615  1.6749
 6160SOL    HW229943   4.546   2.177   8.920  0.0152  0.6209 -1.3208
 6161SOL     OW29944   4.630   4.481   5.662  0.2782 -0.1950 -0.9319
 6161SOL    HW129945   4.569   4.554   5.648  1.2209  1.0174  1.2440
 6161SOL    HW229946   4.617   4.429   5.583  1.0045  0.1366 -1.2739
 6162SOL     OW29947   2.742   1.775   6.424 -0.1102  0.4340 -0.0350
 6162SOL    HW129948   2.770   1.819   6.505  2.3099  0.0625 -0.6778
 6162SOL    HW229949   2.664   1.830   6.410  0.0944  0.6913 -0.1799
 6163SOL     OW29950   0.413   0.032   5.418 -0.0885 -0.7995  0.3940
 6163SOL    HW129951   0.372   4.696   5.353  0.2236  0.8985 -1.3337
 6163SOL    HW229952   0.425   0.107   5.360 -0.7841 -0.4098  0.7549
 6164SOL     OW29953   3.145   1.010   6.232 -0.3162  0.1491  0.1410
 6164SOL    HW129954   3.105   0.924   6.220  0.5382 -0.0117 -1.4178
 6164SOL    HW229955   3.208   0.987   6.300  1.3253  2.2770 -0.6556
 6165SOL     OW29956   0.333   4.594   5.211 -0.6156 -0.4845 -0.4003
 6165SOL    HW129957   0.377   4.563   5.132  1.4228 -1.1533  1.0137
 6165SOL    HW229958   0.283   4.523   5.250 -0.4359 -1.3739 -1.7949
 6166SOL     OW29959   2.264   4.524   0.723 -0.3700  0.1148 -0.1367
 6166SOL    HW129960   2.278   4.518   0.629 -0.8180 -1.0497 -0.1361
 6166SOL    HW229961   2.338   4.471   0.754  0.8873  2.7639  1.4076
 6167SOL     OW29962   1.311   4.054  15.083 -0.2344 -0.2531  0.1602
 6167SOL    HW129963   1.398   4.051  15.123 -0.3456 -0.2017  0.4032
 6167SOL    HW229964   1.314   4.129  15.024  1.3604 -1.4001 -1.2036
 6168SOL     OW29965   3.162   1.921   7.667  0.0802 -0.1440  0.1356
 6168SOL    HW129966   3.137   1.969   7.746 -0.5483 -1.9059  1.0352
 6168SOL    HW229967   3.092   1.855   7.672  1.7164 -1.9545 -1.0107
 6169SOL     OW29968   4.284   3.299   5.673 -0.0608  0.0335 -0.6532
 6169SOL    HW129969   4.256   3.376   5.623  1.4335  1.5097  0.7942
 6169SOL    HW229970   4.237   3.327   5.751  1.4334  2.6382 -0.6743
 6170SOL     OW29971   1.627   0.179   0.299  0.0796  0.2533 -0.3060
 6170SOL    HW129972   1.709   0.184   0.348 -0.4246 -1.3061  0.7118
 6170SOL    HW229973   1.663   0.153   0.214  1.8379 -2.5327  1.2763
 6171SOL     OW29974   0.605   2.756   3.755 -0.3187 -0.0827 -0.6806
 6171SOL    HW129975   0.536   2.787   3.814 -0.1374 -2.0371  0.5483
 6171SOL    HW229976   0.633   2.840   3.717  1.4857 -0.9929 -1.3873
 6172SOL     OW29977   3.837   1.599   7.617  0.0743 -0.0649 -0.7923
 6172SOL    HW129978   3.911   1.635   7.569 -0.0292  2.9559  1.2749
 6172SOL    HW229979   3.880   1.597   7.702 -2.0675 -1.3440  0.2728
 6173SOL     OW29980   3.291   3.065   6.742  0.4653 -0.0942  0.6107
 6173SOL    HW129981   3.263   2.984   6.785 -1.2457  0.4908  0.5744
 6173SOL    HW229982   3.344   3.030   6.670  0.6664 -1.1463  1.2690
 6174SOL     OW29983   2.196   3.490   4.366  0.5396 -0.4102 -0.2355
 6174SOL    HW129984   2.148   3.477   4.284  0.5599 -1.2041 -0.1282
 6174SOL    HW229985   2.147   3.567   4.394  1.1687 -0.4438  0.9564
 6175SOL     OW29986   2.867   2.514  15.497 -0.3683  0.5167  0.2387
 6175SOL    HW129987   2.935   2.460  15.458 -0.2844  1.5217 -0.9986
 6175SOL    HW229988   2.888   2.601  15.464 -2.0841  0.7409 -0.2767
 6176SOL     OW29989   4.494   1.851   4.246  0.1999  0.5036  0.6732
 6176SOL    HW129990   4.567   1.814   4.195  0.2958 -0.5631  1.5717
 6176SOL    HW229991   4.534   1.933   4.276  0.7083 -0.0825  1.6224
 6177SOL     OW29992   1.361   1.065  17.530  0.3758 -0.2150  0.1227
 6177SOL    HW129993   1.331   0.983  17.568  1.9108 -0.0438  1.7196
 6177SOL    HW229994   1.281   1.094  17.485 -1.7097 -1.5445  2.9839
 6178SOL     OW29995   1.470   4.149   8.732 -0.1572 -0.1271 -0.2332
 6178SOL    HW129996   1.432   4.077   8.682  2.4992 -1.1577 -0.7625
 6178SOL    HW229997   1.511   4.199   8.661  0.5057 -1.2492 -0.6337
 6179SOL     OW29998   3.262   4.408   1.782 -0.5293 -0.3305 -0.0521
 6179SOL    HW129999   3.209   4.349   1.835 -1.2491 -0.1754 -0.5976
 6179SOL    HW230000   3.237   4.490   1.823 -1.9750 -0.4758 -0.6541
 6180SOL     OW30001   2.817   2.839   6.435  0.3530 -0.4994  0.2567
 6180SOL    HW130002   2.766   2.814   6.357  2.4164  1.8023 -1.8186
 6180SOL    HW230003   2.742   2.871   6.484 -0.2573  0.3099 -1.2241
 6181SOL     OW30004   3.098   0.231   7.120 -0.3445  0.0379 -0.2758
 6181SOL    HW130005   3.101   0.263   7.210 -1.1672 -2.3218  0.5688
 6181SOL    HW230006   3.124   0.140   7.126  1.0680  0.4549 -0.0684
 6182SOL     OW30007   1.956   2.283   1.904  0.0283 -0.3626  0.4593
 6182SOL    HW130008   2.030   2.310   1.959 -1.0188  1.0116  1.1990
 6182SOL    HW230009   1.881   2.339   1.926  0.9685  1.0264  0.0629
 6183SOL     OW30010   4.595   3.253  10.175 -0.5473 -0.0523  0.1405
 6183SOL    HW130011   4.528   3.201  10.130  1.3242 -1.1604 -1.3375
 6183SOL    HW230012   4.670   3.222  10.125  0.0335 -1.3461  1.7891
 6184SOL     OW30013   1.630   2.856   9.161 -0.4685 -0.5008  0.1742
 6184SOL    HW130014   1.709   2.909   9.153 -0.3721 -0.8052 -0.8262
 6184SOL    HW230015   1.591   2.886   9.079 -2.6275 -0.9116  1.0397
 6185SOL     OW30016   1.040   0.092  12.909  0.1995  0.0659  0.1066
 6185SOL    HW130017   0.952   0.068  12.939 -0.1366 -0.4480 -1.2835
 6185SOL    HW230018   1.013   0.143  12.832  2.2537 -0.2857 -0.8412
 6186SOL     OW30019   0.902   3.679   7.340 -0.0464  0.0427 -0.2640
 6186SOL    HW130020   0.843   3.735   7.289 -1.8800 -1.6882 -0.0644
 6186SOL    HW230021   0.966   3.743   7.371 -0.6513 -0.0756  1.1943
 6187SOL     OW30022   2.357   1.900  13.763  0.0167  0.4241  0.5128
 6187SOL    HW130023   2.351   1.907  13.858 -1.2475  0.6493  0.4143
 6187SOL    HW230024   2.301   1.971  13.732 -1.3605 -0.3887  1.1342
 6188SOL     OW30025   0.806   0.833   8.855  0.3800 -0.0614 -0.3134
 6188SOL    HW130026   0.893   0.803   8.882  1.0816 -0.5700 -3.1053
 6188SOL    HW230027   0.774   0.870   8.937 -0.2781  0.3772 -0.7639
 6189SOL     OW30028   3.050   2.368  15.950  0.4493  0.2223 -0.1891
 6189SOL    HW130029   3.079   2.388  15.861 -4.0208 -0.8948 -1.9356
 6189SOL    HW230030   3.124   2.325  15.991  1.7665  1.3284 -1.4018
 6190SOL     OW30031   1.206   0.900   7.531  0.0558 -0.2206 -0.3055
 6190SOL    HW130032   1.234   0.821   7.485  1.2962  0.5582 -0.8685
 6190SOL    HW230033   1.114   0.902   7.504  0.6792  1.9898 -2.2924
 6191SOL     OW30034   1.865   1.996   5.114  0.5315  0.1958 -0.0660
 6191SOL    HW130035   1.925   2.027   5.046 -1.3525  1.3604 -1.1769
 6191SOL    HW230036   1.915   2.006   5.195  0.0792  2.1940 -0.0527
 6192SOL     OW30037   1.506   0.653   3.794 -0.3537 -0.1191  0.3745
 6192SOL    HW130038   1.562   0.731   3.794  1.0793 -1.1427  0.2240
 6192SOL    HW230039   1.437   0.675   3.856 -0.0468  0.6247  0.4544
 6193SOL     OW30040   0.886   1.323  12.426 -0.7286 -0.1552  0.1664
 6193SOL    HW130041   0.858   1.231  12.419 -0.6772 -0.0283 -1.6356
 6193SOL    HW230042   0.890   1.337  12.521 -2.1881 -0.2096  0.2400
 6194SOL     OW30043   0.738   2.375   4.099  0.5557  0.2180 -0.4904
 6194SOL    HW130044   0.670   2.430   4.061  0.1705 -1.1994 -1.8801
 6194SOL    HW230045   0.697   2.288   4.093  0.9761 -0.0298  0.2693
 6195SOL     OW30046   0.925   2.850   5.056  0.4102 -0.1581  0.4058
 6195SOL    HW130047   0.875   2.889   4.984  1.0006  1.8312  1.0798
 6195SOL    HW230048   0.868   2.776   5.077  1.1147 -0.7576  0.2214
 6196SOL     OW30049   3.637   2.729   2.692 -0.3410  0.2380  0.6059
 6196SOL    HW130050   3.659   2.754   2.782 -1.3479  3.6793 -0.0957
 6196SOL    HW230051   3.624   2.813   2.648 -1.0453  0.0675  0.4905
 6197SOL     OW30052   0.208   4.597  13.423  0.0661 -0.0530 -0.0165
 6197SOL    HW130053   0.128   4.586  13.371 -1.6015  0.3532  2.4952
 6197SOL    HW230054   0.178   4.622  13.510  0.4185  0.4849 -0.0485
 6198SOL     OW30055   0.970   1.584   9.591 -0.0118  0.2900  0.1918
 6198SOL    HW130056   1.051   1.582   9.540 -0.8323 -1.8477 -0.9814
 6198SOL    HW230057   0.909   1.530   9.542 -1.2227 -0.1007  2.1105
 6199SOL     OW30058   2.392   0.553   7.983  0.1732  0.2939 -0.6366
 6199SOL    HW130059   2.400   0.501   7.903  0.5365 -2.0548  0.9214
 6199SOL    HW230060   2.316   0.509   8.020  0.4491  0.8922  0.6271
 6200SOL     OW30061   4.118   4.469   4.574  0.0585  0.8047  0.2049
 6200SOL    HW130062   4.162   4.550   4.548  0.0165  0.5532 -0.6595
 6200SOL    HW230063   4.140   4.475   4.667 -0.6996  1.0674  0.3655
 6201SOL     OW30064   4.400   0.237   3.281  0.5062 -0.0889 -0.4207
 6201SOL    HW130065   4.372   0.241   3.190  0.7509  0.4127 -0.4776
 6201SOL    HW230066   4.475   0.296   3.270  0.5320 -0.1114 -0.3657
 6202SOL     OW30067   2.009   2.982   0.795 -0.1281  0.5902  0.1734
 6202SOL    HW130068   2.052   2.916   0.740  0.0474  0.4202  0.5127
 6202SOL    HW230069   1.989   2.928   0.871  0.3425 -1.8840 -1.4328
 6203SOL     OW30070   4.023   0.791   1.163  0.6419 -0.1962  0.5870
 6203SOL    HW130071   4.115   0.766   1.172  0.1213 -2.0293  0.8814
 6203SOL    HW230072   3.995   0.752   1.246 -1.8297 -1.1905 -0.7145
 6204SOL     OW30073   2.943   3.078   8.324 -0.0073 -0.1617 -0.0472
 6204SOL    HW130074   2.898   3.133   8.389  2.8402 -0.5782  2.2417
 6204SOL    HW230075   3.035   3.077   8.348 -0.7260  1.1959  2.8635
 6205SOL     OW30076   3.419   1.311   1.276  0.1650 -0.1645 -0.1833
 6205SOL    HW130077   3.367   1.379   1.317 -1.7742 -0.5790 -1.9979
 6205SOL    HW230078   3.499   1.324   1.328  1.4133  1.4139 -2.5277
 6206SOL     OW30079   2.643   1.411   4.953  0.0176 -0.0812 -1.0476
 6206SOL    HW130080   2.608   1.483   5.006  1.3303 -1.9555  2.4109
 6206SOL    HW230081   2.727   1.451   4.930  1.3652 -2.1806  0.2858
 6207SOL     OW30082   1.036   0.013   6.991 -0.0858  0.1895 -0.7174
 6207SOL    HW130083   1.081   0.059   7.062 -0.0759 -2.5662  1.0468
 6207SOL    HW230084   0.948   0.050   6.990  0.8883  2.5272 -1.5690
 6208SOL     OW30085   1.074   4.076  15.659 -0.1268  0.5481  0.5987
 6208SOL    HW130086   1.052   4.169  15.672 -1.8142  0.1646  0.4297
 6208SOL    HW230087   1.053   4.045  15.747  0.8134 -0.7479  0.3686
 6209SOL     OW30088   0.058   4.311  12.187 -0.2796  0.5613 -0.0661
 6209SOL    HW130089   0.128   4.302  12.121 -0.7199  0.2469 -0.4863
 6209SOL    HW230090   0.078   4.251  12.258  0.9248 -0.3452 -1.1704
 6210SOL     OW30091   1.911   3.565   7.240  0.0874 -0.5552 -0.0816
 6210SOL    HW130092   1.864   3.501   7.293  2.1811 -0.8719  1.3593
 6210SOL    HW230093   1.993   3.519   7.227 -0.2346 -1.2255  0.2327
 6211SOL     OW30094   2.280   1.821   8.921 -0.3127  0.1427  0.0827
 6211SOL    HW130095   2.213   1.820   8.989  0.6741 -0.1705  1.0411
 6211SOL    HW230096   2.338   1.752   8.953  2.2240  1.5317 -1.5338
 6212SOL     OW30097   0.739   0.503   7.906  0.1668 -0.2399 -0.1931
 6212SOL    HW130098   0.803   0.473   7.971 -0.2777  1.9733  1.2721
 6212SOL    HW230099   0.795   0.549   7.844 -0.6318 -0.4035 -1.0427
 6213SOL     OW30100   1.939   4.354   4.886  0.2096 -0.5480 -0.5472
 6213SOL    HW130101   1.995   4.430   4.903  1.0929 -1.1860 -0.6181
 6213SOL    HW230102   1.984   4.281   4.929 -0.3562 -0.4459  0.2232
 6214SOL     OW30103   3.418   2.949   3.404  0.4908 -0.1683 -0.0983
 6214SOL    HW130104   3.354   2.943   3.475  1.2924 -1.5613  0.5339
 6214SOL    HW230105   3.469   3.023   3.435 -0.7790 -0.4893  2.7409
 6215SOL     OW30106   2.012   4.678   1.720  0.0004  0.2806 -0.0463
 6215SOL    HW130107   1.978   4.658   1.632 -0.2149 -0.1010  0.1250
 6215SOL    HW230108   2.097   4.711   1.690  0.8491 -2.9265 -1.1120
 6216SOL     OW30109   2.669   2.378   2.712 -0.3350  0.4312 -0.1054
 6216SOL    HW130110   2.674   2.297   2.762 -1.3369  0.7663  0.5278
 6216SOL    HW230111   2.736   2.382   2.644 -0.4386  0.6670 -0.1942
 6217SOL     OW30112   2.016   3.064   5.205  0.6811 -0.1030 -0.0175
 6217SOL    HW130113   2.090   3.125   5.199 -0.4320  1.2376 -0.0122
 6217SOL    HW230114   2.006   3.031   5.115 -3.6286 -0.4367  0.6208
 6218SOL     OW30115   2.012   0.641  16.433 -0.1653  0.0118 -0.3392
 6218SOL    HW130116   2.086   0.697  16.457 -0.2517  1.1310 -2.7263
 6218SOL    HW230117   1.941   0.698  16.406 -2.1163 -2.2426  0.0586
 6219SOL     OW30118   3.321   4.528  17.503 -0.0056 -0.4631 -0.2867
 6219SOL    HW130119   3.253   4.511  17.567  0.0070 -1.1986 -0.4595
 6219SOL    HW230120   3.382   4.455  17.516 -0.1380 -0.9172 -2.1569
 6220SOL     OW30121   3.253   2.559   0.026 -0.2923 -0.2470  0.5839
 6220SOL    HW130122   3.254   2.647  17.679 -0.4262 -0.8242 -0.7686
 6220SOL    HW230123   3.167   2.554   0.069 -0.3458 -1.2885  0.3568
 6221SOL     OW30124   2.648   0.056   7.245 -0.0335 -0.1277 -0.0282
 6221SOL    HW130125   2.664   0.011   7.328  0.0584  2.4168  1.3461
 6221SOL    HW230126   2.673   4.705   7.188 -2.4569 -2.1688  1.5187
 6222SOL     OW30127   2.984   4.101   6.182  0.7773  0.4260 -0.3153
 6222SOL    HW130128   3.015   4.144   6.102 -0.8946  0.0235 -1.1815
 6222SOL    HW230129   2.889   4.090   6.174  0.6320  1.5655 -0.2045
 6223SOL     OW30130   1.212   2.878   8.953  0.1304  0.6012  0.0304
 6223SOL    HW130131   1.169   2.938   9.015 -0.6746  1.1828 -1.0800
 6223SOL    HW230132   1.299   2.915   8.967  0.1402  0.8559 -0.6834
 6224SOL     OW30133   0.079   1.924  13.940 -0.0903 -0.2987 -0.3497
 6224SOL    HW130134   0.062   1.881  14.024 -1.1241 -0.2843 -0.5544
 6224SOL    HW230135   4.716   1.902  13.903 -0.9104  2.9674 -0.3986
 6225SOL     OW30136   2.033   0.608  10.452  0.9934 -0.1094 -0.2301
 6225SOL    HW130137   2.034   0.556  10.371  1.6560 -1.3287  0.5697
 6225SOL    HW230138   2.013   0.550  10.525 -1.5003 -0.8724 -1.5353
 6226SOL     OW30139   0.327   0.249   7.282  0.4675  0.1653  0.3742
 6226SOL    HW130140   0.378   0.247   7.362  0.6195 -1.5558  0.2204
 6226SOL    HW230141   0.313   0.342   7.261  1.2959  0.3796  0.8092
 6227SOL     OW30142   1.663   3.762   2.633  0.0826 -0.0367  0.5316
 6227SOL    HW130143   1.645   3.775   2.540 -1.5121 -0.1723  0.8281
 6227SOL    HW230144   1.590   3.805   2.677  0.6492  1.7081 -0.2210
 6228SOL     OW30145   3.439   1.871   6.625 -0.3221  0.5883 -0.1788
 6228SOL    HW130146   3.439   1.776   6.623  3.4534  0.5148  2.1827
 6228SOL    HW230147   3.346   1.892   6.633 -0.3598 -1.0672  3.7521
 6229SOL     OW30148   2.749   1.294   1.972 -0.0758 -0.6711 -0.0622
 6229SOL    HW130149   2.844   1.291   1.984  0.0396  0.5533 -0.6863
 6229SOL    HW230150   2.733   1.255   1.886  0.2947  0.8275 -0.8057
 6230SOL     OW30151   3.141   0.753   9.099 -0.4262 -0.2270 -0.7638
 6230SOL    HW130152   3.202   0.810   9.145 -1.0342  0.7630 -1.1917
 6230SOL    HW230153   3.067   0.814   9.094 -0.4114 -0.2351 -1.0796
 6231SOL     OW30154   3.828   4.254  17.351 -0.0856  0.3322  0.7326
 6231SOL    HW130155   3.851   4.180  17.408 -0.4102 -0.3801 -0.0553
 6231SOL    HW230156   3.906   4.247  17.296 -0.5196  0.9999  0.0465
 6232SOL     OW30157   1.494   3.363   1.178 -0.3527  0.0482  0.8498
 6232SOL    HW130158   1.501   3.432   1.244 -1.0780  0.6800  0.2793
 6232SOL    HW230159   1.588   3.348   1.174 -0.8289 -2.3439 -1.5042
 6233SOL     OW30160   4.610   2.629  14.897 -0.2151 -0.4402  0.5902
 6233SOL    HW130161   4.588   2.616  14.804 -0.0737  1.7487  0.2553
 6233SOL    HW230162   4.580   2.543  14.927 -1.3600 -0.0037  0.6820
 6234SOL     OW30163   3.442   4.322   4.614  0.4213 -0.5367  0.7289
 6234SOL    HW130164   3.490   4.265   4.673  2.7125 -0.6347 -1.1906
 6234SOL    HW230165   3.473   4.296   4.527  0.8312  0.4664  0.5674
 6235SOL     OW30166   0.816   3.711   1.726 -0.1883 -0.1841  0.6886
 6235SOL    HW130167   0.819   3.779   1.793 -0.4709  0.2102  0.3045
 6235SOL    HW230168   0.877   3.651   1.770  0.8422  1.7518  1.8979
 6236SOL     OW30169   1.469   1.554  12.289 -0.1329  0.5003  0.9402
 6236SOL    HW130170   1.385   1.584  12.323 -1.8091 -0.7375 -2.1870
 6236SOL    HW230171   1.479   1.606  12.209 -0.3424 -3.0266 -1.3551
 6237SOL     OW30172   2.318   2.230   1.022 -0.1694 -0.2614 -1.0499
 6237SOL    HW130173   2.414   2.234   1.024 -0.2844  2.0233  0.3230
 6237SOL    HW230174   2.293   2.316   0.987 -1.3556 -0.4677 -0.6892
 6238SOL     OW30175   2.600   0.123   7.725  0.0208  0.5122  0.2534
 6238SOL    HW130176   2.694   0.135   7.743 -0.0244 -1.8216  1.9976
 6238SOL    HW230177   2.567   0.121   7.814  0.9863  0.5605  0.6209
 6239SOL     OW30178   2.951   2.250   8.490  0.3157 -0.6455  0.2602
 6239SOL    HW130179   3.023   2.295   8.534 -1.4516 -0.4768  2.9828
 6239SOL    HW230180   2.870   2.292   8.518  0.4570 -0.6132  0.6147
 6240SOL     OW30181   3.390   3.993   6.751  0.4557 -0.3663  0.0823
 6240SOL    HW130182   3.303   4.023   6.724 -0.4966 -1.7912  1.5616
 6240SOL    HW230183   3.425   4.072   6.791 -0.3328  0.4328 -0.8174
 6241SOL     OW30184   2.567   2.650   2.756 -0.4096  0.0193  0.1760
 6241SOL    HW130185   2.644   2.598   2.777 -0.4160  0.0477  0.2702
 6241SOL    HW230186   2.552   2.689   2.842 -1.1142  0.4361 -0.1300
 6242SOL     OW30187   0.614   0.102   6.857  0.0963 -0.6134  0.1244
 6242SOL    HW130188   0.694   0.135   6.897 -0.0728  1.1983 -0.9980
 6242SOL    HW230189   0.553   0.119   6.929 -0.4755  1.1193 -0.7607
 6243SOL     OW30190   2.150   2.413  11.473 -0.5476 -0.6193  0.0181
 6243SOL    HW130191   2.148   2.490  11.416  0.9076  0.1075  0.9638
 6243SOL    HW230192   2.059   2.412  11.504  0.3996 -1.1119  2.7115
 6244SOL     OW30193   0.782   0.479   3.638 -0.3277  0.6158  0.2598
 6244SOL    HW130194   0.764   0.399   3.588  1.2353  0.3906  0.0677
 6244SOL    HW230195   0.701   0.504   3.683 -1.1660  0.7707 -1.3248
 6245SOL     OW30196   3.177   3.290  13.567 -0.7236 -0.3843 -0.0182
 6245SOL    HW130197   3.166   3.216  13.628  0.8832 -1.1300 -0.6238
 6245SOL    HW230198   3.238   3.353  13.604 -1.5033 -0.5956  1.6240
 6246SOL     OW30199   1.476   0.559   6.170  0.3771  0.0870 -0.1994
 6246SOL    HW130200   1.455   0.630   6.110  1.6372  0.1986 -0.5076
 6246SOL    HW230201   1.460   0.603   6.253  0.7707 -1.5670  0.7692
 6247SOL     OW30202   0.798   3.365  12.799 -0.8558  0.0306  0.4131
 6247SOL    HW130203   0.721   3.328  12.757 -1.3288  2.1956 -0.6193
 6247SOL    HW230204   0.791   3.315  12.881  2.1267 -0.8120  0.1545
 6248SOL     OW30205   3.329   3.908   2.383 -0.1073 -0.2977 -0.4394
 6248SOL    HW130206   3.327   3.830   2.328 -1.7241 -0.2481 -0.4449
 6248SOL    HW230207   3.329   3.865   2.468 -0.4670  0.8746  0.1523
 6249SOL     OW30208   0.062   1.970   9.985  0.4254  0.4371 -0.5194
 6249SOL    HW130209   0.036   1.940   9.898 -0.0757  0.8074 -0.4991
 6249SOL    HW230210   0.155   1.952   9.974 -0.1369 -1.6380 -2.0450
 6250SOL     OW30211   1.309   3.037   4.971 -1.0295  0.1789  0.1268
 6250SOL    HW130212   1.251   3.039   5.047 -1.6796  1.8120 -0.4125
 6250SOL    HW230213   1.296   2.947   4.940 -1.9650 -0.0642  1.2282
 6251SOL     OW30214   0.576   2.655   5.738 -0.1189 -0.3450  0.4997
 6251SOL    HW130215   0.503   2.675   5.797  0.0145  0.9154  0.2376
 6251SOL    HW230216   0.588   2.742   5.700  0.1287 -1.0797 -1.1303
 6252SOL     OW30217   2.901   3.261  17.029 -0.6747  0.2158 -0.4289
 6252SOL    HW130218   2.959   3.231  16.959 -1.5052  1.7270 -1.7596
 6252SOL    HW230219   2.833   3.309  16.981 -1.6600 -1.9321 -1.2017
 6253SOL     OW30220   3.689   0.598  12.947 -0.4039 -0.1603 -0.0924
 6253SOL    HW130221   3.711   0.534  13.015  0.4218  0.0058 -0.1965
 6253SOL    HW230222   3.728   0.679  12.981 -2.7511  0.3410  1.3468
 6254SOL     OW30223   3.201   1.609  13.809 -0.3658  0.3895  0.0109
 6254SOL    HW130224   3.268   1.645  13.752  0.2940 -0.7404  0.0653
 6254SOL    HW230225   3.211   1.513  13.804 -1.1073  0.2884  0.4203
 6255SOL     OW30226   3.856   1.203   4.993 -0.2366  0.0842  0.1774
 6255SOL    HW130227   3.912   1.142   5.041  1.5713  1.6492  0.1052
 6255SOL    HW230228   3.912   1.277   5.019 -0.4465 -0.2165  1.4648
 6256SOL     OW30229   1.684   2.356   6.641  0.1136  0.1659 -0.0068
 6256SOL    HW130230   1.720   2.267   6.631 -0.8212  0.1324 -2.9171
 6256SOL    HW230231   1.755   2.396   6.692  0.7209 -2.1646  1.0169
 6257SOL     OW30232   4.580   0.561   2.952  0.2605  0.3599  0.6340
 6257SOL    HW130233   4.489   0.580   2.930 -0.0625 -1.3739  0.4667
 6257SOL    HW230234   4.582   0.472   2.917 -2.4072  0.7531 -0.4675
 6258SOL     OW30235   2.987   2.449   5.149 -0.0017 -0.2716  0.7976
 6258SOL    HW130236   2.975   2.435   5.243  1.3561 -0.6534  0.9166
 6258SOL    HW230237   2.906   2.417   5.111 -0.7654  1.0288  1.3290
 6259SOL     OW30238   1.319   3.661   4.741  0.6186 -0.1018 -0.3150
 6259SOL    HW130239   1.379   3.587   4.731 -0.0697 -0.9434  1.8033
 6259SOL    HW230240   1.264   3.635   4.667  1.0899  0.0402 -0.7191
 6260SOL     OW30241   0.385   3.909   4.061 -0.0348 -0.0140  0.2079
 6260SOL    HW130242   0.402   3.904   3.967 -3.8951  2.7053 -0.6552
 6260SOL    HW230243   0.381   3.816   4.083  1.7941 -0.2229 -0.4133
 6261SOL     OW30244   4.488   1.147  16.726  0.3674  0.5684 -0.2004
 6261SOL    HW130245   4.462   1.222  16.779  0.2408  1.7317 -1.9246
 6261SOL    HW230246   4.487   1.183  16.638 -2.7628 -0.2874 -0.4964
 6262SOL     OW30247   1.146   3.872   1.704  0.1983 -0.0805 -0.2807
 6262SOL    HW130248   1.141   3.813   1.779  0.2084 -0.5623 -0.6632
 6262SOL    HW230249   1.223   3.924   1.726 -2.0353  2.9499  0.3719
 6263SOL     OW30250   2.662   4.630   7.522 -0.1028 -0.0887  0.2106
 6263SOL    HW130251   2.609   4.555   7.548 -1.1765  0.5962 -0.0105
 6263SOL    HW230252   2.632   4.698   7.583 -1.3375  1.5900 -2.2665
 6264SOL     OW30253   3.805   2.082  11.124  0.1629 -0.9754 -0.0907
 6264SOL    HW130254   3.847   2.109  11.042 -2.8664  1.4540 -0.8542
 6264SOL    HW230255   3.714   2.075  11.094  0.0771  0.2023 -0.0845
 6265SOL     OW30256   0.533   1.790   4.920 -0.6070  0.4656 -0.6183
 6265SOL    HW130257   0.610   1.801   4.975 -0.6379 -1.2244 -0.2347
 6265SOL    HW230258   0.527   1.872   4.871 -1.8489 -0.4333 -1.9910
 6266SOL     OW30259   1.519   0.010   0.055 -0.4639  0.2117 -0.2336
 6266SOL    HW130260   1.467   0.010  17.665  1.8589  1.0338 -1.7420
 6266SOL    HW230261   1.599   0.046   0.017  0.6071 -2.0629 -0.0955
 6267SOL     OW30262   3.746   1.479  10.542 -0.0524  0.1341 -0.3720
 6267SOL    HW130263   3.792   1.415  10.488 -0.4943 -0.5971  0.1105
 6267SOL    HW230264   3.798   1.492  10.622 -0.7477  0.8471 -0.0334
 6268SOL     OW30265   0.947   2.506  15.524 -0.1055 -0.2488  0.8467
 6268SOL    HW130266   0.913   2.504  15.613 -2.5398 -1.8961 -0.1054
 6268SOL    HW230267   1.042   2.502  15.535  0.0737  4.2420  0.9328
 6269SOL     OW30268   1.422   0.600   4.953  0.0351  0.3424  0.2438
 6269SOL    HW130269   1.360   0.645   4.895 -0.0953 -0.1217  0.0161
 6269SOL    HW230270   1.432   0.669   5.018 -1.2048 -0.0841  0.8816
 6270SOL     OW30271   3.093   1.426   3.425  0.2329 -0.2949 -0.4652
 6270SOL    HW130272   3.000   1.429   3.449  0.3682  0.8657 -0.0956
 6270SOL    HW230273   3.113   1.519   3.413 -0.1009 -0.3673 -1.6440
 6271SOL     OW30274   1.635   0.889   3.805  0.2801 -0.0732 -0.1069
 6271SOL    HW130275   1.690   0.935   3.869 -0.3369 -0.5626  0.7584
 6271SOL    HW230276   1.593   0.962   3.759 -2.2661 -1.5146 -0.0515
 6272SOL     OW30277   0.362   3.875   8.655  0.2534 -0.4636 -0.1222
 6272SOL    HW130278   0.406   3.791   8.662 -0.0834 -0.5352  1.1315
 6272SOL    HW230279   0.376   3.914   8.742  0.0598  1.0561 -0.7562
 6273SOL     OW30280   3.635   4.044   3.331 -0.1697  0.2637  0.4335
 6273SOL    HW130281   3.692   4.009   3.262  0.1802  0.1079  0.8060
 6273SOL    HW230282   3.708   4.076   3.383 -0.6072  0.1049  1.1471
 6274SOL     OW30283   3.454   3.751   4.725 -0.0056 -0.3276  0.0630
 6274SOL    HW130284   3.437   3.689   4.795 -0.2556  0.0705  0.3515
 6274SOL    HW230285   3.546   3.779   4.729 -0.9904  3.0650 -0.6033
 6275SOL     OW30286   3.606   1.475  16.219 -0.3821  0.4471 -0.2253
 6275SOL    HW130287   3.625   1.412  16.149  0.1070 -0.5651  0.8182
 6275SOL    HW230288   3.532   1.513  16.171  0.6920  1.0250 -1.4264
 6276SOL     OW30289   1.357   1.683   8.574  0.2287  0.3677  0.8793
 6276SOL    HW130290   1.407   1.604   8.555  0.3089  0.7417 -0.5302
 6276SOL    HW230291   1.307   1.659   8.652  1.7897 -0.0569  1.7421
 6277SOL     OW30292   0.931   4.058   7.876 -0.3801  0.2716  0.3451
 6277SOL    HW130293   1.026   4.041   7.878 -0.0518  1.5534 -2.9413
 6277SOL    HW230294   0.921   4.044   7.782 -1.0897 -0.1989  0.4951
 6278SOL     OW30295   2.196   0.601   6.823  0.0250  0.1103  0.0766
 6278SOL    HW130296   2.188   0.625   6.915  1.8730 -1.7731  0.7135
 6278SOL    HW230297   2.228   0.682   6.784  0.9654 -0.8640 -1.1593
 6279SOL     OW30298   2.304   2.904   5.394  0.6283  0.3496 -0.8533
 6279SOL    HW130299   2.211   2.914   5.414  0.7844 -0.3055  0.2299
 6279SOL    HW230300   2.316   2.990   5.354 -0.1925  0.0390 -1.7701
 6280SOL     OW30301   4.525   3.728   1.232  0.2625 -0.1608  0.0891
 6280SOL    HW130302   4.565   3.788   1.168  2.4605 -0.2374  1.3912
 6280SOL    HW230303   4.445   3.707   1.183 -0.2434  1.4237  0.2318
 6281SOL     OW30304   3.124   1.600  12.342 -0.2771  0.2406  0.5070
 6281SOL    HW130305   3.118   1.690  12.309 -1.7609 -0.0680 -0.0724
 6281SOL    HW230306   3.075   1.621  12.422 -0.4604 -0.0921  0.4823
 6282SOL     OW30307   3.212   1.209  13.786 -0.1515  0.3269 -0.1570
 6282SOL    HW130308   3.299   1.223  13.750  0.3960  3.7323  2.4444
 6282SOL    HW230309   3.236   1.237  13.874  4.5198  0.0960 -1.3736
 6283SOL     OW30310   4.107   0.805  13.592 -0.2887 -0.2487 -0.3538
 6283SOL    HW130311   4.057   0.883  13.567  0.4617  0.1457 -0.6293
 6283SOL    HW230312   4.157   0.782  13.513 -1.1828 -3.0964 -0.0777
 6284SOL     OW30313   2.890   4.596   2.695  0.1266  0.0770 -0.2139
 6284SOL    HW130314   2.926   4.673   2.739  2.1650 -0.2098 -1.3550
 6284SOL    HW230315   2.804   4.587   2.736  1.0702 -2.6800  1.1484
 6285SOL     OW30316   1.673   2.617  15.433  0.0702 -0.5012 -0.5308
 6285SOL    HW130317   1.646   2.607  15.524 -0.5487 -0.9593 -0.7644
 6285SOL    HW230318   1.683   2.526  15.404 -1.6253 -1.0891  0.7262
 6286SOL     OW30319   1.090   1.980   4.278 -0.0890 -0.0046 -0.4692
 6286SOL    HW130320   1.167   1.996   4.332 -0.7544  0.8172  0.2443
 6286SOL    HW230321   1.103   2.048   4.212  0.0927  0.9291  0.5265
 6287SOL     OW30322   3.168   4.177   0.857 -0.0177  0.3800  0.4776
 6287SOL    HW130323   3.242   4.122   0.884 -0.1543 -0.4356 -0.8485
 6287SOL    HW230324   3.096   4.114   0.861  0.0380  0.2405 -0.7992
 6288SOL     OW30325   2.493   4.694   1.014  0.0065  0.0888 -0.2012
 6288SOL    HW130326   2.550   0.017   1.077  0.1235 -1.8394  1.0776
 6288SOL    HW230327   2.433   0.040   0.983 -1.1293  0.1032  2.0019
 6289SOL     OW30328   2.522   3.878  12.350 -0.3333 -0.1583  0.4961
 6289SOL    HW130329   2.551   3.949  12.408  1.3433 -2.6373  2.6973
 6289SOL    HW230330   2.593   3.814  12.353  0.1626  0.3269 -1.3696
 6290SOL     OW30331   1.750   2.384  15.341  0.4454  0.7173  0.3317
 6290SOL    HW130332   1.672   2.349  15.298  0.8359 -0.8010  0.8834
 6290SOL    HW230333   1.817   2.360  15.277  1.1933  0.3816  1.2573
 6291SOL     OW30334   4.268   0.248   3.825  0.5839 -0.7343  0.3874
 6291SOL    HW130335   4.213   0.323   3.850 -0.8814 -0.8138 -2.5783
 6291SOL    HW230336   4.324   0.288   3.759  0.8490 -1.4124  0.2044
 6292SOL     OW30337   3.123   3.473   8.923  0.5271  0.0755  0.0835
 6292SOL    HW130338   3.143   3.547   8.981  0.7194 -1.8887  2.5470
 6292SOL    HW230339   3.067   3.416   8.976  2.8007 -1.2718  1.0155
 6293SOL     OW30340   2.639   1.703   7.668 -0.2872  0.3760 -0.2122
 6293SOL    HW130341   2.677   1.681   7.583 -1.9926  0.1217 -0.9111
 6293SOL    HW230342   2.563   1.646   7.660 -0.5520 -0.1468  6.2054
 6294SOL     OW30343   0.515   3.079   2.485  0.7464 -0.4238  0.3117
 6294SOL    HW130344   0.505   3.124   2.569 -0.8378 -0.5591  0.1877
 6294SOL    HW230345   0.442   3.111   2.431  1.5721 -0.7598 -1.0106
 6295SOL     OW30346   0.724   4.602   7.089 -0.1536 -0.5993  0.5447
 6295SOL    HW130347   0.632   4.625   7.074 -0.2109 -1.7527 -0.9700
 6295SOL    HW230348   0.764   4.687   7.072  1.7468 -1.7950 -0.9881
 6296SOL     OW30349   0.781   0.207   1.064  0.3758  0.1437  0.0446
 6296SOL    HW130350   0.750   0.284   1.110  1.3924 -0.1048  1.1511
 6296SOL    HW230351   0.786   0.239   0.974  2.6582 -1.9810 -0.6039
 6297SOL     OW30352   3.517   4.246   6.711 -0.0605  0.5310 -0.3706
 6297SOL    HW130353   3.572   4.221   6.637  0.9442 -0.1580  0.6169
 6297SOL    HW230354   3.506   4.337   6.681 -0.9293  0.6094  0.1916
 6298SOL     OW30355   0.449   1.249   2.057 -0.0812 -0.5581  0.7409
 6298SOL    HW130356   0.511   1.322   2.064  0.1955 -0.8260  1.0232
 6298SOL    HW230357   0.372   1.301   2.034  0.1724  0.0905  1.3561
 6299SOL     OW30358   1.921   2.871   7.837 -0.1419 -0.1007 -0.1263
 6299SOL    HW130359   1.943   2.959   7.805  1.7653 -0.3491  0.5064
 6299SOL    HW230360   1.941   2.864   7.930 -1.2996  1.8300  0.2679
 6300SOL     OW30361   2.928   0.557   8.250  0.2568  0.5795 -0.2024
 6300SOL    HW130362   2.834   0.557   8.265  0.4359 -0.7346  1.0400
 6300SOL    HW230363   2.962   0.536   8.338 -0.7612 -0.1813  0.0040
 6301SOL     OW30364   1.493   4.685   3.054 -0.5373 -0.2175  0.1717
 6301SOL    HW130365   1.451   4.656   3.134  1.8534 -0.7110  1.2437
 6301SOL    HW230366   1.583   4.657   3.070 -0.0862  0.8521 -0.4421
 6302SOL     OW30367   3.719   0.846   4.699  0.3306 -0.2092  0.1352
 6302SOL    HW130368   3.634   0.841   4.742 -1.1107 -0.3298 -2.7308
 6302SOL    HW230369   3.711   0.769   4.642  2.0254 -0.2753 -0.0334
 6303SOL     OW30370   0.301   1.946   4.068  0.2034  0.1210 -0.5008
 6303SOL    HW130371   0.379   1.904   4.031 -0.4180 -0.1281 -1.5264
 6303SOL    HW230372   0.296   2.011   3.998 -2.3205  0.5370  0.0621
 6304SOL     OW30373   1.702   0.275  10.361  0.1385 -0.2695  0.3599
 6304SOL    HW130374   1.700   0.339  10.290  0.5677 -0.3482  0.2732
 6304SOL    HW230375   1.677   0.194  10.317  0.7244  0.1202 -0.7008
 6305SOL     OW30376   1.411   0.205   6.811 -0.3157 -0.7233  0.3427
 6305SOL    HW130377   1.405   0.194   6.716 -0.5852  1.3664  0.1100
 6305SOL    HW230378   1.357   0.282   6.829  0.9220  0.3547 -0.6469
 6306SOL     OW30379   2.992   1.742  13.581  0.1514  0.1227 -0.0444
 6306SOL    HW130380   3.072   1.721  13.628 -1.7165 -3.0613  1.7101
 6306SOL    HW230381   2.948   1.802  13.641 -0.7268 -0.4405 -0.1243
 6307SOL     OW30382   1.909   0.184   5.572  0.3565 -0.1194 -0.6749
 6307SOL    HW130383   1.914   0.277   5.594  0.4242 -0.2788 -0.0254
 6307SOL    HW230384   1.948   0.183   5.485  1.9286 -0.8655  0.0523
 6308SOL     OW30385   3.314   2.054   4.019  0.5085 -0.1581 -0.4853
 6308SOL    HW130386   3.356   2.128   4.064  0.7777  0.5298 -1.8637
 6308SOL    HW230387   3.241   2.096   3.973  0.1216 -1.2341 -0.8461
 6309SOL     OW30388   4.407   4.269   2.886 -0.3875  0.7038 -0.4996
 6309SOL    HW130389   4.387   4.211   2.813 -0.8178  2.2274 -1.5903
 6309SOL    HW230390   4.497   4.243   2.906 -1.0964 -1.0579  0.3803
 6310SOL     OW30391   2.718   0.727  15.761 -0.4255  0.2800  0.6843
 6310SOL    HW130392   2.790   0.780  15.795 -1.6371  0.9061  2.2590
 6310SOL    HW230393   2.702   0.775  15.680 -0.4924  0.9521  1.0993
 6311SOL     OW30394   1.877   1.941  15.785 -0.1448  0.5065 -0.2567
 6311SOL    HW130395   1.816   1.971  15.719 -0.9597 -0.0889  0.2272
 6311SOL    HW230396   1.937   2.015  15.797  0.4353  0.3567 -2.2520
 6312SOL     OW30397   1.443   4.271   5.235 -0.5675 -0.5732  0.6433
 6312SOL    HW130398   1.416   4.192   5.189  1.7564 -0.8895 -0.2146
 6312SOL    HW230399   1.537   4.274   5.216 -0.8883 -1.4865 -1.0897
 6313SOL     OW30400   3.218   1.405   8.547  0.1318 -0.6125  0.7819
 6313SOL    HW130401   3.281   1.431   8.480 -1.2077 -2.3511 -1.1319
 6313SOL    HW230402   3.242   1.464   8.618  3.3420 -0.3830 -0.5134
 6314SOL     OW30403   0.806   2.616   4.623 -0.7823  0.6992  0.2827
 6314SOL    HW130404   0.811   2.586   4.532  1.9010  0.7575  0.4322
 6314SOL    HW230405   0.733   2.678   4.614 -0.8672  0.8915  2.3897
 6315SOL     OW30406   0.718   0.805  16.836  0.1428  0.6386  0.3490
 6315SOL    HW130407   0.739   0.785  16.928  0.0645 -3.1219 -0.4176
 6315SOL    HW230408   0.756   0.892  16.823  1.4745 -0.1701 -1.1960
 6316SOL     OW30409   0.383   0.148   4.843  0.3009  0.3196  0.0813
 6316SOL    HW130410   0.288   0.143   4.829  0.5324 -1.7558 -0.7903
 6316SOL    HW230411   0.382   0.181   4.932 -0.2990 -0.8469  0.5086
 6317SOL     OW30412   2.236   1.466   5.243  0.0376 -0.1140 -0.6126
 6317SOL    HW130413   2.196   1.531   5.186 -2.4831 -0.7824  0.4237
 6317SOL    HW230414   2.280   1.413   5.177  3.7883  0.6839  1.1724
 6318SOL     OW30415   4.599   2.387   5.449  0.1107  0.3759  0.3696
 6318SOL    HW130416   4.572   2.351   5.364  1.3472  2.1099 -0.7746
 6318SOL    HW230417   4.680   2.433   5.428 -0.6202  1.3465 -0.3503
 6319SOL     OW30418   1.239   3.763   5.334 -0.6776 -0.4776  0.4114
 6319SOL    HW130419   1.318   3.719   5.305 -0.6264 -0.8063  1.0528
 6319SOL    HW230420   1.226   3.820   5.258  1.9905 -0.2390  0.1386
 6320SOL     OW30421   4.318   1.842   3.127 -0.3215 -0.1698  0.1185
 6320SOL    HW130422   4.260   1.789   3.183  0.6799 -0.2273  1.0878
 6320SOL    HW230423   4.249   1.884   3.076 -0.6601  1.5386  1.9671
 6321SOL     OW30424   4.700   1.303   1.162 -0.2768  0.0477  0.1116
 6321SOL    HW130425   4.614   1.339   1.186 -0.0968  0.5463 -0.0023
 6321SOL    HW230426   4.678   1.228   1.106 -0.1866  0.5819 -0.6309
 6322SOL     OW30427   0.967   2.492   3.729 -0.0685 -0.3786  0.0793
 6322SOL    HW130428   1.005   2.502   3.816 -1.6262 -0.5464  0.7860
 6322SOL    HW230429   1.045   2.483   3.675 -0.7501  0.6147 -1.0661
 6323SOL     OW30430   1.380   0.824  10.304 -0.0555 -1.0626  0.4698
 6323SOL    HW130431   1.341   0.796  10.220  0.9857  1.6659 -0.9343
 6323SOL    HW230432   1.398   0.734  10.333  0.1327 -0.2632  2.7848
 6324SOL     OW30433   3.441   4.069   2.192  0.1542 -0.5875 -0.1760
 6324SOL    HW130434   3.407   4.009   2.258 -1.7130  2.8614  2.0182
 6324SOL    HW230435   3.367   4.083   2.133  1.0810  3.8538 -0.3069
 6325SOL     OW30436   1.362   2.581  17.209 -0.5746 -0.1732 -0.5227
 6325SOL    HW130437   1.437   2.616  17.160 -0.2834 -0.4347 -0.2627
 6325SOL    HW230438   1.372   2.632  17.289 -1.3797  1.2345 -1.3227
 6326SOL     OW30439   2.310   1.741  16.618 -0.3119  0.0517  0.2374
 6326SOL    HW130440   2.338   1.822  16.575  0.6451 -0.5450 -0.2390
 6326SOL    HW230441   2.279   1.686  16.547  3.8732  1.0350 -2.3279
 6327SOL     OW30442   3.297   0.145   6.768  0.1767  0.5120  0.3916
 6327SOL    HW130443   3.277   0.201   6.842  0.4979  0.3851  0.5748
 6327SOL    HW230444   3.374   0.097   6.798 -0.8030 -0.5314  1.2389
 6328SOL     OW30445   4.571   2.375   8.686  0.2968 -0.2433  0.0563
 6328SOL    HW130446   4.501   2.386   8.750 -0.1899 -1.6973 -0.2279
 6328SOL    HW230447   4.637   2.438   8.714 -0.8090  1.0807 -0.3105
 6329SOL     OW30448   3.109   1.441   5.359 -0.2789 -0.2412  0.3169
 6329SOL    HW130449   3.138   1.528   5.388 -1.1147 -0.1564  0.8975
 6329SOL    HW230450   3.044   1.457   5.291  2.1892  0.6396 -1.8097
 6330SOL     OW30451   3.274   3.086   5.109 -0.5878  0.3809  0.4493
 6330SOL    HW130452   3.296   3.008   5.058 -1.1178  1.7260 -1.7963
 6330SOL    HW230453   3.189   3.064   5.147 -0.7666  2.9947  1.5304
 6331SOL     OW30454   3.851   1.777  14.222 -0.3913 -0.0299  0.1466
 6331SOL    HW130455   3.910   1.707  14.249 -1.6664 -1.5813 -1.0490
 6331SOL    HW230456   3.805   1.736  14.148  0.5159 -0.3859 -0.2172
 6332SOL     OW30457   1.449   3.179   6.293  0.2972  0.1431 -0.2079
 6332SOL    HW130458   1.536   3.180   6.333 -0.6800  0.6534  1.9227
 6332SOL    HW230459   1.394   3.155   6.368  1.9398  0.3429  1.0565
 6333SOL     OW30460   2.321   1.532   3.049 -0.2161  0.8691 -0.1747
 6333SOL    HW130461   2.340   1.459   2.990  3.1085  1.2778  0.4190
 6333SOL    HW230462   2.394   1.585   3.017 -0.4415  1.8190  0.8917
 6334SOL     OW30463   3.611   2.815   5.540  0.2644 -0.7303 -0.4691
 6334SOL    HW130464   3.594   2.771   5.623  3.2986 -0.7682  0.1135
 6334SOL    HW230465   3.653   2.752   5.481  1.0375  0.1550 -0.8711
 6335SOL     OW30466   4.231   4.197  13.662  0.0063  0.2651  0.3746
 6335SOL    HW130467   4.282   4.125  13.699  1.2547  0.7749 -0.3780
 6335SOL    HW230468   4.302   4.258  13.644  1.2746 -1.2827  0.1163
 6336SOL     OW30469   3.893   2.552   6.364  0.2858 -0.0075 -0.2621
 6336SOL    HW130470   3.961   2.616   6.383  1.4865 -1.1038 -0.8673
 6336SOL    HW230471   3.825   2.612   6.333 -0.3482 -0.4148  0.3147
 6337SOL     OW30472   0.138   4.634   2.590 -0.8792  0.2070 -0.2269
 6337SOL    HW130473   0.112   4.552   2.631 -1.0770 -1.2433 -3.2103
 6337SOL    HW230474   0.105   4.691   2.659 -1.6425  1.0943 -1.3338
 6338SOL     OW30475   4.672   0.099   8.405  0.1113 -0.5882  0.0263
 6338SOL    HW130476   4.659   0.021   8.459 -0.9757  1.3420  2.5257
 6338SOL    HW230477   0.007   0.154   8.459 -1.7608  0.2244  1.1459
 6339SOL     OW30478   3.120   0.668   7.905 -0.3621 -0.2382  0.0861
 6339SOL    HW130479   3.096   0.581   7.936 -1.3182 -0.7862 -2.1640
 6339SOL    HW230480   3.174   0.643   7.830 -0.2508 -0.3612  0.2103
 6340SOL     OW30481   3.353   0.853   7.493  0.3933  0.1631 -0.1603
 6340SOL    HW130482   3.395   0.900   7.421 -0.9126  0.6558 -0.6139
 6340SOL    HW230483   3.354   0.768   7.451 -0.3343  0.9861 -1.8622
 6341SOL     OW30484   0.625   0.511   2.229 -0.4716  0.2928 -0.2653
 6341SOL    HW130485   0.537   0.479   2.246 -1.2117  1.4786 -1.8376
 6341SOL    HW230486   0.637   0.529   2.323  0.0191 -3.1426  0.3365
 6342SOL     OW30487   1.664   4.671   5.915 -0.4010  0.2624 -0.2296
 6342SOL    HW130488   1.723   4.606   5.878 -1.5448  0.8313 -3.0475
 6342SOL    HW230489   1.586   4.662   5.860  0.1091 -1.5701 -0.6554
 6343SOL     OW30490   0.712   0.917   5.067  0.6543 -0.0432 -0.3610
 6343SOL    HW130491   0.719   1.009   5.091 -0.8405 -0.0589  0.1550
 6343SOL    HW230492   0.706   0.869   5.150  0.8465  2.3155  1.0230
 6344SOL     OW30493   1.202   3.241   4.579  0.1118  0.1315 -0.7058
 6344SOL    HW130494   1.258   3.236   4.502  3.4781 -1.0701  1.8599
 6344SOL    HW230495   1.140   3.170   4.560 -0.3995 -0.2488  2.3748
 6345SOL     OW30496   0.689   2.873   2.793 -0.3577 -0.2167 -0.1840
 6345SOL    HW130497   0.742   2.935   2.842  0.9180 -3.1858  2.1745
 6345SOL    HW230498   0.702   2.784   2.826 -0.9307 -0.3085 -0.2020
 6346SOL     OW30499   4.506   1.126  10.998  0.1928  0.1264  0.5083
 6346SOL    HW130500   4.440   1.156  10.936  0.2582  0.3381  0.5412
 6346SOL    HW230501   4.554   1.063  10.944 -2.2174 -0.6633 -0.7046
 6347SOL     OW30502   1.449   3.366   5.774  1.0504 -0.7068  0.0015
 6347SOL    HW130503   1.359   3.333   5.771  0.9420 -0.3699 -0.4278
 6347SOL    HW230504   1.494   3.302   5.718 -0.2092 -1.6102  0.0184
 6348SOL     OW30505   3.679   1.684   5.558 -0.2444 -0.1958  0.2436
 6348SOL    HW130506   3.728   1.732   5.625  1.4128 -0.4832 -0.7645
 6348SOL    HW230507   3.691   1.594   5.587 -2.0781 -0.6289 -0.3539
 6349SOL     OW30508   2.782   0.950   0.488 -0.5175 -0.5230 -0.3266
 6349SOL    HW130509   2.749   0.915   0.405  1.8783 -0.8542 -1.1436
 6349SOL    HW230510   2.874   0.924   0.488 -0.3197  0.1939  3.3044
 6350SOL     OW30511   3.514   1.629  10.941  0.5912  0.5414 -0.6617
 6350SOL    HW130512   3.580   1.582  10.891  2.1804  0.0578  1.8527
 6350SOL    HW230513   3.431   1.598  10.904 -1.3264  0.0701  3.9671
 6351SOL     OW30514   2.258   1.725   6.202  0.5884  0.2075  0.4770
 6351SOL    HW130515   2.309   1.717   6.283  1.5113  2.7523  0.1458
 6351SOL    HW230516   2.200   1.794   6.235  0.4055 -0.1204  0.8402
 6352SOL     OW30517   2.384   2.685   5.254  0.6031  0.0088  0.2259
 6352SOL    HW130518   2.347   2.747   5.316  0.0636 -0.1825  0.0877
 6352SOL    HW230519   2.454   2.738   5.216  0.0293 -0.1747 -1.0524
 6353SOL     OW30520   1.323   2.761   4.901 -0.8202 -0.1154  0.6845
 6353SOL    HW130521   1.276   2.709   4.836 -0.9806  1.0937 -0.1554
 6353SOL    HW230522   1.262   2.758   4.975  1.6722 -0.4608  2.6897
 6354SOL     OW30523   4.396   0.689   7.491  0.7728  0.2157  0.1369
 6354SOL    HW130524   4.483   0.712   7.523  0.7527 -0.2125  0.5003
 6354SOL    HW230525   4.417   0.643   7.410 -0.3942 -1.5240  0.8217
 6355SOL     OW30526   3.132   3.611   6.417 -0.5085  0.2770  0.8657
 6355SOL    HW130527   3.166   3.523   6.434 -0.8932 -0.2170 -0.9917
 6355SOL    HW230528   3.053   3.601   6.470 -0.6585  0.0816  0.6054
 6356SOL     OW30529   2.829   2.146  13.471 -0.8499 -0.2765  0.2949
 6356SOL    HW130530   2.913   2.106  13.495 -0.5941  0.6222  0.8977
 6356SOL    HW230531   2.853   2.238  13.485 -1.7979  0.3730 -2.4623
 6357SOL     OW30532   0.628   1.811   5.375  0.4971 -0.1062 -0.0780
 6357SOL    HW130533   0.607   1.719   5.361 -1.8562  0.0769  2.0276
 6357SOL    HW230534   0.721   1.805   5.397  0.4770  1.4571  0.4326
 6358SOL     OW30535   2.190   4.578   9.076  0.0037 -0.3476 -0.5684
 6358SOL    HW130536   2.261   4.575   9.140 -2.2250 -0.6054  1.8582
 6358SOL    HW230537   2.156   4.667   9.081 -0.1631 -0.3834 -1.0240
 6359SOL     OW30538   3.560   0.454   8.903  0.4830 -0.0917  0.4780
 6359SOL    HW130539   3.497   0.407   8.958 -0.4335  1.8460  1.0841
 6359SOL    HW230540   3.624   0.393   8.867  0.3103  1.6003 -2.6409
 6360SOL     OW30541   2.523   2.334   4.819  0.4151  0.1657 -0.2714
 6360SOL    HW130542   2.430   2.348   4.801  0.1346  1.0244  1.8323
 6360SOL    HW230543   2.566   2.328   4.734 -2.3039 -0.9253 -1.5736
 6361SOL     OW30544   0.775   1.526   2.639 -0.2784 -0.5828 -0.1601
 6361SOL    HW130545   0.760   1.563   2.553 -1.2083  0.6908  0.5564
 6361SOL    HW230546   0.790   1.435   2.611 -0.9573 -1.3430  1.9243
 6362SOL     OW30547   4.488   3.978  12.476 -0.5563 -0.6520 -0.5217
 6362SOL    HW130548   4.393   3.977  12.488 -0.4308 -0.2059  0.5109
 6362SOL    HW230549   4.492   4.004  12.384 -0.2228  0.6317 -0.1427
 6363SOL     OW30550   1.950   4.089   2.660 -0.7322 -0.3474 -0.3009
 6363SOL    HW130551   1.919   4.024   2.723  1.1668 -1.6787 -0.7384
 6363SOL    HW230552   2.030   4.050   2.624  0.1856  1.6577 -0.4906
 6364SOL     OW30553   0.067   1.087   4.288  0.3075  0.1599  0.1813
 6364SOL    HW130554   0.061   1.098   4.194 -0.5861 -1.2460  0.0770
 6364SOL    HW230555   0.044   1.173   4.322 -0.4346 -0.6674  1.7993
 6365SOL     OW30556   0.111   0.683   7.114 -0.0553 -0.4870 -0.2466
 6365SOL    HW130557   0.102   0.600   7.067 -1.4342 -0.5864  0.2005
 6365SOL    HW230558   0.021   0.715   7.115  0.3393  0.6455 -1.0136
 6366SOL     OW30559   0.469   0.224   7.507 -0.3448  0.3366 -0.3718
 6366SOL    HW130560   0.504   0.263   7.587  2.0111 -0.8827 -0.8253
 6366SOL    HW230561   0.526   0.147   7.506  0.1190  0.6956 -1.0996
 6367SOL     OW30562   0.464   2.913  15.442 -0.1193 -0.6018  0.1682
 6367SOL    HW130563   0.472   2.891  15.350 -1.5360 -0.9750  0.1461
 6367SOL    HW230564   0.448   2.826  15.476  3.3279 -1.3261 -0.0087
 6368SOL     OW30565   2.448   3.092  13.327 -0.4061 -0.0723  0.6759
 6368SOL    HW130566   2.497   3.038  13.264  1.3403  0.4023  1.6231
 6368SOL    HW230567   2.362   3.107  13.287  0.0075  0.8404  0.1402
 6369SOL     OW30568   2.084   4.688   0.960 -0.4278 -0.4107 -0.9971
 6369SOL    HW130569   2.012   4.649   1.009 -1.4096  1.0887 -1.2458
 6369SOL    HW230570   2.093   0.043   1.017  0.0140 -0.3276 -1.1767
 6370SOL     OW30571   0.495   4.716   9.508  0.0482 -0.3692  0.2769
 6370SOL    HW130572   0.472   4.623   9.517  0.3369 -0.3712  1.0109
 6370SOL    HW230573   0.559   4.719   9.579  0.4149  1.3190 -0.1205
 6371SOL     OW30574   0.451   2.859   8.366  0.0222  0.3539 -0.2436
 6371SOL    HW130575   0.391   2.784   8.375 -0.7543  1.0661  0.5182
 6371SOL    HW230576   0.477   2.851   8.274  0.7337 -0.2104  0.0020
 6372SOL     OW30577   2.757   4.419  13.012  0.0346  0.0700 -0.1792
 6372SOL    HW130578   2.800   4.338  12.983 -2.8389 -2.1189  1.6444
 6372SOL    HW230579   2.669   4.408  12.975 -0.7647  1.9717  1.1635
 6373SOL     OW30580   4.315   0.180   7.215  0.3853 -0.4678 -0.2516
 6373SOL    HW130581   4.261   0.109   7.180  2.2559 -0.7392 -2.5580
 6373SOL    HW230582   4.399   0.141   7.239  1.2035 -0.0954 -2.5682
 6374SOL     OW30583   1.762   0.003   2.131  0.3160  0.4131  0.7182
 6374SOL    HW130584   1.720   4.699   2.213 -1.8803  0.8109 -0.2681
 6374SOL    HW230585   1.853   0.009   2.158  0.4396 -3.2693  1.1684
 6375SOL     OW30586   1.398   4.321   5.544  0.3866 -0.3151  0.1799
 6375SOL    HW130587   1.307   4.301   5.567  0.3559 -0.4329 -0.0443
 6375SOL    HW230588   1.397   4.300   5.450 -0.9105 -0.3288  0.1925
 6376SOL     OW30589   1.480   3.790   1.867  0.0528  0.5267 -0.2191
 6376SOL    HW130590   1.511   3.721   1.926  0.8397  3.5164  2.8859
 6376SOL    HW230591   1.514   3.765   1.781  2.2909 -0.7698  1.0314
 6377SOL     OW30592   4.255   2.779  13.575  0.0173  0.4215  0.2076
 6377SOL    HW130593   4.333   2.817  13.534  0.5060  0.9938  1.6809
 6377SOL    HW230594   4.263   2.817  13.662  0.9479  2.5968 -0.8096
 6378SOL     OW30595   0.953   1.704   6.967 -0.6706  0.0905  0.1215
 6378SOL    HW130596   0.957   1.784   6.915  1.9518  0.4304  0.8358
 6378SOL    HW230597   0.909   1.646   6.904 -0.3815  0.6167 -0.5706
 6379SOL     OW30598   0.384   4.010   5.545  0.2600  0.3092 -0.2445
 6379SOL    HW130599   0.381   3.923   5.584 -0.0497  1.4712  2.2901
 6379SOL    HW230600   0.400   3.982   5.454  2.6415  0.0685  0.2350
 6380SOL     OW30601   2.399   2.271   5.581  0.3089  0.1184 -0.3071
 6380SOL    HW130602   2.363   2.281   5.669 -0.8758 -1.8244 -0.5969
 6380SOL    HW230603   2.317   2.270   5.532  0.7154 -2.8642 -0.8908
 6381SOL     OW30604   1.868   4.638  16.258  0.4602 -0.2623  0.0598
 6381SOL    HW130605   1.905   4.550  16.256 -1.5529 -1.1281  1.4147
 6381SOL    HW230606   1.899   4.687  16.181 -2.0174 -0.1796 -0.8855
 6382SOL     OW30607   3.618   4.613  11.802  0.2896 -0.1482  0.7262
 6382SOL    HW130608   3.589   4.527  11.770 -2.5799  0.5949  1.3295
 6382SOL    HW230609   3.548   4.666  11.762  0.2670 -0.0499  0.8958
 6383SOL     OW30610   1.066   4.551  14.242  0.0067  0.1400 -0.0375
 6383SOL    HW130611   1.064   4.498  14.322 -0.4699  0.9576  0.4980
 6383SOL    HW230612   1.160   4.550  14.226  0.4368  0.7863  2.4395
 6384SOL     OW30613   1.991   3.350   4.709  0.6267  0.1946 -0.0895
 6384SOL    HW130614   2.001   3.270   4.761 -0.6311  1.2578  1.7685
 6384SOL    HW230615   1.906   3.318   4.678  0.4090  0.9642 -0.2789
 6385SOL     OW30616   3.984   1.763  12.295 -0.0147  0.2865 -0.1793
 6385SOL    HW130617   3.995   1.809  12.378 -1.1924  0.7673 -0.2881
 6385SOL    HW230618   3.997   1.838  12.236  0.5434  1.5026  1.4989
 6386SOL     OW30619   3.912   4.065  14.294  0.6916 -0.1468  0.3542
 6386SOL    HW130620   3.858   4.080  14.372 -1.3817  0.7716 -1.2583
 6386SOL    HW230621   3.976   4.133  14.314 -0.3929  0.8663  0.4206
 6387SOL     OW30622   4.526   2.747   5.500 -0.3904  0.6909 -0.4922
 6387SOL    HW130623   4.524   2.727   5.406  1.8387 -1.6518 -0.0396
 6387SOL    HW230624   4.437   2.743   5.535  0.1184 -1.1559  0.6197
 6388SOL     OW30625   2.862   0.805  11.934 -0.0161 -0.3109 -0.0039
 6388SOL    HW130626   2.951   0.788  11.964  0.4920  1.1266 -0.7178
 6388SOL    HW230627   2.850   0.722  11.890 -1.0872  0.3846 -1.0238
 6389SOL     OW30628   2.434   1.402   9.118  0.0096  0.9227 -0.4148
 6389SOL    HW130629   2.396   1.332   9.171  1.3271  0.7912  0.3554
 6389SOL    HW230630   2.521   1.365   9.106 -0.3107  0.6404 -1.8855
 6390SOL     OW30631   4.553   1.187   0.693 -0.6742 -0.3151  0.7120
 6390SOL    HW130632   4.625   1.179   0.755  0.4558  0.3050 -0.5294
 6390SOL    HW230633   4.581   1.134   0.619  2.0970  0.2037  1.4084
 6391SOL     OW30634   1.404   1.412   4.997  0.3191  0.1348  0.4223
 6391SOL    HW130635   1.362   1.338   4.954  1.1563 -0.8277  1.2567
 6391SOL    HW230636   1.496   1.421   4.970  0.0802  1.7749  0.1738
 6392SOL     OW30637   1.667   1.442  13.013  0.1041  0.5588  0.3969
 6392SOL    HW130638   1.728   1.371  13.033 -1.1992 -0.8072 -0.5907
 6392SOL    HW230639   1.714   1.503  12.956  0.5259  0.9361  1.1372
 6393SOL     OW30640   0.499   2.690   4.376 -0.1093  0.0391 -0.1317
 6393SOL    HW130641   0.447   2.683   4.296 -0.4193  0.1820  0.0557
 6393SOL    HW230642   0.482   2.784   4.387 -1.1925 -0.0509 -1.0560
 6394SOL     OW30643   0.294   2.867   7.121  0.0856  0.8855 -0.0248
 6394SOL    HW130644   0.345   2.937   7.082  0.9567  0.3033  0.0617
 6394SOL    HW230645   0.330   2.791   7.075 -0.1427  1.6920 -1.4985
 6395SOL     OW30646   0.287   2.624   6.429  0.7136 -0.0414 -0.2195
 6395SOL    HW130647   0.281   2.590   6.339 -2.6841 -2.1346  0.7676
 6395SOL    HW230648   0.308   2.715   6.410 -2.1501  0.5540 -0.6277
 6396SOL     OW30649   0.387   2.266   6.359 -0.5240  0.5120 -0.1501
 6396SOL    HW130650   0.412   2.178   6.331  0.8228  0.1271  2.2319
 6396SOL    HW230651   0.475   2.303   6.353  0.0363 -1.1547 -2.4974
 6397SOL     OW30652   1.055   1.446  15.661  0.1618  0.4781 -0.0473
 6397SOL    HW130653   1.088   1.521  15.611  2.7677  0.4034  1.5849
 6397SOL    HW230654   1.131   1.391  15.645  0.6833  1.0301  0.5324
 6398SOL     OW30655   0.216   3.455  10.620 -0.4397  0.1811 -0.2329
 6398SOL    HW130656   0.195   3.527  10.679 -1.0377 -0.2264  0.0534
 6398SOL    HW230657   0.278   3.405  10.673 -0.9942 -2.2312 -1.8532
 6399SOL     OW30658   1.256   4.290   4.378 -0.1166 -0.2499  0.3055
 6399SOL    HW130659   1.275   4.375   4.339 -1.2738 -0.0281  0.2036
 6399SOL    HW230660   1.164   4.297   4.351 -0.3774 -0.0582  1.2596
 6400SOL     OW30661   3.112   2.405   4.909  0.9711  0.3319 -0.0562
 6400SOL    HW130662   3.092   2.403   5.002  0.0788 -0.3334 -0.2688
 6400SOL    HW230663   3.061   2.328   4.887  1.9674 -0.0825 -0.9347
 6401SOL     OW30664   3.300   2.151   9.278  0.6352 -0.0544 -0.3534
 6401SOL    HW130665   3.365   2.156   9.207  0.8464 -0.8793 -0.2232
 6401SOL    HW230666   3.350   2.100   9.342  1.5834  0.4970 -0.6492
 6402SOL     OW30667   0.034   3.576   9.256  0.3385 -0.4497  0.3505
 6402SOL    HW130668   0.039   3.480   9.262  0.7326 -0.4143  0.5855
 6402SOL    HW230669   4.669   3.601   9.287  0.0700  0.0834 -0.8558
 6403SOL     OW30670   3.862   4.503  17.148  0.0728 -0.1578  0.1695
 6403SOL    HW130671   3.839   4.423  17.100 -0.7041  0.1871 -0.0347
 6403SOL    HW230672   3.776   4.545  17.153 -0.4672 -1.1102 -0.9714
 6404SOL     OW30673   3.682   1.925   1.200  0.4090  0.6325 -0.0738
 6404SOL    HW130674   3.706   1.844   1.156 -0.0176  0.1512  0.5815
 6404SOL    HW230675   3.725   1.991   1.146 -0.8318  0.4442 -1.2801
 6405SOL     OW30676   1.240   2.091   5.707 -0.0045 -0.3812  0.3520
 6405SOL    HW130677   1.249   2.152   5.780  0.7867 -1.4449  1.1522
 6405SOL    HW230678   1.158   2.125   5.672  0.6315 -0.0327 -0.8009
 6406SOL     OW30679   1.632   2.482   3.146 -0.9479  0.4080  0.4109
 6406SOL    HW130680   1.608   2.474   3.054  0.5197 -1.1325  0.1676
 6406SOL    HW230681   1.671   2.398   3.170 -0.7416  0.5394  0.5370
 6407SOL     OW30682   1.732   1.929   5.541 -0.3273  0.0461 -0.0580
 6407SOL    HW130683   1.750   2.019   5.512 -0.4925  0.0934 -0.0146
 6407SOL    HW230684   1.656   1.945   5.598  1.8763 -0.4433  3.0071
 6408SOL     OW30685   4.417   3.485  13.519  0.0080 -0.3700  0.3964
 6408SOL    HW130686   4.421   3.435  13.600 -1.2687  1.8655  1.8581
 6408SOL    HW230687   4.461   3.567  13.541  2.5054 -0.9537 -2.5016
 6409SOL     OW30688   3.788   1.968  16.407  0.6012  0.2413 -0.5805
 6409SOL    HW130689   3.790   1.899  16.474  0.5775  2.9266  2.1595
 6409SOL    HW230690   3.880   1.987  16.424  0.6805  2.0117 -2.9052
 6410SOL     OW30691   0.838   0.517   8.494 -0.3614  0.0981  0.2568
 6410SOL    HW130692   0.817   0.471   8.574  0.7817  0.3362  0.6974
 6410SOL    HW230693   0.880   0.595   8.532 -1.2231  0.4242  0.5311
 6411SOL     OW30694   2.668   2.286   4.578  0.1109  0.1636  0.3689
 6411SOL    HW130695   2.631   2.198   4.586 -2.6994  1.0549 -2.9338
 6411SOL    HW230696   2.761   2.278   4.558 -0.3964  0.1747 -1.9666
 6412SOL     OW30697   1.249   4.076   6.448  0.3782  0.1412 -0.1085
 6412SOL    HW130698   1.310   4.002   6.453  0.7023  0.2947 -1.9183
 6412SOL    HW230699   1.303   4.142   6.405 -0.1933  1.5511  1.3216
 6413SOL     OW30700   3.427   3.418  10.022  0.0756  0.2954  0.0038
 6413SOL    HW130701   3.379   3.473  10.084 -0.3914 -2.6593  2.2678
 6413SOL    HW230702   3.368   3.344  10.006  2.0659 -1.7602  2.2001
 6414SOL     OW30703   3.775   3.807   6.394 -0.0857  0.0430  0.0975
 6414SOL    HW130704   3.722   3.845   6.325  0.8678  0.4310 -0.4168
 6414SOL    HW230705   3.740   3.718   6.399 -0.0272  0.0253  0.1900
 6415SOL     OW30706   0.955   3.720  12.475 -0.3892  0.1864  0.3098
 6415SOL    HW130707   0.916   3.702  12.561 -1.6896  2.2882  0.1602
 6415SOL    HW230708   0.957   3.816  12.476 -0.5200  0.1562  3.3721
 6416SOL     OW30709   0.029   1.188   3.741  0.3345 -0.3208  0.4627
 6416SOL    HW130710   0.051   1.267   3.692  0.6619  0.1568  1.3866
 6416SOL    HW230711   0.068   1.124   3.680 -0.8083 -1.1695  0.6077
 6417SOL     OW30712   0.123   3.215   7.723 -0.0342  0.5593  0.1942
 6417SOL    HW130713   0.180   3.165   7.780 -0.7198 -1.7419 -1.1558
 6417SOL    HW230714   0.149   3.199   7.632 -0.2335  0.9621  0.0628
 6418SOL     OW30715   0.741   0.136   4.786  0.4380 -0.5444 -0.3483
 6418SOL    HW130716   0.658   0.175   4.757  0.5023 -0.2367 -0.1183
 6418SOL    HW230717   0.722   0.111   4.877  1.0136 -2.2116 -0.6980
 6419SOL     OW30718   0.537   1.089  15.477 -0.3169  0.4995  0.0334
 6419SOL    HW130719   0.619   1.104  15.430 -0.2597 -0.9509 -0.3394
 6419SOL    HW230720   0.538   1.152  15.549 -0.3568  0.3119  0.1977
 6420SOL     OW30721   3.800   2.730   1.324  0.1706 -0.3012  0.0284
 6420SOL    HW130722   3.778   2.793   1.393 -0.7431 -1.4514  0.7840
 6420SOL    HW230723   3.784   2.647   1.370 -1.4084 -1.8076 -3.2343
 6421SOL     OW30724   1.936   3.881   1.168 -0.3869  0.0276 -0.1767
 6421SOL    HW130725   1.903   3.875   1.079 -0.7237  1.3955 -0.1480
 6421SOL    HW230726   2.030   3.876   1.149 -0.1908 -0.4416  0.9213
 6422SOL     OW30727   0.374   3.390   4.414  0.0259 -0.1134 -0.7861
 6422SOL    HW130728   0.455   3.355   4.378  1.7970  1.6154  1.5255
 6422SOL    HW230729   0.354   3.337   4.491  0.3125  0.4552 -0.3219
 6423SOL     OW30730   1.000   4.331   4.277  0.8929 -0.0039  0.1265
 6423SOL    HW130731   0.940   4.257   4.291  1.9477 -0.6241  1.3133
 6423SOL    HW230732   0.940   4.403   4.260  0.9890 -0.3951 -1.9675
 6424SOL     OW30733   2.185   1.748   2.904  0.1270  0.1888 -0.0181
 6424SOL    HW130734   2.199   1.709   2.817  1.0596  1.7384 -0.5630
 6424SOL    HW230735   2.206   1.671   2.956 -1.9968 -1.7649 -2.0134
 6425SOL     OW30736   4.628   0.883  16.457 -0.3306  0.2467 -0.2861
 6425SOL    HW130737   4.695   0.821  16.428  0.1599  1.1144 -0.9864
 6425SOL    HW230738   4.613   0.925  16.373  0.8248  0.6939 -0.2754
 6426SOL     OW30739   0.305   0.072   6.108 -0.1694 -0.0628 -0.2423
 6426SOL    HW130740   0.241   0.002   6.123  1.4483 -1.1757  1.5161
 6426SOL    HW230741   0.304   0.091   6.014 -0.4296 -0.8960 -0.4086
 6427SOL     OW30742   4.460   3.037   8.345 -0.0203 -0.5914  0.0847
 6427SOL    HW130743   4.528   3.105   8.343  2.1664 -2.7138  1.1630
 6427SOL    HW230744   4.511   2.956   8.342 -0.4211 -0.9161  2.5147
 6428SOL     OW30745   3.674   2.054   5.705 -0.2312 -0.3578 -0.4139
 6428SOL    HW130746   3.747   2.024   5.651 -0.4930  0.3735 -1.1688
 6428SOL    HW230747   3.690   2.148   5.697  1.0382 -0.2693  2.8871
 6429SOL     OW30748   0.310   3.192   0.621 -0.5676 -0.2175 -0.1770
 6429SOL    HW130749   0.288   3.099   0.630  2.0003 -0.8755 -0.8030
 6429SOL    HW230750   0.226   3.234   0.600 -0.6490 -0.2301  0.1147
 6430SOL     OW30751   2.423   3.736   8.430  0.7889 -0.0718 -0.2301
 6430SOL    HW130752   2.404   3.817   8.477 -2.4558 -0.1447 -1.4202
 6430SOL    HW230753   2.516   3.720   8.445  1.1840  1.0877 -1.4172
 6431SOL     OW30754   0.951   0.177  15.356  0.6190 -0.3126  0.2621
 6431SOL    HW130755   1.022   0.202  15.415  1.4605  2.3795 -1.8923
 6431SOL    HW230756   0.968   0.236  15.283  1.9424  0.5073  1.2177
 6432SOL     OW30757   3.762   4.706   8.718 -0.1587 -0.0546 -0.3390
 6432SOL    HW130758   3.810   0.046   8.774  1.3253 -1.5465  0.0634
 6432SOL    HW230759   3.754   0.039   8.640 -2.1482  0.8366  0.5204
 6433SOL     OW30760   2.510   1.464   8.643  0.2172 -0.6157 -0.2811
 6433SOL    HW130761   2.417   1.479   8.630 -0.2564 -2.5929  0.9480
 6433SOL    HW230762   2.540   1.491   8.556 -0.7980  2.9811  0.4834
 6434SOL     OW30763   0.886   4.219   5.147 -0.3203 -0.5282 -0.1066
 6434SOL    HW130764   0.975   4.254   5.146  0.1879 -1.8022 -0.3470
 6434SOL    HW230765   0.831   4.288   5.110 -0.6016  0.5475  2.3440
 6435SOL     OW30766   2.034   3.412   6.932 -0.1729  0.1216 -0.2463
 6435SOL    HW130767   2.109   3.403   6.874 -0.1662  1.8741 -0.5079
 6435SOL    HW230768   2.031   3.507   6.941 -0.3642  0.1706 -0.8890
 6436SOL     OW30769   1.193   2.961   2.340  0.0280 -0.4000 -0.0841
 6436SOL    HW130770   1.129   2.968   2.411  2.6098 -0.2737  2.2193
 6436SOL    HW230771   1.163   2.889   2.285  1.7602 -1.2035  0.0504
 6437SOL     OW30772   2.611   3.594   1.829  0.4164  0.4285 -0.3459
 6437SOL    HW130773   2.536   3.535   1.823  0.2067  0.6813 -0.2061
 6437SOL    HW230774   2.677   3.536   1.789  0.9708 -0.9148  2.5529
 6438SOL     OW30775   3.619   0.870   7.136 -0.1129 -0.1662  0.4719
 6438SOL    HW130776   3.683   0.889   7.067 -1.8614 -2.1380 -1.6783
 6438SOL    HW230777   3.673   0.870   7.215 -1.7279 -0.2939  1.5687
 6439SOL     OW30778   4.635   2.907   4.689  0.2134  0.4744  0.6961
 6439SOL    HW130779   4.647   2.817   4.720  0.5581 -0.0941 -1.0877
 6439SOL    HW230780   4.542   2.929   4.697 -0.0626 -1.2937  2.1954
 6440SOL     OW30781   3.081   1.540  17.499 -0.6331  0.1757  1.0753
 6440SOL    HW130782   3.129   1.605  17.447 -0.4554  0.5186  1.6729
 6440SOL    HW230783   3.009   1.595  17.528 -1.6738 -0.4831 -0.2316
 6441SOL     OW30784   2.063   0.136   3.632  0.7919 -0.4180  0.0517
 6441SOL    HW130785   2.152   0.108   3.613  0.4414 -1.4482 -0.0781
 6441SOL    HW230786   2.032   0.198   3.566  1.6404  0.6774  0.6826
 6442SOL     OW30787   0.513   3.469  11.656  0.3239 -0.2217  0.1433
 6442SOL    HW130788   0.570   3.543  11.678 -0.8960  0.8614 -0.3449
 6442SOL    HW230789   0.558   3.425  11.583  2.6402  1.7620  0.3587
 6443SOL     OW30790   2.375   2.620   6.906 -0.1789 -0.2778 -0.1253
 6443SOL    HW130791   2.392   2.526   6.902  1.0850 -0.0159 -0.8839
 6443SOL    HW230792   2.364   2.625   7.001  0.9523 -0.2069 -0.0044
 6444SOL     OW30793   4.047   1.248  13.335  0.0313  0.3275  0.1720
 6444SOL    HW130794   4.124   1.205  13.372 -0.2701 -2.7643 -2.7118
 6444SOL    HW230795   4.030   1.190  13.260 -0.2196 -1.1893  1.4159
 6445SOL     OW30796   4.077   2.153  14.457  0.1182  0.0643 -0.0406
 6445SOL    HW130797   4.142   2.157  14.527 -1.2551  0.0873  1.2406
 6445SOL    HW230798   4.030   2.236  14.469 -0.0425 -0.2347  1.3586
 6446SOL     OW30799   2.992   4.530  13.453 -0.5114 -0.0064  0.1139
 6446SOL    HW130800   2.939   4.550  13.530 -0.2216  0.3482  0.2207
 6446SOL    HW230801   2.927   4.508  13.387  0.7994 -0.0077 -1.1670
 6447SOL     OW30802   4.682   0.725   3.163  0.3835  0.0840  0.2791
 6447SOL    HW130803   4.647   0.681   3.086 -0.2105  1.8566 -0.4445
 6447SOL    HW230804   0.053   0.727   3.139 -0.0002 -2.0452 -1.3422
 6448SOL     OW30805   4.265   3.236   7.039  0.2866  0.3093  0.4369
 6448SOL    HW130806   4.343   3.269   6.996  0.3904 -1.4093 -0.6884
 6448SOL    HW230807   4.302   3.179   7.106  2.4021  1.6406  0.3823
 6449SOL     OW30808   3.763   1.177   9.170 -0.7332  0.2121 -0.1956
 6449SOL    HW130809   3.820   1.225   9.229 -0.2062 -0.9499  0.2449
 6449SOL    HW230810   3.768   1.085   9.197  1.8706  0.5445  0.5058
 6450SOL     OW30811   0.614   2.318   2.881 -0.1943 -0.1239 -0.6330
 6450SOL    HW130812   0.633   2.306   2.974 -0.3058 -0.4982 -0.6579
 6450SOL    HW230813   0.678   2.256   2.846  0.1417 -0.1107 -0.0395
 6451SOL     OW30814   1.548   3.439   4.115 -0.0205  0.0640 -0.3131
 6451SOL    HW130815   1.583   3.359   4.155  0.9074  0.6679  0.0776
 6451SOL    HW230816   1.542   3.501   4.188 -2.1725  0.4911 -0.8577
 6452SOL     OW30817   2.050   3.659   2.124  0.3805  0.0439 -0.3518
 6452SOL    HW130818   2.131   3.609   2.136 -0.7284 -2.0482 -1.8087
 6452SOL    HW230819   2.021   3.652   2.033  1.3047  0.6337 -0.6981
 6453SOL     OW30820   1.073   3.199  12.821  0.1577 -0.1201 -0.6094
 6453SOL    HW130821   1.009   3.138  12.784  0.2088 -0.7441  0.3551
 6453SOL    HW230822   1.125   3.198  12.740 -0.5007 -2.8575 -0.9735
 6454SOL     OW30823   1.993   1.524   7.542  0.5294  0.2463 -0.1753
 6454SOL    HW130824   1.952   1.592   7.489  0.1357  0.6049  0.5986
 6454SOL    HW230825   1.923   1.521   7.607  1.0035  0.5080  0.3397
 6455SOL     OW30826   2.794   1.580  14.653  0.6819  0.6095  0.1955
 6455SOL    HW130827   2.764   1.610  14.567 -1.2103 -2.3495 -0.1578
 6455SOL    HW230828   2.727   1.620  14.708  0.8918  0.3582  0.6319
 6456SOL     OW30829   1.332   2.946  14.909  0.3844  0.0948 -0.2250
 6456SOL    HW130830   1.376   3.021  14.948  1.5509 -0.6057 -0.1674
 6456SOL    HW230831   1.248   2.975  14.873  1.1372 -0.4720 -2.4779
 6457SOL     OW30832   3.906   4.714  11.307 -0.1161  0.3563 -0.2962
 6457SOL    HW130833   3.981   4.657  11.322 -0.6651  0.1846  1.6888
 6457SOL    HW230834   3.857   4.672  11.237  0.3597 -0.9226  0.1448
 6458SOL     OW30835   0.626   4.389   1.940 -0.6597  0.5695  0.3002
 6458SOL    HW130836   0.554   4.328   1.924 -0.5390  0.7248 -0.8772
 6458SOL    HW230837   0.591   4.459   1.995  0.7676 -0.8662  3.0296
 6459SOL     OW30838   2.990   0.591   5.960  0.8095  0.3448  0.3950
 6459SOL    HW130839   2.938   0.511   5.956  0.9826  0.1550  1.7547
 6459SOL    HW230840   3.068   0.556   6.004  0.0085  1.3745  2.6708
 6460SOL     OW30841   1.286   4.179   8.929 -0.1636 -0.4678  0.0298
 6460SOL    HW130842   1.362   4.193   8.873 -0.2087 -3.0583 -0.6958
 6460SOL    HW230843   1.333   4.148   9.006  1.6663 -1.2269 -1.3982
 6461SOL     OW30844   3.645   0.692   6.352  0.7774 -0.1663 -0.5669
 6461SOL    HW130845   3.710   0.758   6.328 -0.5622  0.9784 -1.0450
 6461SOL    HW230846   3.615   0.734   6.433  4.0884 -2.5123  1.8881
 6462SOL     OW30847   3.711   3.954  10.285  0.3146 -0.0376 -0.2708
 6462SOL    HW130848   3.695   3.861  10.300 -1.2033 -0.0174 -1.8043
 6462SOL    HW230849   3.746   3.965  10.374  0.7893 -0.1374 -0.4455
 6463SOL     OW30850   2.123   2.371  10.044  0.5591 -0.3592 -0.7631
 6463SOL    HW130851   2.098   2.428   9.971 -0.6709  0.0315 -0.0414
 6463SOL    HW230852   2.174   2.301  10.004 -2.7800 -3.2902  0.1900
 6464SOL     OW30853   3.186   2.014   2.347 -0.1820  0.2951  0.3246
 6464SOL    HW130854   3.236   2.091   2.376 -1.2612  1.2776 -0.4070
 6464SOL    HW230855   3.239   1.993   2.270 -0.2572  2.0879 -0.2258
 6465SOL     OW30856   3.494   1.133  12.133  0.2214 -0.5915 -0.1321
 6465SOL    HW130857   3.414   1.082  12.139  1.6842 -2.7203  1.3477
 6465SOL    HW230858   3.556   1.076  12.178 -0.6402 -1.0173  0.5021
 6466SOL     OW30859   3.159   3.914  15.436  0.6772  0.4430  0.6610
 6466SOL    HW130860   3.170   3.987  15.375 -0.9095 -0.0173 -0.1911
 6466SOL    HW230861   3.065   3.898  15.429  0.7235 -0.2128  1.5342
 6467SOL     OW30862   1.971   4.347   0.438 -0.9133  0.1702 -0.3332
 6467SOL    HW130863   2.063   4.321   0.447 -1.1700 -0.7755 -0.4723
 6467SOL    HW230864   1.970   4.426   0.492 -0.5121 -0.0594  0.0130
 6468SOL     OW30865   1.807   2.976  14.832 -0.4519  0.2579  0.2120
 6468SOL    HW130866   1.782   2.895  14.876  3.8853 -1.5736 -0.6342
 6468SOL    HW230867   1.748   2.974  14.757  0.7170 -0.8200 -0.6969
 6469SOL     OW30868   3.005   0.626   4.036  0.2585 -0.2341  0.4838
 6469SOL    HW130869   2.918   0.649   4.069  0.1147  2.1286 -1.6328
 6469SOL    HW230870   2.982   0.571   3.962 -1.5272 -0.4627  1.2067
 6470SOL     OW30871   3.682   3.588   7.749 -0.7279 -0.5727 -0.2502
 6470SOL    HW130872   3.697   3.561   7.658  1.2090 -1.1850  0.2491
 6470SOL    HW230873   3.730   3.521   7.797 -0.8638 -0.0259  0.6623
 6471SOL     OW30874   2.346   0.984   8.879 -0.2597  0.3805 -0.5923
 6471SOL    HW130875   2.429   0.972   8.833 -0.7565 -1.9289 -0.8774
 6471SOL    HW230876   2.284   0.981   8.807 -0.9912 -0.4840  0.0807
 6472SOL     OW30877   1.555   1.260   2.027  0.7340  0.5468  0.0127
 6472SOL    HW130878   1.499   1.198   2.073  0.7085 -1.3734 -2.5967
 6472SOL    HW230879   1.515   1.347   2.037 -1.9939 -0.4904 -1.8894
 6473SOL     OW30880   4.644   3.411  12.788  0.0270 -0.2373 -0.1522
 6473SOL    HW130881   4.655   3.317  12.803  1.2598  0.3274  2.3163
 6473SOL    HW230882   4.714   3.453  12.836 -0.4038 -0.8266  0.9805
 6474SOL     OW30883   3.801   2.120   7.648  0.0147 -0.0888 -0.3233
 6474SOL    HW130884   3.709   2.109   7.674  0.6608 -0.2264  1.9505
 6474SOL    HW230885   3.844   2.044   7.688  1.3867  0.1950 -1.2636
 6475SOL     OW30886   1.085   3.648   4.201  0.2061 -0.4446  0.0519
 6475SOL    HW130887   1.118   3.721   4.148  2.6655 -2.4213 -1.1576
 6475SOL    HW230888   1.015   3.621   4.142  0.9910  1.8941 -1.9671
 6476SOL     OW30889   1.944   2.695  12.365  0.4398 -0.2001 -0.1034
 6476SOL    HW130890   1.904   2.725  12.283  1.9071  0.2689 -0.6383
 6476SOL    HW230891   1.929   2.773  12.417  1.1565 -0.3575  0.3352
 6477SOL     OW30892   4.052   2.195   8.156  0.4077 -0.4616  0.5840
 6477SOL    HW130893   4.032   2.140   8.232  0.7614 -0.5653  0.5999
 6477SOL    HW230894   4.145   2.216   8.161  0.1685  0.4004  1.4649
 6478SOL     OW30895   2.069   4.285  16.007 -0.1416  0.0156  0.5855
 6478SOL    HW130896   2.092   4.375  16.032 -2.6777  0.0567  2.9107
 6478SOL    HW230897   2.034   4.242  16.086  1.0133  0.5795  1.4004
 6479SOL     OW30898   1.203   0.856   3.103  0.0839 -0.6454 -0.2726
 6479SOL    HW130899   1.228   0.943   3.133  1.0644 -1.0681  0.1515
 6479SOL    HW230900   1.158   0.865   3.019  2.9003  3.5262 -1.3066
 6480SOL     OW30901   2.828   0.937   5.614 -0.1348 -0.1973  0.6440
 6480SOL    HW130902   2.763   0.987   5.663 -0.7166  0.9968 -1.3121
 6480SOL    HW230903   2.881   1.000   5.565 -0.0547  0.0635  1.0698
 6481SOL     OW30904   1.264   1.300   7.355 -0.6309  0.2281 -0.4170
 6481SOL    HW130905   1.226   1.218   7.323  2.6084 -0.8264 -1.5068
 6481SOL    HW230906   1.331   1.262   7.410 -1.9687  0.3700  1.3200
 6482SOL     OW30907   1.123   4.297  12.148 -0.1746  0.8953  0.0674
 6482SOL    HW130908   1.058   4.312  12.080 -1.6456  0.2108  1.3384
 6482SOL    HW230909   1.202   4.273  12.099 -0.8590  1.0649 -1.1132
 6483SOL     OW30910   4.670   2.519  12.793  0.2511  0.6875 -0.1356
 6483SOL    HW130911   4.648   2.446  12.851  2.4125  0.1211 -0.0394
 6483SOL    HW230912   0.022   2.489  12.741  0.4320 -0.9191  1.0627
 6484SOL     OW30913   3.542   0.435   5.710  0.3293  0.1563 -0.2387
 6484SOL    HW130914   3.515   0.526   5.711  0.6186  0.2452 -0.4445
 6484SOL    HW230915   3.597   0.432   5.788 -0.2119  3.0933  0.2433
 6485SOL     OW30916   3.298   1.554  12.891 -0.0400 -0.5545  0.3384
 6485SOL    HW130917   3.343   1.563  12.975  0.6795  1.9069 -0.3131
 6485SOL    HW230918   3.212   1.528  12.924  0.3767  0.2311  2.0678
 6486SOL     OW30919   3.956   3.843   7.724 -0.1369 -0.5270 -0.0668
 6486SOL    HW130920   3.976   3.890   7.805  0.3940  1.0214 -1.1216
 6486SOL    HW230921   3.861   3.851   7.731 -0.0630  2.0623 -2.1535
 6487SOL     OW30922   0.204   3.328   8.303  0.1205  0.9122  0.2596
 6487SOL    HW130923   0.253   3.260   8.350  0.0567  0.7001  0.0194
 6487SOL    HW230924   0.200   3.397   8.370  0.2878 -0.9577  2.2226
 6488SOL     OW30925   4.691   1.230   5.060  0.0014  0.2260  0.5825
 6488SOL    HW130926   0.026   1.192   5.128 -0.4426  0.3320  1.0167
 6488SOL    HW230927   4.643   1.296   5.111 -0.7212  0.7805 -0.8309
 6489SOL     OW30928   2.493   0.159   6.857 -0.5425 -0.2756  0.0536
 6489SOL    HW130929   2.453   0.241   6.830 -0.2536  1.0867  3.7781
 6489SOL    HW230930   2.416   0.120   6.898 -0.7990  0.5146  0.3251
 6490SOL     OW30931   1.397   4.674   5.189  0.3819 -0.4158 -0.0110
 6490SOL    HW130932   1.473   4.618   5.206  0.7937  0.7960  2.2504
 6490SOL    HW230933   1.383   0.000   5.271 -1.5449 -1.5319  0.3065
 6491SOL     OW30934   0.325   3.126  15.549 -0.2244 -0.3561  0.1610
 6491SOL    HW130935   0.346   3.076  15.469  2.2898  2.8687 -1.1926
 6491SOL    HW230936   0.247   3.071  15.559 -0.2686 -0.4284 -0.5702
 6492SOL     OW30937   2.416   0.113   4.402 -0.0434  0.2714  0.1357
 6492SOL    HW130938   2.411   0.180   4.335  0.8028 -0.4121 -0.6055
 6492SOL    HW230939   2.473   0.044   4.367 -0.3797 -0.5920  1.2572
 6493SOL     OW30940   1.253   4.130   2.567 -0.5033  0.1052 -0.8716
 6493SOL    HW130941   1.203   4.082   2.501 -0.8644  2.4047 -2.2725
 6493SOL    HW230942   1.180   4.158   2.622  0.9788  0.3611  0.9626
 6494SOL     OW30943   3.299   3.561   6.121  0.4362  0.5645 -0.0377
 6494SOL    HW130944   3.221   3.616   6.120 -0.0353 -0.0722  2.1404
 6494SOL    HW230945   3.313   3.531   6.211 -2.5002  1.1635  0.6102
 6495SOL     OW30946   0.809   1.031  12.401  0.5966  0.5077 -0.1496
 6495SOL    HW130947   0.716   1.021  12.380  0.3777 -0.1933  1.1034
 6495SOL    HW230948   0.850   1.035  12.315  0.2982  0.6097 -0.2859
 6496SOL     OW30949   0.545   3.230   3.646  0.2472  0.0350 -0.0648
 6496SOL    HW130950   0.585   3.144   3.644  0.2151  0.0067  0.6529
 6496SOL    HW230951   0.534   3.256   3.554  0.8343  1.6195  0.3210
 6497SOL     OW30952   4.062   0.950   5.560 -0.0966 -0.2038  0.1036
 6497SOL    HW130953   4.141   1.002   5.547  0.3255 -0.7989  0.2919
 6497SOL    HW230954   4.034   0.981   5.646  0.6625  0.9507 -0.0627
 6498SOL     OW30955   3.925   4.424   4.992 -0.4274  0.9019  0.3314
 6498SOL    HW130956   3.966   4.508   5.011  2.5829  0.2568 -3.2657
 6498SOL    HW230957   3.994   4.364   5.020 -0.5741  0.4467 -0.2603
 6499SOL     OW30958   1.912   2.604   6.316  0.5000  0.0168 -0.0090
 6499SOL    HW130959   1.867   2.688   6.326 -0.1891 -0.1246 -2.0136
 6499SOL    HW230960   1.975   2.643   6.255 -0.4445  2.6860  0.7432
 6500SOL     OW30961   1.097   1.294  13.644 -0.2014  0.4841 -0.1233
 6500SOL    HW130962   1.025   1.237  13.616 -0.2771 -0.3552  1.8077
 6500SOL    HW230963   1.171   1.255  13.598 -1.1086 -1.5981  0.1816
 6501SOL     OW30964   1.660   0.130   5.142 -0.1569 -0.6033 -0.3187
 6501SOL    HW130965   1.596   0.201   5.150  1.3186  0.4987  1.6406
 6501SOL    HW230966   1.619   0.073   5.077  0.6837 -2.1970  0.5557
 6502SOL     OW30967   1.748   2.617  13.983  0.6282 -0.6009 -0.0953
 6502SOL    HW130968   1.755   2.523  13.999 -0.4394 -0.8525 -1.1123
 6502SOL    HW230969   1.833   2.640  13.945  0.4561  0.5677  0.2302
 6503SOL     OW30970   3.361   1.184   9.174 -0.2417 -0.4132 -0.2705
 6503SOL    HW130971   3.363   1.095   9.210 -3.2346  0.6957  2.6204
 6503SOL    HW230972   3.409   1.181   9.092  1.0014 -0.2599  0.4586
 6504SOL     OW30973   1.636   4.594   6.379 -0.5378  0.0770  0.7579
 6504SOL    HW130974   1.632   4.644   6.460  2.0719 -1.1690  1.6579
 6504SOL    HW230975   1.560   4.536   6.383 -0.7784  0.3575  0.2681
 6505SOL     OW30976   0.390   2.660   1.260 -0.1093  0.0465 -0.2046
 6505SOL    HW130977   0.383   2.647   1.354  0.5220  1.6695  0.0655
 6505SOL    HW230978   0.464   2.609   1.225 -1.4652 -1.4255 -0.9476
 6506SOL     OW30979   3.834   4.103   7.576  0.2532 -0.2101  0.1060
 6506SOL    HW130980   3.778   4.119   7.499 -0.0333  1.0674  0.5774
 6506SOL    HW230981   3.863   4.012   7.575 -1.4393 -0.7518 -0.6891
 6507SOL     OW30982   2.290   4.250  13.166 -0.1363  0.1785  0.2351
 6507SOL    HW130983   2.297   4.270  13.259 -0.2409 -0.4788  0.3800
 6507SOL    HW230984   2.372   4.209  13.139 -0.8069 -1.1457  0.2265
 6508SOL     OW30985   2.737   2.632   6.810 -0.7304  0.1356 -0.2557
 6508SOL    HW130986   2.736   2.565   6.741  0.7886  0.6034 -0.7503
 6508SOL    HW230987   2.647   2.639   6.840 -1.1820  2.2062 -2.0312
 6509SOL     OW30988   3.291   0.340   2.483  0.9652 -0.4444  0.2079
 6509SOL    HW130989   3.340   0.263   2.510  1.2616 -1.0613 -2.0920
 6509SOL    HW230990   3.333   0.358   2.399 -0.8871  0.8618 -0.4506
 6510SOL     OW30991   3.967   0.106   4.154 -0.2740  0.0465  0.2460
 6510SOL    HW130992   3.966   0.053   4.074 -2.0599  0.3775  0.0663
 6510SOL    HW230993   3.974   0.188   4.104 -2.3994  0.2849  0.3561
 6511SOL     OW30994   0.736   1.430  14.110  0.1596 -0.3758  0.3164
 6511SOL    HW130995   0.641   1.444  14.109  0.2560  0.2916  0.2754
 6511SOL    HW230996   0.738   1.364  14.179  1.7490 -1.6653 -0.9732
 6512SOL     OW30997   4.134   2.720  11.450 -0.7802 -0.0245 -0.3699
 6512SOL    HW130998   4.045   2.731  11.486 -0.4833  1.7732 -0.1884
 6512SOL    HW230999   4.116   2.657  11.380  3.2736 -0.8342 -0.6486
 6513SOL     OW31000   2.950   1.665   9.281  0.5579 -0.0979 -0.0655
 6513SOL    HW131001   3.009   1.702   9.216  1.3548 -1.4508 -0.1080
 6513SOL    HW231002   2.905   1.601   9.225  1.1650  0.0142 -0.6773
 6514SOL     OW31003   2.064   4.485   6.526 -0.3678  0.0854 -0.1212
 6514SOL    HW131004   2.013   4.554   6.569  0.8249  0.3542  0.8774
 6514SOL    HW231005   2.085   4.538   6.448  1.3110 -0.0606  0.2235
 6515SOL     OW31006   2.681   3.475  14.272 -0.7012  0.1393  0.1189
 6515SOL    HW131007   2.696   3.482  14.366 -0.1704 -1.6670  0.1832
 6515SOL    HW231008   2.676   3.566  14.243  0.6192 -0.6840 -2.7106
 6516SOL     OW31009   2.357   4.374   2.889  0.2078  0.3281 -0.1147
 6516SOL    HW131010   2.429   4.357   2.829  0.7045 -1.1068  0.8674
 6516SOL    HW231011   2.407   4.403   2.966 -0.3098 -0.1206  0.3949
 6517SOL     OW31012   1.196   3.508  10.466  0.2889 -0.2026 -0.2054
 6517SOL    HW131013   1.214   3.588  10.515  1.7134 -0.1367 -0.8569
 6517SOL    HW231014   1.170   3.448  10.536 -1.4176 -1.1478 -1.6433
 6518SOL     OW31015   3.704   2.584  13.389  0.0886 -0.1308 -0.1459
 6518SOL    HW131016   3.798   2.574  13.401 -0.2388 -1.1787  1.4932
 6518SOL    HW231017   3.670   2.549  13.471 -0.5447 -0.4138 -0.5266
 6519SOL     OW31018   3.815   3.374   7.892 -0.4047 -0.0890 -0.2034
 6519SOL    HW131019   3.867   3.307   7.936  0.5619  0.9652  0.2579
 6519SOL    HW231020   3.876   3.448   7.889 -0.6983  0.2302  1.3922
 6520SOL     OW31021   1.419   3.274  11.528 -0.2430 -0.1475  0.1014
 6520SOL    HW131022   1.504   3.233  11.516  0.6621  2.1379 -1.4548
 6520SOL    HW231023   1.427   3.308  11.617 -2.2764 -0.9879  0.5969
 6521SOL     OW31024   1.589   0.780   7.568  0.2794 -0.0862  0.5224
 6521SOL    HW131025   1.545   0.812   7.489 -0.2157 -1.2002  0.3492
 6521SOL    HW231026   1.514   0.757   7.623  1.8030 -1.8499  1.8682
 6522SOL     OW31027   2.938   2.254   4.416 -0.1644  0.4917  0.0699
 6522SOL    HW131028   3.008   2.284   4.357  0.6167 -1.2592  0.1080
 6522SOL    HW231029   2.991   2.220   4.489  0.3138 -2.3073 -1.5519
 6523SOL     OW31030   2.583   0.941   8.710  0.7433  0.0262  0.0649
 6523SOL    HW131031   2.586   0.850   8.679  0.7459  1.4196 -4.0431
 6523SOL    HW231032   2.675   0.968   8.700  0.8535 -1.0143 -1.8737
 6524SOL     OW31033   4.429   2.548  13.202  0.1321 -0.0154 -0.2736
 6524SOL    HW131034   4.363   2.524  13.267 -0.6181 -1.1663 -1.4605
 6524SOL    HW231035   4.439   2.639  13.229 -1.3584 -0.7525  2.7626
 6525SOL     OW31036   2.658   3.438   3.380  0.4767 -0.1887 -0.0231
 6525SOL    HW131037   2.580   3.441   3.435 -0.0799 -2.1789 -0.6751
 6525SOL    HW231038   2.678   3.345   3.367  0.6965  0.0730 -1.6416
 6526SOL     OW31039   0.418   1.910   5.698 -0.0670  0.0851  0.3257
 6526SOL    HW131040   0.411   1.851   5.623  0.7746  1.5509 -0.9036
 6526SOL    HW231041   0.478   1.857   5.749 -1.3517 -1.1311  0.5917
 6527SOL     OW31042   1.026   0.178   0.350 -0.6752 -0.0918 -0.6531
 6527SOL    HW131043   1.077   0.159   0.271  0.2014 -1.5408  0.2783
 6527SOL    HW231044   0.980   0.096   0.368 -0.5601 -0.2135 -0.9120
 6528SOL     OW31045   4.573   2.401   9.830  0.6099  0.0400  0.1095
 6528SOL    HW131046   4.581   2.396   9.735 -0.8459  0.1701 -0.0208
 6528SOL    HW231047   4.493   2.453   9.839  0.0882 -0.8213  0.5811
 6529SOL     OW31048   3.877   0.652   5.880 -0.4878 -0.1999  0.4617
 6529SOL    HW131049   3.815   0.723   5.897  0.2039  0.1497  1.6017
 6529SOL    HW231050   3.818   0.580   5.861 -3.7256  1.6638  3.4521
 6530SOL     OW31051   1.991   0.035   3.898 -0.1718  0.1151 -0.2984
 6530SOL    HW131052   2.045   0.071   3.828 -0.3727 -0.5544 -0.7856
 6530SOL    HW231053   1.903   0.032   3.862 -0.0499 -0.5413 -0.5321
 6531SOL     OW31054   0.218   1.932   5.007 -0.3487 -0.0186 -0.2370
 6531SOL    HW131055   0.308   1.955   4.984 -0.3750 -2.2027 -2.4654
 6531SOL    HW231056   0.192   1.913   4.917 -0.7022  0.1556 -0.1741
 6532SOL     OW31057   1.880   4.307   3.553  0.1455 -0.0911 -0.3579
 6532SOL    HW131058   1.823   4.358   3.496 -0.3562  0.4129  0.5908
 6532SOL    HW231059   1.918   4.379   3.603  0.0019 -1.2193  1.3855
 6533SOL     OW31060   4.678   2.509   9.559  0.2937  0.0734 -0.4550
 6533SOL    HW131061   4.652   2.585   9.611 -2.6517  0.1575 -2.0192
 6533SOL    HW231062   0.045   2.499   9.592  0.6754  1.1983 -1.1279
 6534SOL     OW31063   2.932   2.731   3.207 -0.8745  0.3882 -0.1165
 6534SOL    HW131064   2.910   2.783   3.284 -0.2499  0.3342  0.0973
 6534SOL    HW231065   2.918   2.642   3.237 -0.1567  0.5272  0.6204
 6535SOL     OW31066   0.129   0.906   7.787  0.5266 -0.4020  0.8291
 6535SOL    HW131067   0.116   0.904   7.882  0.5876 -1.5497  0.8144
 6535SOL    HW231068   0.223   0.892   7.782  0.3288 -0.7841 -2.1088
 6536SOL     OW31069   3.370   4.339   6.252  0.1996 -0.2764  0.2598
 6536SOL    HW131070   3.324   4.407   6.203 -0.0164 -0.3485  0.3609
 6536SOL    HW231071   3.333   4.349   6.340  1.3694  1.0905  0.5883
 6537SOL     OW31072   2.038   4.156  12.059  0.3151 -0.0271  0.2523
 6537SOL    HW131073   1.951   4.192  12.075 -0.0891 -1.3575  1.0875
 6537SOL    HW231074   2.025   4.123  11.970  1.9889  0.6585 -0.2333
 6538SOL     OW31075   2.030   1.175   3.811 -0.6695 -0.0144 -0.2100
 6538SOL    HW131076   2.122   1.161   3.786 -1.3048 -3.0560 -0.9151
 6538SOL    HW231077   2.042   1.228   3.890 -2.3923  3.2871 -2.1640
 6539SOL     OW31078   3.660   3.511   4.819 -0.4127 -0.3020 -0.2456
 6539SOL    HW131079   3.579   3.461   4.833 -1.0057  1.1690  1.5613
 6539SOL    HW231080   3.637   3.547   4.733  2.0401 -3.6329 -2.3042
 6540SOL     OW31081   2.434   0.894  17.567 -0.5323 -0.2564 -0.0628
 6540SOL    HW131082   2.404   0.911  17.656 -0.6719 -0.5055 -0.0611
 6540SOL    HW231083   2.384   0.954  17.512 -0.8336  0.5323  1.0623
 6541SOL     OW31084   0.155   1.951   5.855 -0.1594  0.6195 -0.1544
 6541SOL    HW131085   0.244   1.958   5.820 -1.1416 -2.1800 -3.1963
 6541SOL    HW231086   0.161   1.868   5.902 -0.3870  0.2243 -0.8110
 6542SOL     OW31087   2.907   1.440  11.643  0.5268 -0.6683 -0.6250
 6542SOL    HW131088   2.889   1.387  11.565  2.5406 -0.4764 -1.2179
 6542SOL    HW231089   2.966   1.507  11.608 -1.0292  0.1975 -1.5551
 6543SOL     OW31090   3.531   4.687   0.178 -0.2029  0.2450  0.4118
 6543SOL    HW131091   3.596   4.661   0.112 -0.0119 -0.6308  0.9627
 6543SOL    HW231092   3.508   4.603   0.216 -2.4597 -0.1562 -1.8565
 6544SOL     OW31093   1.240   2.618   3.110 -0.9256  0.3174  0.1150
 6544SOL    HW131094   1.211   2.657   3.193 -0.3758  0.8269  0.0663
 6544SOL    HW231095   1.333   2.641   3.115 -0.5761 -0.9162 -0.9215
 6545SOL     OW31096   4.594   0.284   2.915 -0.2132 -0.2021 -0.5004
 6545SOL    HW131097   4.499   0.284   2.925 -0.2854  0.2625 -1.2393
 6545SOL    HW231098   4.602   0.230   2.837 -1.2999  1.1590 -1.5459
 6546SOL     OW31099   0.057   3.140   5.895  0.0875  0.5567  0.2536
 6546SOL    HW131100   0.097   3.213   5.847 -2.9530  1.7959 -0.3741
 6546SOL    HW231101   0.079   3.157   5.987 -0.7522  1.8896  0.2011
 6547SOL     OW31102   2.333   2.982   3.827 -0.7369 -0.4289 -0.1000
 6547SOL    HW131103   2.307   3.048   3.891 -0.6888 -1.1563  0.6597
 6547SOL    HW231104   2.303   2.904   3.872  0.7030 -2.0375 -1.9161
 6548SOL     OW31105   0.942   2.245   9.856  0.0331 -0.4130  0.0864
 6548SOL    HW131106   0.962   2.300   9.780 -1.6087  1.3466  0.9270
 6548SOL    HW231107   0.860   2.289   9.880 -0.9144 -0.0707 -3.7145
 6549SOL     OW31108   2.920   1.053   5.020  0.5045  0.3004  0.3225
 6549SOL    HW131109   2.983   1.087   4.957 -1.1559  0.2910 -1.3112
 6549SOL    HW231110   2.947   1.108   5.094 -0.2307  1.7757 -0.5136
 6550SOL     OW31111   2.202   4.088   3.951 -0.7403 -0.2284  0.5428
 6550SOL    HW131112   2.265   4.160   3.963  2.6316 -3.4723  2.2969
 6550SOL    HW231113   2.212   4.069   3.857  0.1683 -0.5172  0.7006
 6551SOL     OW31114   3.604   4.272   5.735 -0.2820  0.0102  0.7319
 6551SOL    HW131115   3.542   4.336   5.700  0.1181 -0.6263 -1.1140
 6551SOL    HW231116   3.553   4.220   5.797  1.1913  1.1435  2.9139
 6552SOL     OW31117   4.707   3.604   4.738  0.2617 -0.7721 -0.1569
 6552SOL    HW131118   4.716   3.696   4.762  1.8662 -1.7161  2.9303
 6552SOL    HW231119   0.001   3.613   4.644 -0.9120  0.6098 -0.2204
 6553SOL     OW31120   4.474   1.490   6.479 -0.1135  0.3056  0.0245
 6553SOL    HW131121   4.489   1.558   6.544  1.0706  0.3151 -0.2625
 6553SOL    HW231122   4.379   1.495   6.476 -0.0969 -0.0548 -1.3147
 6554SOL     OW31123   3.298   1.017   2.514  0.1118  0.2572 -0.0411
 6554SOL    HW131124   3.212   0.996   2.477 -0.0663  1.3805 -0.2955
 6554SOL    HW231125   3.289   0.994   2.606  1.9051  0.0696  0.0807
 6555SOL     OW31126   2.394   1.602   9.756 -0.0703 -0.0631 -0.6978
 6555SOL    HW131127   2.431   1.571   9.673 -0.7774 -1.5495 -0.4626
 6555SOL    HW231128   2.395   1.697   9.752  0.9308 -0.1125 -1.6880
 6556SOL     OW31129   0.996   1.091  15.665  0.1143  0.0227  0.1770
 6556SOL    HW131130   0.936   1.117  15.595  1.0410  0.5629 -0.4022
 6556SOL    HW231131   0.950   1.113  15.746  0.2303 -0.9064  0.4993
 6557SOL     OW31132   1.339   2.169   3.408  0.1478 -0.2861  0.1281
 6557SOL    HW131133   1.393   2.097   3.440 -0.4581  0.1429  2.0961
 6557SOL    HW231134   1.262   2.120   3.380 -0.1108  1.2154 -1.7966
 6558SOL     OW31135   0.739   3.439   0.378  0.0037  0.8332  0.5658
 6558SOL    HW131136   0.730   3.534   0.380  2.2045  1.1001 -1.5120
 6558SOL    HW231137   0.658   3.396   0.404 -0.7282  0.3394 -2.5107
 6559SOL     OW31138   1.382   3.986   8.507 -0.0877  0.3155 -0.3163
 6559SOL    HW131139   1.311   4.050   8.512  1.5569  2.0622  0.5479
 6559SOL    HW231140   1.383   3.987   8.411 -0.2463  0.1570 -0.3186
 6560SOL     OW31141   0.661   3.392  11.442 -0.5144 -0.2638  0.2073
 6560SOL    HW131142   0.722   3.326  11.477 -0.2169 -0.0556  0.0840
 6560SOL    HW231143   0.635   3.342  11.364 -0.5562 -0.1285  0.1344
 6561SOL     OW31144   3.049   2.509   4.648  0.0140 -0.2559 -0.4396
 6561SOL    HW131145   3.083   2.482   4.563  3.8931  0.1031  1.0053
 6561SOL    HW231146   3.122   2.479   4.702 -1.4285 -1.4106  0.8324
 6562SOL     OW31147   1.705   0.268   7.996  0.6372  0.5347  0.6763
 6562SOL    HW131148   1.776   0.268   7.933 -0.8402  0.5724 -0.9777
 6562SOL    HW231149   1.695   0.363   8.007 -1.8484  0.3264  0.2339
 6563SOL     OW31150   4.461   1.554   9.830  0.0402 -0.1336 -0.2324
 6563SOL    HW131151   4.371   1.564   9.860  0.3719  1.1298  0.3786
 6563SOL    HW231152   4.455   1.499   9.752 -2.8919  0.9582 -0.7860
 6564SOL     OW31153   1.496   1.974   5.715 -0.1432 -0.2256  0.0936
 6564SOL    HW131154   1.448   2.057   5.722  1.1590  0.6853 -1.5842
 6564SOL    HW231155   1.435   1.918   5.763 -0.0597  1.5261  2.2540
 6565SOL     OW31156   1.834   1.771   3.669  0.2377  0.0480  0.1205
 6565SOL    HW131157   1.873   1.702   3.724  1.3853  0.2365 -0.4455
 6565SOL    HW231158   1.903   1.782   3.603  0.9197 -1.5429  0.5605
 6566SOL     OW31159   2.761   1.297   7.098  0.4473  0.1486  0.0332
 6566SOL    HW131160   2.810   1.215   7.100  2.1470  1.1498 -0.9900
 6566SOL    HW231161   2.815   1.344   7.034  0.5680  0.9781  0.7424
 6567SOL     OW31162   1.782   0.961  16.932 -0.1851  0.7227  0.0443
 6567SOL    HW131163   1.819   1.001  17.011  0.3557  1.2372 -0.4644
 6567SOL    HW231164   1.837   1.001  16.865  0.4713  0.3272  0.3480
 6568SOL     OW31165   3.576   1.519  14.501 -0.1598  0.5955  0.3734
 6568SOL    HW131166   3.555   1.577  14.428  2.0853  0.2319 -0.5528
 6568SOL    HW231167   3.666   1.495  14.479 -0.9778 -0.9949 -1.1550
 6569SOL     OW31168   2.491   4.308   9.425  0.4964 -0.0081  0.3945
 6569SOL    HW131169   2.481   4.385   9.481 -1.2458  0.2880 -0.3196
 6569SOL    HW231170   2.579   4.287   9.456  0.5193  3.7180  2.9111
 6570SOL     OW31171   0.856   2.243   2.730 -0.0036  0.0610  0.6100
 6570SOL    HW131172   0.848   2.182   2.657 -1.1609 -1.3381  1.9237
 6570SOL    HW231173   0.918   2.307   2.692 -1.2920  0.2169 -1.2636
 6571SOL     OW31174   0.822   4.354   6.947  0.1986 -0.1253 -0.0494
 6571SOL    HW131175   0.828   4.413   7.022 -1.0220 -1.2654  0.9518
 6571SOL    HW231176   0.875   4.396   6.879 -1.7610  1.6514 -0.4779
 6572SOL     OW31177   1.970   4.652   6.083  0.0324  0.2577  0.0870
 6572SOL    HW131178   2.009   0.007   6.042  0.2017  0.5335  0.7678
 6572SOL    HW231179   1.891   4.695   6.114  0.2334  0.4970  0.2690
 6573SOL     OW31180   1.194   2.078   8.927 -0.4733 -0.1825  0.0027
 6573SOL    HW131181   1.223   1.987   8.920 -0.5021 -0.1798 -0.1490
 6573SOL    HW231182   1.228   2.101   8.840 -0.9880  0.3482 -0.0598
 6574SOL     OW31183   1.068   2.260   5.385  0.1484  0.3030 -0.1356
 6574SOL    HW131184   1.013   2.313   5.328 -0.6509  0.3554  0.6896
 6574SOL    HW231185   1.003   2.210   5.434  0.4218 -1.2156 -1.3114
 6575SOL     OW31186   2.774   1.177   6.800  0.0151 -0.1189 -0.4192
 6575SOL    HW131187   2.814   1.091   6.816  0.4213  0.0812 -0.3724
 6575SOL    HW231188   2.843   1.240   6.819 -0.9142  0.4653  1.0513
 6576SOL     OW31189   3.220   1.076  17.583  0.5915 -0.1518  0.3208
 6576SOL    HW131190   3.195   1.156  17.536  0.2191  0.2876  1.2713
 6576SOL    HW231191   3.288   1.045  17.523  0.9837  2.0681 -0.3975
 6577SOL     OW31192   3.709   1.201   3.285  0.0146 -0.5487 -0.0094
 6577SOL    HW131193   3.769   1.274   3.266  0.9405 -0.7591  2.0650
 6577SOL    HW231194   3.670   1.191   3.199 -1.6783 -0.8907  0.8043
 6578SOL     OW31195   1.981   0.540   2.960  0.2882 -0.0453 -0.5378
 6578SOL    HW131196   2.041   0.604   2.999  1.2658 -1.4319  0.2158
 6578SOL    HW231197   2.039   0.473   2.922  1.0168  0.9022 -1.1132
 6579SOL     OW31198   0.238   1.191  15.623 -0.1574 -0.2087 -0.2935
 6579SOL    HW131199   0.160   1.209  15.675  0.6697 -0.2462  0.9584
 6579SOL    HW231200   0.303   1.208  15.692  0.8141  0.9812 -1.4786
 6580SOL     OW31201   3.210   0.717   7.153 -0.3130 -0.5087 -0.0113
 6580SOL    HW131202   3.252   0.803   7.149  0.5252 -0.8934  0.5516
 6580SOL    HW231203   3.191   0.706   7.060 -0.2525  2.0997 -0.3512
 6581SOL     OW31204   2.594   0.943   3.752  0.0159 -0.4722 -0.3285
 6581SOL    HW131205   2.532   0.925   3.682 -1.5377 -1.9993  1.4417
 6581SOL    HW231206   2.551   0.903   3.828 -2.1797  1.4891 -0.5207
 6582SOL     OW31207   4.109   3.491   4.685 -0.8534  0.4066 -0.4858
 6582SOL    HW131208   4.106   3.557   4.755  1.1807 -1.0746  1.0284
 6582SOL    HW231209   4.031   3.436   4.696  0.2072 -0.7953  1.1166
 6583SOL     OW31210   2.412   1.343   1.073  0.0283 -0.2157 -0.1606
 6583SOL    HW131211   2.338   1.403   1.080  0.3412  0.1610 -0.0735
 6583SOL    HW231212   2.484   1.403   1.051  0.1729 -0.2934  0.1042
 6584SOL     OW31213   0.321   1.885   0.801  0.6315 -0.0024 -0.6120
 6584SOL    HW131214   0.378   1.810   0.784 -0.0038 -0.6338  0.0413
 6584SOL    HW231215   0.316   1.918   0.711 -0.7441  1.1674 -0.0977
 6585SOL     OW31216   3.630   3.445   4.277  0.6941 -0.0013 -0.4802
 6585SOL    HW131217   3.556   3.384   4.269  0.9078 -0.3370  0.0515
 6585SOL    HW231218   3.659   3.459   4.187 -0.3513 -1.8716 -1.1118
 6586SOL     OW31219   1.427   1.267   6.368  0.2235 -0.1885 -0.2507
 6586SOL    HW131220   1.422   1.295   6.459 -0.5676 -0.6903 -0.1417
 6586SOL    HW231221   1.352   1.311   6.329  0.7804  1.6976  0.8229
 6587SOL     OW31222   3.313   0.277  15.547 -0.7119 -0.2848  0.6381
 6587SOL    HW131223   3.249   0.315  15.607 -2.7265 -1.9302 -0.4307
 6587SOL    HW231224   3.363   0.226  15.611 -0.4984 -1.5143 -0.5081
 6588SOL     OW31225   3.521   4.042   7.100  0.1303 -0.0253  0.2488
 6588SOL    HW131226   3.505   3.969   7.041  1.0217 -0.2402  0.2738
 6588SOL    HW231227   3.616   4.056   7.095 -0.0021  1.3764  1.6670
 6589SOL     OW31228   2.710   4.615   2.932  0.4649 -0.1555  0.2492
 6589SOL    HW131229   2.735   4.594   3.023 -2.1299  2.4858  1.5711
 6589SOL    HW231230   2.669   4.532   2.904  1.3994 -0.0817 -1.3245
 6590SOL     OW31231   2.391   1.905   3.243  0.0170  0.1002  0.1299
 6590SOL    HW131232   2.334   1.957   3.186  0.6007  1.2370  0.5715
 6590SOL    HW231233   2.393   1.978   3.306  0.0769 -0.3390  0.6320
 6591SOL     OW31234   2.110   0.364   7.900  0.2087  0.2346 -0.0762
 6591SOL    HW131235   2.179   0.322   7.849 -0.1347 -0.3766 -0.0398
 6591SOL    HW231236   2.145   0.358   7.989 -0.1336  1.4107  0.1407
 6592SOL     OW31237   2.266   1.219   7.790 -0.5428 -0.2055 -0.6369
 6592SOL    HW131238   2.361   1.211   7.790 -0.6192 -1.0325  0.0183
 6592SOL    HW231239   2.256   1.308   7.824  2.3208 -0.0495 -0.1908
 6593SOL     OW31240   2.322   3.450   0.339 -0.2406 -0.1820  0.1677
 6593SOL    HW131241   2.365   3.399   0.407 -0.0804 -0.6119 -0.2570
 6593SOL    HW231242   2.250   3.389   0.324  1.8590 -2.4752 -0.4606
 6594SOL     OW31243   1.466   0.478   2.871  0.5251  0.0753 -0.5417
 6594SOL    HW131244   1.436   0.562   2.905  0.7121  0.2304 -0.7577
 6594SOL    HW231245   1.561   0.483   2.885  0.3709  0.9896  0.1515
 6595SOL     OW31246   0.711   3.282   0.026 -0.1050 -0.1809 -0.2568
 6595SOL    HW131247   0.701   3.357  17.657  0.6055 -0.6117 -0.9246
 6595SOL    HW231248   0.668   3.215  17.662 -0.8661  1.3540 -1.5719
 6596SOL     OW31249   4.092   0.373  15.299 -0.2487 -0.1854 -0.1254
 6596SOL    HW131250   4.163   0.320  15.264  0.6346  0.5375  0.5763
 6596SOL    HW231251   4.097   0.356  15.393 -2.9223  1.0788  0.2660
 6597SOL     OW31252   2.640   0.729  12.480  0.0308  0.4088  0.5300
 6597SOL    HW131253   2.665   0.641  12.508 -0.7056  0.1505  0.3764
 6597SOL    HW231254   2.566   0.708  12.423  2.0470  0.8080 -2.1815
 6598SOL     OW31255   3.054   4.135  15.075 -0.5638  0.2355  0.7986
 6598SOL    HW131256   3.091   4.047  15.069 -2.3898 -0.2739 -3.5499
 6598SOL    HW231257   3.098   4.151  15.158  0.9465  0.4441 -0.0456
 6599SOL     OW31258   2.128   4.020  15.406  0.3292 -0.0778 -0.2744
 6599SOL    HW131259   2.164   4.023  15.317  1.8622  0.8343  0.3869
 6599SOL    HW231260   2.035   4.005  15.387 -0.0231  0.4738  1.0554
 6600SOL     OW31261   1.867   0.891   4.199 -0.4122  0.3729 -0.0517
 6600SOL    HW131262   1.852   0.820   4.261 -1.7301  0.5252 -0.1822
 6600SOL    HW231263   1.816   0.867   4.121 -0.0298  0.7026 -0.4015
 6601SOL     OW31264   3.106   0.663   7.541  0.1914  0.2643  0.2197
 6601SOL    HW131265   3.156   0.744   7.530  1.1583 -0.2555  0.8519
 6601SOL    HW231266   3.159   0.610   7.599  2.0495 -0.0066 -1.7185
 6602SOL     OW31267   0.928   3.219   8.786 -0.0086 -0.4966  0.0705
 6602SOL    HW131268   1.009   3.223   8.736 -0.3313  3.2673 -0.1671
 6602SOL    HW231269   0.867   3.221   8.713 -0.2146 -1.5765  0.2115
 6603SOL     OW31270   1.818   1.070   3.109 -0.2947  0.5519  0.2711
 6603SOL    HW131271   1.755   0.998   3.121 -0.4909  0.4885 -1.2201
 6603SOL    HW231272   1.763   1.148   3.117  0.7451  1.2455  0.5394
 6604SOL     OW31273   1.066   2.192   7.522  0.2906  0.6486  0.3102
 6604SOL    HW131274   1.103   2.272   7.487  1.9884 -0.1529  0.2833
 6604SOL    HW231275   1.000   2.187   7.453  0.2348  0.4518  0.3763
 6605SOL     OW31276   0.072   2.037  15.966 -0.3384 -0.2603  0.0437
 6605SOL    HW131277   0.054   2.082  16.049  1.1539  3.3042 -1.5946
 6605SOL    HW231278   4.705   2.043  15.932  1.1046  3.9858 -2.9784
 6606SOL     OW31279   2.742   2.340  13.097 -0.3413  0.5693 -0.0161
 6606SOL    HW131280   2.700   2.421  13.069 -0.6038  0.0664 -1.0782
 6606SOL    HW231281   2.727   2.352  13.191 -0.6071  0.6377 -0.0684
 6607SOL     OW31282   0.393   3.262  12.082  0.3738  0.0222  0.2523
 6607SOL    HW131283   0.307   3.300  12.100 -0.7353 -0.8895 -3.0845
 6607SOL    HW231284   0.410   3.245  12.174  0.7781 -2.3043 -0.2557
 6608SOL     OW31285   0.667   4.440   8.363 -0.6749 -0.2986  0.0680
 6608SOL    HW131286   0.656   4.356   8.407 -0.0457 -1.8591 -2.7873
 6608SOL    HW231287   0.589   4.484   8.398  0.2813  0.0942  1.7291
 6609SOL     OW31288   3.789   2.513   7.062 -0.0587 -0.3491  0.0518
 6609SOL    HW131289   3.879   2.492   7.088  0.7060  0.2584 -2.0915
 6609SOL    HW231290   3.773   2.586   7.122 -1.9561 -1.7035  1.1745
 6610SOL     OW31291   4.064   2.147  12.567  0.0887  0.5821  0.2134
 6610SOL    HW131292   4.098   2.210  12.631 -0.2139  1.5208 -0.5542
 6610SOL    HW231293   4.087   2.191  12.485  0.7247  0.8948  0.5558
 6611SOL     OW31294   1.023   4.270  15.441 -0.0350 -0.2797  0.3230
 6611SOL    HW131295   1.087   4.327  15.399  0.4977 -1.0519  0.0953
 6611SOL    HW231296   0.957   4.260  15.372  0.8694 -0.5822 -0.4970
 6612SOL     OW31297   1.948   3.954  11.509  0.3313  0.0375 -0.0966
 6612SOL    HW131298   2.028   4.005  11.493 -0.3444  1.1350  0.0314
 6612SOL    HW231299   1.923   3.939  11.418 -0.1379  0.7163 -0.0781
 6613SOL     OW31300   2.105   1.911   5.771 -0.0630  0.0527 -0.0730
 6613SOL    HW131301   2.045   1.841   5.745 -2.3146  1.8629  0.2642
 6613SOL    HW231302   2.098   1.973   5.699 -1.6314  1.4226  1.2440
 6614SOL     OW31303   0.474   1.511   4.788  0.2930 -0.7654 -0.2833
 6614SOL    HW131304   0.382   1.532   4.775  0.6973  1.2861  0.1083
 6614SOL    HW231305   0.509   1.592   4.826 -1.5058 -0.3170  0.4147
 6615SOL     OW31306   0.413   4.014   2.951  0.0085  0.1827  0.3264
 6615SOL    HW131307   0.402   4.109   2.958 -0.3270  0.1824 -0.1905
 6615SOL    HW231308   0.495   4.004   2.999 -1.2797 -1.9373  2.0559
 6616SOL     OW31309   4.484   2.682   2.006 -0.0624  0.4034 -0.2413
 6616SOL    HW131310   4.413   2.728   2.051  1.0397  2.2949 -0.4664
 6616SOL    HW231311   4.436   2.609   1.966 -0.2365 -0.4078  1.4264
 6617SOL     OW31312   0.291   2.699   4.185 -0.0812  0.4182  0.6217
 6617SOL    HW131313   0.261   2.788   4.165  3.4539  1.1872 -1.2877
 6617SOL    HW231314   0.209   2.655   4.207  0.2749 -1.3484 -1.5267
 6618SOL     OW31315   3.429   1.930   8.030  0.6695  1.0189  0.6067
 6618SOL    HW131316   3.395   2.001   7.975  1.3579  1.7620  1.1305
 6618SOL    HW231317   3.445   1.979   8.111  2.0826  0.2722  0.7737
 6619SOL     OW31318   4.350   2.948   4.704  0.0877 -0.5606 -0.4552
 6619SOL    HW131319   4.267   2.993   4.721 -0.4000 -1.7915  0.4155
 6619SOL    HW231320   4.355   2.977   4.613 -0.6419  2.7333  0.5712
 6620SOL     OW31321   0.302   2.896  15.089  0.6482  0.5004 -0.3863
 6620SOL    HW131322   0.309   2.987  15.061  0.6618  0.7665  0.4830
 6620SOL    HW231323   0.206   2.890  15.083  0.4625  2.5208  0.6100
 6621SOL     OW31324   2.471   1.112   8.522  0.3869  0.0861 -0.1759
 6621SOL    HW131325   2.521   1.040   8.483 -2.8219 -1.6278 -1.1617
 6621SOL    HW231326   2.498   1.109   8.613  0.7565  2.2495 -0.2224
 6622SOL     OW31327   2.086   3.703  17.446  0.1904  0.0915  0.0948
 6622SOL    HW131328   2.083   3.797  17.462  1.4235  0.3870 -1.4070
 6622SOL    HW231329   2.122   3.711  17.358  3.2055 -1.2325  1.2356
 6623SOL     OW31330   1.301   4.331  14.400  0.2971  0.1857 -0.4911
 6623SOL    HW131331   1.282   4.242  14.371 -0.4270 -0.0299  0.6622
 6623SOL    HW231332   1.213   4.353  14.428 -0.0607  1.4425 -2.5854
 6624SOL     OW31333   0.262   0.248  10.660 -0.4738  0.1503 -0.2287
 6624SOL    HW131334   0.276   0.339  10.635  1.6884 -1.2711 -4.1490
 6624SOL    HW231335   0.341   0.198  10.641 -0.0819  1.7063 -2.7109
 6625SOL     OW31336   4.555   0.512   5.434  0.5680  0.4351 -0.3970
 6625SOL    HW131337   4.537   0.599   5.400  2.9136  0.9971 -0.2151
 6625SOL    HW231338   4.490   0.461   5.387  1.8756  0.3843 -2.1320
 6626SOL     OW31339   4.642   0.633   0.911 -0.1321  0.0992  0.3722
 6626SOL    HW131340   4.587   0.576   0.856  0.6610 -0.5902  0.2927
 6626SOL    HW231341   4.603   0.630   0.998  2.1493 -1.0794  1.3675
 6627SOL     OW31342   1.077   1.843   4.018  0.3979  0.2309  0.0833
 6627SOL    HW131343   1.045   1.928   4.051 -0.0080 -0.3337  1.1585
 6627SOL    HW231344   1.060   1.783   4.090 -0.3381  0.6517  0.2634
 6628SOL     OW31345   4.391   2.863   0.100 -0.5844 -0.1443 -0.5824
 6628SOL    HW131346   4.327   2.804   0.060 -1.2976 -1.0462  1.9011
 6628SOL    HW231347   4.473   2.832   0.062 -0.4296 -2.1848  1.4321
 6629SOL     OW31348   2.825   1.532   6.425  0.2258  0.1199  0.3410
 6629SOL    HW131349   2.784   1.617   6.411  1.5902  0.9631  1.4298
 6629SOL    HW231350   2.837   1.503   6.334  0.2786 -2.8498  1.2840
 6630SOL     OW31351   1.147   3.509   2.209 -0.4950 -0.2815 -0.3040
 6630SOL    HW131352   1.197   3.436   2.246  1.9784  1.3888 -0.3754
 6630SOL    HW231353   1.199   3.526   2.131  0.6084 -1.7436  0.1200
 6631SOL     OW31354   2.069   4.627  15.240  0.5819  0.2613  0.1403
 6631SOL    HW131355   2.106   4.544  15.268 -1.0325 -1.0764 -1.6359
 6631SOL    HW231356   2.007   4.601  15.171 -0.2100 -2.8751  2.0404
 6632SOL     OW31357   2.324   2.505   2.798 -0.0795 -0.0136 -0.0513
 6632SOL    HW131358   2.408   2.551   2.805  0.2740 -0.3124 -2.5220
 6632SOL    HW231359   2.264   2.562   2.845  0.4785  0.2301  0.3696
 6633SOL     OW31360   3.889   0.065  10.278 -0.6089  0.2086 -0.2240
 6633SOL    HW131361   3.890   0.157  10.252 -1.4403  0.0498 -0.8298
 6633SOL    HW231362   3.868   0.027  10.192 -1.4272  0.2659 -0.0509
 6634SOL     OW31363   1.768   0.305   3.734 -0.0770 -0.5143  0.1078
 6634SOL    HW131364   1.796   0.367   3.666  0.1273  0.3225  0.9562
 6634SOL    HW231365   1.825   0.321   3.809  0.7021 -0.7231 -0.4387
 6635SOL     OW31366   3.207   1.360   8.973  0.4476 -0.2403 -0.2149
 6635SOL    HW131367   3.202   1.291   8.907  0.1965  0.4071 -0.8785
 6635SOL    HW231368   3.151   1.422   8.927  0.3224 -1.2811 -1.4577
 6636SOL     OW31369   0.570   2.610   0.708  0.3439  0.2485 -0.0833
 6636SOL    HW131370   0.551   2.629   0.800 -2.3656 -0.3535 -0.5302
 6636SOL    HW231371   0.563   2.698   0.672 -2.2456  0.1705  0.2192
 6637SOL     OW31372   0.661   2.926  12.910  0.2271 -0.2558  0.5543
 6637SOL    HW131373   0.635   3.012  12.943  2.2657  1.0510 -1.2519
 6637SOL    HW231374   0.718   2.895  12.981  3.4155  3.3574 -0.4409
 6638SOL     OW31375   4.195   2.945  16.127  0.6173  0.2279  0.4776
 6638SOL    HW131376   4.287   2.937  16.154  0.0903 -0.1954  2.1624
 6638SOL    HW231377   4.174   3.026  16.173  2.6169  1.1256 -0.2063
 6639SOL     OW31378   2.545   3.159   5.631 -0.0641  0.0536  0.2592
 6639SOL    HW131379   2.466   3.202   5.598  2.1623  4.0568  0.1973
 6639SOL    HW231380   2.605   3.163   5.556 -1.3043  0.0270 -0.7496
 6640SOL     OW31381   1.571   2.187   2.889 -0.3795  0.1733 -0.1936
 6640SOL    HW131382   1.539   2.116   2.833  2.9038 -0.2269 -1.5692
 6640SOL    HW231383   1.663   2.186   2.861 -0.5419 -0.2800 -0.7152
 6641SOL     OW31384   3.005   3.501  10.945  0.2132  0.0079  0.6109
 6641SOL    HW131385   3.050   3.475  11.025  0.7719 -4.0412 -1.0360
 6641SOL    HW231386   2.915   3.480  10.972  0.3528  0.1570  1.1874
 6642SOL     OW31387   3.061   0.863   8.279 -0.6027  0.4983 -0.3950
 6642SOL    HW131388   3.038   0.886   8.189  0.9833 -0.9973 -1.1705
 6642SOL    HW231389   3.047   0.953   8.309 -2.1551  0.4806 -1.0944
 6643SOL     OW31390   3.835   0.920  15.403 -0.1503  0.1939  0.0897
 6643SOL    HW131391   3.803   0.934  15.492  0.2001 -2.4125  0.6147
 6643SOL    HW231392   3.771   0.852  15.382 -1.2730  0.5598  2.3277
 6644SOL     OW31393   1.845   1.847  16.253  0.3804  0.3853  0.2945
 6644SOL    HW131394   1.771   1.894  16.292  0.8218  2.0103 -0.7954
 6644SOL    HW231395   1.915   1.912  16.247  1.4750 -1.0013 -1.8753
 6645SOL     OW31396   4.421   1.688   8.170 -0.2463 -0.4799 -0.3515
 6645SOL    HW131397   4.428   1.622   8.101 -2.5018 -1.6137  0.4991
 6645SOL    HW231398   4.505   1.733   8.169 -0.4950  0.0612  2.9701
 6646SOL     OW31399   3.980   3.206   4.550  0.2098 -0.1019 -0.2635
 6646SOL    HW131400   3.924   3.248   4.615  1.8393  3.8671 -1.3982
 6646SOL    HW231401   3.957   3.251   4.469  1.2685 -0.0617 -0.5429
 6647SOL     OW31402   1.803   1.077  11.224  0.2860 -0.2289  0.3838
 6647SOL    HW131403   1.796   1.137  11.150 -2.0949 -1.0182 -0.0248
 6647SOL    HW231404   1.715   1.041  11.220 -0.2654  1.0208  1.0305
 6648SOL     OW31405   0.525   2.921   5.679 -0.1052  0.5749  0.5107
 6648SOL    HW131406   0.607   2.967   5.697  0.2048 -0.0110  0.6195
 6648SOL    HW231407   0.461   2.979   5.719  1.1253  1.9344  0.5049
 6649SOL     OW31408   2.289   1.219   9.480  0.1992 -0.4165  0.3307
 6649SOL    HW131409   2.362   1.272   9.510  1.4256 -0.9616 -1.6882
 6649SOL    HW231410   2.216   1.237   9.540  1.0392  2.2461  0.5565
 6650SOL     OW31411   3.910   2.372  17.649 -0.0965  0.2894 -0.4486
 6650SOL    HW131412   3.996   2.332  17.638  0.2865  0.4690  1.9013
 6650SOL    HW231413   3.919   2.434   0.031  1.0854  0.9092 -1.1396
 6651SOL     OW31414   1.516   3.856   4.941  0.3037  0.1510  0.1565
 6651SOL    HW131415   1.427   3.825   4.925  0.5886 -0.1507 -0.8225
 6651SOL    HW231416   1.576   3.786   4.965  0.7479  0.1441 -0.9778
 6652SOL     OW31417   2.829   2.088   1.345  0.1892  0.1740  0.4240
 6652SOL    HW131418   2.742   2.062   1.376  1.4106 -3.5731  0.7891
 6652SOL    HW231419   2.856   2.108   1.435  2.2148 -1.1888  0.1266
 6653SOL     OW31420   0.460   1.627   9.419 -0.0709 -0.0206  0.2654
 6653SOL    HW131421   0.431   1.540   9.448 -0.8679 -0.1953 -1.1000
 6653SOL    HW231422   0.439   1.638   9.327 -0.5094 -1.8160  0.1442
 6654SOL     OW31423   1.276   0.603   1.900 -0.1322 -0.4254  0.1072
 6654SOL    HW131424   1.316   0.537   1.958  0.5087 -0.4729 -0.3911
 6654SOL    HW231425   1.190   0.609   1.940 -0.1654 -2.3021  0.3313
 6655SOL     OW31426   0.209   4.419  13.944  0.0332 -0.7677  0.6978
 6655SOL    HW131427   0.291   4.460  13.972 -0.7136 -0.2506  2.1365
 6655SOL    HW231428   0.155   4.496  13.926  1.9263  0.3467 -0.2488
 6656SOL     OW31429   3.413   1.439  16.589  0.1669 -0.0066 -0.1734
 6656SOL    HW131430   3.365   1.389  16.523  0.5506  0.0952 -0.5322
 6656SOL    HW231431   3.503   1.416  16.564  1.3731  2.7096  1.7202
 6657SOL     OW31432   0.520   4.599   4.941  0.5977 -0.4359 -0.0014
 6657SOL    HW131433   0.610   4.628   4.957  0.1896  1.1389 -0.5866
 6657SOL    HW231434   0.478   4.685   4.950 -0.1456 -0.5204 -2.8167
 6658SOL     OW31435   4.581   1.700   0.313 -0.2008 -0.3976  0.4779
 6658SOL    HW131436   4.647   1.694   0.382  0.3490 -0.4953 -0.0534
 6658SOL    HW231437   4.498   1.692   0.361  0.7257  0.5347  2.2151
 6659SOL     OW31438   1.258   1.079   3.232  0.1202 -0.3461  0.4983
 6659SOL    HW131439   1.258   1.173   3.217 -2.6006  0.1698  3.5787
 6659SOL    HW231440   1.177   1.076   3.283  0.6104 -0.2691  1.2980
 6660SOL     OW31441   3.340   1.529   1.401  0.2311  0.1919 -0.4030
 6660SOL    HW131442   3.367   1.547   1.491  0.8017  1.2060 -0.7731
 6660SOL    HW231443   3.299   1.614   1.389 -0.5863 -0.2001 -0.3811
 6661SOL     OW31444   3.142   3.859  15.058 -0.3349  0.6971 -0.3457
 6661SOL    HW131445   3.100   3.822  14.981  0.3045 -1.3802  0.3000
 6661SOL    HW231446   3.155   3.776  15.104  1.3749  0.4131 -1.3627
 6662SOL     OW31447   3.351   2.162   7.522 -0.6959  0.8631 -0.0445
 6662SOL    HW131448   3.404   2.092   7.561 -4.1962 -1.3568  0.7450
 6662SOL    HW231449   3.416   2.218   7.481  1.3371 -2.8160 -1.7376
 6663SOL     OW31450   4.616   0.865   7.003 -0.3914 -0.0155  0.0792
 6663SOL    HW131451   4.559   0.788   7.004 -0.9119  0.3903  1.7494
 6663SOL    HW231452   4.583   0.919   6.932 -2.3185  1.3133  1.9721
 6664SOL     OW31453   3.352   3.114   1.247 -0.4436  0.1243  0.9663
 6664SOL    HW131454   3.353   3.193   1.301 -0.2598  0.5186  0.3949
 6664SOL    HW231455   3.287   3.141   1.181  2.9245  2.8329 -1.2175
 6665SOL     OW31456   0.415   2.009   5.346  0.6367  0.0273 -0.2358
 6665SOL    HW131457   0.378   2.031   5.431  0.5094 -1.6019  0.1336
 6665SOL    HW231458   0.483   1.948   5.373  1.9128  0.9999 -1.1886
 6666SOL     OW31459   1.145   4.036   6.049  0.4092 -0.0703  0.3255
 6666SOL    HW131460   1.217   4.006   5.994  1.4524  0.8068  1.2092
 6666SOL    HW231461   1.178   4.116   6.089 -1.4559  1.9016 -2.0416
 6667SOL     OW31462   2.820   3.290   7.798 -0.1424 -0.5357 -0.2439
 6667SOL    HW131463   2.881   3.302   7.726  2.0224  2.2309  2.0321
 6667SOL    HW231464   2.741   3.247   7.764 -0.3021 -2.2271  2.3079
 6668SOL     OW31465   0.689   4.620  10.691  0.2536 -0.4091  0.4699
 6668SOL    HW131466   0.594   4.625  10.695  0.3192  0.3781  1.1248
 6668SOL    HW231467   0.702   4.527  10.670  0.7999  0.5176 -3.4104
 6669SOL     OW31468   1.037   1.377   7.780  0.6275 -0.5633 -0.3010
 6669SOL    HW131469   1.040   1.296   7.730  0.4207  0.3539 -1.7845
 6669SOL    HW231470   1.120   1.379   7.829  0.1243 -0.8609  0.5592
 6670SOL     OW31471   4.133   1.786   2.389 -0.3828 -0.2421  0.9377
 6670SOL    HW131472   4.054   1.757   2.435 -0.8260  0.5246  0.6507
 6670SOL    HW231473   4.168   1.701   2.362 -3.7568 -1.1870 -0.4656
 6671SOL     OW31474   2.574   2.565   6.548  0.2230 -0.0038 -0.5370
 6671SOL    HW131475   2.519   2.487   6.545 -1.7938  1.4121  0.0073
 6671SOL    HW231476   2.661   2.531   6.570 -0.7972 -0.3249  3.0677
 6672SOL     OW31477   4.568   0.501   1.528  0.2111 -0.3574  0.3373
 6672SOL    HW131478   4.603   0.589   1.522 -1.7272  0.4592  1.0294
 6672SOL    HW231479   4.638   0.447   1.491  0.8899 -1.0582  2.5699
 6673SOL     OW31480   3.922   2.546   1.134 -0.1463 -0.0036 -0.3574
 6673SOL    HW131481   3.932   2.625   1.080  0.4349 -1.3797 -2.2440
 6673SOL    HW231482   3.880   2.570   1.217  0.7579  0.8743 -0.1528
 6674SOL     OW31483   0.327   2.292  12.944  0.0824 -0.0316  0.3041
 6674SOL    HW131484   0.397   2.229  12.925 -1.3366 -1.8161  1.0662
 6674SOL    HW231485   0.307   2.285  13.038 -1.5600 -0.6761 -0.1015
 6675SOL     OW31486   2.879   2.646   9.446 -0.8363 -0.0118  0.0409
 6675SOL    HW131487   2.949   2.600   9.399  0.3961  1.0429  0.8625
 6675SOL    HW231488   2.859   2.581   9.513  1.4702 -0.8810 -0.1078
 6676SOL     OW31489   0.860   0.553   0.193  0.6423  0.5929 -0.7965
 6676SOL    HW131490   0.832   0.519   0.108 -1.3320  1.3710 -0.4515
 6676SOL    HW231491   0.789   0.615   0.209  0.0670 -0.4346  0.6502
 6677SOL     OW31492   4.112   0.580   8.214 -0.3910 -0.1981 -0.3220
 6677SOL    HW131493   4.112   0.674   8.229 -2.0262 -0.0936 -0.9382
 6677SOL    HW231494   4.018   0.568   8.226 -0.3506  0.0442  0.2269
 6678SOL     OW31495   0.521   1.600   4.514 -0.2285 -0.6985  0.1554
 6678SOL    HW131496   0.574   1.679   4.523 -0.4309 -0.4671 -0.6975
 6678SOL    HW231497   0.530   1.567   4.604 -0.6594 -4.2357 -1.0810
 6679SOL     OW31498   0.947   0.396   8.038  0.3856 -0.2851  0.3113
 6679SOL    HW131499   0.894   0.345   8.099  0.4537 -1.4826 -0.6170
 6679SOL    HW231500   1.034   0.357   8.053  1.4796  0.2578 -4.5294
 6680SOL     OW31501   4.621   4.418   8.839  0.1941  0.1131 -0.2362
 6680SOL    HW131502   4.548   4.469   8.803  0.6151  1.6574  1.1466
 6680SOL    HW231503   4.696   4.462   8.800 -0.5148  0.5923 -1.0626
 6681SOL     OW31504   4.137   3.931   3.263 -0.1570 -0.2426  0.1080
 6681SOL    HW131505   4.120   4.025   3.268  0.6917 -0.1704  1.7569
 6681SOL    HW231506   4.232   3.917   3.270  0.1271  0.5521 -2.1591
 6682SOL     OW31507   0.765   3.372  17.079 -0.5174  0.0810 -0.2120
 6682SOL    HW131508   0.676   3.405  17.065 -0.0619  0.8625 -1.3230
 6682SOL    HW231509   0.809   3.430  17.017  0.3851  2.0549  2.2881
 6683SOL     OW31510   0.712   4.602  11.373  0.0032 -0.6700 -0.0162
 6683SOL    HW131511   0.799   4.639  11.386  0.3329 -1.0234 -1.1674
 6683SOL    HW231512   0.689   4.623  11.282 -1.6405 -1.6085  0.1772
 6684SOL     OW31513   4.317   3.804   2.403  0.3787 -0.1480  0.2649
 6684SOL    HW131514   4.324   3.886   2.354 -1.9114 -0.9170 -1.3114
 6684SOL    HW231515   4.386   3.754   2.360 -0.8414  1.4022 -3.4705
 6685SOL     OW31516   3.283   4.608  14.168  0.4392 -0.2022  0.1644
 6685SOL    HW131517   3.322   4.675  14.112  0.4056 -1.0744 -0.8947
 6685SOL    HW231518   3.329   4.629  14.250 -0.9404 -0.2541  0.9472
 6686SOL     OW31519   4.599   1.209   4.697  0.1390  0.7472 -0.3618
 6686SOL    HW131520   4.505   1.227   4.702  0.2793  1.6543 -1.0562
 6686SOL    HW231521   4.594   1.123   4.656 -1.1084  0.5111  0.2893
 6687SOL     OW31522   2.923   0.391  10.525 -0.0751  0.0255  0.3165
 6687SOL    HW131523   2.873   0.415  10.603  2.4784  0.2928  1.8731
 6687SOL    HW231524   3.004   0.440  10.537 -0.0930 -0.0593  0.8007
 6688SOL     OW31525   2.778   2.807   7.750 -0.2633 -0.3285 -0.2432
 6688SOL    HW131526   2.691   2.847   7.747 -0.2150 -0.0587  1.7564
 6688SOL    HW231527   2.798   2.822   7.843  1.2351 -1.2632 -0.4100
 6689SOL     OW31528   3.137   2.662   1.619 -0.2480 -0.1032 -0.0613
 6689SOL    HW131529   3.232   2.673   1.616 -0.2159  0.0749  1.2422
 6689SOL    HW231530   3.110   2.669   1.528  1.1291  0.1739 -0.4421
 6690SOL     OW31531   4.627   3.978   8.977  0.0069 -0.1972 -0.6152
 6690SOL    HW131532   4.687   4.044   9.011 -1.9884  0.1370  2.2994
 6690SOL    HW231533   4.565   4.024   8.922  2.2102  1.5892 -1.5685
 6691SOL     OW31534   0.292   2.550   2.779 -0.5126  0.1518  0.1851
 6691SOL    HW131535   0.281   2.645   2.776 -1.0976 -0.0684 -3.4899
 6691SOL    HW231536   0.372   2.547   2.726 -0.3503 -0.2532  0.4526
 6692SOL     OW31537   4.187   1.013   6.392  0.5014  0.3046  0.0303
 6692SOL    HW131538   4.161   0.927   6.359 -0.2170  0.5355 -0.0050
 6692SOL    HW231539   4.264   0.993   6.445  0.6605 -1.9265 -1.0160
 6693SOL     OW31540   2.329   3.685   8.701 -0.4347  0.6211 -0.4336
 6693SOL    HW131541   2.411   3.717   8.738 -0.5255 -0.9904  1.1731
 6693SOL    HW231542   2.359   3.620   8.637  3.8083  1.0742  1.0969
 6694SOL     OW31543   1.373   2.776   1.505  0.5234  0.1578 -0.0005
 6694SOL    HW131544   1.386   2.781   1.600  0.6535  0.7790 -0.0486
 6694SOL    HW231545   1.308   2.706   1.499  0.0460  0.7926 -1.9648
 6695SOL     OW31546   3.621   0.596  10.614  0.2284  0.1431  0.3082
 6695SOL    HW131547   3.703   0.622  10.573  0.8274 -0.3679  1.1798
 6695SOL    HW231548   3.623   0.504  10.588  1.5883  0.1252  0.4878
 6696SOL     OW31549   0.277   1.918   9.800  0.1665 -0.5244 -0.6274
 6696SOL    HW131550   0.193   1.903   9.757  1.1735 -1.8623 -2.1462
 6696SOL    HW231551   0.323   1.948   9.721 -0.6150 -1.7395 -1.5455
 6697SOL     OW31552   1.305   2.956  12.886 -0.1547 -0.5355 -0.8132
 6697SOL    HW131553   1.268   3.044  12.897 -1.0913 -1.0200 -0.0938
 6697SOL    HW231554   1.400   2.970  12.887 -0.2948  0.3941  0.0736
 6698SOL     OW31555   0.591   4.533  15.493 -0.3877  0.4280  0.0096
 6698SOL    HW131556   0.653   4.477  15.540 -3.1342 -3.1949 -0.6680
 6698SOL    HW231557   0.656   4.586  15.447  0.3343  0.6742  1.3213
 6699SOL     OW31558   4.279   3.574   8.150 -0.0748  0.2075 -0.2917
 6699SOL    HW131559   4.200   3.521   8.161 -0.4792  0.9448  0.3572
 6699SOL    HW231560   4.256   3.653   8.200  0.2571 -0.0628  0.2927
 6700SOL     OW31561   0.414   1.470   3.497 -0.1929  0.3678  0.1336
 6700SOL    HW131562   0.380   1.392   3.542  2.0817 -0.9340 -0.3977
 6700SOL    HW231563   0.409   1.536   3.567 -2.1887 -0.4324  0.7284
 6701SOL     OW31564   1.762   0.599   7.871 -0.0243  0.1389 -0.3678
 6701SOL    HW131565   1.788   0.551   7.792  1.0458  0.4703 -0.2125
 6701SOL    HW231566   1.844   0.619   7.915  0.2719  0.5372 -1.1012
 6702SOL     OW31567   4.174   1.365   6.692 -0.5033  0.1652  0.4102
 6702SOL    HW131568   4.080   1.375   6.709 -0.4562  0.0368  0.7411
 6702SOL    HW231569   4.188   1.424   6.619 -2.5092  0.2614  0.0935
 6703SOL     OW31570   2.147   2.832  10.212  0.8217  0.3508  0.7066
 6703SOL    HW131571   2.219   2.832  10.149  1.4924  0.2139  1.4903
 6703SOL    HW231572   2.173   2.909  10.262  0.1364  1.5776 -0.7985
 6704SOL     OW31573   4.563   1.983   5.659 -0.3836 -0.0036 -0.0633
 6704SOL    HW131574   4.491   2.017   5.712  1.4853  2.1610  1.0958
 6704SOL    HW231575   4.618   2.062   5.663 -0.1040 -0.2073  0.1256
 6705SOL     OW31576   1.383   2.397   8.178 -0.2628 -0.0172 -0.7286
 6705SOL    HW131577   1.301   2.389   8.129 -1.3576  1.0089  0.9283
 6705SOL    HW231578   1.449   2.370   8.114  0.5012 -0.7851  0.3807
 6706SOL     OW31579   3.477   4.190  11.847  0.2600 -0.6307 -0.2894
 6706SOL    HW131580   3.382   4.179  11.856 -0.0807  0.9715 -1.9414
 6706SOL    HW231581   3.491   4.258  11.781  1.7192 -0.4729  0.1920
 6707SOL     OW31582   1.349   2.708   2.582  0.1556  0.1245 -0.2220
 6707SOL    HW131583   1.317   2.657   2.657 -0.5398 -1.0085 -1.2832
 6707SOL    HW231584   1.363   2.638   2.519 -0.7946 -0.0685 -0.2273
 6708SOL     OW31585   0.680   4.213   8.817  0.4120 -0.5259  0.0974
 6708SOL    HW131586   0.743   4.159   8.866  0.8265  1.0096  1.2395
 6708SOL    HW231587   0.611   4.223   8.882  0.7790 -0.2362  0.4458
 6709SOL     OW31588   2.908   0.204   8.470 -0.1452  0.4222 -0.3591
 6709SOL    HW131589   2.962   0.186   8.547 -0.8500 -1.5689 -0.3290
 6709SOL    HW231590   2.940   0.151   8.398  0.6032  0.7812 -0.2927
 6710SOL     OW31591   3.655   0.717  10.989 -0.3474 -0.5460 -0.0921
 6710SOL    HW131592   3.577   0.687  11.035  0.1032 -1.0516  0.3456
 6710SOL    HW231593   3.727   0.664  11.023  0.4699  0.2420 -0.5802
 6711SOL     OW31594   2.874   4.091   0.534  0.0362 -0.4715 -0.6209
 6711SOL    HW131595   2.947   4.137   0.574 -0.8690  0.8232 -0.4444
 6711SOL    HW231596   2.902   4.001   0.551  2.0606  0.3208  0.1853
 6712SOL     OW31597   1.643   4.520   7.990  0.2117  0.4329 -0.5330
 6712SOL    HW131598   1.560   4.475   8.008  1.0554 -0.7356  0.3921
 6712SOL    HW231599   1.657   4.571   8.070 -0.8785  0.1536 -0.1696
 6713SOL     OW31600   1.848   0.803   7.591 -0.1701  0.3982  0.3253
 6713SOL    HW131601   1.752   0.801   7.588 -0.1952 -0.5344  1.7713
 6713SOL    HW231602   1.864   0.829   7.500  0.6961 -0.3238  0.2752
 6714SOL     OW31603   1.672   1.548   3.654  0.0489 -0.3690  0.1942
 6714SOL    HW131604   1.712   1.631   3.680 -0.1578  0.0777 -0.8697
 6714SOL    HW231605   1.618   1.523   3.729 -0.3422  0.8440  0.3167
 6715SOL     OW31606   4.354   1.528   7.696  0.1945  0.7911 -0.6995
 6715SOL    HW131607   4.419   1.570   7.641 -1.1474  0.8010 -2.2936
 6715SOL    HW231608   4.281   1.588   7.713 -0.0081  0.0651  0.9760
 6716SOL     OW31609   2.002   0.591  16.041 -0.6168  0.3105 -0.2823
 6716SOL    HW131610   2.046   0.628  16.118  0.0062  1.7618 -1.3387
 6716SOL    HW231611   2.050   0.508  16.035 -0.8216  0.2552 -1.1752
 6717SOL     OW31612   3.599   4.182   2.378 -0.4432 -0.3690  0.0744
 6717SOL    HW131613   3.553   4.153   2.298 -0.0129  0.8524 -0.6119
 6717SOL    HW231614   3.634   4.098   2.408 -2.4847 -0.2387  2.8354
 6718SOL     OW31615   0.305   3.579  12.828  0.0693  0.0834  0.1203
 6718SOL    HW131616   0.234   3.534  12.874 -0.1858  0.5565  0.1858
 6718SOL    HW231617   0.257   3.628  12.762 -0.8988 -0.7050  0.2392
 6719SOL     OW31618   2.933   0.120   6.893 -0.6152 -0.3131 -0.8894
 6719SOL    HW131619   2.974   0.185   6.950 -0.3071  0.7967 -2.3712
 6719SOL    HW231620   2.929   0.169   6.811  0.0811  2.4876  0.7270
 6720SOL     OW31621   3.944   0.651  11.534 -0.1161  0.2962 -0.1582
 6720SOL    HW131622   3.869   0.620  11.585 -0.2976  2.2372  0.7629
 6720SOL    HW231623   3.933   0.746  11.533  0.7074  0.4134  0.9549
 6721SOL     OW31624   4.160   0.296  15.547 -0.6390 -0.5202 -0.4677
 6721SOL    HW131625   4.159   0.321  15.639  0.3608  0.2534 -0.6652
 6721SOL    HW231626   4.255   0.294  15.535 -0.6443  1.3702 -0.8495
 6722SOL     OW31627   3.460   0.483   1.464 -0.2584  0.6385 -0.2746
 6722SOL    HW131628   3.428   0.411   1.517 -0.5708  1.3191  0.4546
 6722SOL    HW231629   3.470   0.430   1.384 -2.3839 -1.7807  1.0848
 6723SOL     OW31630   4.503   3.566   7.777  0.6154 -0.0523 -0.5847
 6723SOL    HW131631   4.461   3.483   7.800  1.5581 -0.5321 -0.5910
 6723SOL    HW231632   4.578   3.545   7.722  0.6365 -0.5629 -0.3619
 6724SOL     OW31633   0.792   3.139  17.255  0.3829 -0.3051 -0.0978
 6724SOL    HW131634   0.803   3.223  17.210 -2.5245  0.3638  0.4719
 6724SOL    HW231635   0.762   3.082  17.184  0.4274  1.6089 -1.6445
 6725SOL     OW31636   3.629   2.917  11.302 -0.4093 -0.2940  0.3397
 6725SOL    HW131637   3.586   2.856  11.242  1.4056 -0.6342 -0.6092
 6725SOL    HW231638   3.722   2.899  11.297 -0.7052 -1.2493 -1.7258
 6726SOL     OW31639   1.186   0.664   7.029  0.2367 -0.2685  0.2923
 6726SOL    HW131640   1.139   0.625   7.103 -0.2408  0.9394  0.6286
 6726SOL    HW231641   1.151   0.619   6.953  0.9622  0.1298 -0.2714
 6727SOL     OW31642   4.704   3.821   0.509 -0.1370  0.1287 -0.6924
 6727SOL    HW131643   4.708   3.850   0.601 -0.1414 -0.4309 -0.5133
 6727SOL    HW231644   4.618   3.780   0.514 -0.3028  0.7777  2.0822
 6728SOL     OW31645   3.987   4.118   8.523  0.0601  0.0721  0.3517
 6728SOL    HW131646   4.000   4.125   8.429  0.4485 -0.9174  0.3374
 6728SOL    HW231647   3.922   4.187   8.534 -0.3769  0.0151 -1.9150
 6729SOL     OW31648   2.185   3.327   8.561 -0.4781  0.4826  0.7902
 6729SOL    HW131649   2.148   3.336   8.649 -0.3601  0.4452  0.8440
 6729SOL    HW231650   2.189   3.231   8.562  0.6578  0.5272  0.4545
 6730SOL     OW31651   1.717   3.487  10.064 -0.4696 -0.4075  0.0439
 6730SOL    HW131652   1.625   3.513  10.055 -0.4197  0.2549  1.5689
 6730SOL    HW231653   1.714   3.408  10.116 -3.2456 -0.4336 -0.1187
 6731SOL     OW31654   4.257   4.100   4.790 -0.2360 -0.4224  0.4390
 6731SOL    HW131655   4.323   4.164   4.762  1.0764 -2.5788 -1.4476
 6731SOL    HW231656   4.176   4.124   4.746  0.4948  1.0773 -0.0965
 6732SOL     OW31657   1.598   1.802   9.137 -0.2349 -0.4097 -0.2854
 6732SOL    HW131658   1.590   1.891   9.171  2.1069 -1.0316  1.8784
 6732SOL    HW231659   1.691   1.787   9.153 -0.1322  0.2374 -0.2763
 6733SOL     OW31660   0.721   3.546   6.579  0.2458 -0.2479 -0.5848
 6733SOL    HW131661   0.800   3.575   6.625  0.7208  0.4935 -1.8407
 6733SOL    HW231662   0.672   3.628   6.578 -0.4859 -0.6593  1.2688
 6734SOL     OW31663   3.171   2.529   3.676 -0.4470  0.2161 -0.0538
 6734SOL    HW131664   3.178   2.566   3.588  1.4210  3.3905  1.4334
 6734SOL    HW231665   3.078   2.544   3.693 -1.5155 -2.2030 -3.8155
 6735SOL     OW31666   2.330   3.961  16.114  0.6408  0.0787  0.0008
 6735SOL    HW131667   2.321   3.970  16.209  1.5167 -0.6205  0.1520
 6735SOL    HW231668   2.242   3.981  16.085  0.6300  1.0836  0.7370
 6736SOL     OW31669   2.304   4.363   4.975  0.5197  0.2828  0.3940
 6736SOL    HW131670   2.278   4.440   4.924  1.4640  0.5282  0.2692
 6736SOL    HW231671   2.232   4.353   5.037  0.6952  0.7370  0.6731
 6737SOL     OW31672   1.521   4.702   4.444 -0.3725 -0.6851  0.4803
 6737SOL    HW131673   1.606   4.668   4.415  0.4528  0.9711  1.0068
 6737SOL    HW231674   1.505   0.024   4.361 -0.5192  1.9694  1.9148
 6738SOL     OW31675   2.185   3.754   3.150 -0.8844 -0.5087  0.2700
 6738SOL    HW131676   2.216   3.776   3.062 -0.3189  1.1717  0.8811
 6738SOL    HW231677   2.232   3.810   3.212  2.0049 -2.4789 -0.1506
 6739SOL     OW31678   2.685   3.728  14.181 -0.2715  0.3662 -0.3052
 6739SOL    HW131679   2.699   3.807  14.233  0.0114 -0.8032  1.4224
 6739SOL    HW231680   2.594   3.733  14.151 -0.5007 -2.3540 -0.0448
 6740SOL     OW31681   2.940   4.350   2.579  0.6163 -0.0956 -0.5698
 6740SOL    HW131682   2.925   4.438   2.612  0.7448 -1.0751  2.0709
 6740SOL    HW231683   2.881   4.350   2.503 -2.3286  0.0124  1.7397
 6741SOL     OW31684   3.076   1.003   6.863 -0.0856  0.1038 -0.5032
 6741SOL    HW131685   3.090   0.974   6.773 -0.2417 -3.2700  0.5274
 6741SOL    HW231686   3.130   0.931   6.897  0.0419  0.5317  0.1922
 6742SOL     OW31687   1.931   1.397   1.246  0.3102  0.0983 -0.1908
 6742SOL    HW131688   1.999   1.456   1.215 -1.2705  0.7907 -2.3925
 6742SOL    HW231689   1.918   1.340   1.170 -1.1320  1.2969 -0.8476
 6743SOL     OW31690   4.710   0.461   1.755 -0.3571 -0.4069 -0.0752
 6743SOL    HW131691   4.716   0.552   1.781  0.9191 -0.2508 -0.9177
 6743SOL    HW231692   4.631   0.462   1.700 -1.9163 -0.0175  2.1603
 6744SOL     OW31693   4.494   1.268   0.033  0.6772  0.0539  0.1231
 6744SOL    HW131694   4.548   1.283  17.645  0.9865  1.4974  0.6169
 6744SOL    HW231695   4.557   1.210   0.076 -0.7356  0.3819  2.6546
 6745SOL     OW31696   1.653   3.087   8.359 -0.2943 -0.0995 -0.5413
 6745SOL    HW131697   1.621   3.108   8.446  1.0043  3.1185 -0.8550
 6745SOL    HW231698   1.584   3.126   8.306 -2.1703 -0.6216  1.5386
 6746SOL     OW31699   1.385   2.602   3.626 -0.6764  0.0487 -0.6480
 6746SOL    HW131700   1.325   2.531   3.607 -0.1581 -0.6506  0.3297
 6746SOL    HW231701   1.336   2.684   3.617 -0.4725  0.3373  0.7817
 6747SOL     OW31702   1.860   1.243   2.796 -0.1171  0.7386  0.1593
 6747SOL    HW131703   1.937   1.229   2.851 -0.0212  0.3516 -0.0705
 6747SOL    HW231704   1.885   1.203   2.713  1.2792  0.5145  0.6859
 6748SOL     OW31705   3.030   2.905   3.793 -0.3443 -0.1426  0.1497
 6748SOL    HW131706   3.113   2.940   3.760  1.0993 -2.3056  1.4711
 6748SOL    HW231707   2.973   2.955   3.734  0.5501 -1.0134 -1.4639
 6749SOL     OW31708   3.106   1.600   6.802  0.0144  0.0362 -0.2153
 6749SOL    HW131709   3.147   1.622   6.719 -1.9529 -1.0050 -1.4586
 6749SOL    HW231710   3.032   1.660   6.794  0.0419  0.0655 -0.2433
 6750SOL     OW31711   3.926   3.911   0.746  0.3408  0.1503  0.0920
 6750SOL    HW131712   3.848   3.870   0.711  1.4088  0.3779 -2.5573
 6750SOL    HW231713   3.898   4.001   0.727 -0.5131 -0.5691 -1.9753
 6751SOL     OW31714   0.532   1.434   5.838 -0.3725  0.5118 -0.1450
 6751SOL    HW131715   0.451   1.393   5.868 -0.2039  0.2974  0.0186
 6751SOL    HW231716   0.580   1.435   5.921  1.6361 -0.8305 -1.3168
 6752SOL     OW31717   4.616   1.055  13.660 -0.2092 -0.1939  0.1227
 6752SOL    HW131718   4.597   1.134  13.710 -0.1498  0.0491 -0.2320
 6752SOL    HW231719   4.699   1.080  13.620 -0.3928 -0.1417 -0.2297
 6753SOL     OW31720   1.904   1.421   3.532 -0.6016 -0.2806  0.4777
 6753SOL    HW131721   1.825   1.449   3.578 -0.0893  1.4854  0.2701
 6753SOL    HW231722   1.872   1.343   3.486 -1.7263 -0.3361  1.3687
 6754SOL     OW31723   3.867   2.080   2.731 -0.6654 -0.2567  0.0624
 6754SOL    HW131724   3.954   2.121   2.732  0.0255 -1.6521 -2.1879
 6754SOL    HW231725   3.831   2.089   2.819  0.4956  0.8475  0.4348
 6755SOL     OW31726   2.584   2.020  13.962  0.3659  0.7774 -0.0502
 6755SOL    HW131727   2.576   2.068  13.880  0.3543 -0.6472 -0.8756
 6755SOL    HW231728   2.491   2.003  13.980  0.7501 -1.3105  0.0484
 6756SOL     OW31729   3.088   4.696   6.706  0.7400 -0.3427 -0.5803
 6756SOL    HW131730   3.035   0.022   6.769 -0.3359  0.7486 -2.3049
 6756SOL    HW231731   3.161   0.033   6.686 -0.4569  1.0355 -0.8564
 6757SOL     OW31732   0.206   0.064  15.048 -0.4042 -0.0900 -0.1380
 6757SOL    HW131733   0.253   0.041  14.968 -0.2349  2.3280 -0.7301
 6757SOL    HW231734   0.167   0.148  15.024  0.4867  0.1149 -0.8680
 6758SOL     OW31735   0.684   4.396  14.267 -0.4683 -0.5397  0.0792
 6758SOL    HW131736   0.732   4.449  14.332  0.5329  1.3552 -2.2027
 6758SOL    HW231737   0.660   4.319  14.319  1.0962 -0.2094  1.3069
 6759SOL     OW31738   1.775   2.399   2.683 -0.6355  0.3085  0.0652
 6759SOL    HW131739   1.800   2.321   2.733 -0.8651  0.0768 -0.1769
 6759SOL    HW231740   1.753   2.366   2.595  0.2559  1.5827 -0.6302
 6760SOL     OW31741   2.945   1.992   2.459  0.4087  0.0782 -0.0724
 6760SOL    HW131742   2.937   2.086   2.475 -1.1845 -0.3604  1.6299
 6760SOL    HW231743   3.033   1.981   2.423 -0.5698  1.3443 -2.9226
 6761SOL     OW31744   2.679   0.898   4.969  0.2365  0.0771  0.0005
 6761SOL    HW131745   2.650   0.985   4.942 -2.1474 -0.6872  0.0974
 6761SOL    HW231746   2.766   0.923   4.999 -0.7052  1.7722  1.2982
 6762SOL     OW31747   0.169   1.536  11.740  0.3106 -0.0047  0.1735
 6762SOL    HW131748   0.137   1.562  11.653  1.5960 -0.1453 -0.3496
 6762SOL    HW231749   0.109   1.561  11.809 -1.1299 -0.5258 -0.8984
 6763SOL     OW31750   1.712   3.238   3.891 -0.8016 -0.0429  0.4218
 6763SOL    HW131751   1.623   3.222   3.858 -1.1114 -0.4939  1.4665
 6763SOL    HW231752   1.727   3.178   3.964 -0.0149  0.0944  0.3749
 6764SOL     OW31753   3.837   2.065   4.711 -0.0210 -0.0402 -0.4839
 6764SOL    HW131754   3.788   1.983   4.716 -0.3718  0.1676 -0.4537
 6764SOL    HW231755   3.774   2.121   4.665 -1.2729 -1.4260 -0.4489
 6765SOL     OW31756   2.380   1.713   8.015  0.3073 -0.0076  0.0103
 6765SOL    HW131757   2.390   1.757   8.099 -0.1805  2.0852 -1.0149
 6765SOL    HW231758   2.469   1.703   7.980 -0.4442  1.1297 -2.2539
 6766SOL     OW31759   2.878   3.642   3.972  0.2133 -0.0813 -0.2136
 6766SOL    HW131760   2.972   3.659   3.959  0.4105 -0.0035  1.2322
 6766SOL    HW231761   2.874   3.639   4.068  0.9267  0.4511 -0.1681
 6767SOL     OW31762   0.345   3.100   3.290  0.1529  0.0364 -0.0941
 6767SOL    HW131763   0.336   3.005   3.300 -3.6619  0.2716 -1.4521
 6767SOL    HW231764   0.296   3.140   3.362  0.6175 -1.1426  0.8775
 6768SOL     OW31765   2.763   0.092  14.871  0.1812  0.3379  0.3218
 6768SOL    HW131766   2.756   4.721  14.892  2.0633  0.4353  1.4517
 6768SOL    HW231767   2.752   0.144  14.951 -0.5550  1.3338 -0.4359
 6769SOL     OW31768   4.574   3.344   5.861  0.2930  0.0739 -0.6274
 6769SOL    HW131769   4.618   3.260   5.846 -0.4853  0.0161 -2.6658
 6769SOL    HW231770   4.561   3.375   5.771  0.5731 -0.5798 -0.8921
 6770SOL     OW31771   3.149   0.663   2.924  0.5846 -0.1395 -0.4493
 6770SOL    HW131772   3.119   0.595   2.864  1.7284  0.1460 -1.3492
 6770SOL    HW231773   3.073   0.665   2.982  0.5653 -1.5494 -0.4336
 6771SOL     OW31774   3.057   0.940   0.421 -0.1793  0.2953 -0.8126
 6771SOL    HW131775   3.089   0.952   0.511 -0.7376 -2.7360 -0.2283
 6771SOL    HW231776   3.066   1.023   0.374 -1.0401  0.8526 -0.0080
 6772SOL     OW31777   2.512   4.108  13.126  0.3367  0.0235  0.3275
 6772SOL    HW131778   2.464   4.049  13.067  0.0487  0.5902  0.0004
 6772SOL    HW231779   2.586   4.129  13.070 -0.6835  0.3713 -0.9011
 6773SOL     OW31780   0.530   2.289   5.856  0.1900 -0.0749  0.0661
 6773SOL    HW131781   0.587   2.263   5.928 -1.1495 -0.0213  1.1359
 6773SOL    HW231782   0.454   2.327   5.900  0.6118  0.5798  0.2301
 6774SOL     OW31783   3.714   4.125  16.254 -0.2069 -0.3153 -0.2257
 6774SOL    HW131784   3.640   4.162  16.303  0.6107  2.6465 -1.2479
 6774SOL    HW231785   3.732   4.035  16.280 -2.1717 -0.9544 -1.0908
 6775SOL     OW31786   3.712   1.858   2.082 -0.1720 -0.4757  0.2810
 6775SOL    HW131787   3.742   1.803   2.009  1.4407 -0.5445  0.9869
 6775SOL    HW231788   3.622   1.869   2.054  0.3214 -1.5973 -1.7210
 6776SOL     OW31789   3.164   3.825   1.108 -0.1435  0.7730 -0.0736
 6776SOL    HW131790   3.214   3.776   1.042  1.4685  2.7646 -0.3230
 6776SOL    HW231791   3.128   3.893   1.052 -0.6832 -0.1342 -0.8460
 6777SOL     OW31792   0.524   4.658   8.465  0.0151  0.6029  0.2945
 6777SOL    HW131793   0.486   4.627   8.548 -0.6905  0.2142 -0.1784
 6777SOL    HW231794   0.585   0.005   8.493  1.0436 -0.2790  0.1998
 6778SOL     OW31795   2.828   2.499   8.854 -0.3115 -0.3929  0.1258
 6778SOL    HW131796   2.763   2.492   8.925 -1.3487 -0.6751 -0.8568
 6778SOL    HW231797   2.850   2.592   8.852 -0.6715 -0.3264 -0.7112
 6779SOL     OW31798   2.424   3.694  14.813  0.5633 -0.4477 -0.0300
 6779SOL    HW131799   2.356   3.653  14.759 -1.8088  1.9427  1.1235
 6779SOL    HW231800   2.493   3.630  14.801  0.9386  0.0094 -0.3119
 6780SOL     OW31801   4.296   0.485   5.147  0.2814 -0.1310  0.1666
 6780SOL    HW131802   4.375   0.537   5.130  1.6690 -1.8023  1.3971
 6780SOL    HW231803   4.330   0.437   5.223 -0.1748 -0.2307  0.3070
 6781SOL     OW31804   0.384   4.280   8.474  0.1930  0.1814  0.1809
 6781SOL    HW131805   0.400   4.193   8.437 -1.1642 -0.3727  0.9374
 6781SOL    HW231806   0.468   4.290   8.519 -0.0217 -2.2428  1.1249
 6782SOL     OW31807   3.595   2.741  13.161  0.5758 -0.4091 -0.0655
 6782SOL    HW131808   3.597   2.807  13.230 -0.4505 -0.5001  0.0409
 6782SOL    HW231809   3.590   2.668  13.222 -0.4619  0.6482  1.1303
 6783SOL     OW31810   3.680   3.025   6.627  0.4528 -0.6997  0.5219
 6783SOL    HW131811   3.687   2.945   6.575 -1.7238 -1.2991  1.1719
 6783SOL    HW231812   3.681   2.999   6.719 -0.3569 -1.5211  0.2922
 6784SOL     OW31813   3.980   1.361   7.524 -0.5781 -0.5181 -0.3422
 6784SOL    HW131814   3.924   1.437   7.505 -0.6374 -0.2907  0.7368
 6784SOL    HW231815   4.046   1.368   7.455  0.9895 -1.8616  1.0317
 6785SOL     OW31816   1.172   2.154   0.434 -0.2470  0.6403  0.0342
 6785SOL    HW131817   1.095   2.206   0.455 -1.4750 -2.2302  2.7105
 6785SOL    HW231818   1.244   2.216   0.439 -0.9552  1.4433  0.1514
 6786SOL     OW31819   1.584   3.480  11.984  0.1660 -0.4730 -0.3315
 6786SOL    HW131820   1.622   3.509  12.067 -2.4835 -1.7450  1.3039
 6786SOL    HW231821   1.658   3.430  11.949  0.0274  0.6515 -2.2488
 6787SOL     OW31822   3.269   2.475  15.193  0.5999  0.9354 -0.2343
 6787SOL    HW131823   3.355   2.515  15.206  1.4062 -0.2131 -2.0132
 6787SOL    HW231824   3.242   2.511  15.108  1.5001  1.4645 -0.2929
 6788SOL     OW31825   4.658   1.286   7.940  0.0019  0.2560 -0.3930
 6788SOL    HW131826   4.674   1.225   7.867 -1.0717 -1.3787  0.7386
 6788SOL    HW231827   0.024   1.320   7.958  0.5665 -1.5686  0.2689
 6789SOL     OW31828   1.161   3.342   3.710  0.7179 -0.1887 -0.2054
 6789SOL    HW131829   1.209   3.342   3.792  0.1144  0.2720  0.1547
 6789SOL    HW231830   1.136   3.434   3.700 -0.6962 -0.8081 -2.5352
 6790SOL     OW31831   1.703   2.457   4.044  0.1068  0.2677 -0.6436
 6790SOL    HW131832   1.622   2.482   4.000 -0.1017  0.3279 -0.2239
 6790SOL    HW231833   1.669   2.433   4.130 -1.0705 -0.7869 -1.4142
 6791SOL     OW31834   0.457   2.096  12.806  0.4696 -0.4154 -0.7820
 6791SOL    HW131835   0.406   2.098  12.725 -1.3872  2.4291  0.4331
 6791SOL    HW231836   0.441   2.010  12.845 -3.4672 -0.1841 -1.8170
 6792SOL     OW31837   0.430   4.003   8.349 -0.3797  0.1215  0.3434
 6792SOL    HW131838   0.346   3.973   8.384 -0.8044  3.5851  2.2869
 6792SOL    HW231839   0.499   3.974   8.408 -0.5888 -0.3554  0.3604
 6793SOL     OW31840   0.121   2.043   2.337 -0.2539 -0.4103 -0.5929
 6793SOL    HW131841   0.080   2.042   2.423  1.2263  0.1126  0.1096
 6793SOL    HW231842   0.155   1.954   2.337  1.2988  0.1698 -1.7775
 6794SOL     OW31843   2.874   0.762   8.466  0.2968 -0.1774  0.2418
 6794SOL    HW131844   2.902   0.679   8.502 -0.5909 -1.5579 -2.2465
 6794SOL    HW231845   2.947   0.769   8.404 -0.6289  1.1638 -0.7117
 6795SOL     OW31846   2.759   2.001   6.867 -0.1818 -0.6096  0.1976
 6795SOL    HW131847   2.723   2.032   6.950  0.9510 -0.5767  0.6811
 6795SOL    HW231848   2.690   1.948   6.826  1.4792  0.0291 -3.3802
 6796SOL     OW31849   2.061   2.454   5.828  0.8316 -0.5458  0.3827
 6796SOL    HW131850   1.969   2.463   5.801  1.2534  1.9370 -0.2671
 6796SOL    HW231851   2.092   2.544   5.813  1.4311 -1.1786 -2.1585
 6797SOL     OW31852   2.178   3.238   2.360  0.2984  0.2171 -0.2408
 6797SOL    HW131853   2.216   3.232   2.273 -0.1627 -0.6248 -0.3821
 6797SOL    HW231854   2.240   3.184   2.409 -1.4197 -0.4330  1.1850
 6798SOL     OW31855   4.578   3.211   2.590 -0.2207 -0.3171  0.2074
 6798SOL    HW131856   4.563   3.283   2.529 -0.1631 -1.6588 -1.4017
 6798SOL    HW231857   4.523   3.232   2.664  0.4485 -0.8753  0.8625
 6799SOL     OW31858   0.377   0.464   6.856  0.4420 -0.3142 -0.2302
 6799SOL    HW131859   0.446   0.446   6.920  1.6635  0.7488 -1.2255
 6799SOL    HW231860   0.382   0.405   6.781 -0.8708 -0.8919  0.1505
 6800SOL     OW31861   0.670   2.264   7.633  0.5967  0.4954 -0.0025
 6800SOL    HW131862   0.675   2.237   7.725  1.5028 -1.0018 -0.4916
 6800SOL    HW231863   0.696   2.181   7.593 -0.3839  0.0571  0.2660
 6801SOL     OW31864   1.822   2.985  13.201  0.0357  0.2829 -0.2997
 6801SOL    HW131865   1.768   2.908  13.182 -1.0333  0.7919  0.7240
 6801SOL    HW231866   1.836   2.960  13.292  0.5025 -1.3336 -0.8135
 6802SOL     OW31867   1.147   1.141   4.434  0.3093 -0.0001  0.3508
 6802SOL    HW131868   1.218   1.079   4.418  1.1703  0.5388  2.0807
 6802SOL    HW231869   1.078   1.112   4.374  1.3460 -0.0928 -0.8004
 6803SOL     OW31870   1.812   1.032   9.674 -0.5003 -0.6839  0.2551
 6803SOL    HW131871   1.717   1.043   9.662 -0.2567 -0.3538 -1.4423
 6803SOL    HW231872   1.845   1.098   9.613  0.6210  0.5102  2.1677
 6804SOL     OW31873   3.603   1.618   2.779  0.0835 -0.3766 -0.0030
 6804SOL    HW131874   3.549   1.630   2.858  1.3704 -2.4335  1.1842
 6804SOL    HW231875   3.596   1.707   2.744  0.1862 -0.6630 -0.7395
 6805SOL     OW31876   2.088   1.925   7.490  0.2068 -0.4039 -0.1588
 6805SOL    HW131877   2.161   1.981   7.463  1.0798 -1.3298  0.3520
 6805SOL    HW231878   2.074   1.947   7.582 -0.3220 -0.2323 -0.2775
 6806SOL     OW31879   4.160   2.282   1.901  0.1764 -0.2835 -0.3653
 6806SOL    HW131880   4.114   2.225   1.840 -1.3909  0.2809  0.2940
 6806SOL    HW231881   4.229   2.229   1.940 -1.2116 -0.9125  1.2098
 6807SOL     OW31882   1.275   0.481  13.225 -0.1753  0.1182 -1.1536
 6807SOL    HW131883   1.307   0.515  13.141 -0.0057  1.8696 -0.3738
 6807SOL    HW231884   1.350   0.427  13.247 -0.3831  1.4143  2.7476
 6808SOL     OW31885   3.899   0.917   1.995  0.2606 -0.2573 -0.0293
 6808SOL    HW131886   3.907   1.004   1.956  4.5403 -1.2163 -1.3134
 6808SOL    HW231887   3.844   0.871   1.932 -0.4931  1.8906 -0.9297
 6809SOL     OW31888   3.133   0.423  11.500 -0.1018  0.3124  0.0728
 6809SOL    HW131889   3.198   0.405  11.568  0.1505 -0.9078 -0.4799
 6809SOL    HW231890   3.092   0.343  11.468  0.3647 -0.9206  2.5786
 6810SOL     OW31891   4.380   0.338   4.149  0.2056 -0.5567 -0.1770
 6810SOL    HW131892   4.468   0.375   4.147  0.2322 -0.6812 -1.1235
 6810SOL    HW231893   4.402   0.258   4.103 -0.4490  0.9664 -3.1325
 6811SOL     OW31894   1.747   1.506   6.605  0.0014  0.0850  0.1424
 6811SOL    HW131895   1.789   1.563   6.541 -0.2796 -0.0806 -0.1913
 6811SOL    HW231896   1.689   1.569   6.646 -0.6904  0.6805 -1.7304
 6812SOL     OW31897   3.404   0.164   8.956  0.3952 -0.2919 -0.0414
 6812SOL    HW131898   3.417   0.073   8.984  0.3890  0.3721  2.1605
 6812SOL    HW231899   3.425   0.170   8.863  1.3594 -2.6321  0.0090
 6813SOL     OW31900   4.659   2.666   1.095  0.3605  0.2743 -0.0299
 6813SOL    HW131901   0.011   2.704   1.047  1.4512 -0.1062  1.3486
 6813SOL    HW231902   4.705   2.606   1.153  1.1389  1.0192  0.1321
 6814SOL     OW31903   2.758   4.380  15.699 -0.1524  0.0282  0.7498
 6814SOL    HW131904   2.730   4.360  15.788 -2.6394  0.4164  0.0294
 6814SOL    HW231905   2.686   4.335  15.657  0.4659  0.8188 -1.1587
 6815SOL     OW31906   0.171   1.788  10.600 -0.2803 -0.6184 -0.6093
 6815SOL    HW131907   0.162   1.789  10.504 -0.4854  3.5170 -0.5690
 6815SOL    HW231908   0.078   1.775  10.616  0.2578 -2.8082  0.6564
 6816SOL     OW31909   3.393   0.759   2.993 -0.2582  0.1061 -0.2148
 6816SOL    HW131910   3.307   0.728   2.964 -0.9783  0.7314  1.2372
 6816SOL    HW231911   3.437   0.764   2.908  0.3535  0.8969  0.1536
 6817SOL     OW31912   3.580   1.693   7.969  0.5380 -0.0165 -0.0739
 6817SOL    HW131913   3.529   1.615   7.990  2.1098 -1.3744 -1.2934
 6817SOL    HW231914   3.525   1.760   8.009 -0.2290 -1.3410  1.0914
 6818SOL     OW31915   0.063   2.311  14.063 -0.0723  0.0332  0.5615
 6818SOL    HW131916   0.099   2.394  14.095  1.5413  0.1848 -1.6516
 6818SOL    HW231917   0.068   2.329  13.969  0.2949  2.3202  1.0133
 6819SOL     OW31918   2.890   4.154   2.742 -0.5146 -0.7381  0.4469
 6819SOL    HW131919   2.933   4.193   2.818  0.3382  1.8950 -1.3638
 6819SOL    HW231920   2.896   4.220   2.672 -1.4711 -2.6875 -1.4928
 6820SOL     OW31921   1.010   2.028   7.853 -0.2006 -0.3675 -0.0981
 6820SOL    HW131922   1.059   2.018   7.935  1.2433 -0.3919 -0.9521
 6820SOL    HW231923   1.069   2.085   7.803  1.0793 -0.7618  0.9673
 6821SOL     OW31924   1.849   4.295   2.146 -0.0814 -0.3501  0.6019
 6821SOL    HW131925   1.844   4.296   2.241 -1.2762  1.8217  0.5156
 6821SOL    HW231926   1.938   4.330   2.146 -0.2131  0.0069 -0.7794
 6822SOL     OW31927   3.969   0.135   0.364  0.0163 -0.0955 -0.4682
 6822SOL    HW131928   3.961   0.136   0.459 -0.0336 -3.3727 -0.4178
 6822SOL    HW231929   3.959   0.227   0.342 -2.6079 -0.4513 -0.7587
 6823SOL     OW31930   1.634   3.427   5.295  0.4168 -0.0942  0.0679
 6823SOL    HW131931   1.653   3.333   5.284 -0.5839 -0.3922  0.8526
 6823SOL    HW231932   1.546   3.420   5.257  0.6614  0.5480 -0.6072
 6824SOL     OW31933   1.792   2.471   7.186  0.0428 -0.4640 -0.2710
 6824SOL    HW131934   1.841   2.416   7.124  0.3070 -0.2143 -0.2850
 6824SOL    HW231935   1.709   2.489   7.142 -0.5200  0.9426  1.4013
 6825SOL     OW31936   1.030   0.886   2.877 -0.9160  0.2949 -0.3030
 6825SOL    HW131937   1.013   0.977   2.853 -0.2844  0.4390 -0.2028
 6825SOL    HW231938   0.987   0.838   2.807 -2.8686  3.5304 -1.3100
 6826SOL     OW31939   4.710   0.657   7.944 -0.1626 -0.1581  0.1123
 6826SOL    HW131940   0.025   0.593   8.005 -1.0805 -1.0185 -0.2306
 6826SOL    HW231941   4.660   0.600   7.886 -4.1269  1.5596  1.8321
 6827SOL     OW31942   0.214   3.360  12.531 -0.5310 -0.7763  0.3066
 6827SOL    HW131943   0.228   3.308  12.611 -1.0604 -0.6632  0.4792
 6827SOL    HW231944   0.169   3.436  12.567 -3.5388 -1.8602 -1.1769
 6828SOL     OW31945   0.657   1.620   2.394  0.0854  0.0745 -0.0559
 6828SOL    HW131946   0.617   1.696   2.437 -1.2545 -1.1253  0.8171
 6828SOL    HW231947   0.710   1.664   2.327 -0.6365  2.6315  1.0538
 6829SOL     OW31948   0.179   1.475   4.055 -0.2106  0.8279  0.3302
 6829SOL    HW131949   0.207   1.408   4.118 -1.5592 -2.2846 -2.3771
 6829SOL    HW231950   0.087   1.477   4.079  0.2103 -1.8749  2.2064
 6830SOL     OW31951   2.317   1.831   4.576 -0.2651  0.1364 -0.3753
 6830SOL    HW131952   2.247   1.847   4.513 -0.6385 -0.8754 -0.2077
 6830SOL    HW231953   2.328   1.736   4.576 -1.4149  0.0039 -0.0516
 6831SOL     OW31954   3.804   0.092   4.344 -0.4757 -0.7076 -0.0414
 6831SOL    HW131955   3.869   0.075   4.276 -2.1825  1.5255 -2.2401
 6831SOL    HW231956   3.825   0.022   4.406  0.6417 -0.3246  0.0118
 6832SOL     OW31957   2.315   2.511   0.994 -0.3300 -0.1125 -0.0290
 6832SOL    HW131958   2.270   2.595   0.996 -2.4424 -1.2283  0.0701
 6832SOL    HW231959   2.399   2.535   0.956  0.0965 -2.5118 -0.6475
 6833SOL     OW31960   0.013   2.375  11.150  0.0977  0.4552 -0.4197
 6833SOL    HW131961   0.053   2.360  11.064  1.0061  0.4036  0.0101
 6833SOL    HW231962   4.684   2.296  11.169 -1.9656  1.6479 -1.0715
 6834SOL     OW31963   3.719   1.496  12.413  0.4195  0.7131 -0.9327
 6834SOL    HW131964   3.632   1.458  12.430  0.0024  1.0440 -2.2667
 6834SOL    HW231965   3.771   1.420  12.438 -1.0242 -0.8494 -2.5981
 6835SOL     OW31966   4.713   0.003  14.188 -0.3583 -0.1108 -0.8532
 6835SOL    HW131967   4.690   0.088  14.227  0.4194 -0.9485  1.4450
 6835SOL    HW231968   4.703   4.661  14.258  1.6698  0.3517 -0.1476
 6836SOL     OW31969   2.247   4.558  11.458  0.4574 -0.2262  0.4023
 6836SOL    HW131970   2.167   4.607  11.441 -1.1913 -1.8938  3.2487
 6836SOL    HW231971   2.222   4.524  11.544  0.8802  0.7723  0.9199
 6837SOL     OW31972   1.865   3.804  11.216 -0.0122  0.1393  0.1776
 6837SOL    HW131973   1.854   3.729  11.275 -1.2131  1.7391  1.9674
 6837SOL    HW231974   1.800   3.779  11.149  1.3975 -0.1005 -1.1062
 6838SOL     OW31975   3.435   2.737  14.835 -0.1963  0.1441 -0.5368
 6838SOL    HW131976   3.452   2.829  14.856 -1.2585 -0.2234  1.8761
 6838SOL    HW231977   3.514   2.700  14.874 -1.5000 -0.0525  1.9313
 6839SOL     OW31978   1.597   0.855   7.842 -0.0665 -0.2026 -0.3179
 6839SOL    HW131979   1.665   0.856   7.909  0.0032 -1.5101 -0.3661
 6839SOL    HW231980   1.638   0.792   7.782  1.1473 -1.2789  1.6367
 6840SOL     OW31981   2.047   0.826   7.779  0.2363 -0.2288 -0.2256
 6840SOL    HW131982   2.024   0.761   7.845  1.0692  0.4775  0.7544
 6840SOL    HW231983   1.972   0.828   7.719  0.5850 -1.2876 -0.7095
 6841SOL     OW31984   0.055   0.621   0.530  1.0194 -0.3458 -0.2069
 6841SOL    HW131985   0.093   0.620   0.618 -0.3627 -1.1851  0.3900
 6841SOL    HW231986   0.106   0.553   0.484 -0.0504 -0.6564 -0.9319
 6842SOL     OW31987   0.672   0.266   5.633  0.3750 -0.4861  0.4735
 6842SOL    HW131988   0.735   0.249   5.703 -0.2642 -1.2543  0.8624
 6842SOL    HW231989   0.633   0.178   5.627  0.6314 -0.5024 -0.9099
 6843SOL     OW31990   0.506   2.019   4.746 -0.5742 -0.0399 -0.7582
 6843SOL    HW131991   0.459   2.094   4.783  0.1916  0.8887 -1.6786
 6843SOL    HW231992   0.480   2.041   4.656 -2.3540  1.5924  0.1434
 6844SOL     OW31993   0.366   4.160  13.376  0.0842 -0.0133  0.5058
 6844SOL    HW131994   0.385   4.243  13.420  1.0486  0.4247 -0.7507
 6844SOL    HW231995   0.393   4.196  13.292 -0.1143  0.0893  0.4862
 6845SOL     OW31996   1.292   4.190  16.955 -0.3903  0.3656  0.2699
 6845SOL    HW131997   1.283   4.096  16.969 -1.7441  0.4476 -0.0014
 6845SOL    HW231998   1.371   4.196  17.008 -0.4727  1.3123  0.2801
 6846SOL     OW31999   0.455   3.170   6.209  0.3291  0.1706  0.2626
 6846SOL    HW132000   0.507   3.177   6.288  0.6051  0.0344  0.0919
 6846SOL    HW232001   0.474   3.253   6.166 -0.0082  1.8477  3.3792
 6847SOL     OW32002   2.285   3.652   6.443  0.1723 -0.3230  0.0470
 6847SOL    HW132003   2.215   3.716   6.439  0.1635 -0.3832 -0.9506
 6847SOL    HW232004   2.320   3.646   6.531 -0.7939 -1.0385  0.3811
 6848SOL     OW32005   1.304   0.368   3.536 -0.5411 -0.3992 -0.1518
 6848SOL    HW132006   1.253   0.305   3.587  1.2773 -2.6942 -1.1822
 6848SOL    HW232007   1.380   0.377   3.595  1.1268 -0.7836 -2.2438
 6849SOL     OW32008   1.799   0.386   2.096 -0.4444 -0.0089  0.8012
 6849SOL    HW132009   1.715   0.358   2.132 -1.0205 -0.2768 -0.7180
 6849SOL    HW232010   1.835   0.452   2.155  0.4216  1.3986 -1.2881
 6850SOL     OW32011   0.806   2.278  13.333  0.0537  0.5150  0.4001
 6850SOL    HW132012   0.737   2.232  13.381 -0.3815  0.3272 -0.3973
 6850SOL    HW232013   0.841   2.221  13.265  1.2860  0.8800  0.7298
 6851SOL     OW32014   0.140   0.064   7.591  0.0469  0.2257 -0.2633
 6851SOL    HW132015   0.163   0.065   7.684 -0.9799 -1.2136  0.0078
 6851SOL    HW232016   0.200   4.718   7.563  0.6713  0.6872 -0.0541
 6852SOL     OW32017   1.397   0.994   1.763  0.1632 -0.6217  0.2544
 6852SOL    HW132018   1.444   0.975   1.682  2.3793  0.1424  1.3481
 6852SOL    HW232019   1.362   1.076   1.728 -0.0500 -0.7015  0.2810
 6853SOL     OW32020   2.220   3.159   7.639 -0.4042  0.3852 -0.1060
 6853SOL    HW132021   2.312   3.149   7.615 -1.2591 -1.5940 -2.5117
 6853SOL    HW232022   2.216   3.146   7.734 -0.7075  0.4227 -0.1150
 6854SOL     OW32023   2.465   2.196   5.243  0.0202 -0.2320 -0.4973
 6854SOL    HW132024   2.404   2.268   5.261 -1.7901 -1.6957 -0.8107
 6854SOL    HW232025   2.410   2.138   5.191 -1.1811 -0.5380  1.1089
 6855SOL     OW32026   2.877   2.475   9.900 -0.0240  0.3418  0.5073
 6855SOL    HW132027   2.811   2.501   9.965 -2.2228 -1.0549 -1.1601
 6855SOL    HW232028   2.899   2.556   9.854  0.2859  0.7114  1.3041
 6856SOL     OW32029   4.686   0.973   1.978 -0.4235  0.5558  0.1271
 6856SOL    HW132030   4.672   1.019   1.895 -2.9177 -1.5258 -0.5895
 6856SOL    HW232031   4.719   0.886   1.957  2.2151  1.4603  0.5280
 6857SOL     OW32032   3.454   0.045  15.255 -0.6230  0.6570 -0.0593
 6857SOL    HW132033   3.455   0.140  15.263  0.1034  0.8753 -2.7408
 6857SOL    HW232034   3.482   0.051  15.164  0.8412  2.1683  0.5017
 6858SOL     OW32035   2.199   0.761   3.324 -0.2868  0.0341 -0.4129
 6858SOL    HW132036   2.111   0.751   3.288 -0.9972  1.0163  1.0283
 6858SOL    HW232037   2.184   0.830   3.389  1.7018  0.1183 -0.0327
 6859SOL     OW32038   4.710   3.892   3.679  0.1169 -0.5061 -0.3296
 6859SOL    HW132039   0.004   3.946   3.757  1.7636  0.6571 -1.4626
 6859SOL    HW232040   0.068   3.924   3.636  1.2461 -0.4739  1.8320
 6860SOL     OW32041   3.516   0.533   3.104 -0.2812 -0.4646  0.0925
 6860SOL    HW132042   3.502   0.620   3.069 -5.3881 -1.5391 -0.5879
 6860SOL    HW232043   3.539   0.489   3.022  3.1223 -1.4898  1.5975
 6861SOL     OW32044   4.345   3.893  16.549  0.2920 -0.3035  0.2063
 6861SOL    HW132045   4.336   3.966  16.609 -0.5634 -0.3286  0.1199
 6861SOL    HW232046   4.354   3.946  16.470  2.0303  0.3438  0.8441
 6862SOL     OW32047   0.434   4.702  17.050  0.2059 -0.1025 -0.4861
 6862SOL    HW132048   0.388   0.006  16.971  0.7590 -2.6862 -1.6600
 6862SOL    HW232049   0.389   4.621  17.072  1.6884 -0.1630  2.4220
 6863SOL     OW32050   3.028   3.504   5.851 -0.2513 -0.5281  0.0514
 6863SOL    HW132051   3.008   3.458   5.932 -0.9488 -0.5733 -0.1462
 6863SOL    HW232052   2.939   3.515   5.818  0.9663  2.6140 -2.1501
 6864SOL     OW32053   1.338   2.549   5.770 -0.4891  0.0512 -0.3451
 6864SOL    HW132054   1.404   2.584   5.831  0.8669 -1.2134 -1.0799
 6864SOL    HW232055   1.270   2.616   5.774 -0.4829  0.0333  0.0619
 6865SOL     OW32056   0.248   1.871   3.272  0.1999 -0.0312  0.2350
 6865SOL    HW132057   0.233   1.811   3.345  3.1652 -0.3454  0.5903
 6865SOL    HW232058   0.294   1.938   3.322 -1.2738  2.0847 -1.2177
 6866SOL     OW32059   2.495   3.996   6.071 -0.3105  0.0919 -0.2195
 6866SOL    HW132060   2.460   3.945   5.997 -0.8325 -1.1285  0.8532
 6866SOL    HW232061   2.417   3.988   6.126  1.3748  1.7097  2.3633
 6867SOL     OW32062   3.669   3.450   8.597 -0.4018 -0.2393  0.6982
 6867SOL    HW132063   3.625   3.411   8.673 -1.2910 -1.0239 -0.2237
 6867SOL    HW232064   3.642   3.388   8.529  0.9148 -1.3533  1.1712
 6868SOL     OW32065   3.071   1.960   5.303  0.3640  0.1701  0.2390
 6868SOL    HW132066   3.010   1.896   5.339 -0.8916  1.1832 -0.0527
 6868SOL    HW232067   3.020   2.005   5.235 -2.0886  2.3737  3.5069
 6869SOL     OW32068   0.440   1.987   1.042  0.2110  0.3399 -1.1880
 6869SOL    HW132069   0.372   1.967   0.977 -0.4145 -0.7026 -0.2273
 6869SOL    HW232070   0.495   2.044   0.988  1.3170  0.1992 -0.2145
 6870SOL     OW32071   0.938   2.681   6.064 -0.5697 -0.1221 -0.2378
 6870SOL    HW132072   0.854   2.725   6.064 -0.2519  0.4820 -1.2342
 6870SOL    HW232073   0.918   2.601   6.113  0.3742 -1.2792 -1.7190
 6871SOL     OW32074   4.550   1.680   4.719  0.2909 -0.0357 -0.1280
 6871SOL    HW132075   4.454   1.685   4.710  0.0515  0.2169  2.4959
 6871SOL    HW232076   4.580   1.760   4.676 -0.7162  0.8063  0.7222
 6872SOL     OW32077   0.116   0.112  15.328  0.0745 -0.0432 -0.2115
 6872SOL    HW132078   0.185   0.158  15.281  0.7504  0.2502  1.0648
 6872SOL    HW232079   0.157   0.080  15.409 -1.7749  0.6622  1.0064
 6873SOL     OW32080   3.397   1.488   7.982  0.0984  0.5425  0.2807
 6873SOL    HW132081   3.338   1.457   8.050  1.1910 -0.6551  0.6618
 6873SOL    HW232082   3.339   1.543   7.930 -0.9638  0.1981  1.1104
 6874SOL     OW32083   1.604   2.491   9.017 -0.1737  0.5551 -0.2662
 6874SOL    HW132084   1.522   2.470   9.061 -0.1924 -0.5623 -0.8353
 6874SOL    HW232085   1.648   2.521   9.096 -0.7080  0.5814  0.0178
 6875SOL     OW32086   1.645   0.861  12.041 -0.3845 -0.1504 -0.8291
 6875SOL    HW132087   1.711   0.914  11.996 -0.3535  1.1993  0.8181
 6875SOL    HW232088   1.682   0.774  12.023 -1.7962 -0.9258 -0.0130
 6876SOL     OW32089   2.062   3.205   8.327  0.2220 -0.1351  0.2788
 6876SOL    HW132090   2.046   3.300   8.321 -2.6694 -0.6398  0.5203
 6876SOL    HW232091   1.991   3.177   8.383 -1.1915  0.8024 -1.0243
 6877SOL     OW32092   2.027   1.186   5.293  0.0762  0.3935 -0.3388
 6877SOL    HW132093   2.103   1.235   5.262  0.8201 -0.7632 -0.2911
 6877SOL    HW232094   1.959   1.254   5.302 -0.1471  0.2348 -0.8113
 6878SOL     OW32095   3.972   2.389   4.560 -0.2971  0.3127 -0.1494
 6878SOL    HW132096   4.024   2.457   4.603  1.0711 -0.0324 -1.2707
 6878SOL    HW232097   4.036   2.319   4.557 -0.7880 -0.2782  2.9725
 6879SOL     OW32098   2.060   1.292   0.512 -0.0526 -0.5499 -0.1138
 6879SOL    HW132099   2.018   1.205   0.513 -1.9119  0.3199 -1.1307
 6879SOL    HW232100   2.126   1.274   0.445 -1.5825 -1.3849 -1.4085
 6880SOL     OW32101   2.614   2.665   8.600 -0.0808 -0.0450 -0.6179
 6880SOL    HW132102   2.561   2.720   8.658 -0.1203  0.1783 -0.8642
 6880SOL    HW232103   2.571   2.677   8.515 -1.7746 -0.3863  0.1778
 6881SOL     OW32104   3.622   2.882   4.350  0.1126 -0.0055 -0.5767
 6881SOL    HW132105   3.592   2.886   4.441 -1.1047 -2.8489 -0.8358
 6881SOL    HW232106   3.714   2.907   4.360  0.6266 -2.7314  1.6181
 6882SOL     OW32107   2.300   0.897   9.483 -0.8945 -0.0107 -0.0011
 6882SOL    HW132108   2.269   0.987   9.473  1.4050  0.4633 -2.6056
 6882SOL    HW232109   2.272   0.888   9.574 -1.7007 -0.4010 -0.2895
 6883SOL     OW32110   1.414   4.606   5.608  0.4464  0.3158 -0.2438
 6883SOL    HW132111   1.407   4.518   5.571 -1.2873 -0.4347  1.8906
 6883SOL    HW232112   1.507   4.619   5.588  0.7068  0.0877  0.8330
 6884SOL     OW32113   2.298   3.067   9.109 -0.0955 -0.2675  0.8003
 6884SOL    HW132114   2.327   2.978   9.127 -1.6580 -0.9665 -0.0931
 6884SOL    HW232115   2.235   3.059   9.037  0.5316 -0.7357  0.3079
 6885SOL     OW32116   4.523   2.723   5.221 -0.3691 -0.5333 -0.5006
 6885SOL    HW132117   4.492   2.659   5.157 -0.0229  1.2101 -2.3909
 6885SOL    HW232118   4.472   2.802   5.201  0.5607  0.5674  1.4623
 6886SOL     OW32119   4.650   0.616  13.478 -0.4859 -0.6705 -0.0108
 6886SOL    HW132120   4.719   0.672  13.516  0.2554 -2.6144  1.4876
 6886SOL    HW232121   4.697   0.535  13.498  0.6893  0.8295  3.3897
 6887SOL     OW32122   2.222   0.826   6.307  0.2121 -0.0620 -0.3261
 6887SOL    HW132123   2.214   0.812   6.213  0.7410 -1.0256 -0.2273
 6887SOL    HW232124   2.291   0.892   6.308  1.1305 -0.9986 -2.7887
 6888SOL     OW32125   4.050   0.397  15.858  0.0178 -0.0543 -0.2032
 6888SOL    HW132126   4.125   0.441  15.820 -0.6517  2.6400  1.6206
 6888SOL    HW232127   4.087   0.392  15.946  1.2909  0.0044 -0.7336
 6889SOL     OW32128   4.578   3.343   5.009 -0.6485 -0.1529  0.4676
 6889SOL    HW132129   4.543   3.257   5.029  0.5979 -0.4923  1.1946
 6889SOL    HW232130   4.577   3.345   4.914  0.5798  0.2488  0.4596
 6890SOL     OW32131   4.367   2.937   6.447  0.3091 -0.3101 -0.3102
 6890SOL    HW132132   4.300   2.915   6.382 -1.2872 -1.3061  1.6679
 6890SOL    HW232133   4.384   3.029   6.428 -1.6454  0.6700  2.6180
 6891SOL     OW32134   0.180   2.259  13.576 -0.0294  0.5183  0.3510
 6891SOL    HW132135   0.133   2.229  13.654  0.2469 -0.1039  0.2808
 6891SOL    HW232136   0.255   2.200  13.574  0.2267  0.8194  1.0494
 6892SOL     OW32137   4.254   1.111   4.193 -1.0797 -0.2623 -0.7980
 6892SOL    HW132138   4.171   1.123   4.239 -1.0797 -1.6684 -0.4558
 6892SOL    HW232139   4.256   1.019   4.168  0.7054 -0.3840 -0.1476
 6893SOL     OW32140   1.111   4.132   5.424 -0.9629  0.1974  0.5655
 6893SOL    HW132141   1.108   4.064   5.357  1.6905  1.0089 -0.3619
 6893SOL    HW232142   1.127   4.207   5.367 -1.3098  0.1430  0.3935
 6894SOL     OW32143   4.065   1.641   7.435 -0.0883  0.4719 -0.1899
 6894SOL    HW132144   3.998   1.704   7.406  0.0537 -0.6592 -3.0378
 6894SOL    HW232145   4.070   1.588   7.355  0.9663 -0.4090  0.4687
 6895SOL     OW32146   4.643   0.774   7.636  0.0776 -0.3915 -0.1088
 6895SOL    HW132147   4.689   0.846   7.592 -0.6353 -1.2663 -2.2890
 6895SOL    HW232148   4.713   0.754   7.698 -1.5805 -2.0550  1.2243
 6896SOL     OW32149   0.207   2.270   8.589  0.1820  0.0970 -0.3219
 6896SOL    HW132150   0.283   2.280   8.645 -1.9572  0.7739  2.4600
 6896SOL    HW232151   0.247   2.231   8.511  0.6989 -0.1374  0.0662
 6897SOL     OW32152   0.057   0.215   6.955 -0.2339  0.3728 -0.0341
 6897SOL    HW132153   0.040   0.255   7.040  3.5598 -2.0457  1.8826
 6897SOL    HW232154   4.691   0.193   6.924 -0.3567 -0.6561  1.0154
 6898SOL     OW32155   1.811   2.265   0.523  0.0316  0.0234  0.2147
 6898SOL    HW132156   1.804   2.337   0.586  1.4240  0.8698 -0.5923
 6898SOL    HW232157   1.721   2.236   0.508  0.1169 -1.0813  1.8257
 6899SOL     OW32158   0.659   1.334   4.752  0.5439  0.0634  0.5088
 6899SOL    HW132159   0.669   1.355   4.659 -0.0057 -0.6390  0.2887
 6899SOL    HW232160   0.581   1.385   4.773  0.3336  1.2461 -3.0710
 6900SOL     OW32161   2.549   2.005  13.400  0.5109 -0.5972  0.2160
 6900SOL    HW132162   2.629   2.054  13.383 -0.1366  0.1214 -0.7548
 6900SOL    HW232163   2.588   1.923  13.430  1.8532 -0.8355 -2.1372
 6901SOL     OW32164   1.205   0.373  11.268  0.2587 -0.0244  0.4830
 6901SOL    HW132165   1.211   0.461  11.230  0.0699  0.1795  0.9257
 6901SOL    HW232166   1.263   0.323  11.210 -1.9050 -0.9968 -0.8278
 6902SOL     OW32167   1.259   1.828   9.981 -0.4172  0.3373  0.2624
 6902SOL    HW132168   1.344   1.861  10.009 -0.2842  0.9986 -0.9291
 6902SOL    HW232169   1.195   1.870  10.038  0.9530  0.8741  1.4100
 6903SOL     OW32170   3.848   3.893   7.260  0.5793 -0.1308 -0.0875
 6903SOL    HW132171   3.860   3.987   7.249 -2.8779  0.4200  0.6755
 6903SOL    HW232172   3.938   3.863   7.258  0.2632 -0.9925 -1.4364
 6904SOL     OW32173   1.194   2.414   7.386  0.2103  0.2267  0.1431
 6904SOL    HW132174   1.192   2.359   7.308  1.2690 -0.2479  0.4449
 6904SOL    HW232175   1.136   2.486   7.363 -0.2784 -0.9075 -2.1377
 6905SOL     OW32176   3.745   4.595  11.503  0.4147 -0.5020  0.0769
 6905SOL    HW132177   3.703   4.509  11.510 -0.9899  0.2805  1.0906
 6905SOL    HW232178   3.770   4.610  11.412 -1.7711  1.9722 -0.0886
 6906SOL     OW32179   3.259   3.844   8.875  0.0642 -0.3331  0.1063
 6906SOL    HW132180   3.348   3.808   8.879  0.6380  1.1243  1.0443
 6906SOL    HW232181   3.265   3.935   8.907  1.0166 -0.0124 -0.9543
 6907SOL     OW32182   2.647   1.251   9.022  0.1047 -0.3365  0.0682
 6907SOL    HW132183   2.633   1.241   8.928  0.0663 -0.4373  0.0847
 6907SOL    HW232184   2.639   1.161   9.055  1.1006 -0.2327  0.6126
 6908SOL     OW32185   1.057   4.542   3.309  0.3180 -0.2949 -0.0835
 6908SOL    HW132186   0.979   4.486   3.299 -0.1369  0.4103 -0.4979
 6908SOL    HW232187   1.063   4.554   3.404  0.1744  0.7870 -0.2143
 6909SOL     OW32188   3.121   4.643  13.850  0.3523 -0.0757  0.2572
 6909SOL    HW132189   3.155   0.002  13.814  2.6822 -0.9398  0.5286
 6909SOL    HW232190   3.041   4.648  13.797 -0.3451 -0.5528  1.2564
 6910SOL     OW32191   3.613   3.916   8.513  0.1819 -0.2823  0.1860
 6910SOL    HW132192   3.617   4.012   8.513 -3.0592 -0.1205  1.4789
 6910SOL    HW232193   3.655   3.893   8.596  1.3486 -0.7048 -0.5270
 6911SOL     OW32194   3.439   3.573   3.837 -0.3507 -0.0380 -0.0360
 6911SOL    HW132195   3.457   3.494   3.889 -1.3128 -0.3868 -0.2307
 6911SOL    HW232196   3.510   3.630   3.865 -1.2589  0.8120  0.5168
 6912SOL     OW32197   2.677   1.792   7.116  0.0488 -0.0617 -0.2604
 6912SOL    HW132198   2.743   1.755   7.175 -2.4099  0.8064  2.9966
 6912SOL    HW232199   2.656   1.871   7.166 -2.7640  1.7360 -4.3316
 6913SOL     OW32200   2.157   2.100   4.558 -0.2367  0.4690 -0.0226
 6913SOL    HW132201   2.198   2.024   4.599 -0.1839  0.0240 -0.9105
 6913SOL    HW232202   2.210   2.111   4.479 -2.2947 -0.5206 -1.5285
 6914SOL     OW32203   0.346   4.570  11.283  0.3913  0.2183 -0.3278
 6914SOL    HW132204   0.410   4.518  11.234  0.2013  0.2036 -0.5615
 6914SOL    HW232205   0.280   4.597  11.219 -0.0965 -0.9056 -0.3016
 6915SOL     OW32206   1.413   1.987   2.774 -0.1303  0.2702 -0.0243
 6915SOL    HW132207   1.323   2.016   2.761 -0.8791 -1.8030  0.5264
 6915SOL    HW232208   1.411   1.915   2.837 -1.2009  0.6198  0.3406
 6916SOL     OW32209   2.333   1.945  13.166 -0.1582 -0.2705 -0.3269
 6916SOL    HW132210   2.407   1.978  13.218 -0.9297  0.2717  0.4206
 6916SOL    HW232211   2.347   1.851  13.181  1.1999 -0.0903 -0.4102
 6917SOL     OW32212   4.103   2.564   5.312 -0.0471 -0.3142 -0.2321
 6917SOL    HW132213   4.180   2.510   5.329 -1.5619 -2.5799 -0.6391
 6917SOL    HW232214   4.078   2.584   5.402  0.1527 -1.8394  0.1619
 6918SOL     OW32215   2.256   3.063   0.300 -0.2719 -0.0638 -0.1922
 6918SOL    HW132216   2.180   3.008   0.318 -0.7067  0.5632 -0.1133
 6918SOL    HW232217   2.311   2.994   0.263 -2.1579 -1.1456 -0.9944
 6919SOL     OW32218   2.220   1.719  11.757  0.4109 -0.4945  0.4252
 6919SOL    HW132219   2.233   1.801  11.805  3.6479 -1.8642  1.9025
 6919SOL    HW232220   2.138   1.743  11.715  1.8254 -1.7958 -3.1146
 6920SOL     OW32221   1.555   2.567   8.752 -0.2282  0.9228  0.4892
 6920SOL    HW132222   1.461   2.551   8.750 -0.1876  0.8005 -0.3055
 6920SOL    HW232223   1.584   2.561   8.843  0.5493  1.9090  0.3057
 6921SOL     OW32224   3.578   2.733  12.447  0.5636 -0.1940  0.2308
 6921SOL    HW132225   3.662   2.762  12.412  0.5246 -0.0026  0.2960
 6921SOL    HW232226   3.610   2.689  12.526  0.1880  0.6039  0.8301
 6922SOL     OW32227   3.552   0.378  13.985  0.2584 -0.4693  0.5767
 6922SOL    HW132228   3.510   0.438  14.046  0.2095 -0.8105  0.8789
 6922SOL    HW232229   3.476   0.345  13.938 -0.3259  1.6357  0.0382
 6923SOL     OW32230   4.284   2.856   3.561 -0.1794 -0.6827 -0.0660
 6923SOL    HW132231   4.355   2.880   3.620  0.2610 -1.6459 -0.2011
 6923SOL    HW232232   4.336   2.844   3.481 -1.7968 -0.3398 -1.1835
 6924SOL     OW32233   1.120   1.358  17.570 -0.1655  0.3375 -0.2379
 6924SOL    HW132234   1.190   1.416  17.541  1.4063 -1.8466 -0.8059
 6924SOL    HW232235   1.059   1.431  17.585  0.4773  1.1847 -1.8644
 6925SOL     OW32236   4.184   2.700   7.233 -0.4138 -0.3687 -0.2930
 6925SOL    HW132237   4.175   2.624   7.175  0.6327 -1.8867  1.5443
 6925SOL    HW232238   4.206   2.654   7.314  0.0179 -1.2291 -0.9056
 6926SOL     OW32239   3.468   2.189   2.787 -0.0669  0.2817  0.0120
 6926SOL    HW132240   3.473   2.143   2.704 -1.9759  0.2016 -0.0749
 6926SOL    HW232241   3.510   2.271   2.761 -3.0785  1.9863  0.4648
 6927SOL     OW32242   2.506   3.258   6.370  0.3938 -0.1957  0.0025
 6927SOL    HW132243   2.591   3.299   6.380  0.8151 -0.9625 -0.4423
 6927SOL    HW232244   2.498   3.192   6.439 -0.3156 -1.3937 -1.2346
 6928SOL     OW32245   4.372   0.284   5.345 -1.0962  0.1468 -0.3041
 6928SOL    HW132246   4.283   0.298   5.377 -0.7352 -0.8163  1.0771
 6928SOL    HW232247   4.377   0.189   5.345 -0.7883  0.1625 -0.3016
 6929SOL     OW32248   0.895   1.513  16.695  0.1017  0.1650 -0.4996
 6929SOL    HW132249   0.927   1.596  16.729  1.0805  0.3461 -1.9033
 6929SOL    HW232250   0.958   1.466  16.750 -0.5337 -1.5217 -1.2099
 6930SOL     OW32251   3.927   0.035   0.705  0.1044  0.4954  0.4168
 6930SOL    HW132252   3.837   0.046   0.676  0.0284 -0.2953  0.3396
 6930SOL    HW232253   3.908   4.676   0.753 -1.3299 -0.2593 -1.4361
 6931SOL     OW32254   1.136   0.642  17.065 -0.4938 -0.1802  0.4901
 6931SOL    HW132255   1.214   0.671  17.018 -1.2879 -1.7665 -1.8031
 6931SOL    HW232256   1.172   0.573  17.120  0.8375 -1.2592 -1.7518
 6932SOL     OW32257   1.459   3.593   3.249 -0.3489  0.6066  0.1324
 6932SOL    HW132258   1.482   3.677   3.289  2.1555 -0.6558  1.3349
 6932SOL    HW232259   1.493   3.537   3.318 -0.9642  1.7083  1.3232
 6933SOL     OW32260   1.783   4.226  12.108  0.2487  0.2061 -0.2513
 6933SOL    HW132261   1.767   4.164  12.037 -0.5085  0.1389 -0.0215
 6933SOL    HW232262   1.713   4.290  12.094 -1.1800 -1.3421 -0.2677
 6934SOL     OW32263   3.161   1.843   6.642  0.6895  0.1887  0.1142
 6934SOL    HW132264   3.156   1.776   6.574 -1.0562  1.2024 -0.7549
 6934SOL    HW232265   3.074   1.845   6.682 -0.3388  0.3650 -2.1360
 6935SOL     OW32266   1.385   4.672   2.224 -0.0315  0.4917  0.0173
 6935SOL    HW132267   1.372   4.589   2.268  0.9695  0.4931  0.3071
 6935SOL    HW232268   1.389   0.010   2.299  0.7763  1.2002 -0.5905
 6936SOL     OW32269   4.036   1.156   2.644 -0.0145  0.2862 -0.4381
 6936SOL    HW132270   3.949   1.116   2.647  0.1217  0.3155  3.0990
 6936SOL    HW232271   4.025   1.235   2.591  0.1605 -0.3993 -1.4968
 6937SOL     OW32272   3.884   0.302  13.053  0.3893 -0.2045  0.0208
 6937SOL    HW132273   3.852   0.214  13.073 -1.2422 -0.2810 -2.9545
 6937SOL    HW232274   3.870   0.305  12.959 -0.9388 -0.3991  0.2091
 6938SOL     OW32275   4.409   3.787   6.971  0.1625 -0.6569  0.1833
 6938SOL    HW132276   4.406   3.859   7.034  0.6135 -1.6947  1.3830
 6938SOL    HW232277   4.353   3.725   7.017 -1.3972  0.1703 -0.6001
 6939SOL     OW32278   4.508   0.494   6.665  0.2428 -0.1512 -0.3286
 6939SOL    HW132279   4.571   0.499   6.592  1.8180  1.4949  1.1246
 6939SOL    HW232280   4.546   0.426   6.720  1.9738  1.2235  0.2037
 6940SOL     OW32281   3.360   2.959   8.545  0.6042 -0.3799 -0.4019
 6940SOL    HW132282   3.452   2.979   8.563  0.2743 -0.1709  1.0307
 6940SOL    HW232283   3.316   3.021   8.602  0.3718  1.8529 -2.9757
 6941SOL     OW32284   1.370   3.258   7.402  0.4707 -0.8076  0.2547
 6941SOL    HW132285   1.431   3.270   7.329 -0.9445 -0.6226 -0.9164
 6941SOL    HW232286   1.419   3.205   7.465 -0.2250  0.1068  1.5636
 6942SOL     OW32287   0.135   1.125  16.984 -0.4705 -0.4722 -0.3199
 6942SOL    HW132288   0.196   1.158  17.050 -0.5749  0.5909 -0.7482
 6942SOL    HW232289   0.157   1.032  16.987 -2.9796 -1.1125 -1.9186
 6943SOL     OW32290   0.317   2.189   7.244  0.0188 -0.2902 -0.2793
 6943SOL    HW132291   0.366   2.249   7.301  1.5663 -1.2499 -0.6074
 6943SOL    HW232292   0.263   2.247   7.191  0.2090  1.3327  1.2641
 6944SOL     OW32293   0.245   4.159  10.916 -0.3892 -0.1754  0.2149
 6944SOL    HW132294   0.226   4.252  10.916  0.4647  0.0037  0.4453
 6944SOL    HW232295   0.341   4.158  10.920 -0.3727 -1.2463 -0.3103
 6945SOL     OW32296   2.004   0.398  16.304 -0.5203  0.4531  0.5862
 6945SOL    HW132297   1.921   0.390  16.258 -0.9542 -1.9167  1.7679
 6945SOL    HW232298   2.002   0.485  16.343  1.5764 -0.3399  2.5051
 6946SOL     OW32299   0.561   2.727   8.040 -0.3044 -0.1003 -0.4322
 6946SOL    HW132300   0.624   2.717   8.111  1.5857 -0.6447 -2.1962
 6946SOL    HW232301   0.592   2.807   7.997  2.1561  0.2022  1.9175
 6947SOL     OW32302   1.547   2.799   2.079 -0.0730  0.2018  0.1080
 6947SOL    HW132303   1.627   2.849   2.069 -0.3964  0.8371  0.7283
 6947SOL    HW232304   1.509   2.844   2.155 -0.6070 -2.6938  1.5743
 6948SOL     OW32305   0.172   1.420   8.549  0.1901 -0.0157 -0.2006
 6948SOL    HW132306   0.120   1.405   8.628 -0.7888 -0.2799 -0.8972
 6948SOL    HW232307   0.226   1.341   8.539  1.5364  0.8171  0.4898
 6949SOL     OW32308   3.497   1.765  12.759  0.0989  0.2105 -0.1865
 6949SOL    HW132309   3.583   1.725  12.744 -0.1014 -0.4363  0.3684
 6949SOL    HW232310   3.505   1.778  12.853 -1.7805  0.8373 -0.1075
 6950SOL     OW32311   1.566   2.579   7.044  0.4764  0.2997  0.1437
 6950SOL    HW132312   1.519   2.634   7.106 -1.8508 -1.9880  0.3808
 6950SOL    HW232313   1.593   2.649   6.984 -2.1958 -0.2000 -1.6480
 6951SOL     OW32314   1.964   3.945   1.424  0.3283  0.4375 -0.0281
 6951SOL    HW132315   1.943   3.913   1.337  1.3652  0.2956 -0.2257
 6951SOL    HW232316   1.875   3.959   1.457 -0.2663 -1.9431 -0.6624
 6952SOL     OW32317   3.869   2.131  11.386  0.4574  0.0079  0.0645
 6952SOL    HW132318   3.850   2.136  11.293  0.7944 -0.1492 -0.0111
 6952SOL    HW232319   3.809   2.198  11.418  0.5868 -0.9892  2.4121
 6953SOL     OW32320   1.963   4.157   4.084  0.5130  0.2228  0.1393
 6953SOL    HW132321   2.020   4.231   4.110 -0.2397  1.2070 -1.0410
 6953SOL    HW232322   2.030   4.105   4.040 -0.6952  0.6302 -2.1818
 6954SOL     OW32323   3.675   4.317  11.993  0.6186 -0.4032 -0.3806
 6954SOL    HW132324   3.595   4.276  11.960 -1.1117 -0.0864  3.4382
 6954SOL    HW232325   3.731   4.314  11.915  1.4486  2.1526  0.1231
 6955SOL     OW32326   4.295   2.672   6.935  0.3954 -0.2430  0.0734
 6955SOL    HW132327   4.202   2.667   6.913  0.4520 -1.5309  0.1441
 6955SOL    HW232328   4.315   2.759   6.899 -0.8181  0.3382  0.8114
 6956SOL     OW32329   2.593   0.966   9.128  0.2998 -0.4294  0.2985
 6956SOL    HW132330   2.612   0.910   9.053 -0.3100  0.2663 -0.3600
 6956SOL    HW232331   2.498   0.967   9.140  0.2912  0.6771  0.1160
 6957SOL     OW32332   3.364   2.251   2.422 -0.4864  0.0978  0.7893
 6957SOL    HW132333   3.451   2.231   2.386 -0.1715 -0.6536  1.9552
 6957SOL    HW232334   3.325   2.305   2.353 -0.4342  1.6754  2.0042
 6958SOL     OW32335   1.803   2.541   4.690  0.0018  0.0585 -0.1617
 6958SOL    HW132336   1.767   2.459   4.724  1.0411 -0.2985  0.0862
 6958SOL    HW232337   1.722   2.580   4.659  1.0692  2.2884 -0.0991
 6959SOL     OW32338   0.309   0.568  17.129  0.0707  0.0996  0.2604
 6959SOL    HW132339   0.285   0.544  17.218  0.4826 -1.8182 -0.1468
 6959SOL    HW232340   0.267   0.497  17.080  2.5818  0.0310 -1.7712
 6960SOL     OW32341   2.975   1.934  12.639 -0.0775 -0.0925 -0.2546
 6960SOL    HW132342   2.906   1.996  12.663  1.5304  2.0052 -0.9678
 6960SOL    HW232343   3.058   1.982  12.638 -0.0961 -0.0379  0.5314
 6961SOL     OW32344   1.081   4.089  14.012 -0.3735  0.7203  0.5043
 6961SOL    HW132345   1.054   4.028  14.081  1.1800  1.2692  1.5953
 6961SOL    HW232346   1.032   4.169  14.035  2.2515  2.4642 -0.0168
 6962SOL     OW32347   3.756   4.386   8.193  0.2393  0.0481  0.3992
 6962SOL    HW132348   3.823   4.401   8.126  1.3675  0.4763  1.6244
 6962SOL    HW232349   3.714   4.313   8.148  2.3090 -1.1415  0.4009
 6963SOL     OW32350   0.562   3.830  10.407 -0.2543  0.8856  0.1907
 6963SOL    HW132351   0.628   3.788  10.461 -0.3957  1.0085  0.4565
 6963SOL    HW232352   0.572   3.776  10.329  3.2604 -0.5811  1.6672
 6964SOL     OW32353   1.921   4.657   3.556  0.1813  0.0388  0.9687
 6964SOL    HW132354   1.957   0.006   3.608  1.6190  0.5221 -0.6955
 6964SOL    HW232355   1.961   4.575   3.586  0.6002 -0.2065 -0.2512
 6965SOL     OW32356   4.364   3.937   3.741  0.1180  0.2168  0.1713
 6965SOL    HW132357   4.348   3.847   3.711 -1.0906  0.5624 -0.2162
 6965SOL    HW232358   4.395   3.925   3.831 -0.3385 -1.4688  0.1179
 6966SOL     OW32359   2.638   2.379   5.507 -0.6827  0.1910 -0.0529
 6966SOL    HW132360   2.548   2.355   5.530 -0.2566  1.5411  2.9730
 6966SOL    HW232361   2.670   2.360   5.595 -1.7605 -0.2195  0.2589
 6967SOL     OW32362   3.039   1.127  12.994 -0.5177 -0.7976 -0.1875
 6967SOL    HW132363   3.025   1.083  12.911  0.6372  1.7414 -1.7263
 6967SOL    HW232364   2.950   1.153  13.020 -0.3699 -0.2303 -0.2376
 6968SOL     OW32365   3.868   1.174   6.111 -0.2606 -0.1353  0.0678
 6968SOL    HW132366   3.919   1.100   6.077  2.5652  1.8219 -0.0262
 6968SOL    HW232367   3.945   1.227   6.131  0.2455  0.5319 -3.5577
 6969SOL     OW32368   0.994   3.508   1.817 -0.3308  0.2617 -0.2256
 6969SOL    HW132369   1.076   3.488   1.771 -1.1641 -1.0673 -1.1416
 6969SOL    HW232370   1.025   3.574   1.879 -2.0191  1.2954 -0.4990
 6970SOL     OW32371   3.746   3.110   4.195  0.2818 -0.0096 -0.2337
 6970SOL    HW132372   3.694   3.031   4.198  1.7233 -0.9078  1.3708
 6970SOL    HW232373   3.698   3.157   4.263  0.9511 -0.3750  0.4934
 6971SOL     OW32374   0.237   2.317   8.051 -0.0121 -0.0900  0.3508
 6971SOL    HW132375   0.322   2.287   8.084 -0.2847 -0.7807  0.4194
 6971SOL    HW232376   0.256   2.410   8.043 -0.3162  0.0332  1.0929
 6972SOL     OW32377   3.567   2.297   7.006 -0.0531 -0.9093 -0.7386
 6972SOL    HW132378   3.624   2.371   7.027 -0.6226 -0.6976  0.0675
 6972SOL    HW232379   3.486   2.328   7.048 -1.1253 -1.5580 -2.3635
 6973SOL     OW32380   0.622   3.246   7.386  0.0133  0.7777  0.0458
 6973SOL    HW132381   0.603   3.157   7.413  1.4924  1.0353  1.8690
 6973SOL    HW232382   0.718   3.243   7.384 -0.0770 -2.1114  0.8635
 6974SOL     OW32383   4.084   1.937   2.991  0.3578 -0.0127 -0.2151
 6974SOL    HW132384   4.042   2.020   2.968 -0.1975  0.0036  0.8632
 6974SOL    HW232385   4.006   1.891   3.022  0.5180 -0.0726  0.0916
 6975SOL     OW32386   1.437   2.685   8.274  0.3612  0.0428  0.4568
 6975SOL    HW132387   1.386   2.606   8.255 -0.2301  0.4254  0.4647
 6975SOL    HW232388   1.399   2.710   8.358 -0.3533  2.1031 -0.4825
 6976SOL     OW32389   1.357   4.051   6.819  0.7129  0.3378  0.1707
 6976SOL    HW132390   1.428   4.098   6.864  3.1345 -2.3473 -0.8198
 6976SOL    HW232391   1.304   4.130   6.813 -0.5169 -0.3782  1.4803
 6977SOL     OW32392   0.593   4.055   1.846 -1.1233 -0.3981  0.4621
 6977SOL    HW132393   0.516   4.105   1.874 -1.8559 -1.1418 -0.2588
 6977SOL    HW232394   0.605   4.098   1.761  0.1794  0.5132  1.1114
 6978SOL     OW32395   4.049   0.626   4.750  0.4789  0.2395 -0.5350
 6978SOL    HW132396   3.959   0.636   4.779  0.0931  0.9240 -1.9417
 6978SOL    HW232397   4.075   0.563   4.817 -0.2673  0.2910 -0.2047
 6979SOL     OW32398   0.525   2.116   2.643 -0.0483  0.2331 -0.1252
 6979SOL    HW132399   0.460   2.155   2.584 -2.8138 -3.7204  0.3177
 6979SOL    HW232400   0.561   2.197   2.679 -1.7378  2.4079 -3.3762
 6980SOL     OW32401   3.628   1.392  13.299 -0.5878 -0.0139  0.4040
 6980SOL    HW132402   3.711   1.431  13.327 -0.1339 -2.2952  2.1921
 6980SOL    HW232403   3.617   1.321  13.362 -1.1035 -1.6169 -1.4672
 6981SOL     OW32404   2.674   0.981  12.677 -0.4804  0.0908  0.0633
 6981SOL    HW132405   2.632   0.896  12.668  2.5279 -1.7195  2.7670
 6981SOL    HW232406   2.619   1.050  12.642 -1.0147 -0.7825 -0.8015
 6982SOL     OW32407   4.191   0.875   2.876  0.1714  0.2023  0.2320
 6982SOL    HW132408   4.117   0.935   2.870  0.9563  1.1522  0.0616
 6982SOL    HW232409   4.229   0.893   2.790  0.4111  0.4931  0.3977
 6983SOL     OW32410   2.093   2.748   0.689  0.6947  0.6262 -0.4299
 6983SOL    HW132411   2.031   2.690   0.734  0.1808  0.9872 -0.6683
 6983SOL    HW232412   2.143   2.681   0.642 -0.4300 -1.3867  1.2008
 6984SOL     OW32413   2.111   1.400   7.352  0.2190 -0.3555  0.3416
 6984SOL    HW132414   2.059   1.460   7.405  0.4134 -1.2223  1.5109
 6984SOL    HW232415   2.123   1.333   7.419 -1.1369 -0.5632  0.3625
 6985SOL     OW32416   1.021   1.560   3.603  0.2554 -0.2914 -0.1017
 6985SOL    HW132417   0.930   1.576   3.630  0.0385  0.0472 -1.0296
 6985SOL    HW232418   1.057   1.618   3.671  0.2412 -0.1306 -0.2304
 6986SOL     OW32419   0.705   1.248   7.173 -0.2873 -0.2669  0.1549
 6986SOL    HW132420   0.773   1.194   7.132 -1.4476 -2.3593  0.9563
 6986SOL    HW232421   0.757   1.299   7.236 -1.4685  2.3927 -1.0393
 6987SOL     OW32422   3.346   0.750   5.895  0.1477 -0.1541 -0.0326
 6987SOL    HW132423   3.292   0.698   5.955 -1.4830  1.7909  0.2136
 6987SOL    HW232424   3.282   0.814   5.863 -0.8047 -1.3793 -0.5520
 6988SOL     OW32425   1.382   3.867  16.763 -0.0847 -0.6557 -0.2317
 6988SOL    HW132426   1.291   3.838  16.774  0.0234  0.0642  2.4837
 6988SOL    HW232427   1.381   3.959  16.739 -1.2007  0.0917  2.7277
 6989SOL     OW32428   0.582   4.541  11.615  0.1432  0.1876 -0.4671
 6989SOL    HW132429   0.590   4.636  11.623  1.2665 -0.0356  1.0269
 6989SOL    HW232430   0.601   4.535  11.521  1.3889 -0.5276 -0.1696
 6990SOL     OW32431   2.087   1.913  17.564  0.0762 -0.3925  0.3278
 6990SOL    HW132432   2.095   1.843  17.499 -0.8214  0.3484 -0.5950
 6990SOL    HW232433   1.993   1.912  17.582 -0.3190  1.2786 -1.5575
 6991SOL     OW32434   0.763   1.148  11.965  0.8351  0.4225 -0.3221
 6991SOL    HW132435   0.815   1.148  12.045 -1.2745  2.3665  1.0408
 6991SOL    HW232436   0.767   1.240  11.939  1.9032  0.2629 -0.6984
 6992SOL     OW32437   3.845   3.733   4.517  0.1594  0.1436  0.6632
 6992SOL    HW132438   3.859   3.804   4.579 -1.6858  2.7494 -1.8903
 6992SOL    HW232439   3.897   3.767   4.445 -0.1817 -0.2764  0.2095
 6993SOL     OW32440   1.112   3.304   1.207  0.0466 -0.7835 -0.3616
 6993SOL    HW132441   1.141   3.222   1.247  0.2156  0.1521  1.4246
 6993SOL    HW232442   1.134   3.283   1.116 -2.2797  1.3007 -1.3802
 6994SOL     OW32443   3.107   2.995   0.508  0.1904 -0.2575  0.3777
 6994SOL    HW132444   3.185   3.034   0.548 -0.9675 -0.4716  2.8653
 6994SOL    HW232445   3.073   3.073   0.464 -0.3373 -0.6038  0.1602
 6995SOL     OW32446   0.438   4.043   2.397  0.4533  0.4181 -0.1139
 6995SOL    HW132447   0.528   4.076   2.393 -0.1289  1.8877 -1.2226
 6995SOL    HW232448   0.387   4.124   2.393 -0.5492 -0.1468  1.0373
 6996SOL     OW32449   0.674   3.902   9.964  0.0917 -0.5653 -0.3549
 6996SOL    HW132450   0.752   3.931   9.917 -0.7412  1.1100 -0.7102
 6996SOL    HW232451   0.632   3.851   9.895 -0.7109 -3.0798  1.9601
 6997SOL     OW32452   0.888   1.926  16.430  0.4092 -0.2084 -0.4148
 6997SOL    HW132453   0.904   2.011  16.390 -0.1180  0.1874  0.2175
 6997SOL    HW232454   0.820   1.961  16.487  1.1887  1.0922 -0.3053
 6998SOL     OW32455   1.658   1.760   5.804  0.3573 -0.3178 -0.0853
 6998SOL    HW132456   1.707   1.809   5.870 -0.9015 -2.1673  2.2667
 6998SOL    HW232457   1.594   1.827   5.781  0.7375  0.1345  0.1734
 6999SOL     OW32458   1.660   3.704   5.691 -0.0857  0.9160 -0.3213
 6999SOL    HW132459   1.666   3.678   5.599  1.2703  0.2648 -0.0623
 6999SOL    HW232460   1.751   3.733   5.698  0.4162 -1.0093  1.0226
 7000SOL     OW32461   0.138   1.344  15.418 -0.0995  0.0084  0.2235
 7000SOL    HW132462   0.168   1.279  15.482  0.6198  1.4832  1.3750
 7000SOL    HW232463   0.122   1.288  15.342  0.5677  0.7646 -0.4738
 7001SOL     OW32464   1.359   2.048   7.458 -0.1357 -0.7069 -0.4535
 7001SOL    HW132465   1.398   2.113   7.399 -2.0586 -0.6823 -1.6852
 7001SOL    HW232466   1.265   2.032   7.449 -0.1093 -0.9706 -0.2685
 7002SOL     OW32467   2.039   2.914   2.484 -0.5267  0.6755 -0.6251
 7002SOL    HW132468   2.065   2.857   2.556 -1.1332  0.3331 -0.6730
 7002SOL    HW232469   1.960   2.948   2.528  0.5917  0.6425  1.4227
 7003SOL     OW32470   2.024   1.826  16.018  0.1005  0.0181  0.2225
 7003SOL    HW132471   1.952   1.827  16.081  0.5029 -2.5404  0.7331
 7003SOL    HW232472   1.986   1.854  15.934 -0.4749 -0.0245  0.4697
 7004SOL     OW32473   0.323   4.213   4.322  0.1960  0.3864  0.2401
 7004SOL    HW132474   0.403   4.168   4.294 -0.8396 -0.0295 -2.0971
 7004SOL    HW232475   0.361   4.269   4.390  0.9228 -0.5280  0.5767
 7005SOL     OW32476   4.668   0.778   6.514  0.3197 -0.3886  0.5547
 7005SOL    HW132477   4.705   0.750   6.597 -0.5470  0.6353  1.2816
 7005SOL    HW232478   0.017   0.837   6.489 -0.4242  1.0177  1.7872
 7006SOL     OW32479   1.143   3.782   4.430 -0.0334 -0.3262  0.0270
 7006SOL    HW132480   1.114   3.754   4.343  1.1377 -2.1277  0.2220
 7006SOL    HW232481   1.120   3.704   4.480  0.9516 -0.6620 -0.0415
 7007SOL     OW32482   3.610   2.643   4.953  0.2713  0.3691  0.1058
 7007SOL    HW132483   3.533   2.587   4.946 -0.1374  0.5708  2.9755
 7007SOL    HW232484   3.631   2.632   5.046  0.6625 -1.5117 -0.2125
 7008SOL     OW32485   2.496   3.119  15.496  0.2597 -0.6179  0.3617
 7008SOL    HW132486   2.486   3.024  15.490 -2.9124 -0.2276 -0.2648
 7008SOL    HW232487   2.406   3.147  15.480  0.2299 -0.7148  0.3613
 7009SOL     OW32488   0.147   3.743   3.058  0.0296 -0.3297  0.0419
 7009SOL    HW132489   0.163   3.698   3.142  0.2795 -1.0456 -0.3902
 7009SOL    HW232490   0.177   3.674   2.999 -2.8896 -3.1727  1.8391
 7010SOL     OW32491   3.976   2.319   6.209 -0.5516  0.2645  0.1270
 7010SOL    HW132492   3.973   2.408   6.244  0.9233  0.0015  0.9284
 7010SOL    HW232493   4.063   2.323   6.170 -1.1635  0.1249 -1.2380
 7011SOL     OW32494   4.033   1.286  15.848  0.1771  0.5931  0.2156
 7011SOL    HW132495   4.014   1.345  15.920 -0.5098 -1.1951  1.4902
 7011SOL    HW232496   3.989   1.209  15.883 -0.2503 -0.1870 -1.9890
 7012SOL     OW32497   4.265   0.865  15.126  0.5509  0.3510 -0.3409
 7012SOL    HW132498   4.193   0.917  15.161 -0.0920  0.5532 -1.9229
 7012SOL    HW232499   4.251   0.775  15.154 -1.2872  0.1237 -1.9550
 7013SOL     OW32500   0.778   3.418   1.059  0.1932 -0.8666  0.3421
 7013SOL    HW132501   0.757   3.423   1.152  0.4827 -1.8603  0.4626
 7013SOL    HW232502   0.863   3.374   1.063  1.8608  2.4123  1.0333
 7014SOL     OW32503   1.674   2.630   0.463 -0.3811  0.1286  0.2773
 7014SOL    HW132504   1.663   2.689   0.538 -0.4419 -0.1017  0.4502
 7014SOL    HW232505   1.721   2.567   0.518  2.3075  0.3141 -1.8812
 7015SOL     OW32506   3.521   3.161   7.345 -0.0073 -0.3467 -0.5111
 7015SOL    HW132507   3.536   3.141   7.437 -0.2598 -1.2216 -0.6649
 7015SOL    HW232508   3.454   3.230   7.348  1.5139  1.1428 -0.6988
 7016SOL     OW32509   1.144   0.580   7.798 -0.0915  0.5766  0.2542
 7016SOL    HW132510   1.208   0.636   7.755  0.2675 -0.1017 -0.0961
 7016SOL    HW232511   1.136   0.616   7.886  2.7592  2.3708 -0.2052
 7017SOL     OW32512   2.448   4.401   8.775  0.0550 -0.5777  0.3383
 7017SOL    HW132513   2.403   4.484   8.791 -0.5592 -0.9135  0.3468
 7017SOL    HW232514   2.379   4.342   8.745 -0.1966  0.4123 -1.0332
 7018SOL     OW32515   3.202   1.237   9.910  0.1701 -0.6300  0.2124
 7018SOL    HW132516   3.138   1.238   9.839 -0.5244  0.5083  0.8515
 7018SOL    HW232517   3.195   1.329   9.935 -0.3033 -0.8920  1.0523
 7019SOL     OW32518   4.258   0.498   7.637  0.5084  0.0426 -0.1042
 7019SOL    HW132519   4.291   0.572   7.586 -0.8642 -0.0867 -1.1771
 7019SOL    HW232520   4.285   0.424   7.582 -0.6855  0.1973 -0.8992
 7020SOL     OW32521   1.549   4.192   4.037 -0.3052 -0.1734  0.0179
 7020SOL    HW132522   1.631   4.194   3.988 -0.3109 -0.1400  0.0098
 7020SOL    HW232523   1.543   4.283   4.066  1.9531 -0.5485  1.6457
 7021SOL     OW32524   0.026   2.966   5.020  0.1586 -0.5183 -0.5268
 7021SOL    HW132525   0.081   3.026   4.969 -1.3901 -1.4207 -3.2951
 7021SOL    HW232526   0.061   2.953   5.108 -0.3304  1.0182 -0.0982
 7022SOL     OW32527   4.176   2.456   4.987 -0.3537 -0.3611  0.0558
 7022SOL    HW132528   4.228   2.530   4.956 -0.6667 -0.0002  0.4055
 7022SOL    HW232529   4.089   2.493   5.003  0.5462  2.3290 -1.1889
 7023SOL     OW32530   3.829   1.573  12.169 -0.3178  0.3647 -0.1593
 7023SOL    HW132531   3.888   1.631  12.216 -0.8342  1.1790 -0.5200
 7023SOL    HW232532   3.770   1.545  12.239  0.8331 -2.2492 -0.2240
 7024SOL     OW32533   2.612   2.644   7.615  0.7296 -0.0065 -0.3145
 7024SOL    HW132534   2.590   2.588   7.689 -0.3698  0.8566  0.0055
 7024SOL    HW232535   2.681   2.688   7.666  0.7258 -1.2138  0.7254
 7025SOL     OW32536   0.700   0.049   7.470  0.0657 -0.9611 -0.3037
 7025SOL    HW132537   0.794   0.043   7.453  0.2238 -0.2979  0.3332
 7025SOL    HW232538   0.670   4.694   7.422 -2.3638 -0.9392  1.1959
 7026SOL     OW32539   2.743   3.198   5.445 -0.3737  0.5823 -0.4776
 7026SOL    HW132540   2.807   3.131   5.471 -0.0074  0.7162 -1.0364
 7026SOL    HW232541   2.804   3.272   5.448 -1.0542  1.0883  0.6700
 7027SOL     OW32542   1.579   1.448   7.930 -0.2543  0.4374  0.4496
 7027SOL    HW132543   1.673   1.449   7.909  0.1606  0.6031  2.3491
 7027SOL    HW232544   1.572   1.436   8.024  2.0830  1.2412  0.7332
 7028SOL     OW32545   0.637   3.971   8.514 -0.3085 -0.2222  0.1223
 7028SOL    HW132546   0.618   3.921   8.594 -0.6506  1.3474  1.0080
 7028SOL    HW232547   0.716   3.927   8.483 -1.8938 -1.2588 -2.5042
 7029SOL     OW32548   2.292   1.791   5.894 -0.4754  0.9738 -0.2126
 7029SOL    HW132549   2.232   1.810   5.966 -0.6053  0.7183 -0.2570
 7029SOL    HW232550   2.239   1.798   5.814 -0.4948  0.1725 -0.2692
 7030SOL     OW32551   3.018   3.996   4.005  0.0779  0.0659 -0.3954
 7030SOL    HW132552   3.046   4.080   4.042  0.7935 -1.1076  1.7584
 7030SOL    HW232553   2.956   3.964   4.072  0.8050  1.0647  0.7612
 7031SOL     OW32554   0.138   4.026   3.051  0.2342 -0.3775  0.1814
 7031SOL    HW132555   0.126   3.931   3.043 -1.6404  0.0054 -1.6432
 7031SOL    HW232556   0.233   4.019   3.042  0.0827 -1.4602 -0.6046
 7032SOL     OW32557   3.244   2.408   4.447 -0.1113  0.2461  0.3574
 7032SOL    HW132558   3.261   2.358   4.368 -2.7133  0.4267 -0.3169
 7032SOL    HW232559   3.320   2.466   4.449 -0.2098  0.2949  3.4249
 7033SOL     OW32560   2.209   4.679   5.532 -0.2661 -0.4419 -0.0242
 7033SOL    HW132561   2.270   4.619   5.575  0.7859  1.8511  1.6635
 7033SOL    HW232562   2.127   4.638   5.560  0.0104 -0.2445  1.0649
 7034SOL     OW32563   2.065   4.339   6.283  0.2987 -0.0074  0.2679
 7034SOL    HW132564   2.070   4.378   6.370  4.4123  0.5654 -0.2291
 7034SOL    HW232565   2.016   4.259   6.303  1.3343 -0.6420  0.3026
 7035SOL     OW32566   4.655   3.012  11.934  0.5578  0.6621  0.3655
 7035SOL    HW132567   0.006   2.982  11.989 -0.6571 -2.0360  0.4942
 7035SOL    HW232568   4.700   3.083  11.888  2.5425  1.2889  3.2660
 7036SOL     OW32569   1.539   2.050   9.254 -0.4981 -0.1974 -0.0310
 7036SOL    HW132570   1.594   2.128   9.249  0.4065 -0.8962 -0.7084
 7036SOL    HW232571   1.461   2.080   9.207  0.2234  1.2380 -0.3129
 7037SOL     OW32572   0.073   2.257   1.424 -0.1354  0.7673 -0.1637
 7037SOL    HW132573   4.713   2.261   1.375 -0.4300 -1.8567  0.1082
 7037SOL    HW232574   0.091   2.350   1.432  1.6928  0.4249 -0.4070
 7038SOL     OW32575   2.911   4.555   7.153 -0.3672 -0.3189 -0.1633
 7038SOL    HW132576   2.944   4.480   7.202 -2.2925 -1.2540 -0.3222
 7038SOL    HW232577   2.872   4.517   7.075 -2.3725  1.1505  0.1033
 7039SOL     OW32578   0.747   0.185   6.180  0.5314  0.1063  0.9513
 7039SOL    HW132579   0.736   0.090   6.180 -0.8084  0.2635  1.2163
 7039SOL    HW232580   0.722   0.206   6.090  0.9737  1.9470  1.2511
 7040SOL     OW32581   3.744   2.557   4.549  0.2674 -0.5140  0.6248
 7040SOL    HW132582   3.804   2.632   4.543 -0.6654 -0.0149 -2.2413
 7040SOL    HW232583   3.804   2.486   4.569  1.6528 -0.3782 -3.0868
 7041SOL     OW32584   1.114   0.678   8.066  0.3168  0.0243  1.4572
 7041SOL    HW132585   1.064   0.649   8.142  0.8153 -2.4155  0.8805
 7041SOL    HW232586   1.089   0.770   8.067 -1.0241 -0.3303  0.6985
 7042SOL     OW32587   0.060   0.525  12.479 -0.0929 -0.7308 -0.1557
 7042SOL    HW132588   0.058   0.611  12.436  0.4762 -0.3106  0.6784
 7042SOL    HW232589   0.155   0.519  12.487  0.1984  3.5846 -0.6834
 7043SOL     OW32590   2.796   3.168  11.436  0.1939  0.0285 -0.3841
 7043SOL    HW132591   2.836   3.232  11.494 -0.3962 -0.0765  0.1382
 7043SOL    HW232592   2.850   3.179  11.358  0.6851  2.3306  0.3069
 7044SOL     OW32593   3.542   3.412   7.096 -0.3331 -0.1721 -0.5463
 7044SOL    HW132594   3.627   3.386   7.131  0.8948  2.4783 -1.5231
 7044SOL    HW232595   3.536   3.349   7.024  0.2399 -0.4606 -0.3404
 7045SOL     OW32596   4.082   0.752   3.538 -0.2031 -0.1065 -0.4259
 7045SOL    HW132597   4.167   0.789   3.562 -0.2931  0.0648 -0.3782
 7045SOL    HW232598   4.056   0.808   3.465 -1.8297  2.2850  1.9851
 7046SOL     OW32599   2.986   0.013  17.454  0.6275 -0.4776  0.2366
 7046SOL    HW132600   2.914   4.673  17.446 -1.7811  2.3812 -0.2618
 7046SOL    HW232601   2.987   0.056  17.369 -0.0778 -1.8845 -0.4931
 7047SOL     OW32602   1.147   4.456   2.197  0.7937 -0.3778  0.1720
 7047SOL    HW132603   1.214   4.451   2.266  0.6440 -2.5960  0.1535
 7047SOL    HW232604   1.103   4.534   2.231  2.4421  0.4092  0.5121
 7048SOL     OW32605   2.272   3.094  10.264  0.2368  1.0956  0.1611
 7048SOL    HW132606   2.364   3.120  10.259  0.3608  0.2020 -2.0147
 7048SOL    HW232607   2.238   3.127  10.181 -0.6861  1.0250  0.5188
 7049SOL     OW32608   0.439   0.517   3.976 -0.1224  0.6725  0.3252
 7049SOL    HW132609   0.395   0.454   4.032  1.6290  1.8649  3.0378
 7049SOL    HW232610   0.496   0.456   3.930 -2.9092 -1.6794  0.0400
 7050SOL     OW32611   3.187   0.978   3.724 -0.0942 -0.1526 -0.4171
 7050SOL    HW132612   3.211   1.040   3.656  0.2442  2.2175  1.8618
 7050SOL    HW232613   3.113   0.931   3.685 -0.7159 -1.3307  2.1197
 7051SOL     OW32614   2.418   4.091  16.847  0.2661 -0.1445 -0.4274
 7051SOL    HW132615   2.409   4.091  16.752 -1.0432  0.0179 -0.3075
 7051SOL    HW232616   2.490   4.028  16.843  0.4726  0.0072  0.9228
 7052SOL     OW32617   0.226   0.938   3.647 -0.5050  0.3857 -0.7302
 7052SOL    HW132618   0.206   0.953   3.555 -1.2099  2.1474 -0.2867
 7052SOL    HW232619   0.193   0.848   3.656 -2.4508  1.2165  0.5359
 7053SOL     OW32620   1.187   2.453   0.456 -0.2043  0.2158 -0.1212
 7053SOL    HW132621   1.154   2.448   0.546 -1.1225  2.6797 -0.3116
 7053SOL    HW232622   1.199   2.547   0.441 -0.0686  0.1287 -0.5461
 7054SOL     OW32623   3.633   3.459  11.351 -0.6252  0.4120 -0.4958
 7054SOL    HW132624   3.653   3.378  11.303  2.9847  0.4242  1.0465
 7054SOL    HW232625   3.711   3.463  11.406 -1.4070 -1.0701  0.7375
 7055SOL     OW32626   1.805   3.661  12.608  0.6608  0.3873  0.1625
 7055SOL    HW132627   1.809   3.726  12.537 -0.5237  0.3551  0.0700
 7055SOL    HW232628   1.894   3.671  12.641 -0.0567  1.9315  1.6318
 7056SOL     OW32629   1.178   1.523   8.812  0.4517 -0.5469  0.3716
 7056SOL    HW132630   1.219   1.457   8.869  1.2206 -1.3738 -1.1377
 7056SOL    HW232631   1.125   1.460   8.763 -0.0866  0.5379 -0.4330
 7057SOL     OW32632   3.017   3.427   4.472 -0.0570  0.2611 -0.7441
 7057SOL    HW132633   3.077   3.426   4.397 -1.3287 -0.8043 -1.7493
 7057SOL    HW232634   3.006   3.332   4.476  0.5154  0.1805 -1.0743
 7058SOL     OW32635   2.740   2.837   2.424  0.2836  0.1079 -0.1482
 7058SOL    HW132636   2.809   2.803   2.480  0.0999 -3.6512 -2.2126
 7058SOL    HW232637   2.795   2.873   2.354  0.2193 -1.2025 -0.8616
 7059SOL     OW32638   0.108   2.105  10.527  0.3461  0.4493 -0.2963
 7059SOL    HW132639   0.138   2.043  10.461  2.5562  1.4694 -0.2308
 7059SOL    HW232640   0.179   2.097  10.590 -0.6883  0.3515  0.8474
 7060SOL     OW32641   2.493   2.755   8.962  0.5007 -0.1389 -0.0383
 7060SOL    HW132642   2.418   2.734   9.018  1.1639  1.0867  1.3125
 7060SOL    HW232643   2.539   2.671   8.967  0.6263  0.0134  1.2582
 7061SOL     OW32644   4.216   4.027   5.913 -0.4654 -0.2827  0.1114
 7061SOL    HW132645   4.282   3.961   5.893  0.3007  0.3338  0.5889
 7061SOL    HW232646   4.234   4.082   5.837  0.9207 -1.9180 -0.7345
 7062SOL     OW32647   2.586   2.852   3.981 -0.3014  0.4070 -0.5162
 7062SOL    HW132648   2.574   2.913   3.909 -0.4542  0.9948  0.0048
 7062SOL    HW232649   2.596   2.915   4.052  3.0867 -1.3286  0.5669
 7063SOL     OW32650   4.491   4.420  14.582 -0.1136  0.7889  0.1489
 7063SOL    HW132651   4.428   4.462  14.524  0.2427  0.9764 -0.1031
 7063SOL    HW232652   4.572   4.464  14.556 -0.3691 -0.1078 -2.1043
 7064SOL     OW32653   1.924   1.767   7.940 -0.6194  0.2213 -0.1912
 7064SOL    HW132654   2.009   1.800   7.909  0.7258 -1.1851  2.0324
 7064SOL    HW232655   1.935   1.771   8.035 -0.2023  0.6579 -0.2534
 7065SOL     OW32656   3.276   1.144   2.144 -0.0435  0.5061 -0.0961
 7065SOL    HW132657   3.319   1.093   2.214  0.8724  1.1922 -0.1508
 7065SOL    HW232658   3.331   1.128   2.068  0.1709  2.9132 -0.4474
 7066SOL     OW32659   1.011   1.272  13.347 -0.7383  0.0305 -0.4491
 7066SOL    HW132660   0.948   1.213  13.389  0.2936 -0.4726  0.3878
 7066SOL    HW232661   0.973   1.357  13.370 -1.7334 -1.3603  3.0051
 7067SOL     OW32662   1.243   4.403  10.237 -0.1245  0.1259  0.5489
 7067SOL    HW132663   1.301   4.337  10.273  1.0167 -0.2446 -1.9790
 7067SOL    HW232664   1.232   4.459  10.314  0.2497 -0.5825  1.1143
 7068SOL     OW32665   3.430   4.477   7.420  0.4744  0.2341  0.2280
 7068SOL    HW132666   3.496   4.531   7.378  0.9298 -0.0187  0.6293
 7068SOL    HW232667   3.355   4.536   7.408  0.4200 -0.1657 -1.4485
 7069SOL     OW32668   2.997   2.097  10.563  0.3045  0.4312 -0.1184
 7069SOL    HW132669   3.026   2.177  10.607 -1.4848 -0.2547  2.2838
 7069SOL    HW232670   2.970   2.133  10.478 -2.0625 -2.3269 -0.5285
 7070SOL     OW32671   2.318   2.960  11.763  0.2985 -0.3995 -0.2752
 7070SOL    HW132672   2.382   2.905  11.716  0.2334 -1.0893  0.4358
 7070SOL    HW232673   2.265   2.885  11.790 -0.7337  0.0807 -0.9544
 7071SOL     OW32674   0.462   4.251   6.737 -0.0049  0.4327 -0.2527
 7071SOL    HW132675   0.482   4.291   6.822  0.2178 -1.4831  0.5861
 7071SOL    HW232676   0.551   4.219   6.722  0.0772 -0.5567  2.3460
 7072SOL     OW32677   1.612   1.479   1.138 -0.3436  0.3356 -0.1972
 7072SOL    HW132678   1.520   1.466   1.116 -0.0982 -1.0005 -0.4594
 7072SOL    HW232679   1.645   1.393   1.113  1.6524  1.7551 -2.4760
 7073SOL     OW32680   0.944   2.292   0.484  0.7383  0.1857  0.7321
 7073SOL    HW132681   0.912   2.360   0.543  3.1689  1.9722  0.0287
 7073SOL    HW232682   0.913   2.313   0.396 -1.8384  1.5204  1.9644
 7074SOL     OW32683   3.111   0.814   2.150 -0.0667  0.6452 -0.6741
 7074SOL    HW132684   3.102   0.721   2.130  0.2343  0.2358  1.1517
 7074SOL    HW232685   3.202   0.812   2.180  0.4054  0.5636 -2.0963
 7075SOL     OW32686   3.081   3.950   7.993  0.1304  0.1204  0.1014
 7075SOL    HW132687   3.042   3.965   7.907  1.6032  3.8032  0.0729
 7075SOL    HW232688   3.109   3.859   7.990 -0.8897 -0.1798 -0.1901
 7076SOL     OW32689   4.583   4.260  16.583  0.2062 -0.2791  0.7156
 7076SOL    HW132690   4.677   4.250  16.568 -0.1726 -3.9756  0.7889
 7076SOL    HW232691   4.572   4.349  16.550  1.3059 -0.3567  0.1533
 7077SOL     OW32692   0.309   1.684  17.453  0.9754  0.1513 -0.1153
 7077SOL    HW132693   0.366   1.620  17.496  2.4211  0.2859 -1.8716
 7077SOL    HW232694   0.238   1.692  17.517  1.3614 -2.5149  0.6481
 7078SOL     OW32695   1.142   2.882   6.085  0.6564  0.4583 -0.2550
 7078SOL    HW132696   1.083   2.807   6.077 -0.6177  1.2171  2.0252
 7078SOL    HW232697   1.187   2.844   6.161  0.2636  1.3409  0.4142
 7079SOL     OW32698   0.079   1.000  10.037 -0.4698  0.4936 -0.2563
 7079SOL    HW132699   0.083   1.087   9.998 -0.2909  0.4558 -0.3224
 7079SOL    HW232700   0.067   0.949   9.957 -2.4776 -2.3308  1.8490
 7080SOL     OW32701   2.034   3.472  10.358 -0.0224 -0.1723  0.4787
 7080SOL    HW132702   2.026   3.493  10.451 -0.6095  1.7270 -0.0114
 7080SOL    HW232703   2.130   3.466  10.350 -0.0709 -2.3333  1.2928
 7081SOL     OW32704   3.319   3.128   3.846 -0.2224 -0.0433 -0.0973
 7081SOL    HW132705   3.399   3.159   3.890 -0.9973  0.1021  1.1986
 7081SOL    HW232706   3.248   3.174   3.890  0.0752 -0.1749  0.5307
 7082SOL     OW32707   4.081   1.440   2.825 -0.4123  0.4905 -0.2484
 7082SOL    HW132708   4.105   1.350   2.806 -2.4189  0.0664 -0.7888
 7082SOL    HW232709   4.168   1.465   2.855 -0.0993 -1.0033  0.0648
 7083SOL     OW32710   4.672   1.019  16.007  0.1011 -0.2213  0.4651
 7083SOL    HW132711   4.626   1.097  15.974  1.0904  0.5264  0.8606
 7083SOL    HW232712   0.039   1.042  15.982  1.2194 -1.9339  2.9486
 7084SOL     OW32713   4.040   0.731   6.622 -0.4410 -0.2226  0.4533
 7084SOL    HW132714   4.085   0.654   6.654 -0.0550  0.4496  1.5549
 7084SOL    HW232715   4.061   0.757   6.532 -1.0837 -0.2780  0.2814
 7085SOL     OW32716   3.376   2.858   5.341 -0.1225  0.6018  0.3904
 7085SOL    HW132717   3.437   2.849   5.414 -0.6834 -1.4670  0.6083
 7085SOL    HW232718   3.362   2.952   5.354 -0.4343  0.5045  0.7430
 7086SOL     OW32719   1.069   3.865   0.578  0.8247 -0.5142  0.4607
 7086SOL    HW132720   1.126   3.788   0.573 -2.4144 -2.8768 -0.0401
 7086SOL    HW232721   0.985   3.829   0.551 -0.3971  1.2314  1.9261
 7087SOL     OW32722   1.993   0.449   4.254  0.4554 -0.0367 -0.7296
 7087SOL    HW132723   1.985   0.360   4.221  0.4589 -0.1152 -0.5186
 7087SOL    HW232724   2.084   0.466   4.229 -0.5842  2.1113 -3.0532
 7088SOL     OW32725   0.635   3.816   9.407 -0.2424  0.0922  0.0021
 7088SOL    HW132726   0.599   3.748   9.464 -0.8863  1.3547  1.1124
 7088SOL    HW232727   0.682   3.761   9.345 -1.3769 -1.9459  0.9550
 7089SOL     OW32728   3.998   4.148   6.955 -0.0167 -0.2966 -0.5264
 7089SOL    HW132729   3.944   4.074   6.928  0.7115 -1.4186  1.1090
 7089SOL    HW232730   4.081   4.103   6.945  0.3623  0.2726  0.0494
 7090SOL     OW32731   0.205   4.055  17.539  0.1391 -0.2107 -0.2402
 7090SOL    HW132732   0.166   3.971  17.563 -1.4709  0.8828  0.9897
 7090SOL    HW232733   0.244   4.076  17.623 -0.5592  1.1383 -0.2690
 7091SOL     OW32734   0.582   3.238   6.458  0.6682  0.7837  0.3125
 7091SOL    HW132735   0.505   3.261   6.511  0.9322  1.2000  0.5139
 7091SOL    HW232736   0.574   3.146   6.484  0.0925  1.3431  2.1396
 7092SOL     OW32737   2.897   3.169   5.050 -0.3375 -0.0495  0.0299
 7092SOL    HW132738   2.948   3.104   5.097  0.9967  0.0668 -1.2703
 7092SOL    HW232739   2.932   3.151   4.963  0.7348  0.9012  0.2652
 7093SOL     OW32740   3.177   1.732   3.864  0.0039  0.3959  0.5083
 7093SOL    HW132741   3.123   1.788   3.809  0.8126 -0.5225 -1.1988
 7093SOL    HW232742   3.108   1.692   3.918 -1.2891  0.7328 -0.9094
 7094SOL     OW32743   4.172   4.385   0.857 -0.0677  0.3454  0.8875
 7094SOL    HW132744   4.221   4.433   0.924  1.5543  0.2211 -0.2133
 7094SOL    HW232745   4.165   4.455   0.792 -4.3257 -0.5200  0.4213
 7095SOL     OW32746   3.350   3.874   8.190  0.0262  0.0706 -0.5398
 7095SOL    HW132747   3.323   3.825   8.111  0.4637  2.1278 -1.9605
 7095SOL    HW232748   3.432   3.831   8.213  0.5507  0.5746 -1.4746
 7096SOL     OW32749   0.414   1.080   7.058  0.4552 -0.2700 -0.1022
 7096SOL    HW132750   0.460   1.109   6.979 -0.5330  2.3320  0.2652
 7096SOL    HW232751   0.384   0.990   7.043  1.6917 -0.9084  1.2378
 7097SOL     OW32752   0.459   1.036  15.222 -0.5419  0.1631  0.0225
 7097SOL    HW132753   0.458   1.050  15.317  1.4610 -0.5533  0.1551
 7097SOL    HW232754   0.398   0.963  15.214  0.4425 -0.7463  0.8601
 7098SOL     OW32755   4.277   3.748   4.551 -0.0282  0.0579 -0.0466
 7098SOL    HW132756   4.296   3.751   4.645 -0.3378 -0.3382  0.0329
 7098SOL    HW232757   4.243   3.658   4.546  1.1279 -0.4837  1.6506
 7099SOL     OW32758   1.624   2.085   7.773 -0.0421 -0.4344 -0.0486
 7099SOL    HW132759   1.617   2.002   7.821  1.5404 -0.4220  0.1901
 7099SOL    HW232760   1.635   2.050   7.684 -2.1456  0.2402 -0.5747
 7100SOL     OW32761   0.482   2.431   1.725  0.5541  0.4805  0.2343
 7100SOL    HW132762   0.457   2.378   1.649 -1.5793  0.7318  0.7839
 7100SOL    HW232763   0.570   2.394   1.721 -0.9610 -3.0016 -0.9903
 7101SOL     OW32764   2.962   2.499   7.540 -0.3770 -0.1320  0.1104
 7101SOL    HW132765   3.029   2.461   7.483 -0.5183 -0.4806  0.1728
 7101SOL    HW232766   2.964   2.454   7.625 -0.7921  0.6250  0.5162
 7102SOL     OW32767   4.419   4.400   4.545 -0.0584  0.4541  0.3887
 7102SOL    HW132768   4.392   4.475   4.491  0.8579 -1.3870 -2.6649
 7102SOL    HW232769   4.354   4.417   4.613 -1.6659 -0.2875 -0.9507
 7103SOL     OW32770   2.394   4.521   0.353  0.3103  0.6425  0.0518
 7103SOL    HW132771   2.408   4.548   0.262 -3.6951  0.5572 -0.6149
 7103SOL    HW232772   2.478   4.484   0.379  0.4143  0.0430 -1.1305
 7104SOL     OW32773   3.093   3.506   3.208 -0.2967  1.0821  0.4118
 7104SOL    HW132774   3.110   3.412   3.209 -0.1749  1.0884 -2.5618
 7104SOL    HW232775   3.029   3.509   3.137  0.7851 -0.6518 -0.6054
 7105SOL     OW32776   1.494   1.785  10.166  0.1992 -0.0518  0.0269
 7105SOL    HW132777   1.510   1.870  10.207 -2.1573  0.0464  0.7256
 7105SOL    HW232778   1.589   1.768  10.164  0.2755  0.1175  2.1187
 7106SOL     OW32779   4.179   3.164  16.322 -0.5780  0.3937  0.0932
 7106SOL    HW132780   4.144   3.248  16.291 -0.6836  0.7618  1.2162
 7106SOL    HW232781   4.104   3.128  16.369  0.8813 -0.8229  1.4776
 7107SOL     OW32782   4.165   0.860   4.674 -0.1651  0.2452 -0.7098
 7107SOL    HW132783   4.137   0.769   4.671  1.0577 -0.1300 -0.8501
 7107SOL    HW232784   4.106   0.898   4.739  1.8737  0.9384  0.7472
 7108SOL     OW32785   4.352   4.267   7.246  0.2938 -0.1246  0.2529
 7108SOL    HW132786   4.407   4.260   7.324 -1.1507 -1.3233  1.1762
 7108SOL    HW232787   4.414   4.230   7.183 -0.6629 -1.1295 -0.1011
 7109SOL     OW32788   4.713   2.372   1.829 -0.4618 -0.0086  0.5308
 7109SOL    HW132789   0.037   2.444   1.786  0.7472  0.6155  2.8461
 7109SOL    HW232790   0.067   2.320   1.856  0.1225  0.8941  0.6461
 7110SOL     OW32791   3.639   1.798   8.894  0.1631 -0.3368 -0.3215
 7110SOL    HW132792   3.609   1.727   8.950  1.5242 -0.3811  0.3301
 7110SOL    HW232793   3.566   1.858   8.910  0.6295  0.6465 -1.8682
 7111SOL     OW32794   2.736   3.601   9.776 -0.0107  1.1600  0.1284
 7111SOL    HW132795   2.736   3.509   9.750 -1.2518  1.3337 -0.5139
 7111SOL    HW232796   2.757   3.649   9.695  0.9644 -1.0565 -0.9243
 7112SOL     OW32797   1.542   1.094  14.853  0.1222  0.3591  0.1719
 7112SOL    HW132798   1.457   1.072  14.814  1.3394 -2.9395 -0.6011
 7112SOL    HW232799   1.550   1.181  14.815  0.4063  0.4238  0.3782
 7113SOL     OW32800   4.267   1.830   9.121  0.8156  0.1892 -0.1135
 7113SOL    HW132801   4.199   1.897   9.136  1.3684  0.9794 -1.1007
 7113SOL    HW232802   4.227   1.746   9.101 -2.5975  1.8862 -0.5142
 7114SOL     OW32803   2.905   0.734  16.291  0.2097 -0.0774 -0.4746
 7114SOL    HW132804   2.908   0.667  16.359  1.6436 -1.1701 -1.6126
 7114SOL    HW232805   2.822   0.776  16.316  0.5860  0.8444 -0.7835
 7115SOL     OW32806   3.793   0.413   9.757 -0.5265 -0.3637  0.0202
 7115SOL    HW132807   3.831   0.341   9.808 -0.4402  0.2797  0.8638
 7115SOL    HW232808   3.833   0.483   9.809 -0.9311  0.1641 -0.3859
 7116SOL     OW32809   1.376   4.052   5.112  0.0721  0.0614 -0.1880
 7116SOL    HW132810   1.286   4.018   5.111  0.1391 -0.0954 -1.6344
 7116SOL    HW232811   1.436   4.005   5.053  1.8048  0.1367  1.5463
 7117SOL     OW32812   1.425   2.870   0.897 -0.0372 -0.2674 -0.0250
 7117SOL    HW132813   1.483   2.942   0.871  0.2376 -0.2058  0.7525
 7117SOL    HW232814   1.478   2.821   0.961 -0.2313 -0.2054  0.1832
 7118SOL     OW32815   1.949   4.698   0.094 -0.2547  0.0318  0.0833
 7118SOL    HW132816   1.882   0.044   0.082 -0.4944  0.0242  1.4152
 7118SOL    HW232817   2.026   0.011   0.050 -0.9268 -0.2974 -1.3546
 7119SOL     OW32818   0.869   3.482   7.528 -0.2592  0.3626  0.3232
 7119SOL    HW132819   0.840   3.558   7.479  1.6798  0.5375 -0.5480
 7119SOL    HW232820   0.882   3.417   7.460 -0.0060 -1.9781  2.5907
 7120SOL     OW32821   4.718   1.961   1.969  0.2387  0.5842 -0.5617
 7120SOL    HW132822   0.049   1.886   1.940  0.5375  0.6988 -0.3202
 7120SOL    HW232823   0.029   2.032   1.915  1.7287 -1.1090 -1.8956
 7121SOL     OW32824   0.181   2.282  14.847 -0.3990  0.4919  0.0056
 7121SOL    HW132825   0.119   2.278  14.774  2.1837 -0.6359 -2.0980
 7121SOL    HW232826   0.257   2.250  14.798 -0.5012 -0.4625  0.4687
 7122SOL     OW32827   3.817   1.856  11.441 -0.0760 -0.2363  0.0956
 7122SOL    HW132828   3.839   1.934  11.391  0.9604 -0.8911 -0.4722
 7122SOL    HW232829   3.762   1.904  11.503 -1.0537 -0.9905 -0.1794
 7123SOL     OW32830   0.928   1.916   2.930 -0.2136  0.1188  0.1357
 7123SOL    HW132831   0.892   1.996   2.893 -1.0914 -0.0190  0.6819
 7123SOL    HW232832   0.890   1.849   2.872  1.1545 -0.0348 -0.5849
 7124SOL     OW32833   3.775   2.037  15.137 -0.3944 -0.0522 -0.0354
 7124SOL    HW132834   3.702   1.982  15.165  0.9855 -0.3606  3.0221
 7124SOL    HW232835   3.846   1.976  15.120 -1.5708 -1.2326 -0.7047
 7125SOL     OW32836   2.453   0.018   4.925  0.6365  0.2703 -0.3984
 7125SOL    HW132837   2.369   0.052   4.956 -0.2055 -0.4442 -1.8814
 7125SOL    HW232838   2.433   0.040   4.833  0.6224 -0.1758 -0.4992
 7126SOL     OW32839   4.623   3.852   9.466 -0.1601 -0.2330 -0.6650
 7126SOL    HW132840   4.626   3.930   9.522 -1.5036 -1.9932  1.8404
 7126SOL    HW232841   4.709   3.813   9.483 -0.8355 -0.3902  2.2743
 7127SOL     OW32842   3.946   1.368   9.322 -0.0576  0.1676 -0.3417
 7127SOL    HW132843   3.972   1.421   9.398 -0.2004  1.9086 -1.5096
 7127SOL    HW232844   3.858   1.403   9.314  1.0521  2.5714 -2.1846
 7128SOL     OW32845   0.229   0.353   5.912  0.3496  0.1634 -0.2764
 7128SOL    HW132846   0.258   0.302   5.836 -1.1514 -0.7685 -0.2219
 7128SOL    HW232847   0.313   0.380   5.949 -0.2349  1.1202  0.3486
 7129SOL     OW32848   4.480   0.633  12.302 -0.8015  0.2015 -0.8392
 7129SOL    HW132849   4.562   0.670  12.333  0.0416 -1.8961 -0.5924
 7129SOL    HW232850   4.435   0.716  12.285 -2.4858 -0.5243  0.1714
 7130SOL     OW32851   4.350   0.174   8.218  0.1859 -0.0127  0.1513
 7130SOL    HW132852   4.400   0.121   8.280  0.2668  0.5772  0.5931
 7130SOL    HW232853   4.297   0.225   8.279 -1.2527 -0.3164 -0.8608
 7131SOL     OW32854   4.104   4.624   8.899 -0.2286 -0.2399  0.2500
 7131SOL    HW132855   4.087   4.533   8.875  0.0819  0.0586 -1.0815
 7131SOL    HW232856   4.058   4.665   8.826  3.7272  3.7353 -0.0688
 7132SOL     OW32857   3.794   2.440   1.347 -0.1209 -0.2036  0.4015
 7132SOL    HW132858   3.844   2.361   1.324 -0.4785 -0.5101  0.6735
 7132SOL    HW232859   3.812   2.444   1.441 -0.2133 -0.6884  0.4409
 7133SOL     OW32860   4.387   3.611   3.983 -0.0366 -0.6407  0.5590
 7133SOL    HW132861   4.438   3.629   3.904 -2.5437  0.9099 -0.7252
 7133SOL    HW232862   4.458   3.635   4.043 -1.2472  0.9104  1.3947
 7134SOL     OW32863   2.042   1.820  10.297  0.2866 -0.5374  0.5053
 7134SOL    HW132864   2.104   1.747  10.295  0.1697 -0.5794 -1.8060
 7134SOL    HW232865   1.961   1.782  10.264  1.1083 -1.3400 -0.6081
 7135SOL     OW32866   0.276   3.941   1.447  0.1566  0.4240 -0.0657
 7135SOL    HW132867   0.364   3.912   1.472  0.2432  1.7776  1.2249
 7135SOL    HW232868   0.267   3.885   1.370  0.5394 -0.3690  0.4582
 7136SOL     OW32869   2.124   1.751  11.046  0.5500 -0.1506  0.0398
 7136SOL    HW132870   2.083   1.823  11.094  2.0588 -0.1706  1.3297
 7136SOL    HW232871   2.165   1.797  10.972 -0.4013 -0.0806 -0.4468
 7137SOL     OW32872   1.461   0.477   0.071  0.2435  0.2060  0.1163
 7137SOL    HW132873   1.479   0.552   0.015  0.3766 -0.3515 -0.5886
 7137SOL    HW232874   1.535   0.423   0.043  1.3874  1.9274 -0.2169
 7138SOL     OW32875   0.102   3.720   9.746  0.1784 -0.2044 -0.3768
 7138SOL    HW132876   0.119   3.689   9.657 -1.8801  1.6872 -1.4265
 7138SOL    HW232877   0.193   3.741   9.769 -0.3902  1.4294  0.3711
 7139SOL     OW32878   0.038   1.870   6.611  0.0331 -0.2115  0.0002
 7139SOL    HW132879   0.041   1.905   6.700 -0.3446  1.1016 -0.4967
 7139SOL    HW232880   0.121   1.900   6.575 -0.4904  0.5703 -0.5537
 7140SOL     OW32881   4.523   3.773   6.696 -0.1643  0.8783  0.1433
 7140SOL    HW132882   4.440   3.802   6.658  1.2994  1.1849 -2.8044
 7140SOL    HW232883   4.499   3.763   6.788  1.1510  0.2751  0.4176
 7141SOL     OW32884   4.024   4.342   6.500  0.8792  0.0648 -0.5183
 7141SOL    HW132885   4.054   4.252   6.487 -0.0712 -0.3361  0.0188
 7141SOL    HW232886   3.968   4.332   6.577 -2.6330 -1.1464 -3.2523
 7142SOL     OW32887   3.613   2.680   6.612 -0.4153 -0.0987 -0.1888
 7142SOL    HW132888   3.655   2.719   6.689 -1.4690 -1.0435  0.8572
 7142SOL    HW232889   3.592   2.594   6.649  0.1676 -1.0468 -2.0598
 7143SOL     OW32890   1.193   0.943  16.859 -0.7000 -0.6060  0.6717
 7143SOL    HW132891   1.117   0.887  16.846 -0.2551 -0.5009 -2.4883
 7143SOL    HW232892   1.177   0.975  16.947  2.1875  1.2468  0.5141
 7144SOL     OW32893   0.229   2.979   5.751  0.6194  0.5029 -0.3911
 7144SOL    HW132894   0.153   3.027   5.785  1.2505  1.0365  0.2631
 7144SOL    HW232895   0.253   3.032   5.676  2.2565 -1.1434 -1.0164
 7145SOL     OW32896   1.018   2.739   8.660 -0.0163 -0.4046  0.0537
 7145SOL    HW132897   1.004   2.829   8.631 -0.0339 -0.8374 -1.2690
 7145SOL    HW232898   0.936   2.692   8.652  1.2054 -2.4513 -0.4543
 7146SOL     OW32899   3.281   2.975   8.057  0.0658  0.0616  0.4477
 7146SOL    HW132900   3.271   3.069   8.042 -2.1765 -0.6039 -2.0338
 7146SOL    HW232901   3.370   2.964   8.093 -0.4057 -1.0805  1.2542
 7147SOL     OW32902   1.649   2.898   3.797  0.4078 -0.1343  0.1439
 7147SOL    HW132903   1.647   2.942   3.882 -2.4628  1.7195 -0.8979
 7147SOL    HW232904   1.572   2.942   3.762  0.0637  0.0696  1.1757
 7148SOL     OW32905   1.228   0.164   7.136 -0.1878 -0.1553  0.1083
 7148SOL    HW132906   1.268   0.090   7.091 -0.7122  0.6020 -1.6066
 7148SOL    HW232907   1.305   0.210   7.171 -0.1875 -2.4944  3.1006
 7149SOL     OW32908   2.531   0.403  10.845  0.1133 -0.1339 -0.2776
 7149SOL    HW132909   2.473   0.411  10.921  1.4686 -0.6268  0.8102
 7149SOL    HW232910   2.497   0.483  10.804  2.3111 -0.1525 -2.1126
 7150SOL     OW32911   4.284   3.372   5.949  0.0806 -0.6154 -0.6507
 7150SOL    HW132912   4.304   3.465   5.948  1.2430 -0.8813 -2.2059
 7150SOL    HW232913   4.256   3.357   6.040 -1.5926 -1.0262 -1.2314
 7151SOL     OW32914   0.558   0.779  11.645 -0.0840 -0.1813  0.6815
 7151SOL    HW132915   0.481   0.816  11.602  0.7783  0.4668 -0.2991
 7151SOL    HW232916   0.561   0.829  11.727 -0.0982 -1.9404  1.7614
 7152SOL     OW32917   3.996   1.524  14.276  0.0633 -0.2419 -0.0150
 7152SOL    HW132918   3.936   1.492  14.209  0.1731  2.8191 -1.5643
 7152SOL    HW232919   4.070   1.464  14.262 -0.4488 -0.2440 -2.6312
 7153SOL     OW32920   2.047   0.135   5.908 -0.3116  0.0159 -0.4409
 7153SOL    HW132921   2.083   0.156   5.821 -0.3409 -0.0943 -0.4796
 7153SOL    HW232922   1.959   0.172   5.902  1.0639  3.5758  1.0341
 7154SOL     OW32923   1.158   3.967   8.771 -0.0645  0.7094  0.3378
 7154SOL    HW132924   1.148   4.041   8.831  2.6316  0.5345  1.0178
 7154SOL    HW232925   1.170   4.023   8.694  0.4790  2.9549  2.0585
 7155SOL     OW32926   3.422   3.463   0.191 -0.7193 -0.1036 -0.0571
 7155SOL    HW132927   3.405   3.451   0.097  0.0305  0.3095 -0.2437
 7155SOL    HW232928   3.368   3.541   0.200 -0.0186  0.1618  1.7606
 7156SOL     OW32929   1.498   0.965   5.690  0.1134  0.1671 -0.0547
 7156SOL    HW132930   1.504   0.869   5.694  1.9298  0.3575  1.5278
 7156SOL    HW232931   1.578   0.991   5.644 -0.5001  1.9335 -0.1191
 7157SOL     OW32932   4.317   1.112   6.628  0.1087  0.1530 -0.4431
 7157SOL    HW132933   4.246   1.126   6.565 -0.2712  0.4489  0.0480
 7157SOL    HW232934   4.280   1.150   6.708 -0.9117 -1.4113 -0.1648
 7158SOL     OW32935   2.597   0.929  11.844 -0.0267  0.1190  0.1609
 7158SOL    HW132936   2.664   0.906  11.908 -1.0748 -1.7818  0.5828
 7158SOL    HW232937   2.653   0.950  11.769 -1.5723 -1.1330 -1.3452
 7159SOL     OW32938   1.754   2.117   6.606  0.2162  0.2346  0.0956
 7159SOL    HW132939   1.759   2.062   6.684 -1.2003 -0.3658 -0.2329
 7159SOL    HW232940   1.722   2.056   6.540  2.5615 -0.5424 -0.3280
 7160SOL     OW32941   2.052   3.511  10.626 -0.5111 -0.7706  0.3617
 7160SOL    HW132942   2.049   3.558  10.709 -2.0670 -2.7043  1.3831
 7160SOL    HW232943   2.103   3.432  10.646  0.7914 -0.2232 -0.7963
 7161SOL     OW32944   0.739   2.749   4.029  0.5310  0.6737 -0.3122
 7161SOL    HW132945   0.694   2.775   3.949 -0.7941  0.1143  0.2473
 7161SOL    HW232946   0.666   2.710   4.077  0.3230 -0.1299 -1.2878
 7162SOL     OW32947   0.902   4.359   9.108  0.3840 -0.1146  0.5202
 7162SOL    HW132948   0.940   4.321   9.029  0.8232 -2.3856  1.8401
 7162SOL    HW232949   0.978   4.377   9.162 -1.0348  0.1782  2.4345
 7163SOL     OW32950   0.279   1.229   2.877  0.0764 -0.5952  0.2568
 7163SOL    HW132951   0.278   1.264   2.788 -2.7115  0.2184  0.5911
 7163SOL    HW232952   0.186   1.224   2.902  0.2982 -2.1545  0.7881
 7164SOL     OW32953   0.926   1.551   8.468  0.1845  0.0609  0.2825
 7164SOL    HW132954   0.910   1.616   8.535  1.3949  0.5505  0.1102
 7164SOL    HW232955   0.843   1.544   8.421  1.2919  0.4175 -1.7371
 7165SOL     OW32956   4.456   1.220   1.424  0.6473 -0.3815  0.1325
 7165SOL    HW132957   4.505   1.298   1.449 -1.1842 -0.1385  2.9935
 7165SOL    HW232958   4.414   1.245   1.342 -0.8518 -1.3746  0.6009
 7166SOL     OW32959   1.480   3.910  17.509  0.0289  0.0996  0.2700
 7166SOL    HW132960   1.445   3.827  17.541 -2.2950  1.8442  2.2144
 7166SOL    HW232961   1.574   3.905  17.528  0.0942 -2.7722 -0.7285
 7167SOL     OW32962   4.218   4.313  10.707 -0.0159 -1.0899 -0.2808
 7167SOL    HW132963   4.261   4.268  10.634 -2.4615 -0.7447 -1.9231
 7167SOL    HW232964   4.125   4.295  10.699  0.2679 -2.2073 -1.0913
 7168SOL     OW32965   3.859   1.575  16.283 -0.9485  0.8065 -1.2848
 7168SOL    HW132966   3.834   1.617  16.365 -1.1252 -0.2590 -0.8004
 7168SOL    HW232967   3.780   1.525  16.264  0.1524 -0.5355 -2.2834
 7169SOL     OW32968   0.960   3.868   2.892 -0.3200  0.1201 -0.2445
 7169SOL    HW132969   0.917   3.947   2.926 -1.1516  0.9335 -3.2210
 7169SOL    HW232970   0.923   3.858   2.805  1.1238 -1.7364 -0.6268
 7170SOL     OW32971   2.900   2.356   6.061 -0.5812  0.0786  0.0286
 7170SOL    HW132972   2.894   2.367   6.155  2.2478 -0.7108  0.2944
 7170SOL    HW232973   2.829   2.297   6.036  0.4646 -1.1891  0.0730
 7171SOL     OW32974   0.120   1.066   2.461  0.1880  0.0680 -0.1590
 7171SOL    HW132975   0.154   1.071   2.372  0.4986 -0.9977 -0.1025
 7171SOL    HW232976   0.170   0.988   2.485 -2.5816 -2.0150 -1.2189
 7172SOL     OW32977   1.840   4.276   5.459  0.0858  0.1394 -0.1434
 7172SOL    HW132978   1.792   4.196   5.483 -2.6595  1.4370 -1.2897
 7172SOL    HW232979   1.846   4.309   5.549  0.0847 -0.4732  0.0806
 7173SOL     OW32980   4.238   1.132   6.920  0.6201  0.0426  0.1325
 7173SOL    HW132981   4.246   1.042   6.886  1.4101 -0.1283  0.7691
 7173SOL    HW232982   4.228   1.112   7.013  0.1457  0.7668  0.2314
 7174SOL     OW32983   4.285   2.709   4.914  0.1389  0.1148 -0.3877
 7174SOL    HW132984   4.295   2.781   4.852 -0.8219  1.6149  1.2035
 7174SOL    HW232985   4.208   2.739   4.962  0.0930  1.4235 -1.2953
 7175SOL     OW32986   0.357   2.358  13.865 -0.0363  0.3316 -0.0191
 7175SOL    HW132987   0.323   2.430  13.918 -0.7919  0.5276 -0.7836
 7175SOL    HW232988   0.406   2.411  13.802 -1.2790  1.4202 -0.0739
 7176SOL     OW32989   2.969   3.024  11.597  0.3339 -0.2801  0.8444
 7176SOL    HW132990   2.876   3.021  11.574 -0.2351 -0.8999  3.2067
 7176SOL    HW232991   2.964   3.053  11.688  0.4825 -0.4912  0.9192
 7177SOL     OW32992   3.121   1.518   9.930  0.4856 -0.3434  0.1693
 7177SOL    HW132993   3.172   1.513  10.011  2.1737  0.8758 -0.8187
 7177SOL    HW232994   3.121   1.612   9.917 -3.5107 -0.1452  1.7999
 7178SOL     OW32995   3.570   2.075   8.624  0.3021 -0.4196 -0.0937
 7178SOL    HW132996   3.580   2.016   8.549  0.3770  0.5286 -0.8251
 7178SOL    HW232997   3.497   2.026   8.662 -0.8003  1.4034  0.1414
 7179SOL     OW32998   2.682   2.957   1.307  0.3378 -0.0431  0.0295
 7179SOL    HW132999   2.688   3.014   1.230  0.3078  2.0609  1.5767
 7179SOL    HW233000   2.748   2.893   1.282 -0.7562 -1.1265 -0.1063
 7180SOL     OW33001   0.976   4.552   2.676  0.1538  0.2700 -0.1397
 7180SOL    HW133002   0.910   4.490   2.709  1.6857 -0.2608  1.9066
 7180SOL    HW233003   0.930   4.588   2.600  1.4852  1.1511 -0.5111
 7181SOL     OW33004   2.647   4.290   0.155 -0.1907 -0.2569  0.7301
 7181SOL    HW133005   2.643   4.214   0.097  1.0881 -1.2208  1.8914
 7181SOL    HW233006   2.566   4.330   0.123 -0.3823 -0.5859  0.7971
 7182SOL     OW33007   4.053   2.732   3.878 -0.6757  0.1275  0.1584
 7182SOL    HW133008   4.111   2.684   3.820 -2.4707  0.5687 -1.9906
 7182SOL    HW233009   4.068   2.678   3.956 -1.7772  0.1089  0.3595
 7183SOL     OW33010   1.780   0.488   2.514  0.3886 -0.8710  0.0738
 7183SOL    HW133011   1.714   0.541   2.470 -1.0285 -0.3445  2.7804
 7183SOL    HW233012   1.764   0.405   2.470 -1.4764 -0.2559 -0.3861
 7184SOL     OW33013   3.599   3.654   6.096  0.1180  0.1289 -0.3046
 7184SOL    HW133014   3.584   3.715   6.169  1.8271  1.5368 -1.1227
 7184SOL    HW233015   3.514   3.652   6.052 -0.4545 -2.8941  0.9884
 7185SOL     OW33016   2.301   0.288   5.427 -0.0366  0.9174 -0.2613
 7185SOL    HW133017   2.325   0.359   5.487 -0.9188  3.2377 -2.7076
 7185SOL    HW233018   2.387   0.264   5.393  0.1158  1.2435 -0.1081
 7186SOL     OW33019   0.445   2.342   7.448  0.2520 -0.7247  0.0359
 7186SOL    HW133020   0.405   2.425   7.473 -2.0963 -2.2020  1.1555
 7186SOL    HW233021   0.510   2.325   7.516 -0.6274  2.2581  1.5903
 7187SOL     OW33022   0.312   0.664   3.422  0.1725 -0.4876  0.1518
 7187SOL    HW133023   0.314   0.629   3.333  2.3580 -1.2659  0.5039
 7187SOL    HW233024   0.373   0.738   3.420  0.2335 -0.5197  0.7589
 7188SOL     OW33025   3.270   4.446   8.364  0.0863  0.3876  0.1300
 7188SOL    HW133026   3.347   4.464   8.311 -0.0839  0.5269 -0.0696
 7188SOL    HW233027   3.205   4.501   8.321  0.4879  0.6202 -0.1748
 7189SOL     OW33028   1.033   2.329   6.236 -0.0148 -0.2547  0.2077
 7189SOL    HW133029   0.944   2.362   6.229  0.5778  1.1121 -0.8539
 7189SOL    HW233030   1.041   2.316   6.331  0.3988 -0.7888  0.1033
 7190SOL     OW33031   3.929   3.520  16.459  0.1200 -0.5549 -0.4087
 7190SOL    HW133032   3.910   3.561  16.543 -0.1167  0.9963 -1.2311
 7190SOL    HW233033   4.024   3.511  16.462  0.1291 -0.0546  1.1889
 7191SOL     OW33034   3.811   1.608   4.911  0.2275 -0.1920  0.1924
 7191SOL    HW133035   3.778   1.552   4.841 -0.9891  0.3163  0.3609
 7191SOL    HW233036   3.749   1.681   4.909 -0.3561 -0.6848  0.1242
 7192SOL     OW33037   1.859   1.152   5.921 -0.4974 -0.0299  0.2906
 7192SOL    HW133038   1.880   1.212   5.850  1.0004  0.4990  1.1800
 7192SOL    HW233039   1.874   1.066   5.881 -0.2087 -0.6801  1.8068
 7193SOL     OW33040   0.937   0.226  12.684 -0.6856  0.5156 -0.1579
 7193SOL    HW133041   0.932   0.260  12.595 -1.7496 -0.5051 -0.5037
 7193SOL    HW233042   0.867   0.281  12.720 -0.6174  0.9112 -0.6331
 7194SOL     OW33043   1.082   3.743   1.437 -0.1633  0.0679  0.0723
 7194SOL    HW133044   1.143   3.671   1.426 -1.4340 -0.9433 -0.2958
 7194SOL    HW233045   1.105   3.774   1.525 -2.3838 -1.5740  1.2419
 7195SOL     OW33046   0.084   1.654  14.904 -0.3729 -0.4152  0.7061
 7195SOL    HW133047   0.142   1.624  14.834  1.3658  0.5061  1.7557
 7195SOL    HW233048   0.128   1.616  14.980  2.8664 -0.5165 -1.2392
 7196SOL     OW33049   0.981   0.503   3.091  0.2003 -0.3297 -0.2222
 7196SOL    HW133050   1.020   0.449   3.159 -1.3547 -1.8008 -0.4946
 7196SOL    HW233051   1.027   0.484   3.010 -1.4206  1.2014 -1.5065
 7197SOL     OW33052   4.616   2.324   7.700 -0.0193  0.0507 -0.2583
 7197SOL    HW133053   4.708   2.334   7.678 -0.0883  0.5237 -0.3215
 7197SOL    HW233054   4.596   2.256   7.636  0.8533 -0.1874 -0.2733
 7198SOL     OW33055   4.363   2.567   8.262 -0.2392  0.0422  0.3467
 7198SOL    HW133056   4.452   2.602   8.261 -1.3879  2.7998 -2.8089
 7198SOL    HW233057   4.332   2.609   8.343 -2.2928  0.1452 -0.5137
 7199SOL     OW33058   1.884   3.128   2.735 -0.1023 -0.2044  0.1732
 7199SOL    HW133059   1.856   3.070   2.664 -0.1125  1.0952 -0.8633
 7199SOL    HW233060   1.811   3.187   2.750  0.6618  0.5958  0.7150
 7200SOL     OW33061   2.162   0.989  16.655  0.1017 -0.3002  0.1896
 7200SOL    HW133062   2.161   0.935  16.576 -1.2638 -0.4152  0.2750
 7200SOL    HW233063   2.224   0.941  16.710 -2.2132 -2.1823  1.2027
 7201SOL     OW33064   0.785   0.260   1.899  0.2714 -0.4229  0.0061
 7201SOL    HW133065   0.716   0.236   1.962  0.2198  0.5606  0.3281
 7201SOL    HW233066   0.855   0.290   1.957  1.3300 -1.6565 -0.6412
 7202SOL     OW33067   1.188   0.451  16.505 -0.9206  0.0104  0.0942
 7202SOL    HW133068   1.100   0.454  16.467 -0.5555 -1.4091 -0.8655
 7202SOL    HW233069   1.197   0.543  16.530 -1.8278 -0.0172  0.4958
 7203SOL     OW33070   1.473   2.564   0.290 -0.5119 -0.4952 -0.2780
 7203SOL    HW133071   1.535   2.596   0.356 -0.2475  0.2540 -0.8919
 7203SOL    HW233072   1.398   2.622   0.299 -0.0341 -0.2113  1.8052
 7204SOL     OW33073   0.728   0.515   5.144  0.1424  0.4113  0.2222
 7204SOL    HW133074   0.797   0.524   5.078  1.0360  1.7294  1.3273
 7204SOL    HW233075   0.784   0.484   5.215  0.4471 -1.3981 -0.8332
 7205SOL     OW33076   2.156   3.063  10.494 -1.0624  0.3232  0.3299
 7205SOL    HW133077   2.219   3.079  10.423  0.6966 -0.2477  1.7598
 7205SOL    HW233078   2.092   3.116  10.447  1.0551  4.1421  1.7202
 7206SOL     OW33079   4.110   4.025   2.823  0.0502  0.0005  0.0906
 7206SOL    HW133080   4.175   4.093   2.804 -0.1831  0.3368  0.5099
 7206SOL    HW233081   4.150   3.981   2.898  1.7954 -1.3510 -1.6278
 7207SOL     OW33082   1.110   2.625  16.394  0.1680 -0.5572 -0.5248
 7207SOL    HW133083   1.187   2.607  16.449  0.0625 -0.5772 -0.3817
 7207SOL    HW233084   1.099   2.720  16.406  1.7066 -0.5793  1.1530
 7208SOL     OW33085   2.492   0.725   4.862 -0.2712 -0.4239 -0.0024
 7208SOL    HW133086   2.543   0.650   4.831 -0.2906 -0.7682  0.7962
 7208SOL    HW233087   2.564   0.776   4.900 -1.4123  0.9161  0.3677
 7209SOL     OW33088   3.122   1.976   6.345 -0.5222 -0.3818  0.4964
 7209SOL    HW133089   3.160   1.957   6.431 -0.7793  0.0165  0.6946
 7209SOL    HW233090   3.163   2.057   6.316 -0.8754 -1.2154 -2.3506
 7210SOL     OW33091   0.428   1.828   2.155 -0.0790 -0.0381  0.2392
 7210SOL    HW133092   0.431   1.918   2.122 -0.7654  0.4793  1.5870
 7210SOL    HW233093   0.351   1.833   2.212 -0.8630  0.0182 -0.8292
 7211SOL     OW33094   1.429   2.259   2.471 -0.4079  0.1099 -0.3438
 7211SOL    HW133095   1.363   2.250   2.540  0.5504  0.4001  0.6050
 7211SOL    HW233096   1.399   2.192   2.409  0.1709 -1.1867  0.7660
 7212SOL     OW33097   1.537   1.541   3.414  0.2848 -0.0765 -0.2835
 7212SOL    HW133098   1.619   1.549   3.366  0.3892 -1.0221 -0.2748
 7212SOL    HW233099   1.574   1.562   3.500 -1.4232  0.4991  0.3058
 7213SOL     OW33100   1.199   1.918   0.595 -0.1370  0.5039 -0.4936
 7213SOL    HW133101   1.169   1.980   0.528 -0.0596 -0.2640 -1.2357
 7213SOL    HW233102   1.283   1.959   0.613 -0.1564  0.0208  0.7135
 7214SOL     OW33103   1.656   2.527   5.823  0.0310  0.4815 -0.4691
 7214SOL    HW133104   1.583   2.557   5.876 -0.0773  1.6280 -1.2547
 7214SOL    HW233105   1.703   2.475   5.888  0.7890  0.1505 -1.2648
 7215SOL     OW33106   1.720   2.884   5.489 -0.4373  0.2048 -0.2772
 7215SOL    HW133107   1.775   2.962   5.494 -2.4366  1.6380 -0.8696
 7215SOL    HW233108   1.635   2.927   5.496 -0.4951 -0.1309  1.1446
 7216SOL     OW33109   0.328   0.500   7.162 -0.4400 -0.7572 -0.1674
 7216SOL    HW133110   0.298   0.586   7.131  2.7379  0.4794  0.1942
 7216SOL    HW233111   0.422   0.514   7.151 -0.2608 -0.0838  2.1095
 7217SOL     OW33112   1.423   0.052   2.820  0.1573  0.1613  0.2599
 7217SOL    HW133113   1.447   0.029   2.910  2.1113  0.0536 -0.2845
 7217SOL    HW233114   1.331   0.027   2.828  0.3851 -0.2982  1.3689
 7218SOL     OW33115   0.666   3.672   5.757 -0.0785  0.1412  0.5890
 7218SOL    HW133116   0.749   3.693   5.799 -0.7151  0.8055  1.5470
 7218SOL    HW233117   0.655   3.587   5.799 -1.1923  0.2346  0.4918
 7219SOL     OW33118   0.694   1.587   6.059 -0.2491  0.1050  0.2062
 7219SOL    HW133119   0.746   1.624   6.131 -1.3929  0.6254  0.7570
 7219SOL    HW233120   0.676   1.500   6.095  0.9721  0.0634  0.7282
 7220SOL     OW33121   3.437   2.479  11.478 -0.0154  0.0629 -0.1366
 7220SOL    HW133122   3.390   2.535  11.541 -2.4262 -1.4602 -0.5542
 7220SOL    HW233123   3.374   2.412  11.449 -0.5167  0.6704 -0.4503
 7221SOL     OW33124   4.574   1.013   8.843  0.1318 -1.2609  0.0468
 7221SOL    HW133125   4.564   1.087   8.783  3.9978  0.5278  1.5873
 7221SOL    HW233126   4.662   0.981   8.824  0.0109 -2.1862  1.0284
 7222SOL     OW33127   1.015   3.022  11.692 -0.0896  0.4214  0.3845
 7222SOL    HW133128   0.938   3.001  11.744 -0.9402  1.0177 -0.6296
 7222SOL    HW233129   1.045   2.934  11.668 -0.8265  0.1926  0.3014
 7223SOL     OW33130   4.698   1.964   6.871  0.1002  0.3645  0.1334
 7223SOL    HW133131   4.710   2.043   6.818 -2.7177  0.1772 -0.8162
 7223SOL    HW233132   4.604   1.980   6.872  0.0935  0.4849 -1.6476
 7224SOL     OW33133   0.334   3.090   1.308 -0.2977  0.6275  0.1926
 7224SOL    HW133134   0.264   3.031   1.278  1.2152 -0.1566 -1.8179
 7224SOL    HW233135   0.346   3.072   1.401 -0.5426 -2.5988 -0.3712
 7225SOL     OW33136   2.593   1.176   5.191 -0.0038 -0.8377 -0.0155
 7225SOL    HW133137   2.569   1.185   5.099  0.7113 -3.1466 -0.4367
 7225SOL    HW233138   2.512   1.131   5.215  0.2297 -0.8913  0.6794
 7226SOL     OW33139   2.960   3.502   2.977  0.7448 -0.4127 -0.0830
 7226SOL    HW133140   2.891   3.559   2.943  2.4808  0.5613 -2.0072
 7226SOL    HW233141   2.943   3.411   2.954 -0.3697 -0.3622  0.5484
 7227SOL     OW33142   3.063   3.658  17.559  0.3852 -0.3785 -0.2357
 7227SOL    HW133143   3.047   3.629  17.469  0.4326 -1.8500  0.2374
 7227SOL    HW233144   3.126   3.727  17.539 -2.0935  1.8687 -0.3701
 7228SOL     OW33145   3.328   0.310   9.174 -0.4083  0.6774 -0.4615
 7228SOL    HW133146   3.359   0.247   9.109 -1.4610 -1.9197  1.5476
 7228SOL    HW233147   3.277   0.365   9.115 -0.5134 -0.2028 -1.1984
 7229SOL     OW33148   1.027   4.588   1.514 -0.5101 -0.0955 -0.0274
 7229SOL    HW133149   1.062   4.594   1.425  2.4224  0.5705  1.1696
 7229SOL    HW233150   1.110   4.579   1.560 -1.2872  0.5801  1.5037
 7230SOL     OW33151   2.197   2.609   7.601  0.3650 -0.5429 -0.0952
 7230SOL    HW133152   2.249   2.675   7.647 -0.0010  0.5367 -1.2483
 7230SOL    HW233153   2.269   2.547   7.589 -1.4325 -2.2586 -2.0247
 7231SOL     OW33154   1.018   3.993   4.542 -0.0231  0.1797  0.0812
 7231SOL    HW133155   1.055   3.909   4.516  0.0234  0.6139 -1.2699
 7231SOL    HW233156   1.101   4.039   4.559 -1.1867  1.7893  1.3960
 7232SOL     OW33157   3.781   2.536   2.553  0.3403  0.2739  0.3505
 7232SOL    HW133158   3.757   2.565   2.641  2.2032 -0.2491  1.0153
 7232SOL    HW233159   3.869   2.571   2.540 -0.2966  0.7536 -2.6231
 7233SOL     OW33160   3.801   1.058   4.516  0.7543 -0.6791  0.0743
 7233SOL    HW133161   3.733   1.013   4.566  1.4903 -1.9332 -0.0307
 7233SOL    HW233162   3.855   1.105   4.578 -2.1403  1.2327  1.1166
 7234SOL     OW33163   2.714   0.979   4.079  0.0265  0.3506 -0.2537
 7234SOL    HW133164   2.777   1.051   4.078  0.4674 -0.0271  0.5945
 7234SOL    HW233165   2.760   0.905   4.038  0.1163  0.7300 -0.8367
 7235SOL     OW33166   1.555   3.311   2.048  0.5122 -0.0941  0.7037
 7235SOL    HW133167   1.559   3.277   2.138 -0.5183 -2.7262 -0.2800
 7235SOL    HW233168   1.624   3.259   2.008  1.0097  0.1243  1.2661
 7236SOL     OW33169   0.947   2.716   0.608 -0.1888 -0.2938  0.2201
 7236SOL    HW133170   1.021   2.704   0.668  1.6557  0.0901 -1.9758
 7236SOL    HW233171   0.933   2.811   0.606  0.7283 -0.1537  0.6116
 7237SOL     OW33172   1.493   3.474   3.506 -0.5008  0.7321 -0.6724
 7237SOL    HW133173   1.458   3.563   3.506  0.0006  0.9290 -0.0817
 7237SOL    HW233174   1.579   3.500   3.540 -0.1464 -1.8712  0.4423
 7238SOL     OW33175   2.777   3.459  14.523 -0.4786 -0.3137  0.3534
 7238SOL    HW133176   2.838   3.488  14.591 -0.8414 -1.2712  1.0871
 7238SOL    HW233177   2.823   3.379  14.497 -0.2278 -0.2084  0.4668
 7239SOL     OW33178   1.646   4.534   5.251  0.0739  0.8386 -0.4887
 7239SOL    HW133179   1.661   4.440   5.267 -2.6836  0.3251 -0.9125
 7239SOL    HW233180   1.731   4.572   5.227  0.1914 -0.7487 -2.6030
 7240SOL     OW33181   3.837   2.627   1.818 -0.6311 -0.0244 -0.5296
 7240SOL    HW133182   3.925   2.655   1.840 -0.4074 -1.5244  0.4661
 7240SOL    HW233183   3.809   2.593   1.903  1.8137 -0.7880 -0.0356
 7241SOL     OW33184   0.310   3.315  10.831 -0.2201 -0.1409 -0.8336
 7241SOL    HW133185   0.222   3.292  10.861  0.3442 -0.4757  0.5888
 7241SOL    HW233186   0.363   3.303  10.910 -1.2985 -0.9893 -0.2279
 7242SOL     OW33187   2.156   2.004   6.044 -0.4982  0.3235  0.5377
 7242SOL    HW133188   2.143   1.999   5.949  1.0906 -3.4625  0.5260
 7242SOL    HW233189   2.109   2.085   6.065  1.9071  2.2853 -1.5870
 7243SOL     OW33190   2.392   3.453  15.138  0.1582 -0.0541 -0.4096
 7243SOL    HW133191   2.413   3.402  15.060 -1.4010 -0.7277 -0.4011
 7243SOL    HW233192   2.303   3.422  15.159 -0.0273  0.6084 -0.2291
 7244SOL     OW33193   0.412   3.609   4.128 -0.0151  0.6056  0.4528
 7244SOL    HW133194   0.467   3.576   4.058 -0.2349 -1.5646  1.3200
 7244SOL    HW233195   0.339   3.547   4.130 -0.7445  1.4378 -0.5227
 7245SOL     OW33196   0.806   2.071   4.795  0.1846 -0.1023  0.2006
 7245SOL    HW133197   0.712   2.055   4.789 -0.3734  2.4845  1.9670
 7245SOL    HW233198   0.818   2.159   4.759  0.3663  0.2886  1.2312
 7246SOL     OW33199   0.052   2.701   2.262  0.1654 -0.0693  0.3337
 7246SOL    HW133200   0.047   2.609   2.235 -0.1567  0.0072  0.1446
 7246SOL    HW233201   0.141   2.727   2.238  0.3856 -0.3030  0.8825
 7247SOL     OW33202   2.619   1.250   8.744 -0.6653 -0.0884  0.0914
 7247SOL    HW133203   2.700   1.228   8.699 -0.6949 -1.4049  0.6645
 7247SOL    HW233204   2.607   1.338   8.709  0.8914  0.0073 -0.1983
 7248SOL     OW33205   2.965   1.717   7.667 -0.0824 -0.5605 -0.0580
 7248SOL    HW133206   2.958   1.647   7.732  0.5370 -1.1431 -0.6181
 7248SOL    HW233207   2.910   1.685   7.596 -0.3401  2.5279 -1.2763
 7249SOL     OW33208   0.722   2.505   5.910  0.0932 -0.6039 -0.0508
 7249SOL    HW133209   0.700   2.583   5.860  0.5972  0.4397  1.3581
 7249SOL    HW233210   0.666   2.445   5.861 -1.1440 -0.0392  0.6904
 7250SOL     OW33211   4.035   2.257  13.390 -0.7594 -0.5205 -0.0096
 7250SOL    HW133212   4.046   2.218  13.303  0.8115 -0.9513  0.3948
 7250SOL    HW233213   3.965   2.198  13.418 -1.1016  0.1773  0.5987
 7251SOL     OW33214   3.906   3.727  10.617 -0.9957  0.1051 -0.2698
 7251SOL    HW133215   3.913   3.806  10.565  1.8362 -1.9048 -2.9343
 7251SOL    HW233216   3.926   3.657  10.555 -0.3202 -1.5080  1.7701
 7252SOL     OW33217   3.941   1.251   4.644 -0.1304 -0.5341 -0.5355
 7252SOL    HW133218   3.979   1.278   4.560  0.0115  0.7786 -0.0499
 7252SOL    HW233219   4.019   1.257   4.698  0.7608 -1.0708 -1.7627
 7253SOL     OW33220   4.031   2.187   5.627 -0.2168  0.2158 -0.5262
 7253SOL    HW133221   4.064   2.234   5.550  0.8842 -1.1827 -0.9179
 7253SOL    HW233222   3.971   2.248   5.669  3.3962  2.1510  1.8635
 7254SOL     OW33223   4.317   2.977   2.086  0.6222  0.0492  0.6443
 7254SOL    HW133224   4.297   3.066   2.117 -0.5499  0.1649 -0.4130
 7254SOL    HW233225   4.361   2.954   2.168  0.3343  2.0095  1.3501
 7255SOL     OW33226   3.351   4.514   9.295  0.2885  0.3671 -0.2370
 7255SOL    HW133227   3.384   4.590   9.343 -1.8982 -1.0704  3.6194
 7255SOL    HW233228   3.301   4.560   9.228 -0.2328 -0.2397 -0.2746
 7256SOL     OW33229   2.673   2.194   9.169  0.2600  0.6120  0.6485
 7256SOL    HW133230   2.636   2.142   9.241 -1.4084  0.1677 -0.5382
 7256SOL    HW233231   2.649   2.137   9.096 -0.2560  1.6980 -0.0204
 7257SOL     OW33232   1.954   2.608  10.219 -0.1991 -0.5623  0.2854
 7257SOL    HW133233   2.016   2.677  10.245 -1.4304  0.3169  0.9097
 7257SOL    HW233234   1.919   2.636  10.135 -1.3114  0.5156  1.0903
 7258SOL     OW33235   3.897   0.768   7.945 -0.4824 -0.4729  0.1689
 7258SOL    HW133236   3.906   0.842   7.885  0.3912  0.7122  1.7573
 7258SOL    HW233237   3.834   0.801   8.009  0.4532  0.7002  0.4898
 7259SOL     OW33238   3.954   0.299   7.240 -0.1220 -0.0048  0.0174
 7259SOL    HW133239   3.981   0.291   7.149 -0.8511  1.8027 -0.3647
 7259SOL    HW233240   3.860   0.278   7.242  0.2175 -1.5365 -1.7404
 7260SOL     OW33241   2.961   2.337  12.932  0.2243 -0.2104  0.5509
 7260SOL    HW133242   2.919   2.355  12.848  0.2867  1.5053  0.8958
 7260SOL    HW233243   2.884   2.342  12.989 -1.4050 -2.7502 -1.4347
 7261SOL     OW33244   1.999   4.634  15.523  0.2616  0.1234 -0.4988
 7261SOL    HW133245   1.962   4.549  15.499  0.7447  0.5389 -2.7720
 7261SOL    HW233246   2.025   4.661  15.435 -0.4714 -2.2756 -1.4567
 7262SOL     OW33247   1.273   0.418   6.892  0.2161  0.6290  0.3709
 7262SOL    HW133248   1.331   0.476   6.940  1.7692 -0.1011 -0.6525
 7262SOL    HW233249   1.208   0.389   6.956  0.4877 -1.6790 -0.3813
 7263SOL     OW33250   3.196   2.406  14.875  0.5899 -0.0507  0.0312
 7263SOL    HW133251   3.179   2.494  14.843 -1.5240 -0.6374 -0.4899
 7263SOL    HW233252   3.213   2.360  14.792  0.0208 -0.0388 -0.0907
 7264SOL     OW33253   4.442   3.102  10.017  0.3962  0.4325 -0.0089
 7264SOL    HW133254   4.468   3.010  10.028  1.8878  1.1222  2.1430
 7264SOL    HW233255   4.488   3.118   9.934  2.0881  1.3550  1.1201
 7265SOL     OW33256   0.730   4.368   6.244 -0.5304  0.2294  0.8869
 7265SOL    HW133257   0.721   4.328   6.331  2.7139  0.6511  1.4353
 7265SOL    HW233258   0.640   4.386   6.219 -0.3651 -0.2677 -0.0569
 7266SOL     OW33259   4.675   0.396   4.234  0.1089  0.3391  0.1248
 7266SOL    HW133260   0.043   0.378   4.262  0.2747 -1.5203 -1.5729
 7266SOL    HW233261   4.685   0.461   4.165 -0.8635  0.4098  0.0446
 7267SOL     OW33262   1.827   1.678   5.152  0.1212  0.3346 -0.0588
 7267SOL    HW133263   1.731   1.677   5.150  0.1226  0.1708 -0.0399
 7267SOL    HW233264   1.842   1.768   5.180 -0.2061  0.4350 -0.2058
 7268SOL     OW33265   1.108   2.157   8.531 -0.6517  0.0678 -0.9381
 7268SOL    HW133266   1.074   2.196   8.612  0.8943 -1.3531  0.3907
 7268SOL    HW233267   1.162   2.090   8.572 -0.6506  0.6933  0.0988
 7269SOL     OW33268   3.276   3.781   3.128  0.0980  0.4477  0.1705
 7269SOL    HW133269   3.360   3.744   3.155 -0.4705 -1.0737 -0.1361
 7269SOL    HW233270   3.227   3.699   3.117  1.2862 -0.6138  2.8072
 7270SOL     OW33271   2.203   1.243   6.168  0.1748  0.4353 -0.0306
 7270SOL    HW133272   2.274   1.307   6.174  1.4724 -1.2034  1.7704
 7270SOL    HW233273   2.204   1.221   6.075 -1.3433 -1.6686  0.4605
 7271SOL     OW33274   2.475   3.464   5.408  0.6725 -0.1120  0.1233
 7271SOL    HW133275   2.555   3.471   5.355  0.1007  2.5035 -0.3977
 7271SOL    HW233276   2.493   3.536   5.469  1.6751  2.1550 -2.8144
 7272SOL     OW33277   0.528   3.288   5.489  0.7845 -0.0478  0.6974
 7272SOL    HW133278   0.526   3.312   5.396  0.4863  1.5627  1.1139
 7272SOL    HW233279   0.450   3.341   5.508 -0.3284 -1.2604 -0.4503
 7273SOL     OW33280   2.513   0.938   7.745 -0.4021 -0.2473  0.2053
 7273SOL    HW133281   2.447   0.955   7.678 -0.5869 -1.4863  0.0676
 7273SOL    HW233282   2.575   0.897   7.685 -0.0827  0.3963  0.0922
 7274SOL     OW33283   1.333   4.285   2.049  0.3137 -0.4075  0.1429
 7274SOL    HW133284   1.287   4.229   1.987  0.0317 -1.9865  1.7710
 7274SOL    HW233285   1.251   4.326   2.078  0.8777 -0.9492  2.5439
 7275SOL     OW33286   2.497   4.054   9.298 -0.1682 -1.0125 -0.5176
 7275SOL    HW133287   2.566   4.079   9.237  0.6902 -1.9570  0.0748
 7275SOL    HW233288   2.478   4.138   9.341  1.8363  0.0232 -1.6713
 7276SOL     OW33289   1.340   2.724   4.190  0.4291  0.4924 -0.1656
 7276SOL    HW133290   1.279   2.722   4.117 -0.3653  1.8960  0.4699
 7276SOL    HW233291   1.293   2.669   4.253  0.0824  1.4874  0.4272
 7277SOL     OW33292   0.862   1.419   7.562 -0.1954 -0.6858 -0.5163
 7277SOL    HW133293   0.907   1.394   7.642 -0.6661  0.1628  0.0156
 7277SOL    HW233294   0.899   1.507   7.548  0.3073 -0.5329  1.8946
 7278SOL     OW33295   4.414   0.717  15.607 -0.1100  0.1681  0.0678
 7278SOL    HW133296   4.431   0.808  15.632 -1.5651  0.2082  0.9408
 7278SOL    HW233297   4.348   0.735  15.540  0.4327 -0.7547 -0.7112
 7279SOL     OW33298   0.877   4.675   0.311  0.6981 -0.3044  0.4540
 7279SOL    HW133299   0.938   4.619   0.264  1.6796  0.5527  0.6924
 7279SOL    HW233300   0.834   4.612   0.368 -0.9059  0.0273 -0.4101
 7280SOL     OW33301   3.899   0.987   3.138  0.4236 -0.2825 -0.1212
 7280SOL    HW133302   3.870   0.915   3.082 -1.9499 -0.1951  0.9973
 7280SOL    HW233303   3.830   0.989   3.204 -0.5385  0.1726 -1.1411
 7281SOL     OW33304   2.345   1.909   5.035 -0.5043  0.1288 -0.3366
 7281SOL    HW133305   2.396   1.844   4.987 -0.2258 -0.5806  0.9284
 7281SOL    HW233306   2.396   1.982   4.999 -2.4544  1.4639 -0.3919
 7282SOL     OW33307   1.566   0.371   8.922  0.0174 -0.4053 -0.0821
 7282SOL    HW133308   1.564   0.302   8.988 -1.1568  1.0728  1.4181
 7282SOL    HW233309   1.661   0.364   8.918  0.1692  0.8219  1.3314
 7283SOL     OW33310   3.927   3.665  16.675  0.2462  0.3566  0.3754
 7283SOL    HW133311   4.007   3.620  16.703 -0.8974 -0.2248  2.7531
 7283SOL    HW233312   3.895   3.720  16.747 -1.9409 -0.0843 -0.2445
 7284SOL     OW33313   4.384   3.249   3.415  0.3168 -0.1051 -0.3967
 7284SOL    HW133314   4.385   3.307   3.339  0.0311  0.1674 -0.1909
 7284SOL    HW233315   4.368   3.313   3.485  1.1459 -1.2141  0.8155
 7285SOL     OW33316   0.310   0.358  10.339 -0.0827 -0.3730 -0.5330
 7285SOL    HW133317   0.296   0.415  10.414 -1.1957 -2.0567  0.5382
 7285SOL    HW233318   0.367   0.294  10.381  0.5898 -0.6126 -1.7978
 7286SOL     OW33319   0.193   1.384   1.346  0.3332 -0.5788 -0.3328
 7286SOL    HW133320   0.142   1.465   1.351  0.3775 -0.5056 -1.0205
 7286SOL    HW233321   0.136   1.333   1.288  0.2777 -0.7511 -0.1247
 7287SOL     OW33322   2.354   2.193  13.470  0.1215  0.1468  0.3160
 7287SOL    HW133323   2.359   2.263  13.405  3.7066 -0.9169 -0.5511
 7287SOL    HW233324   2.420   2.131  13.440 -0.3986 -0.1697 -0.1695
 7288SOL     OW33325   2.020   0.333   9.116  0.1106  0.3869 -0.5439
 7288SOL    HW133326   2.008   0.279   9.194 -2.8938  1.8333  0.0185
 7288SOL    HW233327   2.070   0.407   9.150  0.7224 -0.3226  0.0906
 7289SOL     OW33328   1.198   2.846   7.344 -0.0345 -0.1022  0.3870
 7289SOL    HW133329   1.255   2.817   7.416 -0.4887 -1.0068  0.3858
 7289SOL    HW233330   1.147   2.906   7.398  1.9948  1.0402  1.0428
 7290SOL     OW33331   0.621   0.309   3.921 -0.0676 -0.5494  0.1547
 7290SOL    HW133332   0.581   0.232   3.880  0.4531 -1.3899  1.2189
 7290SOL    HW233333   0.712   0.301   3.891 -0.9987 -0.2445 -2.7594
 7291SOL     OW33334   1.277   3.931   3.742 -0.3769  0.2253 -0.1361
 7291SOL    HW133335   1.326   3.959   3.820 -2.1249  0.7475  0.7769
 7291SOL    HW233336   1.239   4.011   3.707  1.8587  1.9979  1.4470
 7292SOL     OW33337   4.555   3.680   3.392  0.0801 -0.1921 -0.7427
 7292SOL    HW133338   4.564   3.704   3.300  1.6805  2.1616  0.0341
 7292SOL    HW233339   4.552   3.585   3.386  1.1880 -0.4047  2.1655
 7293SOL     OW33340   3.778   2.241   8.721  0.3978 -0.0155 -1.0440
 7293SOL    HW133341   3.724   2.187   8.664 -3.1737  1.1770  1.1720
 7293SOL    HW233342   3.822   2.170   8.769  0.7435 -0.4268 -1.9674
 7294SOL     OW33343   1.520   2.371   3.484  0.5737  0.1794 -0.1726
 7294SOL    HW133344   1.471   2.296   3.450  2.0414 -0.5854 -0.5928
 7294SOL    HW233345   1.611   2.354   3.462  0.9885  1.8156  0.2758
 7295SOL     OW33346   3.102   3.056  17.624 -0.3248  0.1341 -0.2188
 7295SOL    HW133347   3.197   3.048  17.631 -0.2534  0.0883 -1.2221
 7295SOL    HW233348   3.083   3.036   0.026  0.0666 -1.6982 -0.5476
 7296SOL     OW33349   0.329   4.234   7.424 -0.7270 -0.2117 -0.5497
 7296SOL    HW133350   0.249   4.205   7.380 -1.5961  0.1251  0.8077
 7296SOL    HW233351   0.392   4.226   7.352  0.5062 -0.9731  0.6407
 7297SOL     OW33352   0.323   0.796   3.026  0.1796 -0.1265 -0.7978
 7297SOL    HW133353   0.335   0.874   3.081 -1.2892 -0.9103  0.6509
 7297SOL    HW233354   0.244   0.814   2.975  0.9882  1.3373 -1.5340
 7298SOL     OW33355   0.939   0.117   0.076 -0.6089  0.2709  0.1323
 7298SOL    HW133356   0.905   0.064   0.004  0.6208  1.2393 -1.1677
 7298SOL    HW233357   0.885   0.087   0.149  3.0960 -0.8390  2.3913
 7299SOL     OW33358   4.374   2.967   0.877 -0.4152  0.2422  0.1808
 7299SOL    HW133359   4.457   2.919   0.880 -0.8577 -0.6750 -2.8381
 7299SOL    HW233360   4.318   2.907   0.926 -0.3229  0.5327  0.6420
 7300SOL     OW33361   1.276   2.702   1.826 -0.0527  0.5056 -0.6695
 7300SOL    HW133362   1.219   2.627   1.817 -0.3851  0.4579  1.9895
 7300SOL    HW233363   1.216   2.769   1.793 -0.8517  0.4401  0.6588
 7301SOL     OW33364   0.665   3.786   7.956 -0.2903 -0.4922 -0.0700
 7301SOL    HW133365   0.741   3.728   7.965  0.1746  0.6052  3.2120
 7301SOL    HW233366   0.633   3.788   8.046 -1.0608 -0.1165 -0.3507
 7302SOL     OW33367   0.701   0.209   5.366  0.3301  0.8337  0.3383
 7302SOL    HW133368   0.686   0.254   5.449 -2.0476 -1.5048  1.1539
 7302SOL    HW233369   0.795   0.191   5.368 -0.0644 -0.9089  2.5242
 7303SOL     OW33370   1.593   0.976   4.454  0.1387  0.0929  0.7991
 7303SOL    HW133371   1.671   0.922   4.463  0.1084 -0.2468 -0.9640
 7303SOL    HW233372   1.631   1.048   4.403 -0.0109  0.1475  0.7632
 7304SOL     OW33373   4.308   3.036   2.368 -0.9040  0.4693 -0.2560
 7304SOL    HW133374   4.342   3.119   2.335 -0.4114  0.9279  1.3787
 7304SOL    HW233375   4.216   3.050   2.347 -1.0989  2.2096  1.7457
 7305SOL     OW33376   1.725   3.427  17.640 -0.1311 -0.3887 -0.3598
 7305SOL    HW133377   1.720   3.438   0.045 -1.9320 -1.4946 -0.3361
 7305SOL    HW233378   1.793   3.493  17.628 -0.9870  0.5952  0.2319
 7306SOL     OW33379   0.628   0.556   2.497 -0.0586 -0.4111  0.0901
 7306SOL    HW133380   0.676   0.607   2.563  0.4037 -1.2181  0.3789
 7306SOL    HW233381   0.538   0.571   2.526  0.4383  2.3759  0.2244
 7307SOL     OW33382   4.709   0.178   6.027  0.1124  0.1863 -0.3260
 7307SOL    HW133383   0.012   0.251   5.971  1.3449  0.2415  0.3039
 7307SOL    HW233384   4.622   0.153   5.994  0.7139 -0.8009 -1.1647
 7308SOL     OW33385   1.109   3.516  16.611  0.3524 -0.5619 -0.6707
 7308SOL    HW133386   1.023   3.510  16.570 -0.5707  1.1243  1.0039
 7308SOL    HW233387   1.095   3.462  16.689  0.8204 -0.9959 -0.8843
 7309SOL     OW33388   2.623   0.784   5.888 -0.0309  0.0849  0.0710
 7309SOL    HW133389   2.701   0.758   5.938  0.3102  1.0392  0.0306
 7309SOL    HW233390   2.636   0.879   5.883  0.1096  0.0554 -0.1308
 7310SOL     OW33391   4.014   2.443  14.039 -0.1422  0.2585  0.5289
 7310SOL    HW133392   3.941   2.489  14.081 -1.0915 -1.4461  0.7575
 7310SOL    HW233393   4.015   2.364  14.093  1.2737 -0.8667 -1.1525
 7311SOL     OW33394   3.339   4.095   9.005 -0.3047  0.3068 -0.7064
 7311SOL    HW133395   3.353   4.189   9.010 -0.3317  0.2987 -0.5072
 7311SOL    HW233396   3.302   4.088   9.093 -1.4851 -2.0221 -1.3666
 7312SOL     OW33397   1.253   3.357   8.796  0.6510 -0.3279  0.3191
 7312SOL    HW133398   1.270   3.263   8.784 -1.1857 -0.5867 -0.3042
 7312SOL    HW233399   1.297   3.375   8.879 -1.0368  3.0668  0.4588
 7313SOL     OW33400   0.630   1.420   9.084 -0.3644  0.1057 -0.1061
 7313SOL    HW133401   0.698   1.463   9.135 -1.1738 -0.4739  1.4919
 7313SOL    HW233402   0.588   1.496   9.044 -0.9284 -0.4310 -0.5318
 7314SOL     OW33403   4.223   1.698   5.697  0.1749  0.2762  0.1840
 7314SOL    HW133404   4.182   1.703   5.783 -1.9700 -0.0021 -0.8169
 7314SOL    HW233405   4.219   1.787   5.662 -0.0562  0.5468  0.9181
 7315SOL     OW33406   2.503   1.178  13.500  0.9868  0.1542  0.7325
 7315SOL    HW133407   2.447   1.255  13.499  0.0056 -0.5712  0.2927
 7315SOL    HW233408   2.550   1.196  13.419  0.0808 -1.6353 -0.1729
 7316SOL     OW33409   3.384   0.007  17.273 -0.0778 -0.2632 -0.1014
 7316SOL    HW133410   3.311   0.017  17.334  0.1514 -0.8138  0.2625
 7316SOL    HW233411   3.357   0.058  17.197  1.0252  2.0455  1.0610
 7317SOL     OW33412   3.312   3.391   9.219  0.4001 -0.0279  0.3909
 7317SOL    HW133413   3.294   3.473   9.173 -0.2696  0.6356  1.8291
 7317SOL    HW233414   3.402   3.367   9.196  0.6756  1.0784  0.3051
 7318SOL     OW33415   1.481   2.961   8.966 -0.5761  0.2255 -0.8572
 7318SOL    HW133416   1.483   3.055   8.949 -3.0859  0.4677  0.1058
 7318SOL    HW233417   1.542   2.926   8.900 -0.3027 -2.1950  0.6905
 7319SOL     OW33418   3.323   2.775   0.841  0.3387  0.1401 -0.3438
 7319SOL    HW133419   3.371   2.830   0.904 -2.3050 -0.3691  2.0864
 7319SOL    HW233420   3.368   2.803   0.762  1.0295 -0.6544 -0.2280
 7320SOL     OW33421   1.163   1.639   3.832 -0.4630  0.0893  0.0077
 7320SOL    HW133422   1.161   1.559   3.884 -1.1198 -0.3500 -0.6847
 7320SOL    HW233423   1.139   1.709   3.893  0.4437 -0.8705  1.4550
 7321SOL     OW33424   3.212   2.843   6.884  0.0362 -0.2638 -0.2796
 7321SOL    HW133425   3.241   2.807   6.967 -1.0456  1.0160  0.6574
 7321SOL    HW233426   3.169   2.768   6.844 -1.1576  1.5502 -2.4430
 7322SOL     OW33427   3.863   4.178   7.222  0.0086  0.3013 -0.4350
 7322SOL    HW133428   3.908   4.182   7.138  1.9422 -2.2389  0.4775
 7322SOL    HW233429   3.774   4.196   7.191  0.1036 -0.4396 -1.1582
 7323SOL     OW33430   0.609   4.662  10.433 -0.3369 -0.6518  0.1073
 7323SOL    HW133431   0.674   4.609  10.386  2.7285  2.0794  1.2885
 7323SOL    HW233432   0.629   4.626  10.519  2.0015 -2.1341 -1.0421
 7324SOL     OW33433   0.167   0.251  11.693 -0.2116  0.4038  0.4679
 7324SOL    HW133434   0.134   0.170  11.656 -1.9648  0.7883  1.1930
 7324SOL    HW233435   0.136   0.236  11.783 -0.5140 -0.1979  0.2634
 7325SOL     OW33436   3.293   4.458   0.591 -0.3783  0.1896 -0.2855
 7325SOL    HW133437   3.388   4.471   0.588 -0.1341 -0.9562  2.5071
 7325SOL    HW233438   3.277   4.475   0.684  2.2004  0.8207  0.0589
 7326SOL     OW33439   3.464   3.106  11.056  0.2274 -0.1226  0.7236
 7326SOL    HW133440   3.395   3.108  11.123 -1.1943 -0.8435 -0.7046
 7326SOL    HW233441   3.538   3.149  11.098  0.4668  0.6781 -0.5214
 7327SOL     OW33442   2.280   1.291   8.498 -0.2254  0.3932 -0.0367
 7327SOL    HW133443   2.244   1.324   8.581 -0.6508 -0.0202 -0.0548
 7327SOL    HW233444   2.354   1.234   8.521 -2.0251 -1.5970  0.8368
 7328SOL     OW33445   4.679   4.104  13.722 -0.3782 -0.1073  0.6120
 7328SOL    HW133446   4.716   4.180  13.678 -1.0456  0.3426  0.8170
 7328SOL    HW233447   4.619   4.071  13.656  1.8131 -2.1093 -0.3390
 7329SOL     OW33448   3.376   1.577   9.524  0.4867 -0.0701 -0.3965
 7329SOL    HW133449   3.364   1.672   9.535 -0.6753 -0.3757  0.9822
 7329SOL    HW233450   3.370   1.573   9.429 -1.1299  2.1221 -0.3913
 7330SOL     OW33451   2.996   1.731   9.531 -0.1232  0.0772 -0.1815
 7330SOL    HW133452   2.920   1.789   9.528  0.7388  1.2713  0.9625
 7330SOL    HW233453   2.992   1.688   9.446  1.3327  0.3100 -0.3764
 7331SOL     OW33454   2.164   0.070  13.038 -0.3964 -0.5138  1.1996
 7331SOL    HW133455   2.204   4.707  13.020 -1.0896 -0.0067 -2.7900
 7331SOL    HW233456   2.230   0.126  12.998 -0.4458 -1.9043 -0.8173
 7332SOL     OW33457   1.354   0.328  16.323 -0.0519 -0.5074  0.1110
 7332SOL    HW133458   1.292   0.362  16.387 -0.8697  0.9226 -1.4167
 7332SOL    HW233459   1.284   0.301  16.264 -2.8869  1.1656  2.7132
 7333SOL     OW33460   1.773   4.285   7.888  0.0875  1.2054 -0.1203
 7333SOL    HW133461   1.748   4.375   7.909 -0.1110  0.4738  2.6791
 7333SOL    HW233462   1.835   4.269   7.959 -0.6363  1.5387  0.5849
 7334SOL     OW33463   3.210   3.675  10.963 -0.1321 -0.0272  0.8982
 7334SOL    HW133464   3.195   3.746  10.900 -1.6013 -1.5777 -0.5063
 7334SOL    HW233465   3.124   3.633  10.957  0.0331  0.0534 -1.9945
 7335SOL     OW33466   0.612   4.613   2.951  0.1252  1.0275 -0.3762
 7335SOL    HW133467   0.533   4.575   2.990  0.2659  1.2559  0.1299
 7335SOL    HW233468   0.572   4.633   2.866 -0.4138  1.3835 -0.0386
 7336SOL     OW33469   2.811   3.016   0.516 -0.5882  0.1729  0.2118
 7336SOL    HW133470   2.815   2.955   0.442  2.7272 -0.3606  0.8321
 7336SOL    HW233471   2.860   3.091   0.483 -0.2570  0.3997  1.1988
 7337SOL     OW33472   0.413   4.498   6.568 -0.1936  0.0536  0.1000
 7337SOL    HW133473   0.410   4.440   6.645  1.9438 -0.3220 -0.1150
 7337SOL    HW233474   0.428   4.438   6.495 -0.8640  0.6687 -0.5467
 7338SOL     OW33475   3.008   4.500   5.627  0.5270 -0.2368  0.5487
 7338SOL    HW133476   3.070   4.570   5.646  2.2133 -1.8722  1.1677
 7338SOL    HW233477   3.058   4.442   5.569  1.1795 -0.4714  1.3417
 7339SOL     OW33478   2.084   2.633   7.895  0.2620 -0.2926  0.2679
 7339SOL    HW133479   2.012   2.575   7.871 -0.3720  0.0182  1.4524
 7339SOL    HW233480   2.138   2.611   7.818 -0.4367  0.3374 -0.4047
 7340SOL     OW33481   1.762   2.341  11.791  0.1543  0.4837 -0.2959
 7340SOL    HW133482   1.714   2.373  11.868 -0.5377 -0.6242 -0.2613
 7340SOL    HW233483   1.693   2.291  11.749  0.8628 -0.8212  0.0666
 7341SOL     OW33484   1.961   0.305  16.980  0.0897  0.0274 -0.3106
 7341SOL    HW133485   1.891   0.363  17.009 -0.9810 -0.6595 -1.5171
 7341SOL    HW233486   2.035   0.366  16.974 -0.3261  0.7264  1.5176
 7342SOL     OW33487   4.615   1.056   0.453  0.2111  0.3581  0.2604
 7342SOL    HW133488   4.561   1.118   0.403  1.6792  2.0027  0.7086
 7342SOL    HW233489   4.614   0.981   0.394  1.0660 -0.4700  1.2909
 7343SOL     OW33490   3.624   3.653   5.697  0.0498  0.5922 -0.5448
 7343SOL    HW133491   3.656   3.731   5.742 -1.7854  1.5095 -0.8317
 7343SOL    HW233492   3.570   3.603   5.758 -0.2372  0.6225 -0.7747
 7344SOL     OW33493   4.669   1.541   9.145  0.3513  0.5262 -0.2941
 7344SOL    HW133494   4.688   1.572   9.233  1.0370 -1.0182  0.0921
 7344SOL    HW233495   0.013   1.471   9.146 -0.7566 -0.5434 -2.1207
 7345SOL     OW33496   0.817   0.864   5.639  0.3091  0.0663 -0.2943
 7345SOL    HW133497   0.876   0.813   5.695  1.0390 -0.5031 -1.5765
 7345SOL    HW233498   0.781   0.794   5.584  1.7770 -0.5855 -0.4377
 7346SOL     OW33499   0.530   4.377   6.957  0.7675 -0.0995 -0.2818
 7346SOL    HW133500   0.500   4.452   7.008 -0.9116 -1.6003  0.9413
 7346SOL    HW233501   0.626   4.379   6.966  0.9027  1.2278 -2.0367
 7347SOL     OW33502   4.220   0.148   4.972  0.2123 -0.4237  0.2043
 7347SOL    HW133503   4.227   0.238   5.003  2.7320 -0.4627 -0.2576
 7347SOL    HW233504   4.129   0.123   4.991  0.3968 -1.3732 -0.1434
 7348SOL     OW33505   0.959   1.564   8.075  0.0188 -0.0090  0.2273
 7348SOL    HW133506   1.014   1.555   8.152 -1.1047 -3.2642  0.6368
 7348SOL    HW233507   1.013   1.627   8.027 -1.2891  0.0125 -1.2450
 7349SOL     OW33508   4.547   4.592   7.712  0.4802 -0.1076  0.4079
 7349SOL    HW133509   4.608   4.527   7.678  0.0551  0.0658 -0.6937
 7349SOL    HW233510   4.588   4.597   7.798  1.7384  0.1460 -0.2052
 7350SOL     OW33511   1.311   2.844   5.588  0.0468  0.1385 -0.3670
 7350SOL    HW133512   1.269   2.885   5.664 -2.7026 -1.6431 -0.9184
 7350SOL    HW233513   1.245   2.778   5.568  1.9476 -1.5068 -1.1858
 7351SOL     OW33514   3.956   0.966   4.325  0.4059  0.2209 -0.0566
 7351SOL    HW133515   3.885   0.974   4.389 -1.2202  0.8670 -1.9313
 7351SOL    HW233516   3.935   0.883   4.282 -1.9616  0.2017  1.1091
 7352SOL     OW33517   4.411   2.627   6.463  0.0868  0.1209 -0.0723
 7352SOL    HW133518   4.478   2.686   6.429 -0.7295 -0.1825 -2.2071
 7352SOL    HW233519   4.407   2.556   6.398  2.5348  0.2690 -0.3840
 7353SOL     OW33520   0.675   1.042   1.516  0.2889  0.0688  0.2209
 7353SOL    HW133521   0.619   1.005   1.585 -1.0641  2.4326  0.3722
 7353SOL    HW233522   0.746   0.978   1.510  2.2695  2.2160  0.7997
 7354SOL     OW33523   0.124   3.640  11.583 -0.4710  0.1113 -0.4177
 7354SOL    HW133524   0.060   3.709  11.599 -1.9062 -1.7238  1.5931
 7354SOL    HW233525   0.174   3.633  11.664 -0.3316 -0.1089 -0.5230
 7355SOL     OW33526   1.891   0.478   8.348  0.3599 -0.4293 -0.4698
 7355SOL    HW133527   1.877   0.495   8.441 -1.9095  1.2336 -1.1285
 7355SOL    HW233528   1.845   0.551   8.305 -0.3833  0.5719  2.0458
 7356SOL     OW33529   2.864   2.564   5.886  0.0569 -0.1510 -0.3326
 7356SOL    HW133530   2.862   2.492   5.950  2.6203 -0.8446 -1.0311
 7356SOL    HW233531   2.947   2.557   5.839  0.6550 -1.7120  0.9646
 7357SOL     OW33532   4.655   2.751  11.764 -0.2859  0.1148  0.6684
 7357SOL    HW133533   4.637   2.713  11.678 -1.2191  1.9023  0.0844
 7357SOL    HW233534   4.664   2.845  11.745 -3.7502 -0.0746 -1.9612
 7358SOL     OW33535   2.217   3.413   6.731 -0.1522  0.4916 -0.1974
 7358SOL    HW133536   2.279   3.461   6.677 -0.0935  0.6837  0.0395
 7358SOL    HW233537   2.245   3.323   6.717 -0.5204  0.0517  1.8219
 7359SOL     OW33538   3.174   2.297  16.946  0.0591  0.3177 -0.1036
 7359SOL    HW133539   3.131   2.214  16.925 -1.7106  1.2608 -0.2000
 7359SOL    HW233540   3.189   2.335  16.859  1.3997  2.7621  1.1915
 7360SOL     OW33541   0.641   3.155   3.985  0.0787  0.3716 -0.3188
 7360SOL    HW133542   0.728   3.156   4.023 -0.0016 -2.2446 -0.1086
 7360SOL    HW233543   0.650   3.229   3.925  3.1318 -1.1922 -1.8080
 7361SOL     OW33544   4.244   2.785   2.561  0.4252 -0.4613  0.4052
 7361SOL    HW133545   4.242   2.835   2.643  3.2187 -1.1017  0.8456
 7361SOL    HW233546   4.278   2.835   2.486 -0.1739  2.5930  2.1398
 7362SOL     OW33547   2.010   0.430  10.639  0.2382  0.1522  0.1176
 7362SOL    HW133548   1.986   0.467  10.724 -0.5204  2.4726 -1.1143
 7362SOL    HW233549   2.093   0.392  10.665 -0.2959  0.1636  1.8412
 7363SOL     OW33550   0.313   0.487   5.355  0.1952  0.0275  0.4971
 7363SOL    HW133551   0.398   0.454   5.327 -0.7677 -0.3562 -1.9797
 7363SOL    HW233552   0.249   0.471   5.285 -0.2671 -0.0346  0.9341
 7364SOL     OW33553   4.194   3.560   7.366 -0.0432 -0.1774 -0.3416
 7364SOL    HW133554   4.275   3.539   7.411  2.4433  1.3126 -4.1790
 7364SOL    HW233555   4.142   3.599   7.437  0.1207  2.5469 -1.7353
 7365SOL     OW33556   2.384   4.312   0.067  0.4015 -0.5403  0.4564
 7365SOL    HW133557   2.346   4.400   0.063 -1.8184 -1.5146  0.3037
 7365SOL    HW233558   2.440   4.313  17.680 -0.1252  0.8389  0.0994
 7366SOL     OW33559   0.804   4.060   8.998 -0.1050  0.0049 -0.1298
 7366SOL    HW133560   0.758   4.095   9.074  0.5966  1.6125 -0.4392
 7366SOL    HW233561   0.795   3.968   9.018 -1.3530  0.7024  2.4334
 7367SOL     OW33562   0.544   3.629   8.597  0.1964  0.5282 -0.4340
 7367SOL    HW133563   0.601   3.679   8.656  0.6311  0.2192 -0.5998
 7367SOL    HW233564   0.556   3.537   8.621 -1.6833  0.2371 -0.6347
 7368SOL     OW33565   0.628   1.813  14.066  0.0307 -0.1481  0.1107
 7368SOL    HW133566   0.690   1.869  14.113 -0.4051  0.0303  0.4700
 7368SOL    HW233567   0.594   1.772  14.146 -0.2416  0.2415  0.1890
 7369SOL     OW33568   1.875   3.502   8.982 -0.3374  0.0415  0.0897
 7369SOL    HW133569   1.953   3.552   8.957  0.4453 -0.5280  1.3902
 7369SOL    HW233570   1.889   3.477   9.074  1.8204 -0.9391 -0.4900
 7370SOL     OW33571   3.497   0.984   2.332 -0.2474  0.2406  0.5003
 7370SOL    HW133572   3.456   1.044   2.394 -2.6162 -1.4431  0.5543
 7370SOL    HW233573   3.438   0.909   2.329 -1.1273  0.9303  0.6638
 7371SOL     OW33574   0.654   3.819   6.654 -0.1594  0.2478  0.3517
 7371SOL    HW133575   0.675   3.873   6.577 -2.5481  2.8521  1.5277
 7371SOL    HW233576   0.570   3.860   6.673 -0.5538  0.3272 -1.5155
 7372SOL     OW33577   2.694   1.951  10.169  0.2296  0.2506  0.4640
 7372SOL    HW133578   2.608   1.950  10.211 -0.3497 -1.3975 -0.7453
 7372SOL    HW233579   2.738   1.877  10.210  0.6401  0.3830  0.2601
 7373SOL     OW33580   1.405   4.072  12.393 -0.3573 -0.4775 -0.2345
 7373SOL    HW133581   1.426   4.145  12.451 -1.7721 -1.2751  1.2901
 7373SOL    HW233582   1.474   4.079  12.328  0.3869  0.0805  0.6169
 7374SOL     OW33583   3.578   1.814   1.416 -0.5934 -0.4268  0.1739
 7374SOL    HW133584   3.618   1.871   1.350 -2.1758 -1.3792 -1.6247
 7374SOL    HW233585   3.488   1.806   1.384  0.9649 -3.8913 -3.3068
 7375SOL     OW33586   2.506   3.472   4.679  0.5424  0.0189 -0.2595
 7375SOL    HW133587   2.420   3.454   4.717  0.9054  0.5054  0.7867
 7375SOL    HW233588   2.494   3.468   4.584  0.8573 -0.3342 -0.2887
 7376SOL     OW33589   3.028   3.159   4.499  0.0755  0.0491  0.3073
 7376SOL    HW133590   3.083   3.146   4.422 -0.4905  0.7325 -0.2119
 7376SOL    HW233591   2.978   3.077   4.490 -0.4416  0.2395  1.4725
 7377SOL     OW33592   2.085   4.689  16.947 -0.0198  0.4506  0.5769
 7377SOL    HW133593   1.993   4.712  16.944 -0.3500 -1.5612 -3.6001
 7377SOL    HW233594   2.129   0.018  16.880  1.1172  0.3213  1.2175
 7378SOL     OW33595   3.497   3.828   5.272  0.5852  0.2628 -0.4589
 7378SOL    HW133596   3.535   3.768   5.208 -0.9974 -1.3494  0.1115
 7378SOL    HW233597   3.560   3.899   5.262  1.5806 -0.3266  1.6983
 7379SOL     OW33598   1.885   1.878   6.775 -0.4572  0.0922 -0.3344
 7379SOL    HW133599   1.862   1.911   6.862 -0.4981  2.0878 -1.1046
 7379SOL    HW233600   1.980   1.870   6.771 -0.1597  2.5170  1.9277
 7380SOL     OW33601   3.332   1.740  15.861 -0.2571 -0.1131  0.2771
 7380SOL    HW133602   3.249   1.727  15.816 -1.1117  0.3021  1.7465
 7380SOL    HW233603   3.394   1.742  15.788 -0.2835  0.0220  0.2589
 7381SOL     OW33604   0.973   4.560   5.548 -0.1780 -0.1269 -0.1927
 7381SOL    HW133605   0.907   4.522   5.490 -1.0615  0.5767  0.3539
 7381SOL    HW233606   0.970   4.503   5.624 -0.8349 -0.4101 -0.4292
 7382SOL     OW33607   4.664   4.580   3.904 -0.1662  0.3439  0.2766
 7382SOL    HW133608   4.599   4.527   3.857  0.4378  0.9637 -1.2291
 7382SOL    HW233609   4.633   4.669   3.889 -1.2841 -0.0904  0.0416
 7383SOL     OW33610   1.799   0.201   0.064 -0.0270  0.1033 -0.0255
 7383SOL    HW133611   1.858   0.264   0.106  2.5476 -3.0613  1.0664
 7383SOL    HW233612   1.782   0.248  17.672  2.9727  0.9281 -0.1618
 7384SOL     OW33613   4.678   3.414   4.097 -0.3416  0.4599 -0.1384
 7384SOL    HW133614   4.673   3.455   4.183  0.1747 -0.0431  0.1318
 7384SOL    HW233615   4.680   3.487   4.036  1.7313  0.2224 -0.3729
 7385SOL     OW33616   0.099   0.504   8.127 -0.2008 -0.1728  0.1429
 7385SOL    HW133617   0.026   0.455   8.165  2.0953 -2.8270  1.1450
 7385SOL    HW233618   0.157   0.524   8.201  1.3891  0.6865 -1.3184
 7386SOL     OW33619   4.030   2.466   3.311 -0.3152 -0.1441  0.0089
 7386SOL    HW133620   4.035   2.561   3.304 -1.5968 -0.1860 -1.5502
 7386SOL    HW233621   4.042   2.446   3.403  0.4883  0.6998  0.0831
 7387SOL     OW33622   3.789   4.028  13.457  0.9067 -0.4938  0.1792
 7387SOL    HW133623   3.774   4.057  13.367  1.4118 -0.6260  0.0492
 7387SOL    HW233624   3.761   4.106  13.506 -0.6978 -0.4470 -0.8485
 7388SOL     OW33625   4.186   3.757   5.847 -0.8710  0.3011  0.1236
 7388SOL    HW133626   4.100   3.794   5.869 -0.1010  0.9387  2.0405
 7388SOL    HW233627   4.160   3.703   5.772  1.9749 -1.2746  0.2829
 7389SOL     OW33628   0.381   0.680   2.597 -0.1048 -0.5469  0.3043
 7389SOL    HW133629   0.434   0.732   2.657 -0.3937  0.5320 -0.3722
 7389SOL    HW233630   0.359   0.749   2.534 -1.8294 -0.1233  1.3673
 7390SOL     OW33631   2.031   0.066  10.091 -0.1197  0.0660 -0.3835
 7390SOL    HW133632   2.122   0.086  10.070 -0.8518  1.9814 -1.7837
 7390SOL    HW233633   1.997   0.037  10.006  0.3657 -1.9923  0.1167
 7391SOL     OW33634   2.527   0.697   6.677  0.8869  0.4514  0.5657
 7391SOL    HW133635   2.466   0.770   6.689  0.8339  0.6222 -0.7743
 7391SOL    HW233636   2.509   0.667   6.588  0.3947 -1.4023  1.2957
 7392SOL     OW33637   1.221   2.240  14.145  0.1405  0.2520 -0.0484
 7392SOL    HW133638   1.303   2.286  14.165  0.0978  0.9926 -1.5752
 7392SOL    HW233639   1.229   2.221  14.052 -2.4752  0.4935 -0.3185
 7393SOL     OW33640   4.173   2.685   4.359  0.0971  0.6417  0.1006
 7393SOL    HW133641   4.264   2.684   4.389 -0.8914  0.4217  3.1623
 7393SOL    HW233642   4.172   2.601   4.313 -0.5175 -1.3430  3.6979
 7394SOL     OW33643   2.574   2.100   8.600 -0.5076 -0.4079 -0.4134
 7394SOL    HW133644   2.524   2.177   8.572 -0.5014  0.6528  2.4556
 7394SOL    HW233645   2.665   2.128   8.613 -1.4015  1.8646  0.9701
 7395SOL     OW33646   0.379   2.879   6.081  0.2288  0.2752  0.5267
 7395SOL    HW133647   0.396   2.863   6.174  0.9842 -0.5881  0.2386
 7395SOL    HW233648   0.390   2.974   6.078 -1.6330  0.4163 -1.7810
 7396SOL     OW33649   1.256   4.179   7.232 -0.1132 -0.4197  0.1619
 7396SOL    HW133650   1.217   4.182   7.320  1.0874  0.1445  0.6643
 7396SOL    HW233651   1.215   4.095   7.208 -0.2459  0.0235 -1.1357
 7397SOL     OW33652   2.506   3.448   2.672 -0.6138  0.0249  0.2139
 7397SOL    HW133653   2.434   3.394   2.705 -2.5949  2.5756  0.1308
 7397SOL    HW233654   2.519   3.395   2.593 -1.9160 -0.2348  0.1740
 7398SOL     OW33655   0.295   3.562   2.922  0.1301 -0.6863 -0.1044
 7398SOL    HW133656   0.334   3.639   2.882 -0.2827 -0.2720  0.2899
 7398SOL    HW233657   0.355   3.504   2.874  0.7138 -0.3785  0.2475
 7399SOL     OW33658   0.302   0.243   5.131  0.3173  0.2930 -0.1113
 7399SOL    HW133659   0.365   0.303   5.171  0.9836  0.8347 -1.9705
 7399SOL    HW233660   0.242   0.313   5.104  0.5814  1.2133  1.7255
 7400SOL     OW33661   4.586   0.574   6.360 -0.5274  0.1733  0.1226
 7400SOL    HW133662   4.612   0.640   6.424 -2.1395 -0.4365  1.4089
 7400SOL    HW233663   4.669   0.541   6.326  0.5024  1.3682  1.4685
 7401SOL     OW33664   1.707   4.029   1.512 -0.1208 -0.4920  0.0152
 7401SOL    HW133665   1.713   4.080   1.592 -1.1370  1.9875 -1.5151
 7401SOL    HW233666   1.612   4.037   1.506 -0.3058  0.2714  3.9791
 7402SOL     OW33667   2.200   3.055   8.636 -0.6686  0.2052 -0.0299
 7402SOL    HW133668   2.179   2.974   8.589 -0.6786  0.6141 -0.7201
 7402SOL    HW233669   2.294   3.070   8.628 -0.2611 -1.7365  1.0022
 7403SOL     OW33670   2.306   3.364   9.144  0.7892  0.5859 -0.1729
 7403SOL    HW133671   2.244   3.331   9.209  1.5604 -1.0725 -0.2852
 7403SOL    HW233672   2.331   3.279   9.108 -1.6347 -0.2342  0.0992
 7404SOL     OW33673   3.024   2.828   5.738 -0.3553 -0.5167 -0.0224
 7404SOL    HW133674   3.026   2.772   5.660  0.3663  0.6312 -0.8286
 7404SOL    HW233675   2.931   2.837   5.758  0.2092 -0.2338  2.4018
 7405SOL     OW33676   0.613   1.670   7.080  0.6036  0.3950 -0.3834
 7405SOL    HW133677   0.534   1.640   7.126  0.7994  2.5457  1.3561
 7405SOL    HW233678   0.623   1.601   7.014  3.7889  1.3738 -0.9324
 7406SOL     OW33679   1.247   3.729   2.481  0.7924  0.3606 -0.0656
 7406SOL    HW133680   1.300   3.723   2.561 -0.4359 -0.7508  0.6671
 7406SOL    HW233681   1.266   3.647   2.436  0.5766  0.5252 -0.4527
 7407SOL     OW33682   2.495   0.195   7.496  0.5687 -0.4262  0.1667
 7407SOL    HW133683   2.535   0.177   7.581 -2.0078  1.8035  1.8686
 7407SOL    HW233684   2.539   0.274   7.464 -3.9751  1.8222 -0.5067
 7408SOL     OW33685   3.084   3.145   9.310  0.7753 -0.0202  0.0370
 7408SOL    HW133686   3.046   3.224   9.273  0.7322 -0.0514  0.0144
 7408SOL    HW233687   3.178   3.165   9.311  0.3182  2.2630 -1.4649
 7409SOL     OW33688   0.450   3.795   0.074  0.5309 -0.3992  0.3421
 7409SOL    HW133689   0.357   3.813   0.057  0.2235 -0.7533  1.6951
 7409SOL    HW233690   0.494   3.869   0.033  0.5693 -0.6835 -0.1344
 7410SOL     OW33691   0.207   1.621   6.589  0.2302 -0.3579  0.2071
 7410SOL    HW133692   0.184   1.541   6.638  0.0058  0.1020  0.8552
 7410SOL    HW233693   0.166   1.695   6.634  2.6317  0.3263  1.2771
 7411SOL     OW33694   3.670   0.056   9.698  0.4690  0.4420  0.5828
 7411SOL    HW133695   3.718   4.699   9.722  0.0758  0.3688  1.1375
 7411SOL    HW233696   3.741   0.120   9.706 -1.2775  2.0729  2.9868
 7412SOL     OW33697   2.179   1.320  10.600 -0.5048 -0.3057  0.5307
 7412SOL    HW133698   2.130   1.354  10.525 -1.2267 -0.6062  0.8579
 7412SOL    HW233699   2.222   1.397  10.637 -0.6369 -1.4079  3.0145
 7413SOL     OW33700   4.583   4.130   7.151  0.2665  0.1494 -0.6556
 7413SOL    HW133701   4.598   4.132   7.056  1.0625 -1.9319 -0.5737
 7413SOL    HW233702   4.584   4.035   7.159  1.0697  0.0944 -1.4751
 7414SOL     OW33703   2.724   4.697   6.652 -0.1549 -0.6549  0.2760
 7414SOL    HW133704   2.713   4.679   6.745  0.5503 -0.5469  0.3839
 7414SOL    HW233705   2.665   4.637   6.607 -0.6766  0.7588 -0.9580
 7415SOL     OW33706   2.949   0.433   7.916  0.2934 -0.4421 -0.4793
 7415SOL    HW133707   2.930   0.369   7.985 -1.9376 -1.0233 -1.6077
 7415SOL    HW233708   2.869   0.485   7.921  0.3990 -0.3637  0.3411
 7416SOL     OW33709   2.970   4.221  14.116 -0.6961 -0.1129 -0.2213
 7416SOL    HW133710   3.046   4.260  14.074  0.9162 -2.1662  0.7841
 7416SOL    HW233711   2.998   4.138  14.154 -0.8423 -0.1533 -0.1990
 7417SOL     OW33712   3.660   0.586   7.040  0.2916  0.1278  0.2216
 7417SOL    HW133713   3.631   0.668   7.081  0.9262  0.3818  0.1734
 7417SOL    HW233714   3.728   0.554   7.101 -0.4176 -0.1257  0.8804
 7418SOL     OW33715   0.807   4.168  16.506 -0.1995  0.4201  0.2686
 7418SOL    HW133716   0.724   4.145  16.549  0.2345 -1.3075  0.1734
 7418SOL    HW233717   0.858   4.199  16.580  0.8606 -4.1271  1.4311
 7419SOL     OW33718   4.147   1.088   2.318 -0.3608  0.0081 -0.3232
 7419SOL    HW133719   4.053   1.076   2.302 -0.1826 -1.0084 -0.5983
 7419SOL    HW233720   4.179   1.012   2.271 -0.4596 -1.0185  1.2601
 7420SOL     OW33721   0.969   0.744   1.193 -0.3064 -0.4125 -0.1380
 7420SOL    HW133722   0.991   0.717   1.104 -1.1956 -0.4013 -0.3601
 7420SOL    HW233723   1.020   0.825   1.203  0.1809 -0.2521 -3.7377
 7421SOL     OW33724   2.305   2.312   2.344  0.0814 -0.4225 -0.0444
 7421SOL    HW133725   2.347   2.246   2.400  0.4245 -0.9773 -0.9601
 7421SOL    HW233726   2.378   2.364   2.310 -1.5058  2.1871  0.5533
 7422SOL     OW33727   2.598   4.709   9.341  0.2288 -0.4474 -0.2102
 7422SOL    HW133728   2.636   0.047   9.406 -1.7853  1.5376 -0.8433
 7422SOL    HW233729   2.665   4.713   9.273  0.2115  0.5907 -0.1763
 7423SOL     OW33730   4.008   4.375   8.787 -0.0938  0.3507  0.1532
 7423SOL    HW133731   3.936   4.342   8.734  0.5906  1.2076 -1.3120
 7423SOL    HW233732   4.081   4.319   8.759  1.1896  1.1703  1.8736
 7424SOL     OW33733   2.643   2.155   7.167 -0.3950  0.3250 -0.1420
 7424SOL    HW133734   2.640   2.076   7.220 -1.9946  0.0083 -0.6938
 7424SOL    HW233735   2.737   2.171   7.179 -0.6090  1.0600  0.5322
 7425SOL     OW33736   4.284   1.431  12.723  0.1360  0.5370  0.4730
 7425SOL    HW133737   4.368   1.454  12.683 -0.5442 -0.5100 -1.5914
 7425SOL    HW233738   4.270   1.487  12.799 -0.1252  0.7482  0.2664
 7426SOL     OW33739   2.872   2.317   7.243 -0.4015 -0.1214 -0.0972
 7426SOL    HW133740   2.825   2.369   7.307  1.0062  2.7338 -1.3690
 7426SOL    HW233741   2.854   2.356   7.157 -0.4229  1.5857  0.6841
 7427SOL     OW33742   2.382   3.892   4.647  0.3926  0.1894 -0.2481
 7427SOL    HW133743   2.287   3.894   4.641  0.2080 -2.1424  2.0450
 7427SOL    HW233744   2.415   3.921   4.561 -2.5591 -1.0106 -1.7902
 7428SOL     OW33745   4.167   0.581   3.292  0.4810  0.0607  0.7665
 7428SOL    HW133746   4.097   0.630   3.336  2.4245  3.4890  0.0040
 7428SOL    HW233747   4.144   0.594   3.200  0.6886 -0.4603  0.6417
 7429SOL     OW33748   1.255   1.129   5.298 -0.2321 -0.2013  0.1700
 7429SOL    HW133749   1.193   1.197   5.324 -3.4115 -2.0975 -2.3549
 7429SOL    HW233750   1.284   1.085   5.378 -2.8133  0.0186  1.2529
 7430SOL     OW33751   1.388   4.394   7.139  0.0890  0.0447  0.4952
 7430SOL    HW133752   1.392   4.445   7.220  1.0194 -2.8169  2.2719
 7430SOL    HW233753   1.327   4.322   7.156 -1.1700  0.6612 -1.4557
 7431SOL     OW33754   2.674   4.635   8.203  0.2325 -0.2820  0.4228
 7431SOL    HW133755   2.709   4.652   8.291 -0.3601 -0.5862  0.7167
 7431SOL    HW233756   2.688   4.541   8.191 -1.8026 -0.5554  0.2309
 7432SOL     OW33757   4.600   2.433  12.515 -0.7403 -0.5399  0.6838
 7432SOL    HW133758   4.586   2.507  12.455  0.8771  1.0311  2.2311
 7432SOL    HW233759   4.557   2.466  12.593 -1.1515 -1.7436  0.9653
 7433SOL     OW33760   2.895   1.491   9.724  0.2028 -0.1509 -0.2829
 7433SOL    HW133761   2.969   1.431   9.730  1.8569  1.9134 -0.0849
 7433SOL    HW233762   2.933   1.560   9.670 -0.2682 -0.5627 -1.1347
 7434SOL     OW33763   4.719   1.215  17.261  0.1338 -0.1174 -0.5643
 7434SOL    HW133764   0.012   1.122  17.281  1.0012  0.0941 -0.2116
 7434SOL    HW233765   4.697   1.218  17.168 -1.2793 -0.6453 -0.2518
 7435SOL     OW33766   3.855   2.519   3.859  0.1653  0.2006 -0.4222
 7435SOL    HW133767   3.878   2.525   3.952 -0.6350  1.2233 -0.2944
 7435SOL    HW233768   3.902   2.598   3.831  0.4526 -0.2332 -1.1579
 7436SOL     OW33769   1.675   3.710   8.112  0.0905 -0.2201  0.1554
 7436SOL    HW133770   1.698   3.764   8.036 -0.5127  1.6790  1.3242
 7436SOL    HW233771   1.746   3.739   8.168 -2.1614  1.0470  2.3447
 7437SOL     OW33772   2.466   1.952   4.256 -0.1769 -0.0151  0.0979
 7437SOL    HW133773   2.410   2.017   4.299 -1.2089 -1.8934  1.6023
 7437SOL    HW233774   2.490   2.002   4.178  2.6189  2.1952  2.3731
 7438SOL     OW33775   3.943   3.915  10.435  0.3768 -0.0955  0.2767
 7438SOL    HW133776   4.002   3.979  10.475  1.0219 -0.6017  0.1402
 7438SOL    HW233777   3.991   3.875  10.362  1.4034 -1.8074  1.8648
 7439SOL     OW33778   1.658   4.097   9.338 -0.0479  0.0173 -0.2563
 7439SOL    HW133779   1.605   4.024   9.371  1.0351 -0.6436  0.0217
 7439SOL    HW233780   1.709   4.044   9.278 -0.3053  1.6501 -1.9296
 7440SOL     OW33781   0.536   4.602  14.829  0.4552 -0.3041 -0.2828
 7440SOL    HW133782   0.610   4.650  14.868  0.1884 -0.3353  0.2661
 7440SOL    HW233783   0.583   4.552  14.762 -0.7472 -1.5480 -0.1817
 7441SOL     OW33784   2.395   1.701  13.262 -0.3618  0.4370  0.3874
 7441SOL    HW133785   2.357   1.702  13.349 -0.5797 -2.1109  0.3257
 7441SOL    HW233786   2.488   1.679  13.272 -0.9106 -1.8837  0.3780
 7442SOL     OW33787   1.930   3.768   8.792  0.1023  0.0241  0.0008
 7442SOL    HW133788   1.954   3.812   8.874  0.9475  0.5635 -0.5408
 7442SOL    HW233789   1.994   3.698   8.799  0.8742  0.8173  0.9340
 7443SOL     OW33790   4.074   2.594  13.826  0.2888  0.5982 -0.2626
 7443SOL    HW133791   4.060   2.677  13.871 -1.6775 -0.2752  0.7729
 7443SOL    HW233792   4.035   2.536  13.892  0.2440 -0.3141 -1.0988
 7444SOL     OW33793   0.467   3.536   3.202 -0.6399 -0.4908 -0.0029
 7444SOL    HW133794   0.489   3.444   3.213  3.0709  0.4998  0.9558
 7444SOL    HW233795   0.385   3.538   3.154 -0.3719  1.4009 -0.4195
 7445SOL     OW33796   0.664   0.941   6.617  0.7508 -0.2044  0.0205
 7445SOL    HW133797   0.738   0.949   6.556  1.9476 -0.1939  1.4873
 7445SOL    HW233798   0.626   1.028   6.607 -1.3719 -1.1051  0.1718
 7446SOL     OW33799   1.248   2.196  13.851 -0.0548 -0.3326  0.8675
 7446SOL    HW133800   1.301   2.121  13.824  0.5442  0.5914 -0.4545
 7446SOL    HW233801   1.288   2.272  13.809  1.4549 -0.7344  1.5739
 7447SOL     OW33802   1.491   0.573   0.645 -0.0984 -0.0338  1.0460
 7447SOL    HW133803   1.558   0.641   0.653  1.6506 -1.6112 -0.3398
 7447SOL    HW233804   1.461   0.561   0.735  1.5000  1.8786  1.8194
 7448SOL     OW33805   2.774   2.981  15.237 -0.1052  0.1791 -0.0693
 7448SOL    HW133806   2.754   2.888  15.231 -0.0862  0.1706 -0.0013
 7448SOL    HW233807   2.694   3.034  15.231  0.1280  0.4978 -0.4070
 7449SOL     OW33808   2.744   1.242   8.375 -0.1116 -0.4984 -0.5159
 7449SOL    HW133809   2.664   1.265   8.328 -0.7260  0.1635  0.8842
 7449SOL    HW233810   2.730   1.158   8.417 -5.4864  1.3089  1.2910
 7450SOL     OW33811   0.687   0.140   1.675 -0.1191 -0.0326 -0.4816
 7450SOL    HW133812   0.604   0.186   1.685  1.1727  2.1869  0.1546
 7450SOL    HW233813   0.730   0.178   1.751  2.0049  1.6728 -2.5162
 7451SOL     OW33814   1.915   3.474  15.468  0.3923 -0.7192  0.0929
 7451SOL    HW133815   1.941   3.420  15.543 -0.9247 -1.0832  0.2940
 7451SOL    HW233816   1.832   3.430  15.450 -0.4747  1.3320 -0.9456
 7452SOL     OW33817   2.575   0.392  16.830  0.2594 -0.4341  0.3157
 7452SOL    HW133818   2.551   0.348  16.748 -3.8032  2.7855 -0.2317
 7452SOL    HW233819   2.489   0.391  16.871  0.6380 -1.1070  1.0776
 7453SOL     OW33820   3.229   3.230   1.507 -0.6264 -0.1442  0.1925
 7453SOL    HW133821   3.201   3.166   1.573  1.2944 -0.8931  0.2895
 7453SOL    HW233822   3.147   3.275   1.487 -1.2297 -1.7224 -0.8079
 7454SOL     OW33823   3.489   1.288   2.444  0.4988 -0.1292  0.0012
 7454SOL    HW133824   3.529   1.314   2.526 -0.1227 -2.3884  1.0280
 7454SOL    HW233825   3.415   1.237   2.478  0.6669 -1.7079 -1.9481
 7455SOL     OW33826   4.717   4.595   6.857  0.2899 -0.0340 -0.4018
 7455SOL    HW133827   4.685   4.504   6.855  1.4035 -0.4292 -0.0187
 7455SOL    HW233828   4.703   4.616   6.949  0.6365 -2.2089  0.1519
 7456SOL     OW33829   1.378   2.299  11.814  0.3954  0.4271  0.4401
 7456SOL    HW133830   1.322   2.287  11.890 -0.8115 -1.3724 -0.7265
 7456SOL    HW233831   1.438   2.354  11.863  0.5633  0.4018  0.2650
 7457SOL     OW33832   0.019   3.982   7.525  0.0137 -0.4861 -0.0502
 7457SOL    HW133833   0.057   3.916   7.582  0.9702 -0.8309 -1.0999
 7457SOL    HW233834   4.655   3.993   7.566  0.8451  4.1064  0.5648
 7458SOL     OW33835   2.242   4.632   5.247 -0.1206 -0.0199  0.7057
 7458SOL    HW133836   2.233   4.647   5.342 -1.3586 -1.0826  0.7533
 7458SOL    HW233837   2.238   4.720   5.209 -0.8537 -0.8203 -1.0565
 7459SOL     OW33838   1.915   1.254   4.388 -0.2938  0.0183  0.0440
 7459SOL    HW133839   2.008   1.259   4.367 -0.5785  4.1884 -0.1540
 7459SOL    HW233840   1.918   1.193   4.462  2.8599 -1.9882 -1.7151
 7460SOL     OW33841   2.752   0.824  17.519  0.3387  0.1637 -0.6025
 7460SOL    HW133842   2.819   0.880  17.480 -2.0256  0.9560 -3.5504
 7460SOL    HW233843   2.794   0.738  17.520 -1.6272 -0.7825  0.8490
 7461SOL     OW33844   2.673   0.680   2.765 -0.8543 -0.1365  0.4535
 7461SOL    HW133845   2.619   0.729   2.703  0.6527  2.0130  0.8359
 7461SOL    HW233846   2.733   0.625   2.714 -0.7753  1.0260 -0.6967
 7462SOL     OW33847   0.806   0.593   3.927  0.1162 -1.1112 -0.0382
 7462SOL    HW133848   0.717   0.629   3.924  0.2270 -0.7415  1.1026
 7462SOL    HW233849   0.847   0.613   3.843  0.6627  1.9430  0.9202
 7463SOL     OW33850   3.097   4.571   8.215  0.1080 -0.6222  0.4066
 7463SOL    HW133851   3.101   4.566   8.119  0.6365 -1.5940  0.4780
 7463SOL    HW233852   3.048   4.650   8.237 -0.0527 -0.5893 -0.0595
 7464SOL     OW33853   3.032   1.018   6.563 -0.2659 -0.5375 -0.0666
 7464SOL    HW133854   3.104   0.960   6.537 -0.5454 -0.8819 -0.0672
 7464SOL    HW233855   3.018   1.092   6.503 -1.1195 -0.5621  0.1097
 7465SOL     OW33856   0.571   2.545  12.145  0.3009  0.1465  0.5557
 7465SOL    HW133857   0.662   2.575  12.152  0.0645  0.7598  1.0390
 7465SOL    HW233858   0.565   2.475  12.080 -0.4743  0.5182  0.2357
 7466SOL     OW33859   4.033   1.168   3.000 -0.0124 -0.0716  0.7239
 7466SOL    HW133860   3.974   1.201   2.932 -2.3388 -2.9072  1.3960
 7466SOL    HW233861   3.973   1.112   3.048  0.2131 -2.1242 -1.4092
 7467SOL     OW33862   1.712   2.474   7.538 -0.2441 -0.1568 -0.2085
 7467SOL    HW133863   1.697   2.549   7.596 -0.8547  0.0083 -0.5779
 7467SOL    HW233864   1.627   2.474   7.494  0.0617 -0.7656 -0.7973
 7468SOL     OW33865   0.351   3.715  11.433  0.1696 -0.2526 -0.4117
 7468SOL    HW133866   0.269   3.683  11.472 -1.5961  0.8365 -3.2060
 7468SOL    HW233867   0.356   3.648  11.364  0.7151 -1.3961  0.7315
 7469SOL     OW33868   0.807   1.363  15.711  0.9044 -0.5265  0.6366
 7469SOL    HW133869   0.896   1.394  15.692 -0.5833  3.1084 -0.3753
 7469SOL    HW233870   0.815   1.299  15.782  1.3216 -1.7691 -0.5338
 7470SOL     OW33871   2.754   4.138   6.042 -0.2609 -0.0910 -0.5985
 7470SOL    HW133872   2.726   4.207   5.982  0.1159  0.1927 -0.4486
 7470SOL    HW233873   2.673   4.090   6.060 -1.4535  1.7299 -1.1753
 7471SOL     OW33874   2.111   0.169   3.307 -0.4162  0.1696  0.2196
 7471SOL    HW133875   2.103   0.264   3.300 -0.9978  0.0693 -0.4466
 7471SOL    HW233876   2.153   0.141   3.225 -1.1314 -1.4053  0.3886
 7472SOL     OW33877   1.158   0.890   4.015  0.5615  0.0271 -0.0840
 7472SOL    HW133878   1.249   0.861   4.012  0.7390  0.4128  1.5455
 7472SOL    HW233879   1.148   0.855   4.103 -2.5940  0.5479 -0.2615
 7473SOL     OW33880   2.452   3.859  15.400 -0.1740 -0.6848  0.2954
 7473SOL    HW133881   2.388   3.798  15.438  0.2878 -1.1393  0.3460
 7473SOL    HW233882   2.476   3.799  15.329  1.1670  1.1135 -0.7814
 7474SOL     OW33883   3.317   4.184   7.217  0.5188 -0.3441 -0.3563
 7474SOL    HW133884   3.360   4.126   7.154 -0.2420  0.6678 -1.8133
 7474SOL    HW233885   3.394   4.219   7.261  1.6866 -0.4266 -2.3628
 7475SOL     OW33886   4.169   3.025   9.179  0.0591 -0.2049 -0.1136
 7475SOL    HW133887   4.146   3.089   9.111 -1.4198  0.2814  0.8250
 7475SOL    HW233888   4.115   2.951   9.151 -0.9373 -0.0551  1.3843
 7476SOL     OW33889   3.014   2.689   6.763 -0.0060 -0.2519  0.2096
 7476SOL    HW133890   2.927   2.691   6.803 -0.8328 -0.4931 -1.5662
 7476SOL    HW233891   3.048   2.607   6.799  0.3601 -0.0065  0.4180
 7477SOL     OW33892   3.959   4.034  13.842  0.1602  0.4424  0.8351
 7477SOL    HW133893   3.901   4.034  13.918 -0.1665 -2.7238  0.5815
 7477SOL    HW233894   3.893   4.044  13.774  2.3441  1.2401 -1.1461
 7478SOL     OW33895   1.522   3.358   1.732 -0.1949  0.3222  0.0180
 7478SOL    HW133896   1.606   3.393   1.762  0.2708  0.1595 -1.1172
 7478SOL    HW233897   1.547   3.272   1.700 -1.3170  1.5203 -4.0262
 7479SOL     OW33898   1.784   3.822   4.661 -0.6148  0.0468  0.2054
 7479SOL    HW133899   1.766   3.729   4.667  1.4479 -0.4677 -1.5328
 7479SOL    HW233900   1.846   3.824   4.589  1.9141  2.5323  2.4242
 7480SOL     OW33901   0.702   1.747  10.154  0.1679 -0.1500 -0.1400
 7480SOL    HW133902   0.745   1.786  10.229 -2.2254 -1.4959  1.9352
 7480SOL    HW233903   0.767   1.760  10.084 -0.8704 -2.8097 -1.6029
 7481SOL     OW33904   4.537   2.380   6.565 -0.6162  0.4756  0.0827
 7481SOL    HW133905   4.498   2.346   6.485 -1.2172 -0.8861  0.9511
 7481SOL    HW233906   4.514   2.473   6.560 -1.2183  0.1967 -2.3601
 7482SOL     OW33907   3.976   0.181  14.900  0.2750 -0.1400 -0.3104
 7482SOL    HW133908   3.882   0.201  14.898  0.5153  0.9513 -0.7435
 7482SOL    HW233909   4.014   0.220  14.821 -1.1055 -0.5403 -1.1646
 7483SOL     OW33910   2.586   3.775   7.104 -0.1106  0.1595 -0.9737
 7483SOL    HW133911   2.675   3.748   7.084 -0.2641 -1.1759  0.1590
 7483SOL    HW233912   2.597   3.862   7.141  0.0480 -0.1516 -0.2946
 7484SOL     OW33913   1.988   2.260   4.839 -0.3851  0.1970  1.0642
 7484SOL    HW133914   2.038   2.192   4.882 -0.2451 -2.6174 -3.5579
 7484SOL    HW233915   2.005   2.334   4.897 -2.1693  0.8407  0.7706
 7485SOL     OW33916   1.126   0.779   4.254  0.0964 -0.4048  0.3042
 7485SOL    HW133917   1.121   0.736   4.340 -1.0648 -1.5575 -0.3375
 7485SOL    HW233918   1.034   0.806   4.247  0.8441  2.5806  1.9351
 7486SOL     OW33919   1.370   2.486   1.321 -0.1260 -0.2040 -0.0628
 7486SOL    HW133920   1.346   2.527   1.238 -0.4735  1.8865  1.0575
 7486SOL    HW233921   1.461   2.466   1.303 -0.6692 -1.2891 -1.5977
 7487SOL     OW33922   3.271   1.974   6.861  0.7504  0.2386 -0.1730
 7487SOL    HW133923   3.346   1.916   6.864 -0.7606 -1.6403  0.9865
 7487SOL    HW233924   3.240   1.942   6.776  2.5165 -1.6232 -0.0896
 7488SOL     OW33925   3.091   0.147  10.629  0.5153 -0.2191 -0.2631
 7488SOL    HW133926   3.057   0.228  10.589  2.4175  0.3932 -0.6271
 7488SOL    HW233927   3.158   0.180  10.689 -0.8132  0.2165  0.9690
 7489SOL     OW33928   2.210   1.826   5.251 -0.0337 -0.0258 -0.3833
 7489SOL    HW133929   2.269   1.875   5.194  0.6360 -1.0616 -0.5851
 7489SOL    HW233930   2.147   1.788   5.190 -0.5789 -0.1258  0.2474
 7490SOL     OW33931   4.263   0.500  15.709 -0.2173 -0.3015 -0.6902
 7490SOL    HW133932   4.260   0.594  15.691 -3.4757 -0.6580 -1.9831
 7490SOL    HW233933   4.344   0.486  15.661 -1.5231  0.9448 -3.2211
 7491SOL     OW33934   3.856   1.642  13.155 -1.1143 -0.7431  0.1211
 7491SOL    HW133935   3.928   1.693  13.191  1.3556 -2.4833 -2.3393
 7491SOL    HW233936   3.858   1.576  13.225 -1.6192  0.3602  1.1691
 7492SOL     OW33937   3.778   1.701  16.565 -0.6563 -0.2244 -0.1887
 7492SOL    HW133938   3.693   1.692  16.524 -1.0054  0.4974  0.3813
 7492SOL    HW233939   3.761   1.718  16.658 -0.3232 -2.9591  0.3744
 7493SOL     OW33940   3.789   2.726   8.698 -0.9190 -0.0175 -0.4017
 7493SOL    HW133941   3.840   2.789   8.647  0.8244 -0.3914  0.8714
 7493SOL    HW233942   3.713   2.783   8.708 -1.2949 -0.3767 -1.2534
 7494SOL     OW33943   1.732   2.937  12.700  0.1843  0.6502  0.1578
 7494SOL    HW133944   1.746   3.031  12.713 -0.5059  0.8045 -0.2222
 7494SOL    HW233945   1.802   2.913  12.640  0.9523  1.6286  0.6599
 7495SOL     OW33946   1.870   0.298   7.802  0.4641 -0.4674 -0.0381
 7495SOL    HW133947   1.952   0.332   7.836 -0.7053  1.4906  0.8873
 7495SOL    HW233948   1.859   0.352   7.723  0.2534 -0.8615 -0.2760
 7496SOL     OW33949   2.412   3.485   8.538 -0.0916 -0.0205  0.0162
 7496SOL    HW133950   2.332   3.435   8.553  0.5155 -0.6532  1.1085
 7496SOL    HW233951   2.386   3.545   8.468  3.5189  1.6961  0.1530
 7497SOL     OW33952   0.639   4.055   5.707 -0.4386  0.2024 -0.0787
 7497SOL    HW133953   0.566   4.025   5.653 -1.6459  0.4168  1.4480
 7497SOL    HW233954   0.674   3.971   5.737  0.5682  0.7816  0.3536
 7498SOL     OW33955   4.554   1.735   3.397 -0.2784 -0.7808 -0.5633
 7498SOL    HW133956   4.503   1.794   3.453 -0.0111 -1.0109 -0.0680
 7498SOL    HW233957   4.497   1.663   3.424 -2.0474  1.0247  0.4830
 7499SOL     OW33958   1.658   3.320   6.017  0.1711  0.7984  0.2329
 7499SOL    HW133959   1.624   3.406   5.994 -0.1492  0.6415  0.1195
 7499SOL    HW233960   1.746   3.320   5.978  0.1447  2.3588  0.1773
 7500SOL     OW33961   2.852   2.714   5.197 -0.2579  0.0993  0.4273
 7500SOL    HW133962   2.936   2.677   5.225  0.2663 -0.4213 -1.8396
 7500SOL    HW233963   2.804   2.686   5.275  0.0391  0.0588  0.5946
 7501SOL     OW33964   2.950   0.932   8.713 -0.1139 -0.2292  0.0217
 7501SOL    HW133965   3.045   0.938   8.703  0.0415 -0.0224  1.7047
 7501SOL    HW233966   2.927   0.881   8.636  0.0225 -0.9857  0.4875
 7502SOL     OW33967   1.131   3.556   7.247 -0.2894 -0.2477 -0.0075
 7502SOL    HW133968   1.089   3.639   7.269 -0.8347  0.2992 -3.0414
 7502SOL    HW233969   1.120   3.560   7.152 -0.1737  3.2041  0.1211
 7503SOL     OW33970   0.421   0.354  12.694  0.1785 -0.6616 -0.4826
 7503SOL    HW133971   0.481   0.322  12.627 -1.0736 -1.9751 -0.9638
 7503SOL    HW233972   0.339   0.325  12.655  0.0791 -1.0980  0.0524
 7504SOL     OW33973   3.325   3.163  11.286 -0.1485 -0.2160 -0.7057
 7504SOL    HW133974   3.335   3.228  11.356  1.3328  0.8371 -1.9003
 7504SOL    HW233975   3.297   3.086  11.336 -2.0173 -0.1378 -1.6525
 7505SOL     OW33976   3.073   0.320  13.753  0.1932 -0.1396  0.9912
 7505SOL    HW133977   3.126   0.245  13.727  2.7837  2.4630 -1.2525
 7505SOL    HW233978   3.146   0.380  13.770 -0.8757  1.1689  0.9820
 7506SOL     OW33979   3.207   2.869  11.744 -0.5057 -0.4589  0.3112
 7506SOL    HW133980   3.151   2.797  11.774  1.7837 -0.7100  4.0760
 7506SOL    HW233981   3.171   2.941  11.796  0.2104 -0.6591  1.0871
 7507SOL     OW33982   2.129   4.561   8.152 -0.7253  0.0703 -0.2379
 7507SOL    HW133983   2.221   4.586   8.142 -0.4738 -1.1256 -0.9447
 7507SOL    HW233984   2.084   4.641   8.179  2.4827  0.7992  2.8848
 7508SOL     OW33985   3.057   2.617   5.584 -0.3717  0.3755  0.5545
 7508SOL    HW133986   3.022   2.563   5.512  1.4391  1.9794 -1.5157
 7508SOL    HW233987   3.063   2.539   5.640  0.7403  0.1275  0.0740
 7509SOL     OW33988   0.404   0.885   8.161 -0.0632  0.3600 -0.5120
 7509SOL    HW133989   0.431   0.824   8.092 -1.8694 -2.4965  1.3410
 7509SOL    HW233990   0.463   0.959   8.145  0.5467  0.8306  3.8644
 7510SOL     OW33991   3.443   4.687  12.459 -0.1889 -0.0667 -0.0404
 7510SOL    HW133992   3.520   4.639  12.489  0.8685  1.4775 -0.2537
 7510SOL    HW233993   3.488   0.029  12.403 -0.2532  0.2974  0.3276
 7511SOL     OW33994   3.399   0.009   3.036 -0.1421 -0.3793  0.1174
 7511SOL    HW133995   3.312   4.692   3.048 -0.0024 -0.0034  2.3804
 7511SOL    HW233996   3.383   0.097   3.004  0.0607  0.3139  1.9031
 7512SOL     OW33997   4.492   1.361   8.968 -0.0661 -0.2262  0.3256
 7512SOL    HW133998   4.529   1.291   9.021 -0.2987 -0.3942  0.2655
 7512SOL    HW233999   4.521   1.438   9.018 -1.3574  0.7043 -0.3534
 7513SOL     OW34000   2.382   0.603   6.425  0.0116 -0.2423  0.4458
 7513SOL    HW134001   2.332   0.669   6.377  0.5191 -0.1844  0.0065
 7513SOL    HW234002   2.316   0.536   6.444 -0.2797  0.4780  2.0419
 7514SOL     OW34003   3.569   0.455   0.231  0.2909 -0.4820  0.0395
 7514SOL    HW134004   3.507   0.383   0.243 -0.1658  0.1168  1.2645
 7514SOL    HW234005   3.505   0.523   0.253 -1.5952 -2.0654 -0.4736
 7515SOL     OW34006   4.358   2.557  14.009  0.0276  0.6269  0.1701
 7515SOL    HW134007   4.294   2.564  13.938  1.4303 -0.5418 -1.2158
 7515SOL    HW234008   4.394   2.646  14.019  0.6215  0.1624  2.1082
 7516SOL     OW34009   1.935   0.731   7.016  0.3006 -0.0527  0.3221
 7516SOL    HW134010   1.887   0.655   7.048 -1.7942  0.5242 -1.4562
 7516SOL    HW234011   1.936   0.720   6.921 -0.4488 -1.4975  0.4778
 7517SOL     OW34012   1.096   0.649   8.346 -0.1315 -0.3994 -0.3502
 7517SOL    HW134013   1.075   0.741   8.358  0.5987 -0.6149  2.4931
 7517SOL    HW234014   1.094   0.621   8.437 -1.2544 -0.1878 -0.3099
 7518SOL     OW34015   1.937   4.350   6.884 -0.5713  0.1986  0.6657
 7518SOL    HW134016   1.936   4.261   6.917  1.5506 -0.5155 -1.1843
 7518SOL    HW234017   1.983   4.334   6.801  1.8878  1.5336  1.7482
 7519SOL     OW34018   3.200   0.176   1.836  0.2183  0.6627 -0.0535
 7519SOL    HW134019   3.171   0.089   1.864 -0.5101  1.2954  1.1532
 7519SOL    HW234020   3.126   0.235   1.851  1.5161  2.2646 -0.0259
 7520SOL     OW34021   2.765   2.026   4.760 -0.1036 -0.6299 -0.2121
 7520SOL    HW134022   2.833   1.996   4.699 -1.0859 -0.7871 -1.2519
 7520SOL    HW234023   2.690   2.009   4.702 -0.5183  1.1928 -0.1872
 7521SOL     OW34024   1.278   2.327   5.908  0.4860 -0.2593  0.4080
 7521SOL    HW134025   1.286   2.399   5.845  1.2899 -1.0395 -0.3965
 7521SOL    HW234026   1.190   2.347   5.939  1.0407  0.1132  1.7309
 7522SOL     OW34027   1.851   2.271   6.401  0.1293  0.0376  0.6961
 7522SOL    HW134028   1.887   2.356   6.425 -1.0607  0.3574  1.3317
 7522SOL    HW234029   1.806   2.234   6.477 -0.0294  2.8533  1.9854
 7523SOL     OW34030   2.865   1.951   3.181  0.2870  0.6207 -0.0973
 7523SOL    HW134031   2.938   1.896   3.153 -1.5565 -0.1105 -3.4106
 7523SOL    HW234032   2.799   1.927   3.116 -0.2892  0.8807  0.3825
 7524SOL     OW34033   1.983   1.188  13.897  0.0911  0.4620  0.8454
 7524SOL    HW134034   1.999   1.135  13.975 -0.0660  1.2180  1.3888
 7524SOL    HW234035   1.913   1.239  13.936 -0.5523 -0.7774  1.3001
 7525SOL     OW34036   1.247   1.372   4.558  0.1089 -0.5704  0.0690
 7525SOL    HW134037   1.192   1.308   4.514 -1.0023 -0.2481  0.9956
 7525SOL    HW234038   1.190   1.368   4.635 -1.7040 -0.4917 -1.2778
 7526SOL     OW34039   3.667   0.247   6.778 -0.9610  0.1243  0.0660
 7526SOL    HW134040   3.739   0.206   6.730 -1.5402 -0.0573 -0.6476
 7526SOL    HW234041   3.634   0.293   6.700 -1.5196 -1.2604 -0.5200
 7527SOL     OW34042   4.066   2.592   2.571  0.1246  0.1537 -0.2439
 7527SOL    HW134043   4.120   2.670   2.558 -0.3476  0.7491  1.3547
 7527SOL    HW234044   4.107   2.525   2.517 -1.5323 -1.3875  0.4061
 7528SOL     OW34045   2.414   3.417  17.675  0.2905 -0.1189 -0.0619
 7528SOL    HW134046   2.508   3.432  17.666  0.6889 -3.0566 -0.9130
 7528SOL    HW234047   2.421   3.349   0.051  3.7522 -0.5869 -0.9137
 7529SOL     OW34048   2.585   0.017   8.663 -0.4086  0.7447  0.3817
 7529SOL    HW134049   2.519   4.677   8.693 -2.4599  1.7554 -2.0847
 7529SOL    HW234050   2.551   0.095   8.707 -1.8612  0.6195 -0.5345
 7530SOL     OW34051   4.048   4.294   7.726 -0.4110  0.4485 -0.0493
 7530SOL    HW134052   3.992   4.224   7.692  0.0616 -0.5318  1.1767
 7530SOL    HW234053   4.059   4.361   7.659 -3.7222  1.6202  0.5841
 7531SOL     OW34054   4.506   0.974   5.205 -0.3115  0.3217 -0.0321
 7531SOL    HW134055   4.598   0.949   5.192  0.7002  3.5443  1.1289
 7531SOL    HW234056   4.503   1.040   5.135  1.6312  3.7574  3.1467
 7532SOL     OW34057   2.283   2.415   5.315  0.0265  0.2919  0.1282
 7532SOL    HW134058   2.213   2.428   5.379  0.4966 -2.9925  1.2967
 7532SOL    HW234059   2.333   2.497   5.322 -0.9014  0.9704 -1.2445
 7533SOL     OW34060   1.405   1.096   4.229 -0.2550 -0.2515  0.7487
 7533SOL    HW134061   1.399   1.073   4.136 -1.9683  0.8479  0.5853
 7533SOL    HW234062   1.499   1.113   4.238 -0.0411 -0.6130 -0.7648
 7534SOL     OW34063   0.801   1.793  16.917  0.1088 -0.0996 -0.3724
 7534SOL    HW134064   0.807   1.802  17.012  0.5706  0.4975 -0.4589
 7534SOL    HW234065   0.758   1.708  16.912  1.0282 -0.4766 -1.8698
 7535SOL     OW34066   3.336   0.104   4.802 -0.3071  0.1865  0.2852
 7535SOL    HW134067   3.345   0.012   4.781  0.1289  0.4054 -0.4647
 7535SOL    HW234068   3.373   0.114   4.890 -1.5765  0.7017  0.7630
 7536SOL     OW34069   4.048   4.530   6.276  0.2471  0.1941 -0.7202
 7536SOL    HW134070   4.018   4.466   6.341 -0.4177  1.8400  0.5819
 7536SOL    HW234071   4.133   4.491   6.256  0.6711  0.2374  0.9760
 7537SOL     OW34072   1.138   2.903   9.678 -0.1625  0.0911  0.1841
 7537SOL    HW134073   1.134   2.952   9.596 -0.9518 -0.6956 -0.2405
 7537SOL    HW234074   1.231   2.908   9.700 -0.1842 -1.3984  0.6351
 7538SOL     OW34075   0.329   3.500   5.522  0.0724 -0.0337  0.3604
 7538SOL    HW134076   0.247   3.451   5.511 -0.1891 -0.1485  2.8564
 7538SOL    HW234077   0.300   3.571   5.463  0.8255  0.1818  0.2509
 7539SOL     OW34078   1.843   1.539   7.784  0.7824 -0.3711  0.1273
 7539SOL    HW134079   1.875   1.462   7.832 -1.2145 -1.1105  0.3148
 7539SOL    HW234080   1.870   1.619   7.829 -0.6948 -0.4350  1.1629
 7540SOL     OW34081   2.029   4.371   9.042 -0.1387 -0.3437  0.2958
 7540SOL    HW134082   2.094   4.309   9.010  1.0173  0.8383  0.3712
 7540SOL    HW234083   2.086   4.446   9.057 -1.8665  1.2140 -0.9103
 7541SOL     OW34084   3.251   0.707   2.568  0.8820  0.0347 -0.2407
 7541SOL    HW134085   3.205   0.784   2.602 -2.3049 -1.0932 -1.9783
 7541SOL    HW234086   3.180   0.663   2.520 -0.0700 -0.2637  1.4448
 7542SOL     OW34087   2.797   3.314  11.033 -0.3197 -0.1034 -0.4033
 7542SOL    HW134088   2.726   3.336  11.093  0.5383  0.0002  0.5708
 7542SOL    HW234089   2.871   3.289  11.088  0.6424  0.3704 -1.4781
 7543SOL     OW34090   2.084   2.725  17.344  0.4344  0.6666  0.1573
 7543SOL    HW134091   2.031   2.802  17.324 -0.6089  0.3712  1.7550
 7543SOL    HW234092   2.040   2.694  17.424 -1.2991  0.1045 -1.0185
 7544SOL     OW34093   0.808   2.154   5.425  0.0286 -0.1934  0.0248
 7544SOL    HW134094   0.790   2.248   5.419 -0.5271  0.0003  4.5568
 7544SOL    HW234095   0.770   2.134   5.511 -0.1932  0.9199  0.1803
 7545SOL     OW34096   4.215   2.025  13.292 -0.3534 -0.3260 -0.2958
 7545SOL    HW134097   4.282   2.091  13.308  0.9855 -1.3367 -1.6334
 7545SOL    HW234098   4.265   1.965  13.236 -1.2957 -0.3275 -1.1540
 7546SOL     OW34099   3.763   3.504   4.059  0.3300  0.0027 -0.1217
 7546SOL    HW134100   3.751   3.599   4.052 -0.2804 -0.2089 -2.0213
 7546SOL    HW234101   3.849   3.495   4.019  0.1421 -0.7730 -0.3651
 7547SOL     OW34102   1.382   4.664   7.799  0.6335 -0.4270  0.0136
 7547SOL    HW134103   1.405   4.652   7.891 -1.0126  2.5712  0.7926
 7547SOL    HW234104   1.298   4.709   7.800 -0.0554 -1.6062 -3.1397
 7548SOL     OW34105   2.003   1.475   6.216  0.2162 -0.3630 -1.1648
 7548SOL    HW134106   2.003   1.499   6.309 -1.0026 -0.1453 -1.2293
 7548SOL    HW234107   2.086   1.429   6.200  0.0787 -0.4809 -1.5324
 7549SOL     OW34108   3.048   0.132   8.237 -0.4633  0.3083  0.5383
 7549SOL    HW134109   3.113   0.174   8.294  0.7394 -0.1716 -0.4817
 7549SOL    HW234110   3.108   0.117   8.164 -1.4562 -0.7669 -0.0423
 7550SOL     OW34111   2.280   0.349   8.951 -0.1578  0.1498 -0.2783
 7550SOL    HW134112   2.261   0.418   9.015  0.7011 -0.5240  0.7113
 7550SOL    HW234113   2.210   0.353   8.887 -0.6185 -0.9964  0.1629
 7551SOL     OW34114   3.135   1.860  17.660 -0.3398  0.2034  0.1324
 7551SOL    HW134115   3.110   1.937   0.020  0.5069  0.2771  0.4468
 7551SOL    HW234116   3.230   1.870  17.663 -0.1900 -1.5850  1.5789
 7552SOL     OW34117   4.517   4.589  14.048 -0.2153 -0.2406  0.8162
 7552SOL    HW134118   4.583   4.651  14.079  0.6686 -1.0714  0.6057
 7552SOL    HW234119   4.498   4.545  14.131 -0.3220 -1.6011  0.0770
 7553SOL     OW34120   1.897   3.474   8.358 -0.6087  0.7502  0.1732
 7553SOL    HW134121   1.920   3.448   8.269  1.4650  1.5668  0.4830
 7553SOL    HW234122   1.885   3.568   8.348 -1.8326  0.4864 -1.0591
 7554SOL     OW34123   1.343   2.158  10.463  0.1994  0.1821 -0.7111
 7554SOL    HW134124   1.253   2.151  10.493  0.7718 -2.5101  0.3601
 7554SOL    HW234125   1.343   2.248  10.428 -1.9065  0.3952 -0.1527
 7555SOL     OW34126   1.032   1.499  11.550  0.0639 -0.1639 -0.5692
 7555SOL    HW134127   1.018   1.567  11.616 -2.0260 -2.0133  0.9111
 7555SOL    HW234128   0.979   1.429  11.587 -1.6037  0.5172 -1.6898
 7556SOL     OW34129   3.510   1.825   2.323 -0.2304  0.4314  0.1786
 7556SOL    HW134130   3.550   1.757   2.270 -1.5821 -1.1098  1.1444
 7556SOL    HW234131   3.448   1.868   2.264  0.5200 -0.8260 -1.5103
 7557SOL     OW34132   2.947   0.307   6.702 -0.4596 -0.8298  0.7848
 7557SOL    HW134133   3.004   0.379   6.729 -1.9583  0.6419  0.0627
 7557SOL    HW234134   2.865   0.350   6.680  1.6136  1.9145 -1.6256
 7558SOL     OW34135   1.463   1.108  15.108  0.3568  0.5101 -0.5654
 7558SOL    HW134136   1.502   1.025  15.137  0.4109  0.7722  0.1117
 7558SOL    HW234137   1.490   1.107  15.017  2.0067 -1.6475 -0.0608
 7559SOL     OW34138   4.053   2.772   6.391 -0.1789 -0.1720 -0.1118
 7559SOL    HW134139   4.057   2.857   6.433  0.6599  0.1268 -0.8019
 7559SOL    HW234140   4.059   2.801   6.300 -1.2247 -0.7322 -0.3670
 7560SOL     OW34141   1.943   2.390   9.452  0.3141  0.4300 -0.2029
 7560SOL    HW134142   1.973   2.313   9.501 -1.2178  0.0083  0.0551
 7560SOL    HW234143   2.022   2.439   9.430 -0.9568  1.5508 -2.2401
 7561SOL     OW34144   0.737   1.940   7.168  0.2640 -0.1173  0.1092
 7561SOL    HW134145   0.731   1.863   7.111  0.8102 -0.5359  0.6107
 7561SOL    HW234146   0.649   1.955   7.202 -0.2500  0.4434 -1.4653
 7562SOL     OW34147   2.639   2.137   2.847 -0.0869 -0.7898  0.2738
 7562SOL    HW134148   2.629   2.093   2.932  0.9069 -1.0156  0.2725
 7562SOL    HW234149   2.545   2.148   2.829  0.2506 -0.4406 -1.1954
 7563SOL     OW34150   1.246   4.018  11.318  0.0597  0.0707  0.1294
 7563SOL    HW134151   1.160   4.014  11.277  1.0989  2.2191 -2.2478
 7563SOL    HW234152   1.235   3.945  11.379  3.7290  0.1683  0.8746
 7564SOL     OW34153   2.786   0.135   4.654 -0.6034 -0.1299 -0.0561
 7564SOL    HW134154   2.775   0.040   4.657  1.3360 -0.3161  0.9764
 7564SOL    HW234155   2.728   0.155   4.728 -0.4813 -2.2186  0.5895
 7565SOL     OW34156   4.698   2.489  14.428  0.2698 -0.2521  0.0750
 7565SOL    HW134157   4.669   2.491  14.337  0.0906  4.2425  0.2024
 7565SOL    HW234158   0.033   2.566  14.432 -1.5306  1.2507 -3.1029
 7566SOL     OW34159   1.937   1.636   6.445 -0.5479 -0.4919  0.1642
 7566SOL    HW134160   1.890   1.718   6.457 -0.4189 -0.7164  2.2053
 7566SOL    HW234161   2.005   1.636   6.512  0.8480  1.0944 -1.2483
 7567SOL     OW34162   1.235   0.499  17.265 -0.2189  0.5719  0.3301
 7567SOL    HW134163   1.207   0.546  17.344  1.2648  0.6507  0.8038
 7567SOL    HW234164   1.310   0.462  17.310  0.1678 -0.0620 -0.8355
 7568SOL     OW34165   0.964   3.842   6.176  0.2720 -0.0761  0.9376
 7568SOL    HW134166   1.031   3.903   6.145  0.2765 -1.5184 -1.9659
 7568SOL    HW234167   1.011   3.796   6.245  0.3390 -1.3065  0.0734
 7569SOL     OW34168   1.143   0.832  12.464 -0.5308  0.0915  0.3117
 7569SOL    HW134169   1.149   0.805  12.373  1.8038  1.6586 -0.0085
 7569SOL    HW234170   1.192   0.762  12.507 -0.0189  1.8830  2.6841
 7570SOL     OW34171   0.242   1.313   8.919  0.4521 -0.5674  0.1261
 7570SOL    HW134172   0.171   1.306   8.855 -0.2245 -0.4259  0.8559
 7570SOL    HW234173   0.227   1.403   8.947 -0.9460 -0.5325 -0.7215
 7571SOL     OW34174   4.380   1.352   6.864 -0.1341 -0.1008 -0.0207
 7571SOL    HW134175   4.344   1.272   6.902 -0.2822  1.0772  2.3441
 7571SOL    HW234176   4.323   1.345   6.788  0.5794  2.1940 -0.7780
 7572SOL     OW34177   2.498   4.520  16.024  0.1042 -0.2055 -0.6118
 7572SOL    HW134178   2.540   4.452  15.972 -1.1024 -1.2263 -0.2414
 7572SOL    HW234179   2.569   4.553  16.080  0.8364 -0.8048 -1.1920
 7573SOL     OW34180   2.479   1.069   6.594  0.2616  0.5161 -0.0073
 7573SOL    HW134181   2.558   1.105   6.554  1.3322 -0.8970  0.8436
 7573SOL    HW234182   2.422   1.069   6.516 -0.1634  1.1618  0.3046
 7574SOL     OW34183   3.131   4.244   1.953 -0.6574  0.3463  0.2325
 7574SOL    HW134184   3.169   4.157   1.946 -3.3421 -0.7692 -0.7217
 7574SOL    HW234185   3.181   4.276   2.028 -0.6274 -1.3482  0.9559
 7575SOL     OW34186   1.188   1.381   3.971  0.2827 -0.0814  0.3279
 7575SOL    HW134187   1.100   1.343   3.968 -0.3255  1.2789  0.9627
 7575SOL    HW234188   1.231   1.303   3.937  1.8348  0.7169  0.4778
 7576SOL     OW34189   0.803   4.263   0.857 -0.2242  0.2837  0.4427
 7576SOL    HW134190   0.892   4.244   0.828  0.0195  1.2463  0.5368
 7576SOL    HW234191   0.829   4.318   0.932  0.5790  2.0437 -1.1096
 7577SOL     OW34192   0.050   0.930  17.279 -0.3184 -0.2392 -0.2692
 7577SOL    HW134193   4.717   0.851  17.278  1.6087 -1.6140  2.6846
 7577SOL    HW234194   0.124   0.898  17.227 -0.8695  1.6013 -2.1974
 7578SOL     OW34195   4.579   1.748   2.093  0.3665  0.2852  0.0396
 7578SOL    HW134196   4.596   1.812   2.024 -0.3688 -0.6319 -0.9976
 7578SOL    HW234197   4.571   1.803   2.171 -2.5378  0.1925 -0.2204
 7579SOL     OW34198   1.005   0.637  14.981  0.0259  0.1577 -0.5391
 7579SOL    HW134199   1.056   0.657  15.060  0.8978 -2.6349 -0.4141
 7579SOL    HW234200   0.950   0.716  14.979  0.2445  0.3690  1.1385
 7580SOL     OW34201   4.646   1.501  13.252  0.0456  0.4260  0.2090
 7580SOL    HW134202   4.554   1.495  13.278  0.3039 -1.2730  0.7248
 7580SOL    HW234203   4.636   1.495  13.157 -3.7582 -1.7332  0.7210
 7581SOL     OW34204   4.525   4.333   8.010  0.4663 -0.2039  0.1923
 7581SOL    HW134205   4.563   4.287   7.935  1.4889 -1.4766  1.5098
 7581SOL    HW234206   4.528   4.423   7.978 -0.5372 -0.3907 -0.4359
 7582SOL     OW34207   0.486   3.386   5.221 -0.2976 -0.2485  0.0783
 7582SOL    HW134208   0.429   3.459   5.196 -1.2946 -0.8238  0.6821
 7582SOL    HW234209   0.572   3.417   5.192  1.1958 -2.2546  2.3941
 7583SOL     OW34210   4.703   0.357   2.527 -0.3841 -0.0649 -0.0361
 7583SOL    HW134211   0.025   0.347   2.443  0.5433 -0.1476  0.4569
 7583SOL    HW234212   4.714   0.451   2.540 -0.0172  0.1596 -1.9228
 7584SOL     OW34213   3.862   3.511   7.173  0.0198  0.3038  0.0784
 7584SOL    HW134214   3.940   3.507   7.117 -0.2736 -1.3913 -0.2112
 7584SOL    HW234215   3.891   3.541   7.259  1.5605  1.7874 -0.9398
 7585SOL     OW34216   0.743   0.156   8.822 -0.1526  0.2564  0.3831
 7585SOL    HW134217   0.736   0.104   8.742 -0.3502 -0.1658  0.6725
 7585SOL    HW234218   0.756   0.242   8.783  0.1883 -0.1918 -0.4892
 7586SOL     OW34219   3.111   1.122  17.157  0.1815  0.2783  0.2211
 7586SOL    HW134220   3.055   1.200  17.149 -0.3024  0.0621  1.4973
 7586SOL    HW234221   3.180   1.129  17.223 -1.0839  0.6603  1.4828
 7587SOL     OW34222   2.023   1.595   3.175 -0.2861  0.2126  0.8249
 7587SOL    HW134223   2.077   1.542   3.233 -0.3929  1.9367  2.4652
 7587SOL    HW234224   2.055   1.560   3.092 -3.3173  0.3406 -0.4132
 7588SOL     OW34225   1.905   3.616   9.878 -0.0472  0.5854  0.4213
 7588SOL    HW134226   1.994   3.627   9.913  0.3849  0.8085 -0.7468
 7588SOL    HW234227   1.862   3.563   9.946  1.5423 -0.6224  0.4953
 7589SOL     OW34228   1.676   4.065   3.401 -0.5888 -0.3925 -0.1642
 7589SOL    HW134229   1.697   4.113   3.481 -2.3970 -1.0273  0.6768
 7589SOL    HW234230   1.684   4.130   3.330 -0.5001  0.2955  0.4720
 7590SOL     OW34231   3.597   2.996   7.119  0.4105 -0.2654 -0.0527
 7590SOL    HW134232   3.517   2.944   7.124 -0.0102  0.1766 -2.5687
 7590SOL    HW234233   3.575   3.060   7.187 -2.3608  0.4917 -1.6690
 7591SOL     OW34234   3.690   4.462   5.483  0.3758  0.0595 -0.1955
 7591SOL    HW134235   3.769   4.423   5.447  0.7664 -0.7319  1.5193
 7591SOL    HW234236   3.718   4.487   5.572 -0.0371 -0.7603  0.1614
 7592SOL     OW34237   1.661   3.192  11.463 -0.0811 -0.1080 -0.3128
 7592SOL    HW134238   1.631   3.178  11.373 -1.2568 -2.0923  0.3689
 7592SOL    HW234239   1.744   3.236  11.448 -0.6371 -0.0173 -3.1264
 7593SOL     OW34240   4.356   1.405   7.210  0.3848  0.4647 -0.0825
 7593SOL    HW134241   4.429   1.437   7.264  1.5598 -1.8384 -0.2986
 7593SOL    HW234242   4.398   1.330   7.168  0.1926 -0.9958  2.3234
 7594SOL     OW34243   4.130   3.001   8.807  0.3477  0.4420  0.8190
 7594SOL    HW134244   4.149   3.079   8.860 -0.0293  0.7086  0.5669
 7594SOL    HW234245   4.089   3.038   8.729 -1.5188 -0.3052  1.4675
 7595SOL     OW34246   4.053   3.431   7.008  0.1352  0.1943 -0.0982
 7595SOL    HW134247   4.044   3.414   6.914  1.1606 -1.3855  0.0881
 7595SOL    HW234248   4.086   3.349   7.045 -1.4387 -0.1113  0.6490
 7596SOL     OW34249   2.749   1.879   6.154  0.1949 -0.0452  0.3247
 7596SOL    HW134250   2.776   1.827   6.230  1.2485  0.0450  0.0088
 7596SOL    HW234251   2.672   1.836   6.115 -0.4368  0.5666  0.8987
 7597SOL     OW34252   2.674   0.533   8.027 -0.3278  0.8504  0.0302
 7597SOL    HW134253   2.580   0.544   8.018 -0.0840  2.6732 -0.3554
 7597SOL    HW234254   2.701   0.621   8.053 -1.3051  1.4247 -0.9003
 7598SOL     OW34255   4.513   2.877   4.294 -0.2330 -0.2641  0.2837
 7598SOL    HW134256   4.546   2.966   4.306 -1.2385 -0.1033  1.7494
 7598SOL    HW234257   4.482   2.869   4.204  0.7627  0.5898 -0.1424
 7599SOL     OW34258   1.179   2.674   5.403  0.0246  0.0312  1.1783
 7599SOL    HW134259   1.126   2.646   5.477 -1.1631  0.8948  0.6463
 7599SOL    HW234260   1.234   2.595   5.393  0.7105  0.7379 -0.6560
 7600SOL     OW34261   3.443   3.275   3.294  0.0612  0.2722  0.4119
 7600SOL    HW134262   3.493   3.355   3.308 -1.1855  1.2122 -0.5385
 7600SOL    HW234263   3.402   3.256   3.378 -1.2580  3.0588  0.3696
 7601SOL     OW34264   2.293   2.018  11.793 -0.2759 -0.4579 -0.1693
 7601SOL    HW134265   2.232   2.091  11.792  0.1094 -0.1202  1.2800
 7601SOL    HW234266   2.341   2.024  11.710 -0.1444  1.6356  0.0511
 7602SOL     OW34267   3.635   1.674   9.668 -0.3393 -0.2318  0.4807
 7602SOL    HW134268   3.649   1.758   9.713 -1.6209 -0.0008  0.4407
 7602SOL    HW234269   3.548   1.655   9.703  0.0488 -0.2982  1.4150
 7603SOL     OW34270   1.341   4.592   6.588  0.6310  0.0941 -0.4900
 7603SOL    HW134271   1.275   4.641   6.637  2.7137  0.0589  2.2969
 7603SOL    HW234272   1.424   4.625   6.622  0.0660 -3.0446  3.8528
 7604SOL     OW34273   1.313   2.004  15.088  0.0667  0.3524  0.4889
 7604SOL    HW134274   1.270   1.967  15.165 -0.6548 -1.0153 -0.5740
 7604SOL    HW234275   1.259   2.083  15.087 -0.7283 -0.1952 -0.4642
 7605SOL     OW34276   2.802   1.848   1.186  0.0948  0.2135 -0.7774
 7605SOL    HW134277   2.817   1.933   1.228  0.6033 -0.6117  0.7317
 7605SOL    HW234278   2.707   1.841   1.198  0.2998 -1.2578 -0.0738
 7606SOL     OW34279   4.354   3.446  10.277 -0.7387 -1.2526 -0.1096
 7606SOL    HW134280   4.448   3.435  10.260 -0.5150  0.6787 -0.1604
 7606SOL    HW234281   4.350   3.436  10.372  0.3064 -1.1634 -0.0513
 7607SOL     OW34282   2.849   1.879  14.506 -0.0230  0.2640  0.4193
 7607SOL    HW134283   2.782   1.812  14.488  0.1301  0.2744 -0.2090
 7607SOL    HW234284   2.924   1.827  14.532  1.0890  2.0450  0.7891
 7608SOL     OW34285   1.320   0.671   6.688 -0.3101 -0.1306  0.6217
 7608SOL    HW134286   1.294   0.763   6.699  1.2072  0.4299 -0.5574
 7608SOL    HW234287   1.244   0.619   6.717  0.0121 -0.5794  0.6595
 7609SOL     OW34288   1.292   1.521   1.388 -0.1918 -0.1277 -0.2540
 7609SOL    HW134289   1.370   1.519   1.444  0.7293  2.1105 -1.4575
 7609SOL    HW234290   1.233   1.590   1.417  0.2538  0.3002 -0.3664
 7610SOL     OW34291   3.893   3.297  16.181 -0.0222 -0.2626 -0.1447
 7610SOL    HW134292   3.977   3.334  16.155  0.0593  0.7873  1.6537
 7610SOL    HW234293   3.922   3.229  16.242 -1.3556 -0.9692 -0.2811
 7611SOL     OW34294   1.518   1.096   3.667  0.1829  0.2127  0.2773
 7611SOL    HW134295   1.443   1.153   3.652  0.6100 -0.6258 -5.1278
 7611SOL    HW234296   1.595   1.153   3.659  0.7770 -0.5251  0.7901
 7612SOL     OW34297   3.151   1.489   4.258 -0.3759  0.4910 -0.4047
 7612SOL    HW134298   3.184   1.566   4.304  1.1075  0.2757 -1.1197
 7612SOL    HW234299   3.236   1.461   4.223 -1.0728 -1.0015 -0.9007
 7613SOL     OW34300   1.765   3.383  14.870  0.2432  0.8019  0.4623
 7613SOL    HW134301   1.777   3.336  14.787 -0.4751 -0.2190  0.9376
 7613SOL    HW234302   1.839   3.443  14.878 -1.2333  2.4706  1.3371
 7614SOL     OW34303   3.105   1.975  11.367 -0.1239  0.2586 -0.3164
 7614SOL    HW134304   3.032   1.918  11.393 -0.9765  1.3574 -0.3381
 7614SOL    HW234305   3.100   1.960  11.273  0.4869 -1.3507 -0.1013
 7615SOL     OW34306   0.792   0.707   4.270  0.4557  0.2887  0.2451
 7615SOL    HW134307   0.748   0.758   4.203  1.9634  1.2078 -0.0488
 7615SOL    HW234308   0.787   0.620   4.229  0.3271  0.7472 -0.7202
 7616SOL     OW34309   4.165   3.743   0.134 -0.3709 -0.1497  0.2976
 7616SOL    HW134310   4.209   3.776   0.212  0.9353  1.1037 -0.9790
 7616SOL    HW234311   4.155   3.650   0.156 -2.5316  0.2383  1.0470
 7617SOL     OW34312   3.937   4.584  16.551 -0.7200 -0.2039 -0.3264
 7617SOL    HW134313   3.925   4.516  16.485 -1.8990 -0.0060 -0.3168
 7617SOL    HW234314   3.898   4.535  16.624 -0.3609  0.0920  0.0607
 7618SOL     OW34315   4.256   0.840   4.133  0.1047 -0.8501  0.3586
 7618SOL    HW134316   4.232   0.799   4.051  1.3235 -0.1857 -0.3317
 7618SOL    HW234317   4.180   0.822   4.188 -1.5527 -0.9696 -1.9924
 7619SOL     OW34318   4.496   4.360  13.381  0.1173  0.2147 -0.0870
 7619SOL    HW134319   4.559   4.290  13.398  0.5486  0.7054  0.3405
 7619SOL    HW234320   4.467   4.384  13.469  0.3633  1.4114 -0.3349
 7620SOL     OW34321   2.379   1.636   9.243  0.1566  0.3483  0.0000
 7620SOL    HW134322   2.446   1.696   9.211  0.9339 -0.3820  0.2620
 7620SOL    HW234323   2.393   1.568   9.177  0.3972  1.2534 -0.8815
 7621SOL     OW34324   1.989   0.776   9.452  0.9345  0.3456 -0.1355
 7621SOL    HW134325   2.021   0.852   9.403 -0.1462  0.0381 -1.3139
 7621SOL    HW234326   1.925   0.736   9.393 -2.5341  4.3196  0.9879
 7622SOL     OW34327   0.193   1.522  15.115  0.0865 -0.1295 -0.2724
 7622SOL    HW134328   0.143   1.451  15.154 -1.1945 -0.0296 -1.7311
 7622SOL    HW234329   0.235   1.565  15.190  0.5934  1.1773 -1.3051
 7623SOL     OW34330   0.871   3.142   2.700  0.1182 -0.2895 -0.1779
 7623SOL    HW134331   0.789   3.190   2.717 -0.8089 -1.2131 -1.9867
 7623SOL    HW234332   0.880   3.102   2.787  1.2997 -0.0065 -0.1739
 7624SOL     OW34333   2.140   4.650   7.348  0.4226  0.3237 -0.6488
 7624SOL    HW134334   2.173   4.564   7.372  0.5400  1.3023  2.6544
 7624SOL    HW234335   2.222   4.700   7.340 -0.6482  2.2030  0.0895
 7625SOL     OW34336   1.118   1.387   5.361  0.7212  0.1041  0.2719
 7625SOL    HW134337   1.153   1.473   5.385  0.1021 -0.1181  1.9530
 7625SOL    HW234338   1.129   1.347   5.447 -2.2847  1.7168  1.4075
 7626SOL     OW34339   4.109   0.178   1.916  0.2714 -0.5062 -0.3036
 7626SOL    HW134340   4.154   0.255   1.880  0.7654 -0.5160  0.3034
 7626SOL    HW234341   4.113   0.179   2.011 -4.4965 -2.3446 -0.0747
 7627SOL     OW34342   3.460   0.568  13.290 -0.1472 -0.1244 -0.1176
 7627SOL    HW134343   3.511   0.489  13.308 -0.4245  0.0153  1.2600
 7627SOL    HW234344   3.420   0.547  13.205 -1.4880  3.2289 -0.2962
 7628SOL     OW34345   3.360   1.011   0.525 -0.2107  0.0684 -0.2208
 7628SOL    HW134346   3.424   1.061   0.577  0.7416 -0.7076 -0.6329
 7628SOL    HW234347   3.362   0.927   0.571 -1.6774 -0.4274 -1.0699
 7629SOL     OW34348   4.446   1.990   5.412 -0.3313 -0.0242  0.0430
 7629SOL    HW134349   4.430   1.899   5.387  2.6527 -1.5140  3.5284
 7629SOL    HW234350   4.494   1.978   5.494  0.7699 -0.9978 -0.7372
 7630SOL     OW34351   1.591   1.164   4.714 -0.4478 -0.3688  0.3222
 7630SOL    HW134352   1.616   1.247   4.754  0.0558  0.7687 -2.3865
 7630SOL    HW234353   1.567   1.198   4.628 -0.4258 -2.4448 -0.4972
 7631SOL     OW34354   0.793   1.322   6.697 -0.2069 -0.7230  0.3459
 7631SOL    HW134355   0.756   1.300   6.783 -0.9283  3.2011  1.0409
 7631SOL    HW234356   0.717   1.304   6.642  0.6962  2.6097 -2.0109
 7632SOL     OW34357   1.558   3.649   9.506  0.1239 -0.2335 -0.3605
 7632SOL    HW134358   1.557   3.745   9.499  2.3447 -0.3957 -2.5904
 7632SOL    HW234359   1.591   3.651   9.596 -0.4063  1.4347 -0.2097
 7633SOL     OW34360   1.334   4.225   6.158 -0.0552  0.0627  0.3052
 7633SOL    HW134361   1.429   4.224   6.148 -0.3797 -1.4154 -2.4793
 7633SOL    HW234362   1.315   4.317   6.180 -0.1944  0.1038 -0.0005
 7634SOL     OW34363   2.165   3.410   8.067  0.0547  0.7783  0.7147
 7634SOL    HW134364   2.205   3.340   8.015 -2.1912  1.0617 -1.3926
 7634SOL    HW234365   2.241   3.430   8.121  1.3157  0.7894 -1.0539
 7635SOL     OW34366   1.181   0.672   3.759 -0.4006  0.1426  0.2154
 7635SOL    HW134367   1.126   0.638   3.688 -0.2318 -0.4493  0.3635
 7635SOL    HW234368   1.147   0.621   3.833  0.1001  0.3804  0.6058
 7636SOL     OW34369   1.289   3.447  15.884 -0.3581  0.4881 -0.0079
 7636SOL    HW134370   1.287   3.460  15.790 -3.0291  1.2182  0.1409
 7636SOL    HW234371   1.226   3.375  15.896 -2.0744  2.4700  3.0672
 7637SOL     OW34372   0.912   3.990   1.579  0.2019 -0.2037  0.4222
 7637SOL    HW134373   0.995   3.979   1.532 -0.9809 -3.1656 -0.9245
 7637SOL    HW234374   0.876   3.902   1.587 -1.4454  0.2929 -1.6335
 7638SOL     OW34375   1.035   2.620   4.788  0.2684 -0.0849  0.4700
 7638SOL    HW134376   0.988   2.561   4.847  0.5141 -1.8362 -1.1191
 7638SOL    HW234377   0.958   2.639   4.736 -0.5342  0.1610  1.7367
 7639SOL     OW34378   4.591   3.885  10.492 -0.3053 -0.2232  0.1886
 7639SOL    HW134379   4.593   3.958  10.430 -0.3628  1.2678  1.9297
 7639SOL    HW234380   4.522   3.834  10.451 -0.2672 -2.0519  2.4394
 7640SOL     OW34381   3.002   3.966   0.865  0.2600 -0.7257  0.3776
 7640SOL    HW134382   3.016   3.910   0.788 -0.8971  1.6064 -1.5516
 7640SOL    HW234383   2.906   3.963   0.868  0.1953  1.6548  0.6949
 7641SOL     OW34384   3.995   3.557   7.996  0.0327 -0.5307  0.0992
 7641SOL    HW134385   4.021   3.491   8.060  1.4750  1.6345  1.7373
 7641SOL    HW234386   3.966   3.621   8.062 -1.9632  0.0116 -1.3087
 7642SOL     OW34387   0.935   0.515   2.370 -0.3778 -0.4242 -0.8258
 7642SOL    HW134388   1.018   0.551   2.340 -0.1021  0.0969  0.5705
 7642SOL    HW234389   0.905   0.595   2.414  0.0681  0.0538 -1.4018
 7643SOL     OW34390   1.036   0.207  11.103  0.1257  0.5724  0.4313
 7643SOL    HW134391   1.107   0.144  11.117 -1.8258 -1.3285  1.7395
 7643SOL    HW234392   1.082   0.282  11.140 -1.1404  0.2825  2.6234
 7644SOL     OW34393   0.042   0.847  14.969 -0.2270 -0.2170 -0.5572
 7644SOL    HW134394   0.084   0.807  15.045 -0.6885  0.1476 -0.1070
 7644SOL    HW234395   4.722   0.771  14.928 -0.1362 -0.1723 -0.7349
 7645SOL     OW34396   0.198   3.142   1.771  0.3316  0.0743 -0.2193
 7645SOL    HW134397   0.145   3.188   1.705  0.1697 -0.4598 -0.4568
 7645SOL    HW234398   0.253   3.085   1.717  0.7511 -0.2821  0.5961
 7646SOL     OW34399   2.438   4.675   2.933  0.1017 -0.4315  0.0089
 7646SOL    HW134400   2.451   4.695   2.840 -1.2216 -0.6452 -0.2126
 7646SOL    HW234401   2.530   4.657   2.955 -0.3704  0.2270  2.5193
 7647SOL     OW34402   4.272   2.050   9.517  0.7716 -0.4702  0.2172
 7647SOL    HW134403   4.339   2.003   9.468  0.6747 -0.6045  0.2138
 7647SOL    HW234404   4.307   2.138   9.531 -0.4879  0.0841 -0.1101
 7648SOL     OW34405   4.245   1.051  13.251 -0.0750 -0.6345  0.1319
 7648SOL    HW134406   4.234   1.106  13.173  1.2068  0.1379  0.4872
 7648SOL    HW234407   4.330   1.079  13.286 -1.1993 -1.1782  3.2798
 7649SOL     OW34408   1.950   3.598  17.666  0.2369  0.1825  0.0015
 7649SOL    HW134409   1.982   3.630  17.581  1.2033  1.7774  0.9837
 7649SOL    HW234410   2.035   3.580   0.015 -0.4872 -1.0949  0.9568
 7650SOL     OW34411   1.525   3.847  17.230 -0.3877 -0.0997 -0.3178
 7650SOL    HW134412   1.478   3.864  17.312  0.8366  1.5940  0.0385
 7650SOL    HW234413   1.608   3.804  17.255  0.7169  0.3494 -3.2367
 7651SOL     OW34414   2.468   0.688   9.100  0.7149  0.0763  0.6888
 7651SOL    HW134415   2.512   0.702   9.184 -0.7842 -2.1717  1.8598
 7651SOL    HW234416   2.533   0.625   9.070 -0.5309 -2.1830  2.6522
 7652SOL     OW34417   4.618   0.565   4.711 -0.3767  0.4887 -0.6275
 7652SOL    HW134418   4.598   0.655   4.684 -0.2641  1.4431  2.5252
 7652SOL    HW234419   4.542   0.520   4.674 -2.1684  2.0484  1.1664
 7653SOL     OW34420   3.144   2.208   4.672 -0.0572  0.1352  0.1758
 7653SOL    HW134421   3.184   2.150   4.607  2.3905 -1.1478  2.8372
 7653SOL    HW234422   3.167   2.295   4.640  0.3993  0.5022  1.4974
 7654SOL     OW34423   3.733   0.374   5.938  0.1717 -0.0089  0.0934
 7654SOL    HW134424   3.768   0.395   6.025 -0.0142  0.3217  0.0896
 7654SOL    HW234425   3.765   0.288   5.912 -1.6920  0.6287 -4.2780
 7655SOL     OW34426   4.235   0.527  17.649 -0.0196  0.1757  0.0626
 7655SOL    HW134427   4.322   0.498  17.621  0.3609  0.5848  0.8403
 7655SOL    HW234428   4.260   0.605   0.008  1.0747  2.0423 -3.4465
 7656SOL     OW34429   3.095   4.158  14.494  0.4330 -1.0090 -0.6283
 7656SOL    HW134430   3.024   4.178  14.555 -0.1458 -0.0621 -1.6234
 7656SOL    HW234431   3.101   4.063  14.510  0.0576 -0.9347 -0.0197
 7657SOL     OW34432   0.900   0.540   7.024  0.0992  0.5099 -0.6167
 7657SOL    HW134433   0.856   0.487   6.958  1.7661  1.6529 -2.6400
 7657SOL    HW234434   0.951   0.473   7.070  0.7295  2.8670  2.1289
 7658SOL     OW34435   2.825   1.343   5.506  0.3988  0.0168  0.4050
 7658SOL    HW134436   2.733   1.353   5.481  0.7736  0.4986 -0.8143
 7658SOL    HW234437   2.856   1.320   5.418 -1.2921  1.8864 -0.6934
 7659SOL     OW34438   3.657   4.365   7.169  0.7646  0.2524 -0.2037
 7659SOL    HW134439   3.583   4.412   7.205  1.7811 -0.4287  2.8148
 7659SOL    HW234440   3.723   4.432   7.189  0.7964  0.2176 -0.1899
 7660SOL     OW34441   0.478   2.952   4.453 -0.2635  0.4840  0.2038
 7660SOL    HW134442   0.457   3.038   4.419 -0.9818 -0.1823 -1.0376
 7660SOL    HW234443   0.470   2.977   4.545 -0.6802 -0.6295  0.4814
 7661SOL     OW34444   2.176   3.093  13.306 -0.0012  0.5374  0.0023
 7661SOL    HW134445   2.131   3.104  13.389  1.1728  3.0584  0.3116
 7661SOL    HW234446   2.137   3.013  13.270 -0.1822 -0.3926  2.2977
 7662SOL     OW34447   3.553   4.481   0.582 -0.2030 -0.1296  0.0010
 7662SOL    HW134448   3.607   4.425   0.526 -0.6766 -0.1567 -0.4287
 7662SOL    HW234449   3.602   4.468   0.663  1.2147  0.3877 -0.7652
 7663SOL     OW34450   0.662   3.351  10.976 -0.1642  0.6997 -0.2658
 7663SOL    HW134451   0.672   3.332  10.882 -2.0349 -0.6540 -0.1667
 7663SOL    HW234452   0.670   3.447  10.976  0.1496  0.6731 -0.9286
 7664SOL     OW34453   0.635   3.702   3.060 -0.1987 -0.7451  0.4598
 7664SOL    HW134454   0.594   3.711   2.974  0.8096  0.8898  0.1585
 7664SOL    HW234455   0.574   3.645   3.108  1.7873 -2.1917  1.2412
 7665SOL     OW34456   1.314   0.775   8.637 -0.0937  0.1818 -0.7053
 7665SOL    HW134457   1.291   0.728   8.717  0.1754 -1.2090 -1.4370
 7665SOL    HW234458   1.304   0.702   8.575  0.0383 -1.7681  1.5939
 7666SOL     OW34459   2.747   1.265  11.440 -0.0057 -0.1631  0.7926
 7666SOL    HW134460   2.681   1.324  11.477  0.1142 -0.4133  1.4037
 7666SOL    HW234461   2.754   1.199  11.509 -1.1735 -0.9258  0.1984
 7667SOL     OW34462   2.939   2.446   2.650  0.3663 -0.4390 -0.2307
 7667SOL    HW134463   2.943   2.433   2.745 -0.2321  1.6594  0.0801
 7667SOL    HW234464   2.982   2.531   2.646 -0.0931 -0.1306  1.3636
 7668SOL     OW34465   3.844   2.457   0.583 -0.1500 -0.1509  0.4712
 7668SOL    HW134466   3.781   2.496   0.521 -0.0440  0.5714  0.8190
 7668SOL    HW234467   3.928   2.494   0.556 -0.2008 -1.0807 -0.9505
 7669SOL     OW34468   0.923   1.285   2.452 -0.4237  0.0400 -0.2422
 7669SOL    HW134469   0.989   1.266   2.385  0.1310 -0.3086  0.4058
 7669SOL    HW234470   0.845   1.272   2.399  0.5858 -0.6038 -1.5676
 7670SOL     OW34471   4.564   1.101   5.461  0.1290  0.5743  0.1630
 7670SOL    HW134472   4.544   1.145   5.379  1.0894  1.2944  0.3148
 7670SOL    HW234473   4.644   1.053   5.438 -1.0514 -1.8240  0.9719
 7671SOL     OW34474   1.401   1.316  13.074 -0.0996 -0.1771 -0.5691
 7671SOL    HW134475   1.319   1.281  13.039 -0.9968  1.2806  0.0692
 7671SOL    HW234476   1.461   1.294  13.002 -0.7301  1.9287 -1.7199
 7672SOL     OW34477   3.842   1.446   2.064 -0.0192 -0.5177  0.3896
 7672SOL    HW134478   3.786   1.408   2.132  2.3242 -1.6193  1.7017
 7672SOL    HW234479   3.804   1.401   1.989 -2.3447  1.5453  0.3055
 7673SOL     OW34480   0.450   3.611  13.446  0.3228  0.1150 -0.3301
 7673SOL    HW134481   0.450   3.630  13.539  1.9750 -1.9199  0.0900
 7673SOL    HW234482   0.483   3.687  13.398 -2.1704  0.1067 -2.0782
 7674SOL     OW34483   0.602   0.380   4.674  0.1638 -0.4558 -0.2328
 7674SOL    HW134484   0.548   0.379   4.753  0.0249  1.6269 -0.3232
 7674SOL    HW234485   0.654   0.458   4.690 -1.7730  0.6259  0.6949
 7675SOL     OW34486   0.277   3.357   8.016 -0.1309 -0.0828 -0.2322
 7675SOL    HW134487   0.237   3.412   7.948  0.3192  1.2210  0.5545
 7675SOL    HW234488   0.255   3.414   8.090 -0.3336 -0.3195 -0.1119
 7676SOL     OW34489   2.597   4.029   2.785  0.6920 -0.2830  0.1116
 7676SOL    HW134490   2.504   4.007   2.783  0.7384 -0.2993 -2.0709
 7676SOL    HW234491   2.616   4.043   2.692 -2.7675 -0.4777 -0.6096
 7677SOL     OW34492   4.021   3.548   3.895 -0.1128 -0.0321  0.2135
 7677SOL    HW134493   4.060   3.630   3.866 -0.9191 -0.8987 -3.3129
 7677SOL    HW234494   4.090   3.482   3.901  0.1088  0.2557  0.8915
 7678SOL     OW34495   2.371   4.557   6.039 -0.2690  0.7101  0.0089
 7678SOL    HW134496   2.357   4.649   6.064 -2.1459  0.3772  0.2165
 7678SOL    HW234497   2.379   4.520   6.127  0.1837  0.5156 -0.1171
 7679SOL     OW34498   3.719   2.079   4.275 -0.9111 -0.2453 -0.2837
 7679SOL    HW134499   3.756   1.993   4.294  0.4239  0.1323 -1.2051
 7679SOL    HW234500   3.797   2.132   4.256  0.2128 -1.4784  0.8925
 7680SOL     OW34501   4.155   1.234   5.314 -0.4526 -0.8046 -0.6836
 7680SOL    HW134502   4.109   1.297   5.369  0.2268 -0.3447 -0.6409
 7680SOL    HW234503   4.212   1.189   5.377  0.6382 -0.4402 -1.4078
 7681SOL     OW34504   0.604   0.303   6.627  0.4314  0.0073  0.5030
 7681SOL    HW134505   0.616   0.238   6.558 -0.3301  0.6357 -0.2220
 7681SOL    HW234506   0.597   0.244   6.702  0.5225 -0.8510 -0.1531
 7682SOL     OW34507   0.650   3.380   1.357  0.8593  0.1413 -0.0704
 7682SOL    HW134508   0.662   3.434   1.436 -0.8475 -0.1359  0.3849
 7682SOL    HW234509   0.615   3.446   1.296 -1.8794  0.8954  2.2806
 7683SOL     OW34510   2.442   3.603   6.657  0.5598 -0.2527  0.0129
 7683SOL    HW134511   2.491   3.546   6.717 -0.9184 -1.3742  0.1422
 7683SOL    HW234512   2.516   3.656   6.627 -0.7097  0.6938 -1.4602
 7684SOL     OW34513   2.766   2.173   2.236  0.5094 -0.5607 -0.3307
 7684SOL    HW134514   2.719   2.102   2.193 -0.8574  0.5257 -0.6272
 7684SOL    HW234515   2.844   2.128   2.268  0.7983 -0.5049 -0.9467
 7685SOL     OW34516   1.058   3.864   3.367  0.0106  0.2113  0.0531
 7685SOL    HW134517   1.014   3.931   3.419 -0.3863 -0.9432  1.2086
 7685SOL    HW234518   0.984   3.837   3.312 -0.0769 -0.1187  0.3335
 7686SOL     OW34519   3.131   4.008   5.552 -0.5821 -0.3851 -0.1706
 7686SOL    HW134520   3.191   3.936   5.536 -1.5321 -0.3570 -3.9921
 7686SOL    HW234521   3.052   3.982   5.504  0.5976  0.7004 -2.7200
 7687SOL     OW34522   0.853   2.523   6.617 -0.8352  0.0938  0.3604
 7687SOL    HW134523   0.904   2.552   6.692  0.5398  1.9105 -1.2549
 7687SOL    HW234524   0.776   2.475   6.645 -1.3334 -1.1717 -3.1229
 7688SOL     OW34525   4.600   1.922  14.713 -0.1242 -0.3790  0.2182
 7688SOL    HW134526   4.589   1.828  14.699  0.4800  0.2922 -4.7913
 7688SOL    HW234527   4.602   1.963  14.627 -0.5414 -2.3979 -0.7695
 7689SOL     OW34528   2.265   0.828   5.373 -0.1758  0.0356 -0.1176
 7689SOL    HW134529   2.254   0.734   5.359 -0.2339 -0.0221  0.3301
 7689SOL    HW234530   2.175   0.859   5.376 -0.2339 -0.1870  0.4417
 7690SOL     OW34531   2.824   0.496   9.418  0.4223 -0.1686 -0.4914
 7690SOL    HW134532   2.893   0.557   9.392 -1.0683  1.0831 -1.5267
 7690SOL    HW234533   2.874   0.440   9.477 -0.3302 -1.7818 -1.3898
 7691SOL     OW34534   3.558   1.991  14.135  0.5339 -0.0017  0.2942
 7691SOL    HW134535   3.499   1.916  14.123 -2.1986  1.6649  3.3017
 7691SOL    HW234536   3.530   2.012  14.224  1.0054 -1.2283  0.7299
 7692SOL     OW34537   0.346   0.301   2.118 -0.1468  0.1709 -0.0855
 7692SOL    HW134538   0.317   0.353   2.044 -0.9723 -2.0020 -1.3002
 7692SOL    HW234539   0.342   0.366   2.189 -3.2335  0.9966 -1.0094
 7693SOL     OW34540   1.582   0.634   6.647 -0.0072  0.6696 -0.3116
 7693SOL    HW134541   1.486   0.631   6.650  0.0331 -0.0869  0.2833
 7693SOL    HW234542   1.616   0.554   6.687 -4.4443  0.1797  2.5152
 7694SOL     OW34543   1.431   4.075   0.498  0.0222 -0.0883  0.0368
 7694SOL    HW134544   1.473   4.161   0.495  1.3223 -0.6936  1.1271
 7694SOL    HW234545   1.506   4.016   0.490  0.9409  1.0470  0.3885
 7695SOL     OW34546   0.221   1.082   5.142 -0.0161 -0.7013  0.5186
 7695SOL    HW134547   0.310   1.060   5.169  1.3345  1.4294 -2.1885
 7695SOL    HW234548   0.237   1.132   5.062 -1.9614  2.0789  1.8656
 7696SOL     OW34549   0.132   4.221  14.117 -0.1842 -0.2032 -0.2772
 7696SOL    HW134550   0.218   4.207  14.157 -0.0566  0.5236 -0.2954
 7696SOL    HW234551   0.154   4.294  14.059 -0.0259 -0.4562 -0.5358
 7697SOL     OW34552   0.622   0.576   8.321  0.0976  0.6059  0.0809
 7697SOL    HW134553   0.670   0.654   8.348  1.2311 -0.0168 -0.1427
 7697SOL    HW234554   0.639   0.514   8.392 -1.9692  0.0933  0.1254
 7698SOL     OW34555   4.364   3.068   5.523 -0.1762  0.1322 -0.1996
 7698SOL    HW134556   4.431   3.116   5.475 -0.1633 -0.0016 -0.3150
 7698SOL    HW234557   4.326   3.132   5.584 -0.1272 -0.8059  0.8290
 7699SOL     OW34558   1.124   0.733   3.318  0.6087  0.0472 -0.1478
 7699SOL    HW134559   1.030   0.733   3.300  0.8306 -0.6155 -1.3412
 7699SOL    HW234560   1.162   0.768   3.237  0.9388  2.9837  1.2718
 7700SOL     OW34561   1.830   1.103   9.347 -0.3157  0.3259 -0.3521
 7700SOL    HW134562   1.902   1.040   9.355 -0.8909 -0.1639  0.9160
 7700SOL    HW234563   1.752   1.053   9.322 -0.5307  0.1405  0.6905
 7701SOL     OW34564   1.228   2.223   7.779 -0.0475  0.0319  0.4478
 7701SOL    HW134565   1.315   2.251   7.751  0.0970 -2.0012 -1.0752
 7701SOL    HW234566   1.170   2.252   7.708 -0.1421  0.1544  0.5731
 7702SOL     OW34567   1.650   1.737   6.716  0.4819  0.5450  0.1293
 7702SOL    HW134568   1.735   1.779   6.725  0.5059  0.0011  2.4301
 7702SOL    HW234569   1.633   1.737   6.810 -1.3991 -0.3458 -0.2045
 7703SOL     OW34570   4.170   2.900   6.178  0.1725  0.0582 -0.5261
 7703SOL    HW134571   4.139   2.911   6.088 -1.5692 -0.1534  0.0548
 7703SOL    HW234572   4.264   2.884   6.166 -0.4742 -3.5671 -0.7711
 7704SOL     OW34573   2.601   3.197   4.878  0.3713  0.0334 -0.1893
 7704SOL    HW134574   2.613   3.177   4.971 -1.2844  0.7375  0.1860
 7704SOL    HW234575   2.670   3.259   4.858 -0.9357  1.1286 -1.2690
 7705SOL     OW34576   2.820   2.921   8.129  0.4267 -0.1209 -0.0356
 7705SOL    HW134577   2.859   2.982   8.191 -2.0320  1.4652 -0.0482
 7705SOL    HW234578   2.863   2.951   8.049  1.7729  0.1528  0.7986
 7706SOL     OW34579   1.500   0.209   7.828  0.0574 -0.1428  0.2653
 7706SOL    HW134580   1.554   0.215   7.907 -0.1701 -1.2220  0.5169
 7706SOL    HW234581   1.428   0.154   7.859  1.5473 -1.5546  1.2623
 7707SOL     OW34582   1.300   3.336   6.996 -0.0440  0.3986 -0.3357
 7707SOL    HW134583   1.304   3.425   6.963  0.2469  0.9920  1.3134
 7707SOL    HW234584   1.217   3.319   6.953  1.5856 -1.3473 -2.7888
 7708SOL     OW34585   2.988   0.813  15.798  0.4741 -0.5267  0.7443
 7708SOL    HW134586   3.015   0.811  15.706  1.6762  0.3482  1.0715
 7708SOL    HW234587   3.010   0.724  15.824 -1.8755 -0.9629  1.2253
 7709SOL     OW34588   3.811   1.126   7.461 -0.0130  0.7977 -0.2705
 7709SOL    HW134589   3.874   1.197   7.454 -0.1381  0.9504  0.1961
 7709SOL    HW234590   3.736   1.178   7.432  0.0473  2.0151  1.7555
 7710SOL     OW34591   4.662   1.046  14.149  0.5302  0.1539  0.1530
 7710SOL    HW134592   4.677   1.121  14.205 -0.1691 -0.2539  0.8828
 7710SOL    HW234593   4.662   1.098  14.069 -0.2965  0.9981  0.7124
 7711SOL     OW34594   0.368   2.090   3.820 -0.2305 -0.4931  0.2044
 7711SOL    HW134595   0.424   2.092   3.742 -2.1281 -1.3407 -1.1988
 7711SOL    HW234596   0.286   2.118   3.779  0.3352 -0.3728 -0.8641
 7712SOL     OW34597   0.792   1.514   7.853 -0.2780 -0.0511 -0.5829
 7712SOL    HW134598   0.854   1.463   7.802  0.2270 -2.6302  2.6083
 7712SOL    HW234599   0.848   1.547   7.924 -1.2057 -2.1259  1.0936
 7713SOL     OW34600   4.338   0.404  10.565  0.2637 -0.9461  0.3431
 7713SOL    HW134601   4.404   0.336  10.550  2.7675  1.0731  2.2995
 7713SOL    HW234602   4.290   0.367  10.638 -1.2167 -1.7335 -1.0279
 7714SOL     OW34603   0.593   4.117  11.731  0.0756  0.7084  0.2496
 7714SOL    HW134604   0.687   4.106  11.720  0.0221  0.8798 -0.4109
 7714SOL    HW234605   0.560   4.037  11.689 -0.0109  0.7069  0.3190
 7715SOL     OW34606   2.377   3.768  15.911  0.1051 -0.2587  0.3912
 7715SOL    HW134607   2.358   3.822  15.987 -0.4986 -2.2073  1.6409
 7715SOL    HW234608   2.434   3.826  15.861 -1.8457  1.4458  0.1711
 7716SOL     OW34609   3.400   3.843   5.942  0.6539 -0.1456 -0.2600
 7716SOL    HW134610   3.308   3.869   5.933 -0.0037 -1.7157  1.9214
 7716SOL    HW234611   3.381   3.750   5.929  3.3258 -0.8647  1.0738
 7717SOL     OW34612   1.692   0.617  11.586 -0.5001  0.2496 -0.4233
 7717SOL    HW134613   1.782   0.623  11.554 -0.9899  0.4253 -1.7927
 7717SOL    HW234614   1.673   0.532  11.546 -1.9189 -0.1889  1.2079
 7718SOL     OW34615   0.871   2.140  13.112 -0.1762 -0.2338  0.6859
 7718SOL    HW134616   0.806   2.198  13.072  0.8566  2.1360  2.3806
 7718SOL    HW234617   0.933   2.129  13.040  1.0525  2.9801  1.2448
 7719SOL     OW34618   3.044   0.781   3.532  0.1765 -0.4543 -0.0213
 7719SOL    HW134619   2.958   0.790   3.572  0.6154 -0.4392  0.9158
 7719SOL    HW234620   3.065   0.688   3.534 -1.2027 -0.7254  1.5176
 7720SOL     OW34621   1.525   2.144   6.793  0.4941 -0.1021 -0.0240
 7720SOL    HW134622   1.437   2.166   6.764 -0.6484 -0.9340  2.8657
 7720SOL    HW234623   1.508   2.076   6.857 -1.4826 -1.1061 -1.6506
 7721SOL     OW34624   3.723   1.191  15.738 -0.2252  0.3004  0.5237
 7721SOL    HW134625   3.715   1.160  15.829 -1.5507  0.3666  0.4318
 7721SOL    HW234626   3.734   1.107  15.693 -0.8764  0.7288 -0.4274
 7722SOL     OW34627   2.950   3.832   7.416 -0.0033 -0.1708 -0.0928
 7722SOL    HW134628   3.034   3.865   7.383  0.1636 -2.1411 -1.5939
 7722SOL    HW234629   2.975   3.740   7.417 -0.4189 -0.2736  0.7882
 7723SOL     OW34630   4.425   2.583   3.591 -0.2361  0.2819  0.0457
 7723SOL    HW134631   4.464   2.662   3.628 -0.2321 -0.1408  0.9598
 7723SOL    HW234632   4.447   2.602   3.500 -0.5988  1.0742  0.1188
 7724SOL     OW34633   1.916   3.889   5.723 -0.8563  0.2458  0.6021
 7724SOL    HW134634   1.957   3.958   5.776 -0.0333 -1.0952  1.6940
 7724SOL    HW234635   1.872   3.948   5.662  0.5974  1.2722  0.5297
 7725SOL     OW34636   1.066   3.085  15.701  0.7534  0.2030  0.4406
 7725SOL    HW134637   1.043   3.134  15.622  0.9910  0.0845  0.2954
 7725SOL    HW234638   1.039   2.999  15.670  1.6866 -0.1873  0.6911
 7726SOL     OW34639   4.519   1.856   2.381 -0.1957 -0.3855 -0.0697
 7726SOL    HW134640   4.510   1.876   2.474  1.1707 -3.2342  0.6853
 7726SOL    HW234641   4.458   1.919   2.342 -0.5440  0.5150  1.9629
 7727SOL     OW34642   2.886   0.782  13.066  0.2255 -0.2173  0.4333
 7727SOL    HW134643   2.934   0.827  12.997  1.0299 -2.7119 -0.6456
 7727SOL    HW234644   2.917   0.693  13.049  0.0817  0.1591 -1.8393
 7728SOL     OW34645   1.316   2.452   8.680 -0.5635  0.2781  0.5400
 7728SOL    HW134646   1.250   2.405   8.732  1.3476 -1.3030  1.5106
 7728SOL    HW234647   1.352   2.393   8.615 -0.5009  0.7806  0.1187
 7729SOL     OW34648   0.969   0.414   0.984  0.3889 -0.0242 -0.0003
 7729SOL    HW134649   1.059   0.420   0.952  0.3921 -0.3793 -0.0531
 7729SOL    HW234650   0.921   0.377   0.910  2.0269 -0.8071 -0.6556
 7730SOL     OW34651   1.082   0.545   3.978 -0.1338  0.1599 -0.0577
 7730SOL    HW134652   1.112   0.470   4.029  0.4128  3.6528  4.8075
 7730SOL    HW234653   0.989   0.551   4.000 -0.4902 -2.1630 -0.9225
 7731SOL     OW34654   0.763   2.110   6.848  0.3832 -0.2136 -0.0590
 7731SOL    HW134655   0.745   2.111   6.754 -2.2502  0.8356  0.4419
 7731SOL    HW234656   0.794   2.020   6.854  0.3090 -0.2945 -0.9469
 7732SOL     OW34657   4.096   2.680   1.902 -0.1951  0.5474  0.1681
 7732SOL    HW134658   4.136   2.754   1.855 -0.3398  1.3072  1.2280
 7732SOL    HW234659   4.173   2.624   1.910 -0.9591 -0.4389  0.5573
 7733SOL     OW34660   1.373   4.588   8.293  0.3496  0.0120  0.0096
 7733SOL    HW134661   1.414   4.540   8.221 -1.9711  0.6333 -1.7504
 7733SOL    HW234662   1.286   4.614   8.264  0.7628  1.0384 -0.3025
 7734SOL     OW34663   3.482   0.097   5.042 -0.3075 -0.4486 -0.6044
 7734SOL    HW134664   3.575   0.115   5.050 -0.2583 -1.3600  0.9711
 7734SOL    HW234665   3.450   0.145   5.118 -0.0098 -0.1900 -0.6439
 7735SOL     OW34666   1.323   3.928  13.053 -0.2416 -0.3812  0.2858
 7735SOL    HW134667   1.255   3.946  13.118 -0.6238  0.9727 -0.5032
 7735SOL    HW234668   1.374   3.871  13.111 -2.2425  0.2667  2.6435
 7736SOL     OW34669   1.883   2.748   7.028  0.0237  0.0378 -0.4278
 7736SOL    HW134670   1.940   2.690   6.978 -0.0255  0.7856 -1.3469
 7736SOL    HW234671   1.903   2.710   7.113  1.1056  0.8760 -0.3195
 7737SOL     OW34672   2.620   1.651  16.573 -0.0962 -0.6612  0.1197
 7737SOL    HW134673   2.638   1.692  16.657  2.2679 -3.2794  0.8714
 7737SOL    HW234674   2.524   1.659  16.570  0.0637  1.9960  1.7251
 7738SOL     OW34675   2.193   3.552   0.094 -0.0368 -0.0875  0.4610
 7738SOL    HW134676   2.235   3.502   0.024 -1.6257  1.7719 -1.8218
 7738SOL    HW234677   2.236   3.520   0.174  1.1308 -0.8411 -0.4774
 7739SOL     OW34678   2.143   4.427   2.724 -0.5426 -0.6095 -0.5774
 7739SOL    HW134679   2.143   4.354   2.662  0.8443  0.4125 -1.7762
 7739SOL    HW234680   2.219   4.404   2.776 -0.7716 -0.1144 -0.0187
 7740SOL     OW34681   3.329   2.751   3.178  0.5042  0.4374 -0.3040
 7740SOL    HW134682   3.375   2.788   3.253  0.3497  1.3422 -0.6563
 7740SOL    HW234683   3.401   2.711   3.128  2.0444  1.1650  1.3362
 7741SOL     OW34684   0.629   3.196   1.966  0.4844  0.2547  0.1092
 7741SOL    HW134685   0.609   3.256   2.037 -2.0105 -0.2960 -0.1258
 7741SOL    HW234686   0.698   3.148   2.011  0.0314  0.4683  1.0316
 7742SOL     OW34687   1.935   2.062   7.282 -0.1684  0.6074 -0.2346
 7742SOL    HW134688   1.963   2.012   7.359 -2.1671 -1.1881 -0.6666
 7742SOL    HW234689   1.896   2.145   7.309 -0.4326 -0.0204  1.3288
 7743SOL     OW34690   1.949   3.196  14.990  0.0796  0.3094 -0.5257
 7743SOL    HW134691   1.935   3.110  14.950 -2.1718  0.5413 -0.2515
 7743SOL    HW234692   1.881   3.253  14.954  1.1354  1.2564 -1.0037
 7744SOL     OW34693   2.214   4.241  14.942  0.0954 -0.3218  0.3089
 7744SOL    HW134694   2.239   4.332  14.922 -0.4708 -0.5560 -1.4661
 7744SOL    HW234695   2.122   4.237  14.918  0.7414 -1.9735 -1.8013
 7745SOL     OW34696   4.568   0.621   1.168 -0.2913 -0.6154  0.2822
 7745SOL    HW134697   4.625   0.584   1.236  2.1037 -1.4328 -2.1330
 7745SOL    HW234698   4.583   0.715   1.171 -0.2983 -0.6269  0.6269
 7746SOL     OW34699   0.686   0.809   0.262  0.0690  0.4581 -0.3850
 7746SOL    HW134700   0.733   0.874   0.314 -1.0447  0.2086  0.9173
 7746SOL    HW234701   0.617   0.786   0.324 -0.9305  3.5625 -0.3171
 7747SOL     OW34702   1.118   0.584   5.524  0.0230  0.0480  0.0632
 7747SOL    HW134703   1.196   0.600   5.577 -1.7730 -2.4591  3.4718
 7747SOL    HW234704   1.112   0.672   5.488  0.4037 -0.6659 -1.7286
 7748SOL     OW34705   4.249   0.854   7.353  0.1329 -0.4495 -0.1334
 7748SOL    HW134706   4.258   0.794   7.279  0.8116 -1.1900  0.5443
 7748SOL    HW234707   4.249   0.797   7.430  0.4081  1.0057  0.9489
 7749SOL     OW34708   1.442   0.298   0.570  0.3225  0.1151  0.2865
 7749SOL    HW134709   1.366   0.294   0.627 -1.2073 -1.5143 -1.8668
 7749SOL    HW234710   1.473   0.388   0.579  1.7658 -0.2948 -0.3994
 7750SOL     OW34711   0.975   0.929   7.412 -0.0887  0.2682 -0.6694
 7750SOL    HW134712   1.007   0.988   7.344 -0.0661  0.7226 -0.2683
 7750SOL    HW234713   0.880   0.933   7.410 -0.0752  1.8307  1.4183
 7751SOL     OW34714   0.107   2.795   2.550  0.5866  0.1277  0.2979
 7751SOL    HW134715   0.081   2.750   2.470 -1.6816 -2.7303  2.6386
 7751SOL    HW234716   0.052   2.873   2.547 -0.1528 -0.4717 -1.6294
 7752SOL     OW34717   3.816   3.292   5.055 -0.1485  0.3074  0.7061
 7752SOL    HW134718   3.751   3.223   5.041 -1.8468  2.0699 -0.0647
 7752SOL    HW234719   3.759   3.342   5.112 -2.9809 -0.5090 -1.4307
 7753SOL     OW34720   2.198   4.616   4.395 -0.4805  0.2112 -0.8007
 7753SOL    HW134721   2.135   4.686   4.411 -1.3491 -0.4143 -1.5393
 7753SOL    HW234722   2.275   4.665   4.425 -0.0751 -1.7393  1.3660
 7754SOL     OW34723   1.151   2.428  17.264 -0.6498 -0.0839 -0.0709
 7754SOL    HW134724   1.218   2.493  17.285 -1.0487  0.2770  0.0773
 7754SOL    HW234725   1.196   2.358  17.311  0.6099  0.5921 -0.2630
 7755SOL     OW34726   3.618   1.034   9.607 -0.2622  0.3910 -0.5231
 7755SOL    HW134727   3.644   1.101   9.670 -0.0220 -1.2853  1.1479
 7755SOL    HW234728   3.535   1.064   9.571 -0.2723  2.0911  0.8903
 7756SOL     OW34729   3.624   2.388  15.237 -0.5698  0.0929  0.2356
 7756SOL    HW134730   3.667   2.368  15.320 -1.4972 -0.6285  0.5448
 7756SOL    HW234731   3.578   2.470  15.249 -0.0107  0.1690  1.8972
 7757SOL     OW34732   0.634   2.451   7.903 -0.1236 -0.2988  0.2161
 7757SOL    HW134733   0.684   2.370   7.892 -0.0929 -0.0689 -1.3631
 7757SOL    HW234734   0.656   2.484   7.990 -1.8768  4.2989 -1.0705
 7758SOL     OW34735   3.122   4.193   3.421  0.4265  0.0526 -0.8854
 7758SOL    HW134736   3.111   4.100   3.398  0.8305 -0.2777  0.2434
 7758SOL    HW234737   3.212   4.205   3.392  1.4403  1.5531  2.8715
 7759SOL     OW34738   4.404   3.364   3.659 -0.3019  0.2844  0.0274
 7759SOL    HW134739   4.345   3.358   3.734  0.6688 -0.8688  0.6859
 7759SOL    HW234740   4.458   3.438   3.689 -1.3103  1.1473 -0.2943
 7760SOL     OW34741   2.255   0.090   6.091 -0.0686 -0.3081 -0.3203
 7760SOL    HW134742   2.194   0.120   6.024  1.2735  3.1886  0.0265
 7760SOL    HW234743   2.260   0.169   6.145  0.9570 -0.9228  0.4876
 7761SOL     OW34744   0.228   0.035   6.862  0.1056  0.0114 -0.2495
 7761SOL    HW134745   0.162   4.688   6.855 -0.7389  0.6479  1.3225
 7761SOL    HW234746   0.174   0.099   6.909 -0.6568 -0.5110 -0.3999
 7762SOL     OW34747   0.703   2.816   6.144  0.3351 -0.6410 -0.7171
 7762SOL    HW134748   0.749   2.798   6.226  0.1884 -1.7709 -0.8814
 7762SOL    HW234749   0.614   2.810   6.178  0.8007  1.8548  0.9514
 7763SOL     OW34750   0.867   1.505  17.278 -0.3034  0.5906 -0.2747
 7763SOL    HW134751   0.845   1.417  17.249  1.7724  0.4706 -1.4818
 7763SOL    HW234752   0.871   1.482  17.371 -0.5028 -1.4323 -0.7618
 7764SOL     OW34753   2.967   1.353   8.104 -0.0059  0.1422  0.0864
 7764SOL    HW134754   2.872   1.341   8.108 -0.0379  0.8147  1.1707
 7764SOL    HW234755   2.975   1.359   8.009  0.6780  1.8080  0.2548
 7765SOL     OW34756   2.730   3.928  10.858  0.8004 -0.0656 -0.0501
 7765SOL    HW134757   2.646   3.952  10.897  0.3941 -1.5377 -0.0109
 7765SOL    HW234758   2.713   3.834  10.843 -0.5896 -0.0689  1.5725
 7766SOL     OW34759   1.864   3.154   9.339 -0.2507 -0.1989 -0.9436
 7766SOL    HW134760   1.772   3.174   9.324 -0.5446 -1.4970 -0.8667
 7766SOL    HW234761   1.859   3.073   9.390 -1.6606 -0.6255 -1.7615
 7767SOL     OW34762   0.243   1.282   4.916  0.5087  0.3404 -0.7135
 7767SOL    HW134763   0.223   1.350   4.981  1.8979 -0.5211  0.6254
 7767SOL    HW234764   0.187   1.310   4.845 -0.6533 -1.5535 -0.5439
 7768SOL     OW34765   3.840   0.170   6.302 -0.1344  0.0173 -0.0588
 7768SOL    HW134766   3.935   0.162   6.288  0.5361  1.3692  3.6133
 7768SOL    HW234767   3.835   0.191   6.396 -2.7252 -2.0815  0.2718
 7769SOL     OW34768   3.956   1.382   6.451  0.7349  0.1211  0.3941
 7769SOL    HW134769   3.951   1.456   6.391  0.6166 -1.0029 -0.9658
 7769SOL    HW234770   3.927   1.418   6.535  0.5417 -1.8639  1.1775
 7770SOL     OW34771   3.159   2.054   2.943  0.0925 -0.6843  0.1782
 7770SOL    HW134772   3.209   2.046   2.862  1.1154  1.8974  0.5342
 7770SOL    HW234773   3.073   2.074   2.907  1.0870  1.2329 -1.1424
 7771SOL     OW34774   4.234   2.678   0.673  0.3090 -0.0147  0.5964
 7771SOL    HW134775   4.169   2.747   0.663 -0.9352 -1.2572  0.2354
 7771SOL    HW234776   4.311   2.707   0.625 -0.8373 -1.1731 -1.9061
 7772SOL     OW34777   1.005   1.652   9.912 -0.3294 -0.6211  0.0000
 7772SOL    HW134778   1.093   1.660   9.949  0.5691 -0.3338 -2.2471
 7772SOL    HW234779   0.979   1.582   9.973  1.4587 -2.0895 -0.9289
 7773SOL     OW34780   3.115   4.365   4.507  0.1496 -0.3119 -0.1477
 7773SOL    HW134781   3.060   4.288   4.519  0.9150 -1.0291 -1.3156
 7773SOL    HW234782   3.202   4.325   4.505  1.4842  2.6011 -0.9965
 7774SOL     OW34783   1.346   4.016   1.832 -0.5356  0.0538  0.4361
 7774SOL    HW134784   1.398   3.937   1.843 -2.6763 -1.3104  0.8044
 7774SOL    HW234785   1.405   4.079   1.791 -1.4099 -0.2548 -1.2667
 7775SOL     OW34786   1.574   1.621  13.976 -0.0594  0.1636 -0.2686
 7775SOL    HW134787   1.508   1.564  13.937  0.3677 -0.6714  0.2253
 7775SOL    HW234788   1.573   1.584  14.065  0.9106  0.6331 -0.0663
 7776SOL     OW34789   0.611   3.053   8.002 -0.1761 -0.4945 -0.3685
 7776SOL    HW134790   0.521   3.084   8.006 -0.8540 -2.8698  2.1797
 7776SOL    HW234791   0.643   3.098   8.080 -1.0112 -2.5065  1.1322
 7777SOL     OW34792   1.016   0.329  16.916 -0.4922 -0.0975  0.0116
 7777SOL    HW134793   1.016   0.392  16.988  1.4014  1.5714 -1.4538
 7777SOL    HW234794   1.111   0.319  16.910 -0.7907 -1.9510 -1.6334
 7778SOL     OW34795   2.000   1.316   9.349  0.4138 -0.0773  0.5147
 7778SOL    HW134796   2.032   1.285   9.264  1.9944 -1.3285  1.5669
 7778SOL    HW234797   1.935   1.248   9.363  1.1576 -0.3313  2.6851
 7779SOL     OW34798   1.352   2.366  17.037  0.2571  0.3858 -0.1120
 7779SOL    HW134799   1.357   2.430  17.108  1.0725  0.4985 -0.2741
 7779SOL    HW234800   1.313   2.291  17.083  1.8981 -0.3983  0.0195
 7780SOL     OW34801   0.615   3.334   2.701 -0.4141  0.1079 -0.4340
 7780SOL    HW134802   0.616   3.419   2.657  0.2574 -0.8447 -2.2560
 7780SOL    HW234803   0.530   3.330   2.746  0.6487 -1.1883  1.4345
 7781SOL     OW34804   3.754   3.130   9.041 -0.5667 -0.2767  0.1023
 7781SOL    HW134805   3.773   3.223   9.040 -0.8859 -0.2104  0.2641
 7781SOL    HW234806   3.809   3.099   9.113 -0.0857  1.5425  0.5127
 7782SOL     OW34807   3.094   4.054   7.748  0.0413  0.2127 -0.1952
 7782SOL    HW134808   3.117   3.968   7.713  0.3110 -0.2850  1.2434
 7782SOL    HW234809   3.178   4.097   7.734  0.8502 -1.6383 -1.1346
 7783SOL     OW34810   1.020   1.207   6.599 -0.0347 -0.3779 -0.5310
 7783SOL    HW134811   0.939   1.258   6.601  0.5666  0.4349  2.0113
 7783SOL    HW234812   1.070   1.269   6.652  0.3467 -2.1216  1.1425
 7784SOL     OW34813   3.822   2.345   3.651  0.2673  0.2653  0.2006
 7784SOL    HW134814   3.845   2.379   3.737  1.9811  0.4668 -0.3392
 7784SOL    HW234815   3.792   2.254   3.655  0.0463  0.3734  0.9161
 7785SOL     OW34816   2.343   3.128   5.260  0.4347 -0.4609 -0.1367
 7785SOL    HW134817   2.286   3.186   5.209  0.1910 -1.2741 -0.7807
 7785SOL    HW234818   2.417   3.116   5.201  0.4811  2.6336 -0.7335
 7786SOL     OW34819   3.845   4.068   2.827 -0.0850  0.3219 -0.4138
 7786SOL    HW134820   3.939   4.052   2.823 -0.2919 -0.8014 -0.9238
 7786SOL    HW234821   3.809   3.986   2.792 -0.0055  0.4954 -0.8964
 7787SOL     OW34822   0.136   2.499  10.603 -0.4309 -0.2336  0.2697
 7787SOL    HW134823   0.105   2.517  10.692  1.8326 -0.9640  1.1979
 7787SOL    HW234824   0.066   2.476  10.542  0.8372  0.4009 -1.4372
 7788SOL     OW34825   0.537   1.869   2.539  0.1399  0.4236  0.6219
 7788SOL    HW134826   0.470   1.821   2.587 -1.3315  0.6213 -1.2156
 7788SOL    HW234827   0.527   1.956   2.576 -0.1820  0.5294  0.2852
 7789SOL     OW34828   2.046   1.169   2.997 -0.0068 -0.1095 -0.0798
 7789SOL    HW134829   1.972   1.133   3.046 -2.3270  1.9785 -2.1185
 7789SOL    HW234830   2.113   1.125   3.049 -0.3583  0.9151  1.2255
 7790SOL     OW34831   2.970   1.092   9.447  0.0410 -0.5135  0.7569
 7790SOL    HW134832   2.885   1.056   9.422  0.3938  0.5272 -1.9676
 7790SOL    HW234833   3.001   1.136   9.368  2.3143  0.2567  2.0711
 7791SOL     OW34834   4.639   3.421  11.910 -0.5124 -0.2119 -0.3076
 7791SOL    HW134835   4.676   3.365  11.843 -2.9804 -0.4439 -1.4892
 7791SOL    HW234836   4.615   3.347  11.966  1.1061 -0.0821  0.5388
 7792SOL     OW34837   1.164   4.109   3.984 -0.0795  0.0213 -0.0461
 7792SOL    HW134838   1.196   4.185   3.935 -1.8570  1.4767  1.0764
 7792SOL    HW234839   1.215   4.114   4.065 -3.3721 -1.6900  2.1216
 7793SOL     OW34840   4.262   0.681   1.286  1.1405 -0.2377 -0.0578
 7793SOL    HW134841   4.296   0.613   1.228 -0.1880 -1.6395  0.8289
 7793SOL    HW234842   4.218   0.626   1.351 -1.8430  2.4099  0.2168
 7794SOL     OW34843   0.830   1.721   9.356  0.1290  0.0033 -0.0151
 7794SOL    HW134844   0.823   1.627   9.372  1.4418  0.0417  0.7608
 7794SOL    HW234845   0.818   1.721   9.261  0.2609 -0.7785 -0.0338
 7795SOL     OW34846   3.105   1.180   0.744 -0.5977  0.6913 -0.4256
 7795SOL    HW134847   3.027   1.216   0.702 -0.1874  1.4933 -0.5019
 7795SOL    HW234848   3.165   1.254   0.736  3.4220 -2.6216 -0.8865
 7796SOL     OW34849   1.505   4.114   0.198 -0.2681 -0.5928 -0.8427
 7796SOL    HW134850   1.586   4.070   0.224 -0.7233 -1.8368 -1.5419
 7796SOL    HW234851   1.524   4.161   0.117 -0.4375 -1.7981 -1.5721
 7797SOL     OW34852   2.135   4.039   0.634 -0.2942 -0.2533 -0.5351
 7797SOL    HW134853   2.137   3.947   0.606  1.1338 -0.6460  0.8581
 7797SOL    HW234854   2.227   4.052   0.653 -0.2605  0.1722 -0.9757
 7798SOL     OW34855   1.057   2.966   4.252  0.7854 -0.5310 -0.7951
 7798SOL    HW134856   0.975   2.918   4.256  0.1082  0.7531  0.9557
 7798SOL    HW234857   1.099   2.943   4.335 -1.0509  0.7461  0.4807
 7799SOL     OW34858   4.093   2.646   5.899 -0.2142  0.5665 -0.4084
 7799SOL    HW134859   4.146   2.725   5.902  0.4879  0.0997 -0.6476
 7799SOL    HW234860   4.013   2.676   5.943 -1.3277 -1.2377 -1.2327
 7800SOL     OW34861   0.502   0.354   3.219  0.3955  0.1779  0.2160
 7800SOL    HW134862   0.593   0.381   3.233  0.6114 -2.0375  3.1946
 7800SOL    HW234863   0.463   0.436   3.190 -0.6707 -0.5935 -0.5224
 7801SOL     OW34864   0.657   4.392  10.548  0.0707 -0.4209 -0.2595
 7801SOL    HW134865   0.591   4.351  10.492 -1.4189 -0.2032  1.3684
 7801SOL    HW234866   0.730   4.330  10.551  0.1263 -0.3117  0.6443
 7802SOL     OW34867   4.096   2.053   4.193 -0.2507 -0.8168 -0.1562
 7802SOL    HW134868   4.046   1.972   4.185 -1.4491 -0.0549 -0.2205
 7802SOL    HW234869   4.093   2.103   4.112  0.2266 -0.0846  0.2780
 7803SOL     OW34870   3.901   4.614   6.011  0.2853 -0.0186  0.7106
 7803SOL    HW134871   3.819   4.620   6.059 -0.2071  1.8931 -0.3619
 7803SOL    HW234872   3.959   4.578   6.078 -1.5267 -2.4988  0.9602
 7804SOL     OW34873   1.253   0.180   8.983 -0.1001  0.0594  0.0366
 7804SOL    HW134874   1.318   0.142   8.924 -0.9030 -0.5502 -0.4588
 7804SOL    HW234875   1.278   0.272   8.989 -2.7300  0.9150 -1.7756
 7805SOL     OW34876   1.819   3.617  14.678 -0.2324 -0.1274  0.2299
 7805SOL    HW134877   1.746   3.632  14.738 -0.3328 -1.6583  0.5081
 7805SOL    HW234878   1.900   3.606  14.729 -0.5496 -1.8487  0.3816
 7806SOL     OW34879   0.831   1.080   8.756  0.1283  0.3448 -0.5672
 7806SOL    HW134880   0.789   1.152   8.804  0.6071  0.4050 -0.2350
 7806SOL    HW234881   0.769   1.009   8.770  0.2779 -0.0333 -1.8729
 7807SOL     OW34882   3.786   1.652   2.236  0.9408  0.0403  0.2365
 7807SOL    HW134883   3.816   1.599   2.162 -1.7232 -0.6128 -0.3721
 7807SOL    HW234884   3.768   1.733   2.189  2.0147 -0.0663 -0.3665
 7808SOL     OW34885   3.384   2.696  14.096 -0.0397 -0.2397  0.1353
 7808SOL    HW134886   3.471   2.680  14.059 -0.1513  2.0643 -1.1111
 7808SOL    HW234887   3.391   2.791  14.103  1.0692 -0.4870  2.3170
 7809SOL     OW34888   4.364   2.046  10.805  0.5053 -0.0017 -0.1525
 7809SOL    HW134889   4.394   1.964  10.766 -0.5912 -0.2032 -0.5779
 7809SOL    HW234890   4.395   2.036  10.894  1.0213  1.4492 -0.1597
 7810SOL     OW34891   3.439   1.827   9.204 -0.3360 -0.5049  0.3382
 7810SOL    HW134892   3.518   1.787   9.239 -0.0477  0.6495  1.0115
 7810SOL    HW234893   3.472   1.850   9.118 -0.7315 -0.0515  0.3075
 7811SOL     OW34894   2.538   3.260   1.031  0.5059 -0.4482  0.1552
 7811SOL    HW134895   2.487   3.179   1.029  3.0491 -2.0391 -0.6675
 7811SOL    HW234896   2.560   3.266   0.938 -1.2287  1.0478 -0.1539
 7812SOL     OW34897   1.734   3.254  10.224  0.3688  0.4141 -0.1077
 7812SOL    HW134898   1.823   3.245  10.258  0.6905  0.1439 -1.0080
 7812SOL    HW234899   1.691   3.286  10.303  0.2837  2.3567 -0.9491
 7813SOL     OW34900   3.593   1.232   6.638  0.2813 -0.0476 -0.5363
 7813SOL    HW134901   3.600   1.299   6.570 -0.7928  0.0771 -0.5259
 7813SOL    HW234902   3.634   1.283   6.708 -0.4859  0.0249 -0.1435
 7814SOL     OW34903   3.089   0.889   0.699  0.0105 -0.6867  0.0498
 7814SOL    HW134904   3.090   0.981   0.724 -0.4037 -0.3953 -1.0040
 7814SOL    HW234905   3.089   0.844   0.784  1.3163  2.0579  1.4677
 7815SOL     OW34906   1.345   0.607   0.276 -0.6145  0.3508  0.0930
 7815SOL    HW134907   1.386   0.558   0.206  0.3544  2.1199 -0.5885
 7815SOL    HW234908   1.381   0.695   0.260  1.0312 -0.3570 -0.0704
 7816SOL     OW34909   3.716   3.355   2.566 -0.6054 -0.0770  0.4944
 7816SOL    HW134910   3.787   3.363   2.502  0.5258  0.8876  1.8653
 7816SOL    HW234911   3.657   3.295   2.521 -0.8772  0.8432 -0.3895
 7817SOL     OW34912   3.990   2.577   0.177  0.1463 -0.5195  0.1803
 7817SOL    HW134913   4.063   2.619   0.223  1.5400 -2.8351  0.0752
 7817SOL    HW234914   4.021   2.597   0.089 -0.5912 -2.8359 -0.6073
 7818SOL     OW34915   0.382   0.790   6.035  0.3763  0.6278 -0.8932
 7818SOL    HW134916   0.330   0.870   6.033 -1.9520 -0.8620  0.1741
 7818SOL    HW234917   0.309   0.734   6.009 -0.3044  0.2661  1.8490
 7819SOL     OW34918   4.606   2.334   3.642 -0.3408 -0.3855  0.6740
 7819SOL    HW134919   4.628   2.320   3.550 -0.5191  0.2724  0.5244
 7819SOL    HW234920   4.559   2.418   3.637  1.4020  0.4723 -1.3629
 7820SOL     OW34921   2.747   1.317   2.233  0.9379  0.0811 -0.1594
 7820SOL    HW134922   2.716   1.407   2.223  1.0955 -0.1231 -2.5008
 7820SOL    HW234923   2.750   1.279   2.145 -0.9286 -0.9988  0.2556
 7821SOL     OW34924   1.723   3.508   6.582  0.4117 -0.0424  0.1347
 7821SOL    HW134925   1.698   3.487   6.492 -1.4881 -1.4345  0.9951
 7821SOL    HW234926   1.813   3.477   6.577 -0.3658 -1.8930 -2.5985
 7822SOL     OW34927   1.475   2.337   6.995  0.3149  0.1334  0.4488
 7822SOL    HW134928   1.516   2.313   6.912  0.4554  0.7275  0.3487
 7822SOL    HW234929   1.512   2.425   7.002 -0.4951  0.4505  0.8030
 7823SOL     OW34930   1.050   2.622   7.275  0.6465  0.1503  0.4389
 7823SOL    HW134931   1.111   2.694   7.292  0.3633  0.6317 -0.5842
 7823SOL    HW234932   0.971   2.660   7.313 -1.0992 -1.4466 -1.6765
 7824SOL     OW34933   2.229   3.834   4.119  0.2201 -0.3889 -0.4214
 7824SOL    HW134934   2.138   3.807   4.124  0.2631 -0.5484 -0.4990
 7824SOL    HW234935   2.230   3.918   4.072 -1.5692  0.2256  0.6738
 7825SOL     OW34936   1.428   4.422   6.378  0.4030 -0.1796  0.1005
 7825SOL    HW134937   1.368   4.469   6.436 -1.0896 -0.2507 -1.3914
 7825SOL    HW234938   1.392   4.467   6.301 -1.2116 -0.6276  0.5979
 7826SOL     OW34939   3.206   2.423   0.639  0.0397 -0.1224  0.4836
 7826SOL    HW134940   3.270   2.471   0.691  0.8378 -0.8922  0.2074
 7826SOL    HW234941   3.222   2.441   0.546 -3.0069 -0.3170 -0.0756
 7827SOL     OW34942   0.558   3.492   7.610  0.5996  0.1757  0.5562
 7827SOL    HW134943   0.604   3.421   7.565  0.5836  0.6732 -0.2342
 7827SOL    HW234944   0.566   3.472   7.703 -0.9261 -1.5728  0.3037
 7828SOL     OW34945   4.147   0.519   6.761  0.2659  0.1529 -0.0320
 7828SOL    HW134946   4.070   0.543   6.812  0.3013  0.7824 -0.2772
 7828SOL    HW234947   4.145   0.424   6.745  0.2218  0.0357  0.6709
 7829SOL     OW34948   2.900   1.529   4.888  0.5406  0.3291 -0.6248
 7829SOL    HW134949   2.914   1.585   4.812 -0.2924  1.6008  0.1518
 7829SOL    HW234950   2.972   1.466   4.892 -0.7538 -1.0781  0.4608
 7830SOL     OW34951   2.934   2.397   2.923  0.3972 -0.3918 -0.1482
 7830SOL    HW134952   3.007   2.406   2.985 -0.6906 -1.2286  1.2696
 7830SOL    HW234953   2.870   2.457   2.962 -0.4831  0.3276 -2.7528
 7831SOL     OW34954   2.562   1.548   5.767 -0.4014  0.3296  0.3127
 7831SOL    HW134955   2.573   1.546   5.862  2.3493 -1.0734 -0.0596
 7831SOL    HW234956   2.486   1.607   5.762 -0.7770 -0.1466  0.4850
 7832SOL     OW34957   1.303   2.792  12.675 -0.3605  0.4576  0.0633
 7832SOL    HW134958   1.380   2.792  12.619 -0.1246  0.3332  0.3873
 7832SOL    HW234959   1.342   2.834  12.751 -3.1049 -0.2052  1.8620
 7833SOL     OW34960   1.355   3.373   2.746 -0.0857  0.2935  0.2509
 7833SOL    HW134961   1.331   3.325   2.825 -1.7482 -0.1983 -0.5533
 7833SOL    HW234962   1.266   3.399   2.724  0.1483 -2.2365 -3.8745
 7834SOL     OW34963   2.918   1.549  13.376 -0.2609 -0.2211  0.8381
 7834SOL    HW134964   2.898   1.487  13.446 -0.2527 -0.5604  0.5384
 7834SOL    HW234965   2.939   1.622  13.435 -1.4466  1.4913 -0.8274
 7835SOL     OW34966   2.665   1.530   6.016  0.2680  0.2244  0.2731
 7835SOL    HW134967   2.621   1.611   6.039 -0.0804  0.4133 -1.0246
 7835SOL    HW234968   2.756   1.553   6.032  0.4683 -1.2861  1.3429
 7836SOL     OW34969   3.694   2.489   2.030 -0.9312 -0.1208  0.0627
 7836SOL    HW134970   3.697   2.396   2.007  0.3150  0.5154 -2.3572
 7836SOL    HW234971   3.735   2.484   2.117 -1.0529 -0.6869  0.0885
 7837SOL     OW34972   2.038   3.720   4.352  0.2840  0.2580 -0.2239
 7837SOL    HW134973   2.004   3.804   4.383  3.5736  2.7476 -3.3738
 7837SOL    HW234974   2.003   3.718   4.263  0.6044 -0.8399 -0.3282
 7838SOL     OW34975   3.988   2.292   7.911 -0.2616 -0.4072  0.4392
 7838SOL    HW134976   4.025   2.251   7.990 -1.7670 -3.4195 -0.4147
 7838SOL    HW234977   3.901   2.251   7.913 -2.0601  3.3660 -0.6687
 7839SOL     OW34978   4.247   0.864   2.212 -0.4161  0.4011  0.1170
 7839SOL    HW134979   4.316   0.910   2.164  0.4026  0.0337  0.9336
 7839SOL    HW234980   4.218   0.807   2.141 -2.7500  0.4658  0.9988
 7840SOL     OW34981   3.565   3.267   5.749  0.0397 -0.0829 -0.2653
 7840SOL    HW134982   3.613   3.207   5.805  0.0916  2.8344  2.8060
 7840SOL    HW234983   3.574   3.349   5.797 -2.0856  0.1011 -0.1802
 7841SOL     OW34984   2.304   2.527  17.010 -0.7738  0.1740 -0.2823
 7841SOL    HW134985   2.383   2.535  16.956 -0.3615 -0.2700  0.2537
 7841SOL    HW234986   2.273   2.618  17.015  0.7017  0.7111 -0.7452
 7842SOL     OW34987   2.097   3.430  17.389  0.6069  0.3758  0.4315
 7842SOL    HW134988   2.113   3.514  17.432 -3.9319  0.4919  1.9267
 7842SOL    HW234989   2.099   3.450  17.295 -1.5438  2.0256  0.7213
 7843SOL     OW34990   2.211   0.744  16.158  0.2377 -0.3837 -0.8087
 7843SOL    HW134991   2.145   0.805  16.125 -0.1945 -0.3403  0.1278
 7843SOL    HW234992   2.282   0.762  16.097  1.7127 -0.1359  0.9948
 7844SOL     OW34993   0.432   1.498   3.937  0.0277  0.1999 -0.0772
 7844SOL    HW134994   0.460   1.569   3.994 -1.0193  0.3279  0.2904
 7844SOL    HW234995   0.344   1.478   3.971 -0.3917 -0.6457 -1.6365
 7845SOL     OW34996   0.957   2.081   5.695 -0.4888  0.2910  0.4466
 7845SOL    HW134997   0.872   2.115   5.665 -0.9773 -0.7519  0.6328
 7845SOL    HW234998   0.929   1.990   5.706  0.7055 -0.1591 -0.2595
 7846SOL     OW34999   0.244   0.718   8.494  0.0246  0.2927  0.0105
 7846SOL    HW135000   0.296   0.706   8.573  0.4664  0.8428 -0.2018
 7846SOL    HW235001   0.255   0.631   8.455  0.0317 -0.0869  0.8645
 7847SOL     OW35002   0.194   3.176   2.586  0.4572  0.7104  0.0744
 7847SOL    HW135003   0.214   3.211   2.499 -2.6547  0.6256 -0.6640
 7847SOL    HW235004   0.120   3.118   2.573  0.7627  0.1367  0.8859
 7848SOL     OW35005   3.729   4.329   0.448 -0.3928 -0.4890 -0.3396
 7848SOL    HW135006   3.795   4.394   0.422 -0.5709  0.0334  0.5501
 7848SOL    HW235007   3.761   4.255   0.396 -0.4939  0.2055 -1.4074
 7849SOL     OW35008   1.569   4.671  14.785  0.4616  0.3055 -0.4173
 7849SOL    HW135009   1.635   4.644  14.721  1.6046 -0.0503  0.9132
 7849SOL    HW235010   1.487   4.664  14.737  0.1709 -0.7558  0.2299
 7850SOL     OW35011   1.169   3.265  10.194 -0.1799 -0.0952 -0.0467
 7850SOL    HW135012   1.213   3.182  10.181 -0.1479 -0.0176 -0.4463
 7850SOL    HW235013   1.233   3.336  10.197 -0.2533  0.0179 -0.9412
 7851SOL     OW35014   4.686   1.128   7.746 -0.3163 -0.2605 -0.3831
 7851SOL    HW135015   4.632   1.122   7.667  2.6742  1.4891 -2.5479
 7851SOL    HW235016   0.031   1.062   7.726 -0.7942  0.2889 -3.8194
 7852SOL     OW35017   0.776   4.696  15.348 -0.4026  0.1443  0.3242
 7852SOL    HW135018   0.840   0.045  15.340  1.8800 -1.8400  0.9431
 7852SOL    HW235019   0.772   4.661  15.259 -1.4010  1.0577  0.0110
 7853SOL     OW35020   3.667   3.546   4.552 -0.0480  0.0095  0.2210
 7853SOL    HW135021   3.739   3.610   4.554 -0.5411  0.5899 -0.5413
 7853SOL    HW235022   3.646   3.530   4.460 -2.3481  0.4193  0.6778
 7854SOL     OW35023   0.637   1.168   3.198  0.2105 -0.4351  0.0578
 7854SOL    HW135024   0.659   1.227   3.270  1.8835 -0.0620 -0.7503
 7854SOL    HW235025   0.716   1.115   3.192  0.9980  0.8502 -0.9343
 7855SOL     OW35026   1.018   3.947  11.219  0.5307  0.1557  0.2785
 7855SOL    HW135027   0.935   3.990  11.200  0.2508 -0.2373  0.6250
 7855SOL    HW235028   0.993   3.855  11.211  0.8267  0.1652 -0.8448
 7856SOL     OW35029   0.922   3.529   2.734  0.0888 -0.2390  0.1133
 7856SOL    HW135030   0.852   3.532   2.799  1.0846 -0.0814  1.1773
 7856SOL    HW235031   0.901   3.609   2.686  0.1024 -1.0562 -1.2825
 7857SOL     OW35032   0.354   0.043   8.296  0.1902  0.0931  0.6603
 7857SOL    HW135033   0.436   0.015   8.337  1.3912  1.1620 -1.0259
 7857SOL    HW235034   0.324   0.099   8.368 -0.4521  1.4786 -0.6811
 7858SOL     OW35035   1.557   4.035   8.956  0.1199  0.6546  0.3274
 7858SOL    HW135036   1.556   3.941   8.941  0.3909  0.4353  1.6970
 7858SOL    HW235037   1.549   4.073   8.868  0.5421  1.0534  0.4613
 7859SOL     OW35038   3.957   2.924   7.300 -0.2556  0.2604 -0.2145
 7859SOL    HW135039   3.988   2.898   7.387  0.8530 -0.0772 -0.7074
 7859SOL    HW235040   3.980   3.017   7.300  1.7101 -0.2293 -0.7247
 7860SOL     OW35041   1.115   3.271   4.827  0.3161  0.1672 -0.7133
 7860SOL    HW135042   1.145   3.265   4.736 -0.8898 -2.9663 -0.8941
 7860SOL    HW235043   1.159   3.194   4.863 -2.6121 -1.1996 -0.1508
 7861SOL     OW35044   2.286   1.659   3.329 -0.6069  0.4067  0.1544
 7861SOL    HW135045   2.316   1.589   3.270 -0.7791  1.1400 -0.7944
 7861SOL    HW235046   2.311   1.736   3.278  0.7621 -1.3716 -1.8724
 7862SOL     OW35047   3.463   3.495   2.542 -0.4267 -0.5575  0.7232
 7862SOL    HW135048   3.475   3.491   2.447  0.5993  1.7037  0.7553
 7862SOL    HW235049   3.546   3.535   2.570  0.7679 -0.7470 -2.4617
 7863SOL     OW35050   3.629   0.208  17.206 -0.8252  0.2666 -0.4562
 7863SOL    HW135051   3.598   0.283  17.256 -1.3355 -1.1484  1.3486
 7863SOL    HW235052   3.687   0.250  17.142 -1.6736  0.0304 -1.3694
 7864SOL     OW35053   1.826   0.234   8.553 -0.5024  0.3638  0.1887
 7864SOL    HW135054   1.818   0.261   8.461  0.1390  0.3281  0.1233
 7864SOL    HW235055   1.874   0.152   8.545  1.2626  1.3407  0.7606
 7865SOL     OW35056   2.558   0.329   5.317  0.1156  0.0813 -0.2307
 7865SOL    HW135057   2.606   0.391   5.372  1.7252  0.2718 -1.8611
 7865SOL    HW235058   2.522   0.394   5.257 -0.5883  1.9140  2.1692
 7866SOL     OW35059   3.354   0.067  12.745 -0.0026  0.5798  0.1428
 7866SOL    HW135060   3.392   0.152  12.766  0.6161  0.8914 -2.2828
 7866SOL    HW235061   3.289   0.072  12.675 -0.6891 -1.5512  0.6093
 7867SOL     OW35062   1.790   3.578  16.207  0.6807 -1.0233  0.0318
 7867SOL    HW135063   1.819   3.508  16.265  3.3050 -0.4202 -0.5685
 7867SOL    HW235064   1.706   3.585  16.252  0.2242  0.0197 -0.9948
 7868SOL     OW35065   4.271   4.552   1.034 -0.1578  0.3485 -0.2075
 7868SOL    HW135066   4.249   4.630   1.085  0.0098  1.0724 -1.2432
 7868SOL    HW235067   4.316   4.495   1.097 -1.4269 -0.0462  0.3432
 7869SOL     OW35068   1.930   4.375  16.264 -0.1096  0.1853  0.0810
 7869SOL    HW135069   1.844   4.356  16.302 -0.2589  1.4364  0.3558
 7869SOL    HW235070   1.974   4.291  16.281 -1.8075 -0.6144  0.5856
 7870SOL     OW35071   1.973   0.507   3.257 -0.1551  0.0791 -0.1735
 7870SOL    HW135072   2.039   0.446   3.226 -0.3611 -0.7065  0.9057
 7870SOL    HW235073   2.000   0.591   3.221 -0.4703  1.4392  2.7002
 7871SOL     OW35074   4.054   3.968   7.951 -0.0372  0.0760 -0.6579
 7871SOL    HW135075   4.111   3.909   7.999 -0.0794  0.3648 -0.2522
 7871SOL    HW235076   4.111   4.040   7.923  0.4586 -0.8026 -1.8973
 7872SOL     OW35077   3.739   4.013  16.706  1.1586  0.5533 -0.7917
 7872SOL    HW135078   3.827   3.985  16.680  1.0577  0.0427 -0.5977
 7872SOL    HW235079   3.730   4.088  16.648  0.4920 -0.3402 -1.8519
 7873SOL     OW35080   4.197   4.427   3.367 -0.2289 -0.2185  0.1496
 7873SOL    HW135081   4.124   4.440   3.307  0.1785 -1.2182 -0.5764
 7873SOL    HW235082   4.269   4.438   3.305 -0.8312 -1.5133 -0.7819
 7874SOL     OW35083   3.937   4.425   3.247 -0.3405 -0.2887  0.0978
 7874SOL    HW135084   3.923   4.333   3.271  2.5012 -1.3616 -2.2527
 7874SOL    HW235085   3.875   4.464   3.308 -1.0791  0.2670 -1.0132
 7875SOL     OW35086   0.919   3.355   9.355 -0.0608  0.1653 -0.6350
 7875SOL    HW135087   0.875   3.343   9.439 -0.1468  2.3752 -0.3795
 7875SOL    HW235088   0.886   3.285   9.298 -0.3846 -0.4853  0.3579
 7876SOL     OW35089   4.041   2.553  11.275  0.4470  0.2996  0.3662
 7876SOL    HW135090   3.964   2.525  11.225  0.7911 -0.2066  0.1223
 7876SOL    HW235091   4.094   2.474  11.264 -0.2179  0.1742 -2.0636
 7877SOL     OW35092   1.232   4.571  10.422 -0.3233 -0.2824 -0.2033
 7877SOL    HW135093   1.178   4.581  10.501 -2.1206  0.8182 -1.5613
 7877SOL    HW235094   1.293   4.643  10.439 -0.1269  0.0064 -2.1201
 7878SOL     OW35095   4.260   3.139   7.632 -0.1388 -0.3018 -0.6189
 7878SOL    HW135096   4.293   3.053   7.655  0.5798 -0.0776 -0.8227
 7878SOL    HW235097   4.334   3.199   7.627  0.5169 -0.9560  1.1099
 7879SOL     OW35098   0.182   3.937   8.480  0.1063 -0.3114  0.1924
 7879SOL    HW135099   0.092   3.937   8.514  0.2794 -1.8188  0.6792
 7879SOL    HW235100   0.225   3.896   8.556  0.7045  1.7444  0.9691
 7880SOL     OW35101   4.585   1.405  14.587 -0.1061 -0.2988 -0.3520
 7880SOL    HW135102   4.540   1.472  14.639  0.9020  1.5444 -1.8662
 7880SOL    HW235103   4.658   1.379  14.644 -1.7511  2.2882  2.9386
 7881SOL     OW35104   1.894   1.003   4.958 -0.2070  0.2790  0.2780
 7881SOL    HW135105   1.846   0.975   4.880  0.1471  1.8009 -0.4907
 7881SOL    HW235106   1.821   1.000   5.020 -1.0546  0.4629 -0.7100
 7882SOL     OW35107   2.192   3.958   8.778  0.0758  0.3172 -0.3690
 7882SOL    HW135108   2.128   3.951   8.849 -0.1981 -2.6556 -0.9114
 7882SOL    HW235109   2.209   3.872   8.740  0.4986 -1.6285  4.2285
 7883SOL     OW35110   1.590   3.863  10.987  0.0811 -0.1088  0.2711
 7883SOL    HW135111   1.643   3.940  10.967  2.1296 -1.4038  0.6938
 7883SOL    HW235112   1.557   3.876  11.076 -1.3981  1.3070 -0.4870
 7884SOL     OW35113   0.824   0.761   7.151  0.2998 -0.2053  1.0566
 7884SOL    HW135114   0.882   0.695   7.114  0.7790  2.6779 -3.3798
 7884SOL    HW235115   0.777   0.788   7.072 -1.8568 -2.4651  1.5463
 7885SOL     OW35116   0.181   3.986   3.508 -0.0214 -0.0878  0.3220
 7885SOL    HW135117   0.265   4.001   3.552  0.4744  1.7645 -1.2225
 7885SOL    HW235118   0.189   4.062   3.449  1.5966 -0.7661 -0.3212
 7886SOL     OW35119   3.105   0.253   4.210 -0.0988  0.4280  0.0111
 7886SOL    HW135120   3.158   0.196   4.266  0.1768  0.1042 -0.5814
 7886SOL    HW235121   3.170   0.302   4.159  1.5497  1.1084  2.7852
 7887SOL     OW35122   1.839   0.772  14.650  0.2197  0.4581  0.8163
 7887SOL    HW135123   1.766   0.754  14.591  0.4841 -0.2379  0.6990
 7887SOL    HW235124   1.902   0.823  14.599 -1.6624  0.3738 -1.6033
 7888SOL     OW35125   1.295   2.111  16.779  0.9424 -0.0558  0.3706
 7888SOL    HW135126   1.253   2.122  16.865 -0.9278  0.4811 -0.6235
 7888SOL    HW235127   1.233   2.162  16.727  1.4162  0.0058 -0.1285
 7889SOL     OW35128   2.543   1.642   2.932  0.5086  0.3537  0.1736
 7889SOL    HW135129   2.586   1.588   2.866  0.2170  0.7233 -0.3198
 7889SOL    HW235130   2.581   1.727   2.910  0.1096  0.5549  0.2657
 7890SOL     OW35131   3.305   0.842   5.351  0.3094 -0.2418  0.3114
 7890SOL    HW135132   3.280   0.917   5.405 -3.1203 -0.9615 -0.2409
 7890SOL    HW235133   3.295   0.766   5.409  1.3437  1.2857  2.4810
 7891SOL     OW35134   2.900   3.836   2.650 -0.1595 -0.0457  0.0069
 7891SOL    HW135135   2.982   3.859   2.606 -0.3013  1.4676  0.5288
 7891SOL    HW235136   2.876   3.757   2.602  0.2697 -0.4045  0.3876
 7892SOL     OW35137   1.123   2.024   2.711 -0.1703 -0.5608  0.4236
 7892SOL    HW135138   1.053   2.019   2.646 -0.7590  2.3863  0.8254
 7892SOL    HW235139   1.115   1.941   2.758  2.0784  0.7550  3.0725
 7893SOL     OW35140   3.652   1.820   4.968  0.4726  0.5776  0.1643
 7893SOL    HW135141   3.644   1.915   4.969  3.3422  0.8300 -0.4556
 7893SOL    HW235142   3.558   1.803   4.972  0.4446  0.0977 -2.1869
 7894SOL     OW35143   0.952   2.379  16.150 -0.6154  0.4550  0.1192
 7894SOL    HW135144   1.017   2.341  16.090 -2.4486  1.0041 -2.2026
 7894SOL    HW235145   0.900   2.437  16.094 -0.7816  0.2756  0.0885
 7895SOL     OW35146   2.918   1.027  15.070 -0.1602  0.4034  0.2537
 7895SOL    HW135147   2.967   1.106  15.044  0.7869 -0.6270 -1.1110
 7895SOL    HW235148   2.829   1.059  15.084  0.5598  3.4307 -2.0688
 7896SOL     OW35149   0.095   4.359   3.732 -0.2893  0.0903 -0.6395
 7896SOL    HW135150   0.023   4.415   3.703 -0.1715  2.4737  3.6556
 7896SOL    HW235151   0.054   4.313   3.805 -0.0048 -1.0844 -1.2272
 7897SOL     OW35152   1.788   0.805   4.506  0.8655  0.1645  0.2004
 7897SOL    HW135153   1.779   0.839   4.595  1.5481 -1.8011  1.0170
 7897SOL    HW235154   1.826   0.719   4.526 -1.2652 -0.5116  1.4051
 7898SOL     OW35155   0.925   1.661  11.366  0.2598 -0.0428  0.0095
 7898SOL    HW135156   0.974   1.620  11.438 -0.9726 -0.1035  0.8195
 7898SOL    HW235157   0.989   1.693  11.303  1.0328  0.7107  1.1864
 7899SOL     OW35158   3.367   2.499   3.910 -0.1108 -0.4886  0.1567
 7899SOL    HW135159   3.440   2.531   3.856  0.1689 -0.7588  0.3755
 7899SOL    HW235160   3.299   2.554   3.872  0.7871  1.7991  1.8815
 7900SOL     OW35161   3.036   0.003  15.109 -0.2822 -0.2300  0.3096
 7900SOL    HW135162   2.968   0.068  15.123  0.1651  0.0921  0.9549
 7900SOL    HW235163   3.025   0.003  15.014  0.9944  1.0223  0.1590
 7901SOL     OW35164   3.991   3.157   7.501  0.3913 -0.0675  0.7476
 7901SOL    HW135165   4.050   3.178   7.574  2.1406  1.7458 -1.2131
 7901SOL    HW235166   3.910   3.197   7.530 -0.3878 -1.6662  0.7741
 7902SOL     OW35167   2.693   2.179   3.262  0.2269 -0.0251 -0.0521
 7902SOL    HW135168   2.776   2.170   3.215 -0.7137 -2.9609 -1.1211
 7902SOL    HW235169   2.658   2.094   3.237 -1.6971  0.6052  0.5041
 7903SOL     OW35170   0.741   1.431   5.358 -0.6579  0.1181 -0.7768
 7903SOL    HW135171   0.762   1.459   5.269  3.2815 -0.3787  0.0168
 7903SOL    HW235172   0.646   1.442   5.369 -1.0254 -2.8613 -1.0672
 7904SOL     OW35173   0.727   3.968  11.424 -0.1149 -0.2925 -0.5522
 7904SOL    HW135174   0.762   4.014  11.348 -0.2907  0.5518 -0.1137
 7904SOL    HW235175   0.640   3.943  11.391 -0.0172 -0.4938 -0.6613
 7905SOL     OW35176   2.953   1.260   3.708  0.5984  0.4659  0.0711
 7905SOL    HW135177   3.048   1.254   3.710  0.5332 -0.4411  0.3599
 7905SOL    HW235178   2.932   1.334   3.765 -1.1232 -0.4915  0.6756
 7906SOL     OW35179   0.260   0.830  17.080 -0.0023  0.1932  0.2687
 7906SOL    HW135180   0.220   0.812  16.995  1.9795 -0.4300 -0.5344
 7906SOL    HW235181   0.277   0.739  17.103  3.8360  0.8557  0.0472
 7907SOL     OW35182   3.086   4.568   9.523 -0.1203 -0.3215  0.2151
 7907SOL    HW135183   3.085   4.632   9.595  2.4355  0.6954 -0.6325
 7907SOL    HW235184   3.070   4.489   9.574  0.4275 -0.3541  0.3417
 7908SOL     OW35185   4.617   1.484  15.530 -0.0102  0.4155 -0.0256
 7908SOL    HW135186   4.612   1.524  15.443 -2.8484  0.0664 -0.0284
 7908SOL    HW235187   4.693   1.429  15.513 -0.8298 -0.9374  0.7044
 7909SOL     OW35188   3.585   2.547   5.974  0.3079  0.2105  0.1495
 7909SOL    HW135189   3.634   2.474   6.012  1.9061  0.7315 -0.9011
 7909SOL    HW235190   3.514   2.545   6.038  0.6372  0.2003  0.5078
 7910SOL     OW35191   0.309   1.773   4.449  0.1316 -0.1702 -0.3572
 7910SOL    HW135192   0.387   1.827   4.433  0.3600 -0.3905  0.0002
 7910SOL    HW235193   0.348   1.687   4.466 -0.8339 -0.8271 -1.5378
 7911SOL     OW35194   2.733   4.687   3.826  0.0612  0.0164 -0.1860
 7911SOL    HW135195   2.707   0.033   3.889 -0.3987  0.5376 -0.9405
 7911SOL    HW235196   2.699   0.001   3.744  2.2283 -0.0715 -1.1249
 7912SOL     OW35197   3.309   1.123   3.097  0.0108 -0.4206  0.3380
 7912SOL    HW135198   3.287   1.213   3.118 -0.1153 -0.2950 -0.3383
 7912SOL    HW235199   3.398   1.108   3.131 -0.4439 -2.8632  0.4877
 7913SOL     OW35200   0.673   0.508  11.729  0.3672  0.1136 -0.0820
 7913SOL    HW135201   0.642   0.598  11.736  2.6466  0.7958  1.3751
 7913SOL    HW235202   0.593   0.457  11.720  0.5293  0.0100 -0.9744
 7914SOL     OW35203   1.194   0.410  11.752 -0.5667 -0.0204  0.1186
 7914SOL    HW135204   1.228   0.340  11.697 -1.0927  0.3789 -0.7171
 7914SOL    HW235205   1.104   0.378  11.753 -0.8850  0.8392 -0.3563
 7915SOL     OW35206   2.813   2.736   1.248 -0.0506  0.9467  0.2982
 7915SOL    HW135207   2.869   2.668   1.214 -1.6119 -0.3127  0.2311
 7915SOL    HW235208   2.761   2.696   1.318 -3.0803  2.5324 -1.0327
 7916SOL     OW35209   2.007   1.793   8.642 -0.1809  0.0198 -0.4771
 7916SOL    HW135210   1.997   1.698   8.645 -2.8485  0.2441 -2.2695
 7916SOL    HW235211   1.921   1.823   8.612 -0.8115 -0.2654  1.0766
 7917SOL     OW35212   2.814   3.170   6.053  0.9513 -0.3034  0.1105
 7917SOL    HW135213   2.841   3.164   5.961  0.6678 -0.1599  0.0148
 7917SOL    HW235214   2.886   3.125   6.098  2.3939  0.3760 -1.5435
 7918SOL     OW35215   0.716   0.985  15.198  0.5431 -0.5505 -0.3858
 7918SOL    HW135216   0.762   1.034  15.267  1.1020 -0.7832 -0.5960
 7918SOL    HW235217   0.627   1.021  15.202  1.9435  2.8474 -0.3086
 7919SOL     OW35218   4.462   4.210   7.481  0.1763  0.5182  0.3783
 7919SOL    HW135219   4.510   4.249   7.554  0.1957  1.1419  0.0353
 7919SOL    HW235220   4.391   4.166   7.526 -0.4509 -1.6518 -2.6926
 7920SOL     OW35221   3.025   2.232   3.375 -0.3023 -0.6158  0.2715
 7920SOL    HW135222   3.100   2.206   3.322  1.9594  0.6123  2.8219
 7920SOL    HW235223   2.976   2.150   3.369  2.6568 -2.2744 -1.1848
 7921SOL     OW35224   2.090   1.454   5.458  0.5952  0.2465 -0.1896
 7921SOL    HW135225   2.151   1.441   5.385  0.8219 -1.1560  0.2393
 7921SOL    HW235226   2.009   1.460   5.406  0.6638 -1.0749 -0.4576
 7922SOL     OW35227   2.843   2.706   8.330 -0.1872 -0.3699  0.0893
 7922SOL    HW135228   2.789   2.644   8.282 -1.3696 -2.6922  4.3739
 7922SOL    HW235229   2.877   2.764   8.263 -1.0268  1.8889  1.5986
 7923SOL     OW35230   1.228   1.176   6.898 -0.4331 -0.0587 -0.4812
 7923SOL    HW135231   1.186   1.261   6.908  0.9560  1.0693 -4.4080
 7923SOL    HW235232   1.308   1.188   6.949  0.6461  0.3753 -2.2709
 7924SOL     OW35233   0.061   3.806   5.181 -0.6430 -0.5293  0.4081
 7924SOL    HW135234   0.053   3.887   5.130 -0.4062 -0.5256  0.3760
 7924SOL    HW235235   0.009   3.744   5.131  0.4665 -0.9149 -0.2567
 7925SOL     OW35236   0.052   0.701   3.495  0.3473  0.2942 -0.2838
 7925SOL    HW135237   0.122   0.648   3.458  1.7543 -0.1687  3.0366
 7925SOL    HW235238   0.036   0.773   3.434  0.1261  0.6759  0.2175
 7926SOL     OW35239   2.435   0.727   7.302 -0.1273 -0.3913 -0.3576
 7926SOL    HW135240   2.506   0.697   7.358 -0.0442 -1.0295 -0.8127
 7926SOL    HW235241   2.487   0.764   7.231  0.3925 -1.4094 -0.5071
 7927SOL     OW35242   1.792   2.916   2.107  0.3342  0.3580  0.1609
 7927SOL    HW135243   1.810   3.004   2.075  1.0002 -0.2715 -1.1875
 7927SOL    HW235244   1.864   2.869   2.065 -1.2779 -1.9909  0.0344
 7928SOL     OW35245   1.783   4.315  14.326 -0.3074  0.3393 -0.5281
 7928SOL    HW135246   1.698   4.273  14.312 -0.1022 -1.3743  3.3416
 7928SOL    HW235247   1.772   4.407  14.301  0.0044  0.9100  1.3964
 7929SOL     OW35248   4.000   4.441   4.330  0.3388 -0.0503  0.4400
 7929SOL    HW135249   4.004   4.448   4.425  2.5655  3.6152  0.0901
 7929SOL    HW235250   4.076   4.491   4.301  0.7000 -0.0368  1.4230
 7930SOL     OW35251   4.005   2.905   5.685 -0.3716  0.3138  0.0206
 7930SOL    HW135252   3.938   2.973   5.680 -1.0391 -0.7619 -5.0275
 7930SOL    HW235253   4.048   2.917   5.770  0.3230  1.4621 -0.4985
 7931SOL     OW35254   0.585   1.898   6.045 -0.2216 -0.0858  0.2736
 7931SOL    HW135255   0.587   1.838   6.120 -3.6994  0.6402  0.9283
 7931SOL    HW235256   0.673   1.937   6.038 -0.9462  0.9927 -2.6951
 7932SOL     OW35257   4.336   4.565   4.157  0.0813  0.0317  0.0136
 7932SOL    HW135258   4.309   4.560   4.065 -1.3734 -2.1395  0.5707
 7932SOL    HW235259   4.333   4.472   4.175 -0.7999  0.1051  0.2589
 7933SOL     OW35260   1.459   3.045   7.710 -0.1329 -0.5108 -0.1691
 7933SOL    HW135261   1.410   3.028   7.790  2.0434  0.6546  1.4395
 7933SOL    HW235262   1.484   3.135   7.731  0.5862 -0.7565  0.0496
 7934SOL     OW35263   0.059   1.936   9.644 -0.2055  0.2323 -0.1668
 7934SOL    HW135264   0.105   1.952   9.562 -0.6940 -0.0916 -0.5091
 7934SOL    HW235265   4.712   1.878   9.611 -0.9306  0.1276  1.5378
 7935SOL     OW35266   1.263   0.927  14.778  0.2500 -0.3111  0.2152
 7935SOL    HW135267   1.168   0.942  14.774  0.1561 -0.8575  0.4258
 7935SOL    HW235268   1.269   0.902  14.870  0.2622  2.1564  0.8717
 7936SOL     OW35269   0.581   1.345   6.090  0.3410 -0.4362 -0.5931
 7936SOL    HW135270   0.511   1.292   6.128 -0.4099 -0.5148 -2.0939
 7936SOL    HW235271   0.641   1.278   6.059 -0.3097 -1.4012  0.2571
 7937SOL     OW35272   1.824   2.735   2.944  0.4531 -0.3187  0.4322
 7937SOL    HW135273   1.868   2.697   3.019 -0.5542  0.4593  1.4244
 7937SOL    HW235274   1.892   2.732   2.876 -1.3334 -0.8774 -1.3322
 7938SOL     OW35275   2.869   2.725   3.927 -0.6130 -0.6105 -1.2493
 7938SOL    HW135276   2.816   2.801   3.902  3.3704  2.1766 -1.2672
 7938SOL    HW235277   2.946   2.753   3.877  0.4544 -1.6215 -0.1752
 7939SOL     OW35278   3.561   4.519   6.666  0.2554  0.1708 -0.1712
 7939SOL    HW135279   3.652   4.525   6.635  0.6623  1.6537  1.3181
 7939SOL    HW235280   3.559   4.572   6.745 -1.2480 -1.9478  1.2070
 7940SOL     OW35281   0.396   0.967   8.628 -0.6107  0.0874 -0.2986
 7940SOL    HW135282   0.454   0.892   8.613 -1.4063 -0.5068 -0.3875
 7940SOL    HW235283   0.392   0.998   8.537  0.3054  0.5470 -0.1859
 7941SOL     OW35284   2.927   3.387  16.058 -0.1734  0.1789 -0.0281
 7941SOL    HW135285   2.875   3.337  15.995  0.0924  0.6161 -0.5959
 7941SOL    HW235286   2.907   3.472  16.018 -0.5379  1.4289  2.8582
 7942SOL     OW35287   3.137   2.666   5.249  0.8433 -0.2847  0.1723
 7942SOL    HW135288   3.219   2.713   5.241  2.1521 -3.0372 -2.7157
 7942SOL    HW235289   3.152   2.591   5.307 -3.8635 -0.6771  0.9070
 7943SOL     OW35290   2.503   3.723   5.512  0.1214 -0.9325  0.2213
 7943SOL    HW135291   2.425   3.710   5.565  0.9232 -1.6508  1.2289
 7943SOL    HW235292   2.471   3.778   5.440 -0.8313 -0.3184  1.1127
 7944SOL     OW35293   3.853   0.042   7.723 -0.4564  0.4599 -0.0753
 7944SOL    HW135294   3.870   0.093   7.643  0.0583 -0.1380 -0.3480
 7944SOL    HW235295   3.932   4.709   7.725  1.5695  3.3523  0.5601
 7945SOL     OW35296   2.003   2.596   8.844 -0.2895  0.2509  0.1268
 7945SOL    HW135297   1.921   2.547   8.836 -0.2612  0.2015  0.1332
 7945SOL    HW235298   2.017   2.572   8.935  4.2705 -1.3904 -1.0039
 7946SOL     OW35299   0.343   3.581   0.235  0.2525  0.1767  0.1342
 7946SOL    HW135300   0.377   3.659   0.192  0.7976  0.1959  0.5928
 7946SOL    HW235301   0.400   3.565   0.311  1.0653  2.9066  0.1058
 7947SOL     OW35302   0.302   2.854  10.265 -0.3169  0.8384 -0.3184
 7947SOL    HW135303   0.269   2.796  10.197 -0.6789 -0.9353  1.3690
 7947SOL    HW235304   0.271   2.940  10.235 -0.3096  0.9517 -0.0067
 7948SOL     OW35305   4.606   0.563   4.030  0.1953  0.1009 -0.1263
 7948SOL    HW135306   4.641   0.502   3.966  3.6341  1.8747  0.0186
 7948SOL    HW235307   4.536   0.612   3.986 -0.1050 -0.0366  0.1988
 7949SOL     OW35308   0.065   2.231   9.568  0.1466 -0.2117 -0.0551
 7949SOL    HW135309   0.029   2.289   9.501  1.9197 -0.2894 -1.0806
 7949SOL    HW235310   0.042   2.153   9.518  1.3626 -0.8636  0.3950
 7950SOL     OW35311   2.178   0.916   2.886 -0.1380 -0.7632 -0.2410
 7950SOL    HW135312   2.198   0.995   2.837 -0.3451  0.1271  1.1115
 7950SOL    HW235313   2.205   0.939   2.975  1.8717  0.4027 -1.1587
 7951SOL     OW35314   3.998   1.561   7.834  1.0616 -0.2942  0.6592
 7951SOL    HW135315   4.039   1.483   7.796  0.7806 -0.6025  0.9998
 7951SOL    HW235316   3.971   1.527   7.919  0.2432 -0.8897  0.1625
 7952SOL     OW35317   4.051   0.971   4.884 -0.0638  0.3896  0.3330
 7952SOL    HW135318   4.077   0.963   4.975 -2.4388  0.4681  1.0146
 7952SOL    HW235319   3.956   0.967   4.890  0.0201 -0.9020  0.8780
 7953SOL     OW35320   3.907   1.360   2.410 -0.1828 -0.0915 -0.4532
 7953SOL    HW135321   3.974   1.409   2.364  1.2930 -1.1862  0.5339
 7953SOL    HW235322   3.873   1.435   2.459  2.2055  0.5252  0.2609
 7954SOL     OW35323   0.765   1.905   7.995  0.5232 -0.1941  0.1822
 7954SOL    HW135324   0.802   1.899   8.083  0.9240 -2.0576 -0.1111
 7954SOL    HW235325   0.845   1.912   7.943 -0.4117  1.6238 -1.0222
 7955SOL     OW35326   4.249   4.474   4.802  0.3240  0.3648  0.2674
 7955SOL    HW135327   4.295   4.540   4.853  1.6357  1.8101 -2.8430
 7955SOL    HW235328   4.300   4.396   4.825  1.9240  0.6602 -2.2823
 7956SOL     OW35329   0.791   4.524   9.728  0.3237  0.6648 -0.2111
 7956SOL    HW135330   0.779   4.613   9.695  2.1223  1.3529  0.9413
 7956SOL    HW235331   0.861   4.501   9.667 -0.9926 -0.6843 -1.2009
 7957SOL     OW35332   1.635   0.846  14.881  0.0913 -0.2126  0.2119
 7957SOL    HW135333   1.614   0.814  14.793 -0.0124 -1.0246  0.5250
 7957SOL    HW235334   1.614   0.937  14.862 -1.3633 -0.1148  2.3012
 7958SOL     OW35335   0.821   1.117  13.444  0.2972 -0.1067 -0.1067
 7958SOL    HW135336   0.810   1.024  13.464  1.8157 -0.3994 -0.6322
 7958SOL    HW235337   0.820   1.160  13.530  1.0311 -1.1757  0.4383
 7959SOL     OW35338   0.777   0.618   6.360  0.2673  0.1115  0.2527
 7959SOL    HW135339   0.870   0.636   6.349  0.6769 -2.1664  0.1553
 7959SOL    HW235340   0.741   0.661   6.283 -1.0656  1.5483  1.6766
 7960SOL     OW35341   4.139   2.874  10.998  0.1131  0.1296  0.0965
 7960SOL    HW135342   4.235   2.872  11.003  0.1654  1.6382 -0.3134
 7960SOL    HW235343   4.123   2.951  11.052 -0.9528  0.6694 -1.0089
 7961SOL     OW35344   3.396   1.790   2.591  0.1929 -0.3621 -0.2667
 7961SOL    HW135345   3.349   1.716   2.553 -1.2910  0.9462 -0.9574
 7961SOL    HW235346   3.436   1.817   2.509 -1.3054  2.2388 -0.1265
 7962SOL     OW35347   3.177   3.914  11.686 -0.1528 -0.2363  0.0062
 7962SOL    HW135348   3.114   3.898  11.756  0.0581 -0.0982  0.2266
 7962SOL    HW235349   3.173   4.009  11.682  2.0194 -0.0791  1.4946
 7963SOL     OW35350   2.699   3.352  14.991  0.3320 -0.5440 -0.4776
 7963SOL    HW135351   2.692   3.444  15.013  1.6224 -0.8605  1.3026
 7963SOL    HW235352   2.792   3.327  14.995  0.3040 -1.1680 -3.7888
 7964SOL     OW35353   0.761   3.107   5.478  0.6147  0.3619  0.0250
 7964SOL    HW135354   0.725   3.111   5.566  1.7806 -0.2543  0.5232
 7964SOL    HW235355   0.806   3.024   5.487  0.4187  0.2093 -0.3773
 7965SOL     OW35356   4.596   4.351   6.863 -0.2280 -0.4569  0.0012
 7965SOL    HW135357   4.584   4.256   6.858  0.6780 -0.5265 -0.9956
 7965SOL    HW235358   4.515   4.368   6.910  0.6475  1.7652  0.6901
 7966SOL     OW35359   4.466   4.389  17.065 -0.2056  0.5227  0.0317
 7966SOL    HW135360   4.461   4.411  17.158  0.6769  1.1612 -0.0657
 7966SOL    HW235361   4.372   4.385  17.049 -0.6034  0.3309  2.4475
 7967SOL     OW35362   3.915   3.153   8.633 -0.1749  0.6401 -0.4251
 7967SOL    HW135363   3.968   3.215   8.583  0.8354 -0.2845 -0.4982
 7967SOL    HW235364   3.849   3.213   8.668 -0.9251 -0.4176  0.0119
 7968SOL     OW35365   3.200   3.577  15.073  0.3798  0.0037  0.3679
 7968SOL    HW135366   3.153   3.501  15.107 -0.1574  0.5271  0.8105
 7968SOL    HW235367   3.133   3.597  15.007  0.9111 -0.3409 -0.2625
 7969SOL     OW35368   2.590   2.113   8.127  0.6256 -0.2251 -0.0455
 7969SOL    HW135369   2.515   2.111   8.187  0.9718  1.1666  0.4303
 7969SOL    HW235370   2.563   2.184   8.069 -1.3985  0.8450  2.2170
 7970SOL     OW35371   2.945   2.421   7.827  0.2470 -0.1474 -0.1514
 7970SOL    HW135372   2.980   2.342   7.867  1.1794  0.1341 -0.4064
 7970SOL    HW235373   2.990   2.492   7.873 -0.9644  0.4807  0.0473
 7971SOL     OW35374   0.179   0.729   7.371 -0.5203 -0.0663  0.2358
 7971SOL    HW135375   0.183   0.694   7.282  1.7535  1.5749 -0.2932
 7971SOL    HW235376   0.177   0.649   7.423 -1.7036 -0.9638 -1.1526
 7972SOL     OW35377   3.277   0.082   8.397  1.1334 -0.3616 -0.3160
 7972SOL    HW135378   3.330   0.002   8.404  0.8714 -0.2034  3.7993
 7972SOL    HW235379   3.257   0.109   8.487  0.1006  1.7961 -1.1981
 7973SOL     OW35380   3.244   1.663  15.554 -0.3927 -0.3154 -0.0171
 7973SOL    HW135381   3.284   1.743  15.519 -0.9701 -0.8871 -1.9744
 7973SOL    HW235382   3.212   1.619  15.476  0.3072 -1.3469  0.2726
 7974SOL     OW35383   2.787   2.972   6.747 -0.4092  0.2030  0.3311
 7974SOL    HW135384   2.699   3.007   6.732  0.2603  1.9322  0.4499
 7974SOL    HW235385   2.756   2.886   6.777 -2.0586  0.7014  0.0588
 7975SOL     OW35386   2.561   3.850   1.902 -0.3269 -0.2053 -0.6238
 7975SOL    HW135387   2.568   3.843   1.997  0.5181 -0.9760 -0.7453
 7975SOL    HW235388   2.556   3.757   1.880  2.3237 -0.4576 -0.1067
 7976SOL     OW35389   2.035   0.197   1.075  0.5965  0.2221  0.1026
 7976SOL    HW135390   1.958   0.222   1.126  1.6637  2.8817  0.4465
 7976SOL    HW235391   2.081   0.280   1.067 -0.6406  0.8999 -0.0163
 7977SOL     OW35392   0.272   1.253   3.569 -0.0958 -0.2012  0.2176
 7977SOL    HW135393   0.253   1.163   3.540 -0.3584 -0.6893  1.9300
 7977SOL    HW235394   0.228   1.299   3.497  0.7303  0.8701  0.3976
 7978SOL     OW35395   2.442   2.391   4.458 -0.3876  0.9631 -0.4766
 7978SOL    HW135396   2.534   2.368   4.463 -0.0882  1.9588 -1.3264
 7978SOL    HW235397   2.438   2.473   4.508 -0.6902  0.0831  0.9389
 7979SOL     OW35398   4.556   0.611   7.120 -0.2922 -0.2004  0.1509
 7979SOL    HW135399   4.480   0.565   7.083 -0.4776 -0.2478  0.5928
 7979SOL    HW235400   4.591   0.550   7.185 -0.2033  1.3254  1.5245
 7980SOL     OW35401   4.700   3.849   7.289  0.8396  0.5419  0.3978
 7980SOL    HW135402   0.063   3.805   7.290  1.4450  1.6528 -1.5239
 7980SOL    HW235403   4.702   3.898   7.371  2.2031 -1.1734  1.3851
 7981SOL     OW35404   3.186   3.653   9.128 -0.2664 -0.8996  0.1809
 7981SOL    HW135405   3.236   3.680   9.205 -1.9763  1.3047  0.4903
 7981SOL    HW235406   3.101   3.680   9.161 -0.6184 -0.9914 -0.6552
 7982SOL     OW35407   2.375   1.992  14.933 -0.2756  0.1669  0.8728
 7982SOL    HW135408   2.336   1.943  14.860  1.6593 -1.5101  0.9829
 7982SOL    HW235409   2.447   1.936  14.962  2.3370  1.6951 -2.6393
 7983SOL     OW35410   0.473   0.250   8.719 -0.0675 -0.4311 -0.1104
 7983SOL    HW135411   0.446   0.159   8.707  1.7065 -0.9349 -0.2201
 7983SOL    HW235412   0.401   0.286   8.771  0.3262  0.1477  0.0325
 7984SOL     OW35413   0.160   0.766   5.408 -0.2913 -0.4153  0.3777
 7984SOL    HW135414   0.112   0.744   5.328  1.5772 -2.5039 -0.1853
 7984SOL    HW235415   0.211   0.844   5.386  0.7253 -1.3928 -0.7891
 7985SOL     OW35416   0.872   2.951   4.694  0.1046  0.6884  0.1415
 7985SOL    HW135417   0.807   2.913   4.635 -0.3058 -0.7881  1.5421
 7985SOL    HW235418   0.830   2.933   4.778 -0.1967  3.8747  0.6839
 7986SOL     OW35419   0.832   3.210   7.887 -0.0173  0.1355 -0.2095
 7986SOL    HW135420   0.871   3.123   7.888 -0.7425 -0.1948 -1.2301
 7986SOL    HW235421   0.820   3.232   7.979  0.5383 -0.5151  0.0117
 7987SOL     OW35422   2.721   4.184  14.276  0.1938  0.0522  0.0543
 7987SOL    HW135423   2.641   4.195  14.225 -2.0506  1.1133  3.8009
 7987SOL    HW235424   2.777   4.191  14.199 -1.5787  1.1245 -1.1354
 7988SOL     OW35425   1.168   2.606   1.471 -0.0908 -0.4023 -0.5916
 7988SOL    HW135426   1.207   2.539   1.415 -0.4695 -0.1151 -1.1951
 7988SOL    HW235427   1.073   2.594   1.467 -0.1636 -0.4189  1.2015
 7989SOL     OW35428   1.533   1.300   5.923 -0.1408  0.0050  0.0250
 7989SOL    HW135429   1.521   1.279   5.831  1.4496  2.0700 -0.6463
 7989SOL    HW235430   1.615   1.348   5.931  0.8230 -1.4627 -1.2856
 7990SOL     OW35431   0.470   3.768   2.843  0.1666  0.2518 -0.3399
 7990SOL    HW135432   0.482   3.803   2.754  2.2044  2.7563  0.9236
 7990SOL    HW235433   0.457   3.853   2.885  2.1699  0.5913 -0.4194
 7991SOL     OW35434   0.106   0.019   5.228  0.2180 -0.2967  0.3998
 7991SOL    HW135435   0.157   0.098   5.209  2.8212 -2.2934 -0.8098
 7991SOL    HW235436   0.177   4.677   5.229  0.5052  0.0355  1.7820
 7992SOL     OW35437   3.328   4.144   8.226  0.4376 -0.2127 -0.1288
 7992SOL    HW135438   3.310   4.197   8.148 -0.2342  0.6559  0.6187
 7992SOL    HW235439   3.329   4.053   8.196 -0.4007 -0.5119  0.7685
 7993SOL     OW35440   1.300   4.545   3.188 -0.1559 -0.6656 -0.3593
 7993SOL    HW135441   1.310   4.450   3.177 -0.9742 -0.7731 -0.1053
 7993SOL    HW235442   1.206   4.561   3.189 -0.0222 -0.0805  3.4846
 7994SOL     OW35443   0.308   4.441   8.235 -0.3956  0.0378 -0.1829
 7994SOL    HW135444   0.239   4.507   8.241 -2.5636 -2.3027  0.2319
 7994SOL    HW235445   0.328   4.444   8.329 -1.6491 -0.3610  0.0986
 7995SOL     OW35446   0.857   3.482  15.430 -0.0612 -0.3445 -0.5451
 7995SOL    HW135447   0.849   3.489  15.525 -1.6587 -0.7330 -0.6555
 7995SOL    HW235448   0.769   3.513  15.408  0.1764 -0.1167 -1.1817
 7996SOL     OW35449   4.055   3.217  11.806 -0.2666 -0.6214  0.3993
 7996SOL    HW135450   3.996   3.195  11.878 -0.1009 -0.0172  0.7183
 7996SOL    HW235451   4.113   3.275  11.854  1.3819 -2.4165  0.5860
 7997SOL     OW35452   1.077   4.642   4.198  0.0404  0.0469 -0.3916
 7997SOL    HW135453   0.989   4.623   4.164 -0.1091  0.0499 -0.0126
 7997SOL    HW235454   1.058   4.704   4.268  1.6140  1.1361 -0.9404
 7998SOL     OW35455   4.697   0.738   1.494 -0.2928 -0.2333 -0.0931
 7998SOL    HW135456   4.702   0.833   1.487  0.3762 -0.4102 -1.8513
 7998SOL    HW235457   0.020   0.721   1.412  0.5156 -2.2535  0.7742
 7999SOL     OW35458   2.023   4.201  12.413 -0.0427  0.0089  0.2415
 7999SOL    HW135459   1.987   4.267  12.472  2.5103  1.7599 -0.1526
 7999SOL    HW235460   2.084   4.256  12.363  1.9720 -1.2329  1.2962
 8000SOL     OW35461   2.260   3.121   2.110 -0.3964 -0.5877 -0.1194
 8000SOL    HW135462   2.355   3.127   2.105 -0.4567  0.8061  0.2877
 8000SOL    HW235463   2.242   3.111   2.017  0.1093 -0.3197 -0.2477
 8001SOL     OW35464   3.730   1.154   8.409  0.4342  0.5011  0.2322
 8001SOL    HW135465   3.757   1.161   8.318  0.6531  0.3280  0.2826
 8001SOL    HW235466   3.801   1.212   8.437  2.6551 -2.1547  0.1183
 8002SOL     OW35467   1.570   3.545   9.258  1.0128  0.1116 -0.4418
 8002SOL    HW135468   1.511   3.585   9.195  1.9121  1.7624 -0.2709
 8002SOL    HW235469   1.549   3.588   9.341  1.3183 -0.9305  0.1708
 8003SOL     OW35470   0.306   3.681  11.838  0.4340  0.0282 -0.1665
 8003SOL    HW135471   0.254   3.671  11.917 -0.2331  0.4620 -0.5515
 8003SOL    HW235472   0.329   3.588  11.828 -2.3287 -0.8183  1.2724
 8004SOL     OW35473   3.878   3.138   7.118  0.2149 -0.7075 -0.5499
 8004SOL    HW135474   3.947   3.193   7.156 -2.1230  0.5648  1.8270
 8004SOL    HW235475   3.888   3.054   7.163 -1.1532  1.1191  3.1934
 8005SOL     OW35476   0.301   4.568   2.888 -0.4567  0.0105 -0.0213
 8005SOL    HW135477   0.287   4.514   2.966  0.8169 -1.2223 -0.6541
 8005SOL    HW235478   0.226   4.544   2.833  0.0205 -1.4894 -0.0244
 8006SOL     OW35479   4.649   0.161   4.629 -0.6510 -0.2950  0.5709
 8006SOL    HW135480   4.634   0.187   4.720 -0.6895 -0.6696  0.6753
 8006SOL    HW235481   4.583   0.210   4.580  0.1693 -1.3008 -1.5793
 8007SOL     OW35482   2.829   0.322   7.687  0.2401 -0.3989  0.3981
 8007SOL    HW135483   2.880   0.346   7.764  0.2942 -0.4540  0.3792
 8007SOL    HW235484   2.878   0.247   7.654  0.7149  1.3676 -2.9901
 8008SOL     OW35485   1.978   4.017   6.348 -0.2247 -0.0344 -0.0193
 8008SOL    HW135486   2.021   3.976   6.422 -0.8122  1.1963  1.0070
 8008SOL    HW235487   1.953   3.944   6.291  1.2649 -1.9063  1.7681
 8009SOL     OW35488   2.385   0.139   7.274 -0.1184 -0.2197  0.3040
 8009SOL    HW135489   2.397   0.168   7.365 -2.1960  1.9646 -0.1286
 8009SOL    HW235490   2.477   0.117   7.258  0.0646 -0.3918  1.5832
 8010SOL     OW35491   4.572   2.541  11.300  0.2215 -0.0423  0.0969
 8010SOL    HW135492   4.560   2.617  11.242  0.4181  0.5595  0.8387
 8010SOL    HW235493   4.622   2.479  11.247 -3.7013 -3.1325  0.0753
 8011SOL     OW35494   2.290   1.108   3.768  0.3761  0.3287  0.0074
 8011SOL    HW135495   2.356   1.100   3.699 -1.0278 -2.5230 -1.0369
 8011SOL    HW235496   2.302   1.027   3.817 -1.7895 -0.6458 -1.0382
 8012SOL     OW35497   1.022   0.209   6.560 -0.1838 -0.2549  0.6061
 8012SOL    HW135498   1.022   0.208   6.465  3.2132 -3.1521  0.6450
 8012SOL    HW235499   1.000   0.300   6.580 -0.5274 -0.2667  0.2707
 8013SOL     OW35500   0.891   2.826   2.180 -0.9554  0.1394  0.3575
 8013SOL    HW135501   0.903   2.885   2.105 -0.0903 -1.3328 -0.6673
 8013SOL    HW235502   0.851   2.895   2.233 -0.7619  0.7667 -0.3011
 8014SOL     OW35503   1.331   0.962   6.720  0.2972 -0.3509  0.2472
 8014SOL    HW135504   1.422   0.989   6.710 -0.5058  1.7065 -1.5524
 8014SOL    HW235505   1.305   1.006   6.801  0.9904  1.3746 -0.4668
 8015SOL     OW35506   1.872   3.199   0.454  0.1126 -0.3312  0.4075
 8015SOL    HW135507   1.868   3.105   0.472  1.2917  0.0478  2.7393
 8015SOL    HW235508   1.779   3.217   0.442  0.2536  0.0590 -0.0732
 8016SOL     OW35509   3.867   2.624   3.001 -0.2453 -0.0903  0.7406
 8016SOL    HW135510   3.784   2.616   3.050 -1.3168  1.2175 -0.8724
 8016SOL    HW235511   3.891   2.712   3.031 -1.8417  0.3354  0.7631
 8017SOL     OW35512   1.589   0.482   5.508  0.3573  0.1644 -0.0516
 8017SOL    HW135513   1.654   0.421   5.542  2.5968  1.4946 -1.9574
 8017SOL    HW235514   1.527   0.423   5.465 -0.2219 -0.3495  1.5046
 8018SOL     OW35515   4.186   2.489  13.378  0.4901 -0.0371 -0.5693
 8018SOL    HW135516   4.118   2.529  13.324  0.5114 -0.4470 -0.9035
 8018SOL    HW235517   4.157   2.399  13.376  0.4692 -0.0251 -0.7971
 8019SOL     OW35518   0.755   0.458   6.811  0.0892  0.4571 -0.7721
 8019SOL    HW135519   0.717   0.403   6.743  0.0287 -0.5420  0.0742
 8019SOL    HW235520   0.726   0.536   6.763  0.4891  0.8479 -0.3911
 8020SOL     OW35521   4.368   4.510   3.162  0.3500 -0.2853 -0.0941
 8020SOL    HW135522   4.381   4.587   3.106 -0.4402  0.2695  0.4729
 8020SOL    HW235523   4.451   4.463   3.157 -0.1951 -1.0007 -2.3770
 8021SOL     OW35524   1.120   4.647   7.315 -0.4370 -0.6099  0.3048
 8021SOL    HW135525   1.159   4.626   7.230 -0.5518  2.8135 -0.6142
 8021SOL    HW235526   1.182   4.608   7.376  0.3886 -1.3254 -0.9871
 8022SOL     OW35527   4.588   0.359   8.265 -0.3648  0.1220  0.1819
 8022SOL    HW135528   4.581   0.276   8.312 -1.0683  0.4027  0.5763
 8022SOL    HW235529   4.502   0.361   8.222 -1.0792  1.0353  1.6226
 8023SOL     OW35530   3.304   1.284   7.506 -0.2820 -0.0824 -0.4297
 8023SOL    HW135531   3.375   1.299   7.444  0.3475 -0.3424  0.2230
 8023SOL    HW235532   3.333   1.314   7.592 -1.4327 -0.7218  0.1848
 8024SOL     OW35533   0.931   0.652   7.430  0.4773 -0.3987 -0.7213
 8024SOL    HW135534   0.957   0.734   7.387  3.6851 -0.6311  0.7732
 8024SOL    HW235535   0.843   0.637   7.395  0.8207  0.8362 -2.1225
 8025SOL     OW35536   3.270   3.636  16.318 -0.2509  0.2301 -0.3644
 8025SOL    HW135537   3.187   3.642  16.272  0.1456  2.6483 -0.7650
 8025SOL    HW235538   3.246   3.658  16.408  1.1178  1.1673 -0.2231
 8026SOL     OW35539   0.278   1.968   7.013  0.5091  0.0367  0.1081
 8026SOL    HW135540   0.220   1.901   6.976 -1.2661  0.9075  1.2958
 8026SOL    HW235541   0.340   1.915   7.062 -0.1062 -0.1935  0.6470
 8027SOL     OW35542   2.884   0.857   4.435  0.1598 -0.2741 -0.2507
 8027SOL    HW135543   2.939   0.930   4.407  0.9087 -0.5922  0.3761
 8027SOL    HW235544   2.926   0.815   4.511  2.3200  1.3616 -0.5512
 8028SOL     OW35545   0.205   1.217   9.912  0.2202 -0.1728  0.2808
 8028SOL    HW135546   0.284   1.199   9.861 -0.6432 -1.7420 -0.4991
 8028SOL    HW235547   0.193   1.311   9.897  0.0955 -0.2688 -0.2475
 8029SOL     OW35548   1.032   0.357   1.255 -0.3994 -0.1051 -0.0817
 8029SOL    HW135549   1.058   0.265   1.256 -0.9467 -0.2627 -0.8737
 8029SOL    HW235550   1.006   0.386   1.167  0.8588 -1.0921 -0.7770
 8030SOL     OW35551   2.555   2.416   3.184 -0.3612  0.3309 -0.3336
 8030SOL    HW135552   2.536   2.452   3.270  0.9638  0.2804 -0.0265
 8030SOL    HW235553   2.614   2.342   3.198 -2.2891 -1.2435 -0.5178
 8031SOL     OW35554   3.178   0.304  12.959 -0.5376 -0.2506  0.0354
 8031SOL    HW135555   3.127   0.287  13.038  1.5870  1.4516  1.7438
 8031SOL    HW235556   3.128   0.372  12.916 -2.2401 -2.5052 -1.5650
 8032SOL     OW35557   2.664   1.452   3.652 -0.0363 -0.1794  0.5114
 8032SOL    HW135558   2.715   1.459   3.732 -0.6391 -1.1017  0.9701
 8032SOL    HW235559   2.623   1.539   3.655 -0.0711 -0.1379 -0.8854
 8033SOL     OW35560   1.509   0.954   3.051  0.7429  0.7141 -0.0373
 8033SOL    HW135561   1.497   1.015   3.124 -1.2162  2.1750 -1.5818
 8033SOL    HW235562   1.547   1.018   2.991 -0.2011  0.5744 -0.7841
 8034SOL     OW35563   2.750   3.038   7.112 -0.1747 -0.2603 -0.1829
 8034SOL    HW135564   2.696   3.095   7.167 -0.8591  0.0489 -1.1812
 8034SOL    HW235565   2.696   2.965   7.082  1.5100 -1.2778 -0.7735
 8035SOL     OW35566   4.650   3.344   7.218  0.3371  0.0728 -0.1400
 8035SOL    HW135567   4.606   3.373   7.138 -1.9457 -0.4573  0.9021
 8035SOL    HW235568   0.005   3.401   7.222 -0.2182  0.8646 -0.8428
 8036SOL     OW35569   2.704   3.526  16.949 -0.4612  0.2509 -0.0968
 8036SOL    HW135570   2.731   3.562  16.865 -0.4084  1.6752  0.5415
 8036SOL    HW235571   2.616   3.561  16.963  0.2667  2.0276  0.0490
 8037SOL     OW35572   2.177   4.342   5.464  0.0623 -0.1357  0.4041
 8037SOL    HW135573   2.105   4.403   5.480 -1.3175 -1.3547 -1.1818
 8037SOL    HW235574   2.136   4.255   5.466 -2.1967  0.9219 -0.5748
 8038SOL     OW35575   1.660   3.898   0.868  0.1571  0.7232  0.3480
 8038SOL    HW135576   1.669   3.980   0.917  1.1699 -0.3189  1.8953
 8038SOL    HW235577   1.751   3.870   0.863 -0.4497 -1.3007  0.6139
 8039SOL     OW35578   3.612   2.625   3.190  0.1316  0.0269  0.2678
 8039SOL    HW135579   3.578   2.573   3.263  2.7947 -0.2787  1.2906
 8039SOL    HW235580   3.634   2.706   3.236  0.7788 -0.4945  0.8810
 8040SOL     OW35581   4.551   3.302   8.712 -0.0274 -0.0713 -0.2305
 8040SOL    HW135582   4.577   3.292   8.620 -1.0833 -2.6927 -0.2368
 8040SOL    HW235583   4.484   3.235   8.705 -2.2287  1.8198  2.7300
 8041SOL     OW35584   0.948   0.374  14.961 -0.0959  0.0605  0.5506
 8041SOL    HW135585   0.967   0.465  14.939  0.8473  0.0389  1.2627
 8041SOL    HW235586   0.977   0.334  14.878 -2.2611 -0.6680  0.1529
 8042SOL     OW35587   4.639   2.024   6.255 -0.6441 -0.5006 -0.2651
 8042SOL    HW135588   4.561   2.033   6.201  1.4897 -1.2396 -3.4724
 8042SOL    HW235589   4.690   2.101   6.231 -2.2760  0.5442 -0.3290
 8043SOL     OW35590   0.577   2.854   3.137  0.4710 -0.1187 -0.1858
 8043SOL    HW135591   0.566   2.762   3.113 -0.4104 -0.3816  1.2445
 8043SOL    HW235592   0.619   2.854   3.223 -1.9699  0.3519  1.0105
 8044SOL     OW35593   4.706   1.927   8.849 -0.3141  0.0507 -0.4175
 8044SOL    HW135594   4.702   2.021   8.870 -0.3168 -0.1082  0.2723
 8044SOL    HW235595   4.668   1.882   8.924 -0.3475 -1.3833 -1.3070
 8045SOL     OW35596   2.522   4.427   7.622  0.3880 -0.2110  0.4821
 8045SOL    HW135597   2.535   4.356   7.559  0.7438  0.6044 -0.3600
 8045SOL    HW235598   2.428   4.443   7.610  1.1847  2.3582 -2.1827
 8046SOL     OW35599   4.356   3.946   4.390 -0.1020 -0.8952  0.2569
 8046SOL    HW135600   4.388   4.018   4.445 -0.4927 -2.1494  2.1323
 8046SOL    HW235601   4.323   3.889   4.460  2.1849  0.6476  2.5837
 8047SOL     OW35602   3.122   2.157  13.025 -0.5396  0.3676 -0.0234
 8047SOL    HW135603   3.060   2.220  12.988 -3.0459 -1.4564  1.0240
 8047SOL    HW235604   3.203   2.208  13.026  1.1075 -2.2393 -0.2066
 8048SOL     OW35605   2.318   3.573   6.165  0.0627 -0.6656 -0.3768
 8048SOL    HW135606   2.383   3.633   6.128 -1.5709  0.0534 -2.0475
 8048SOL    HW235607   2.316   3.592   6.259 -1.3747  1.0312 -0.7362
 8049SOL     OW35608   0.111   1.827   9.182 -0.2011 -0.1081  0.3659
 8049SOL    HW135609   0.052   1.860   9.249  1.2221  1.2596  0.9188
 8049SOL    HW235610   0.047   1.805   9.113 -2.6026 -0.2065  2.6018
 8050SOL     OW35611   3.118   3.266   7.067  0.7596 -0.0236  0.2330
 8050SOL    HW135612   3.073   3.199   7.014  0.6274  0.3950 -0.1779
 8050SOL    HW235613   3.101   3.343   7.013 -0.8124  1.0337  2.2240
 8051SOL     OW35614   4.549   0.266   8.651  0.1876 -0.0563 -0.1342
 8051SOL    HW135615   4.530   0.330   8.720  0.7579  0.6589 -0.6337
 8051SOL    HW235616   4.462   0.227   8.642  0.7621 -0.7948 -2.4690
 8052SOL     OW35617   2.135   2.273   9.696  0.0412 -0.2856 -0.3809
 8052SOL    HW135618   2.208   2.253   9.754 -1.6010 -2.2564  0.9796
 8052SOL    HW235619   2.151   2.209   9.626 -0.9158 -0.3781 -0.5106
 8053SOL     OW35620   4.437   0.112   7.726  0.2536  0.2278  0.3227
 8053SOL    HW135621   4.482   0.126   7.809 -0.8317  3.4208  0.3703
 8053SOL    HW235622   4.457   0.020   7.712 -0.0353  0.5601 -2.3324
 8054SOL     OW35623   1.087   2.145   0.779  0.2938  0.3779  0.2421
 8054SOL    HW135624   1.126   2.149   0.867 -0.3090  2.9737  0.3962
 8054SOL    HW235625   1.106   2.235   0.752  0.6201  0.5486  1.0310
 8055SOL     OW35626   0.322   1.745   8.139 -0.6792 -0.4808 -0.0986
 8055SOL    HW135627   0.405   1.777   8.103 -0.8608  0.3567  0.2331
 8055SOL    HW235628   0.258   1.813   8.121  0.0759 -0.4079 -2.4896
 8056SOL     OW35629   2.408   0.415   1.060  0.5557  0.6717 -0.2166
 8056SOL    HW135630   2.436   0.326   1.082 -0.0951  0.2486 -1.1053
 8056SOL    HW235631   2.315   0.399   1.047  0.3772  1.7080 -0.2000
 8057SOL     OW35632   3.410   4.640   8.617  0.3095  0.0830  0.3408
 8057SOL    HW135633   3.476   4.576   8.643 -1.2758 -2.0482 -0.8703
 8057SOL    HW235634   3.351   4.580   8.570  3.4127 -0.9336 -2.2514
 8058SOL     OW35635   2.907   4.489   6.875 -0.3135  0.4558  0.1452
 8058SOL    HW135636   2.827   4.448   6.840  0.3583 -0.2890 -0.5171
 8058SOL    HW235637   2.911   4.557   6.808 -0.8320 -1.5936 -1.9988
 8059SOL     OW35638   3.144   1.375   3.910 -0.1630 -0.5848 -0.0686
 8059SOL    HW135639   3.229   1.396   3.873 -0.3431  0.4947  0.1436
 8059SOL    HW235640   3.162   1.284   3.933  0.3530 -0.6869 -0.8653
 8060SOL     OW35641   3.924   3.441   3.580 -0.0855  0.3545  0.0991
 8060SOL    HW135642   3.910   3.524   3.533 -0.0737 -0.8758 -2.0722
 8060SOL    HW235643   3.948   3.471   3.667 -1.4396  0.3664  0.4756
 8061SOL     OW35644   3.611   1.205   4.776  0.1509 -0.3843  0.7607
 8061SOL    HW135645   3.689   1.202   4.831  0.1008 -3.3133  0.6622
 8061SOL    HW235646   3.549   1.164   4.836 -1.0321 -0.5817 -0.5953
 8062SOL     OW35647   1.241   2.618  16.150  0.0788 -0.6742 -0.2436
 8062SOL    HW135648   1.193   2.589  16.072 -0.4094  1.8017 -0.8599
 8062SOL    HW235649   1.178   2.602  16.220  1.1718 -0.5234  0.7585
 8063SOL     OW35650   2.699   4.320   7.122 -0.3597 -0.0846 -0.3452
 8063SOL    HW135651   2.637   4.255   7.155 -0.7436  0.2474 -0.4117
 8063SOL    HW235652   2.779   4.266   7.122 -0.5199 -0.3351 -1.3173
 8064SOL     OW35653   0.968   2.097   5.029  0.3834 -0.1657 -0.2490
 8064SOL    HW135654   0.887   2.094   4.977 -0.0896 -0.8918  0.5286
 8064SOL    HW235655   0.930   2.069   5.113 -0.5347  0.7447 -0.3463
 8065SOL     OW35656   1.652   0.286  13.887 -0.0417 -0.3551 -0.0365
 8065SOL    HW135657   1.652   0.207  13.833  1.1606 -0.7931  0.6142
 8065SOL    HW235658   1.566   0.319  13.861 -0.4123 -0.9975  0.3722
 8066SOL     OW35659   4.645   0.914   0.761  0.2504  0.5282 -0.5074
 8066SOL    HW135660   4.593   0.905   0.681 -0.1048 -0.9325 -0.1064
 8066SOL    HW235661   4.662   0.822   0.778  2.6059  0.8019 -1.4726
 8067SOL     OW35662   1.717   0.673   8.298 -0.2926  0.1647 -0.1184
 8067SOL    HW135663   1.657   0.613   8.254 -1.2356  2.4408 -1.9491
 8067SOL    HW235664   1.659   0.726   8.352 -1.2733 -0.5303 -0.4936
 8068SOL     OW35665   3.465   2.580   6.258 -0.0616 -0.2878 -0.4278
 8068SOL    HW135666   3.391   2.601   6.314 -0.3782  0.5015 -1.1404
 8068SOL    HW235667   3.532   2.648   6.268 -0.3397 -0.1361  0.3526
 8069SOL     OW35668   1.947   1.601   3.839 -0.1729  0.3656 -0.0166
 8069SOL    HW135669   1.924   1.517   3.879 -0.6597  0.3763 -0.2678
 8069SOL    HW235670   2.032   1.609   3.881  0.2097 -1.5681 -0.4243
 8070SOL     OW35671   2.473   2.592  14.917  0.0098  0.3072 -0.3280
 8070SOL    HW135672   2.441   2.508  14.885  2.5007 -0.2629 -1.3216
 8070SOL    HW235673   2.557   2.600  14.871  0.3907 -1.1922  0.0852
 8071SOL     OW35674   1.676   2.683  13.550 -0.1993  0.2031 -0.0966
 8071SOL    HW135675   1.605   2.626  13.521  1.0460 -1.9637  1.1463
 8071SOL    HW235676   1.621   2.739  13.606  3.0358  2.2602  1.0316
 8072SOL     OW35677   3.345   4.092   7.652 -0.2779 -0.0060  0.0738
 8072SOL    HW135678   3.404   4.167   7.653  0.1991 -0.3865  1.0387
 8072SOL    HW235679   3.399   4.028   7.698 -0.2755  1.1745  1.7083
 8073SOL     OW35680   4.409   4.023   5.499  0.0510 -0.5717 -0.0480
 8073SOL    HW135681   4.339   4.087   5.509 -0.6571 -1.0920 -1.8648
 8073SOL    HW235682   4.465   4.049   5.573  1.4013  2.3010 -2.0771
 8074SOL     OW35683   3.360   2.713   5.746  0.2127  0.2491  0.1537
 8074SOL    HW135684   3.319   2.677   5.667  1.9359 -2.7017  0.6268
 8074SOL    HW235685   3.318   2.673   5.822 -0.4374  1.5237  0.4629
 8075SOL     OW35686   3.852   1.822   4.209 -0.4888  0.1025  0.5950
 8075SOL    HW135687   3.867   1.732   4.235 -1.4606 -0.1372  0.3119
 8075SOL    HW235688   3.792   1.795   4.139  0.6244 -1.8518  0.4001
 8076SOL     OW35689   0.071   2.255  14.616 -0.5037  0.2582 -0.1883
 8076SOL    HW135690   0.064   2.310  14.538 -1.3491  2.7599  1.6691
 8076SOL    HW235691   0.031   2.175  14.584 -0.5217  0.0903  0.2557
 8077SOL     OW35692   3.475   0.406  11.777 -0.2999  0.2199  0.0755
 8077SOL    HW135693   3.471   0.435  11.868 -0.7289 -1.6229  0.6288
 8077SOL    HW235694   3.568   0.416  11.754 -0.3983  1.2306  0.1090
 8078SOL     OW35695   4.355   2.152   5.728  0.2899  0.0055 -0.2726
 8078SOL    HW135696   4.307   2.231   5.703 -0.4239  0.1942  1.6891
 8078SOL    HW235697   4.383   2.172   5.818 -2.2626  1.0220  0.2854
 8079SOL     OW35698   2.050   3.108   4.824 -0.1763 -0.5738  0.2903
 8079SOL    HW135699   2.141   3.098   4.852  0.5011 -0.9980 -2.0410
 8079SOL    HW235700   2.051   3.050   4.748 -0.0410 -0.1581 -0.0191
 8080SOL     OW35701   3.548   2.066   7.705 -0.3560 -0.3073 -0.0971
 8080SOL    HW135702   3.530   1.976   7.730 -0.7104 -0.3065 -0.3403
 8080SOL    HW235703   3.506   2.106   7.781  0.5796 -0.2825  0.4065
 8081SOL     OW35704   2.081   1.620   5.084 -0.4788  0.4726 -0.0192
 8081SOL    HW135705   1.989   1.632   5.109 -0.6478  1.0071 -0.9055
 8081SOL    HW235706   2.078   1.590   4.994 -3.3867 -0.0091  0.2429
 8082SOL     OW35707   2.906   1.533   6.118 -0.6328 -0.4854  0.4138
 8082SOL    HW135708   2.972   1.466   6.104  1.5020  1.8873 -0.9512
 8082SOL    HW235709   2.953   1.603   6.163 -0.9427  0.8296 -1.2905
 8083SOL     OW35710   0.473   3.340  12.820 -0.1288 -0.4055  1.0394
 8083SOL    HW135711   0.388   3.335  12.776 -1.0665 -1.5708  2.9737
 8083SOL    HW235712   0.508   3.252  12.806 -2.7082 -1.9386  4.1395
 8084SOL     OW35713   1.789   2.245   3.444  0.0722  0.5102 -0.2472
 8084SOL    HW135714   1.772   2.185   3.516  2.5067  1.2062  0.9132
 8084SOL    HW235715   1.795   2.185   3.369 -3.0166 -1.2678  0.9188
 8085SOL     OW35716   2.735   0.318   7.256 -0.3084 -0.1244 -0.2877
 8085SOL    HW135717   2.715   0.224   7.256 -2.2222  0.2772  0.9363
 8085SOL    HW235718   2.667   0.344   7.194 -0.2050  1.3907  0.2548
 8086SOL     OW35719   2.038   3.752   6.445 -0.3863  0.0394  0.3446
 8086SOL    HW135720   1.970   3.743   6.512 -0.6519  1.0825  0.2184
 8086SOL    HW235721   1.993   3.729   6.364  1.3614 -0.0312 -0.6148
 8087SOL     OW35722   0.698   2.070  16.583 -0.0936 -0.4923  0.0611
 8087SOL    HW135723   0.662   2.011  16.649 -1.5041 -1.6203 -1.7242
 8087SOL    HW235724   0.633   2.140  16.582  0.2973 -0.1386 -0.8761
 8088SOL     OW35725   1.909   0.035   4.656  0.3319 -0.1489 -0.1659
 8088SOL    HW135726   1.998   0.045   4.689  0.0198 -2.4020  1.3973
 8088SOL    HW235727   1.891   0.129   4.656 -0.2240 -0.2508  0.3754
 8089SOL     OW35728   4.007   0.418  10.377 -0.7646 -0.2960  0.2718
 8089SOL    HW135729   3.991   0.493  10.434 -2.1240  0.4823 -1.1213
 8089SOL    HW235730   4.098   0.393  10.393 -0.3413  0.2742 -1.1691
 8090SOL     OW35731   0.913   3.894   5.642 -0.0751 -0.0974  0.0684
 8090SOL    HW135732   1.002   3.905   5.608 -0.0032 -1.0394 -0.0664
 8090SOL    HW235733   0.920   3.857   5.729  0.6178  3.5232  1.5428
 8091SOL     OW35734   0.116   3.303   5.053  0.1579  0.4081  0.6880
 8091SOL    HW135735   0.166   3.371   5.007  2.1757 -0.6007  1.3839
 8091SOL    HW235736   0.025   3.308   5.022  1.0409  0.6462 -1.8240
 8092SOL     OW35737   4.378   0.638   4.396 -0.3662  0.3224  0.0357
 8092SOL    HW135738   4.441   0.664   4.329 -1.6219 -0.2187 -1.3388
 8092SOL    HW235739   4.300   0.618   4.345  0.4963 -1.2193 -0.6480
 8093SOL     OW35740   2.554   3.815   8.771 -0.1089  0.3010 -0.2916
 8093SOL    HW135741   2.538   3.873   8.697  0.6241  0.0709 -0.6279
 8093SOL    HW235742   2.542   3.868   8.850 -0.8944 -1.6379  0.9053
 8094SOL     OW35743   3.168   4.185   3.075 -0.6118 -0.1901  0.4051
 8094SOL    HW135744   3.177   4.105   3.127 -1.8570 -1.1728 -0.9133
 8094SOL    HW235745   3.196   4.251   3.139 -0.7560 -0.2456  0.5256
 8095SOL     OW35746   1.085   1.844   8.517 -0.2357 -0.9510  0.7459
 8095SOL    HW135747   1.121   1.805   8.596 -0.7658 -1.6023  0.6612
 8095SOL    HW235748   1.135   1.817   8.440 -0.5570  0.4921  0.0260
 8096SOL     OW35749   0.847   3.995  10.347  0.1986 -0.6173  0.2377
 8096SOL    HW135750   0.818   3.932  10.413 -0.8717 -1.2797 -0.8557
 8096SOL    HW235751   0.913   3.949  10.294 -1.1334 -2.1141 -0.1221
 8097SOL     OW35752   0.535   2.125   3.596 -0.4258  0.1457  0.2666
 8097SOL    HW135753   0.561   2.212   3.564 -1.8109 -0.4547 -2.4403
 8097SOL    HW235754   0.503   2.084   3.516  2.2859  0.8950 -1.2045
 8098SOL     OW35755   1.329   1.114   2.203  0.2737 -0.2889 -0.0875
 8098SOL    HW135756   1.344   1.077   2.290  0.2947  0.8221  0.3820
 8098SOL    HW235757   1.317   1.039   2.145  0.0994 -0.0656 -0.3333
 8099SOL     OW35758   1.662   2.132  10.052  0.1101  0.2664  0.6176
 8099SOL    HW135759   1.753   2.155  10.072  1.0476 -4.8569  2.1321
 8099SOL    HW235760   1.629   2.097  10.135  2.1982  0.3698  1.5043
 8100SOL     OW35761   1.814   4.612   9.838  0.2213  0.0644 -0.4098
 8100SOL    HW135762   1.808   4.576   9.927 -0.3717  1.3646  0.0942
 8100SOL    HW235763   1.794   4.535   9.786  1.0499 -0.7165  0.4197
 8101SOL     OW35764   2.222   1.203   5.897 -0.0741  0.3081 -0.1745
 8101SOL    HW135765   2.309   1.221   5.861 -0.3097  1.5064 -0.1634
 8101SOL    HW235766   2.170   1.236   5.823  1.3820 -0.0624 -1.3510
 8102SOL     OW35767   1.143   0.118   0.833 -0.1089 -0.2295 -1.0249
 8102SOL    HW135768   1.154   0.162   0.749  0.1681  0.4506 -0.6275
 8102SOL    HW235769   1.055   0.080   0.825  0.1065 -1.2780  1.5506
 8103SOL     OW35770   2.972   1.958  13.120 -0.2288 -0.3401 -0.3669
 8103SOL    HW135771   2.888   1.992  13.090 -0.3969  0.6934  1.2028
 8103SOL    HW235772   3.017   2.042  13.108 -0.3050 -0.3569 -0.7607
 8104SOL     OW35773   0.257   1.665  10.320 -0.0358 -0.4620 -0.2998
 8104SOL    HW135774   0.199   1.618  10.261 -3.2870  0.4095  2.1841
 8104SOL    HW235775   0.338   1.615  10.308  0.5238  0.5033 -0.5242
 8105SOL     OW35776   3.294   4.244   9.394  0.1765 -0.1324 -0.8015
 8105SOL    HW135777   3.224   4.229   9.331 -0.6108  0.8365 -0.1354
 8105SOL    HW235778   3.306   4.339   9.389  1.9999 -0.4973 -3.6233
 8106SOL     OW35779   1.949   3.086   3.583 -0.1292 -0.0445  0.7719
 8106SOL    HW135780   1.927   2.996   3.603 -2.4673  0.3653  0.0313
 8106SOL    HW235781   1.942   3.092   3.487  1.1065 -1.5192  0.6039
 8107SOL     OW35782   0.639   0.659   1.632 -0.4982 -0.5603  0.7211
 8107SOL    HW135783   0.697   0.708   1.575  0.2489 -2.6576 -0.3098
 8107SOL    HW235784   0.698   0.638   1.704 -0.9759 -1.6674  0.7871
 8108SOL     OW35785   2.483   3.508  10.979 -0.0209  0.3448  0.5351
 8108SOL    HW135786   2.484   3.457  11.060  0.2044 -0.8245 -0.2163
 8108SOL    HW235787   2.389   3.528  10.979 -0.0833  0.0497  0.5328
 8109SOL     OW35788   0.323   3.420  11.842 -0.0136 -0.0481 -0.1907
 8109SOL    HW135789   0.342   3.342  11.894  0.8883  0.3155  0.0423
 8109SOL    HW235790   0.405   3.433  11.794  0.2541 -1.6686 -0.1728
 8110SOL     OW35791   1.507   3.293   7.158 -0.3284 -0.1532  0.4004
 8110SOL    HW135792   1.426   3.334   7.127 -0.5381  0.4176  1.6915
 8110SOL    HW235793   1.566   3.320   7.087  0.5200 -0.0502  1.1462
 8111SOL     OW35794   0.162   1.308   2.005 -0.2138 -0.0993  0.3903
 8111SOL    HW135795   0.119   1.267   1.929 -0.7729 -0.6272  0.9966
 8111SOL    HW235796   0.103   1.381   2.022 -0.9385 -0.4163 -0.7109
 8112SOL     OW35797   3.063   0.566   6.340 -0.4706  0.8172  0.1747
 8112SOL    HW135798   3.016   0.486   6.317  0.8210  0.0677  0.1836
 8112SOL    HW235799   3.125   0.574   6.268 -1.6695  0.9806 -0.8352
 8113SOL     OW35800   1.541   3.584   5.922 -0.4191 -0.5655 -0.8031
 8113SOL    HW135801   1.600   3.630   5.861 -1.2011  1.4305 -0.0438
 8113SOL    HW235802   1.507   3.525   5.855  1.8678 -0.8277 -1.7632
 8114SOL     OW35803   1.359   1.639   3.637 -0.4902  0.1001 -0.1901
 8114SOL    HW135804   1.413   1.584   3.693 -0.5823 -0.5091 -0.7056
 8114SOL    HW235805   1.276   1.645   3.686 -0.2550  0.9829  0.1130
 8115SOL     OW35806   1.390   3.457   2.400 -0.1246  0.1743 -0.4680
 8115SOL    HW135807   1.367   3.371   2.366 -0.9925  0.6997 -1.2074
 8115SOL    HW235808   1.485   3.454   2.412 -0.1917 -0.0688  0.0024
 8116SOL     OW35809   0.826   2.710   8.918 -0.0833  0.3035  0.0021
 8116SOL    HW135810   0.857   2.799   8.935  0.7823  0.2326 -1.1564
 8116SOL    HW235811   0.902   2.667   8.878  1.1111  1.0800  1.4551
 8117SOL     OW35812   2.500   4.085  15.249 -0.2021 -0.0499  0.5124
 8117SOL    HW135813   2.406   4.069  15.245 -0.0431 -0.6768 -0.8254
 8117SOL    HW235814   2.525   4.025  15.319  1.5293 -0.9884 -0.8936
 8118SOL     OW35815   1.033   0.022   2.265 -0.1704  0.0567  0.3702
 8118SOL    HW135816   1.022   0.102   2.316  1.4292  1.1728 -1.0087
 8118SOL    HW235817   1.120   0.032   2.225  0.1102 -1.5189  0.5767
 8119SOL     OW35818   0.773   4.495   0.496  0.3935 -1.0254  0.2560
 8119SOL    HW135819   0.825   4.414   0.499  1.2325 -0.4125  2.0630
 8119SOL    HW235820   0.708   4.489   0.566 -0.3350 -2.9977 -0.5836
 8120SOL     OW35821   4.301   0.189   1.011  0.1366 -0.2459  0.2347
 8120SOL    HW135822   4.227   0.239   0.975  1.0479  1.5174  0.8298
 8120SOL    HW235823   4.253   0.155   1.087 -0.3185 -0.3495 -0.0954
 8121SOL     OW35824   3.570   1.169   8.971 -0.5567 -0.0335  0.7507
 8121SOL    HW135825   3.538   1.087   8.933  0.9168 -1.2729  2.1535
 8121SOL    HW235826   3.643   1.147   9.030  0.2434 -0.7137 -0.5056
 8122SOL     OW35827   0.300   3.650   8.091  0.7966 -0.0974 -0.9053
 8122SOL    HW135828   0.303   3.643   8.187 -0.6510 -1.7063 -0.9836
 8122SOL    HW235829   0.291   3.745   8.079 -2.2469 -0.6126 -2.6406
 8123SOL     OW35830   2.497   1.662   5.417 -0.2918 -0.1746 -0.2141
 8123SOL    HW135831   2.542   1.714   5.483 -0.1613  0.0985 -0.5241
 8123SOL    HW235832   2.411   1.680   5.455  0.3693  0.5022  0.9669
 8124SOL     OW35833   3.601   1.266   7.371 -0.6977 -0.5404 -0.0736
 8124SOL    HW135834   3.529   1.242   7.314 -0.7200  2.1292 -1.1940
 8124SOL    HW235835   3.632   1.341   7.318 -2.7138 -0.6862 -1.4428
 8125SOL     OW35836   3.448   1.582   8.354  0.5344  0.3543 -0.0548
 8125SOL    HW135837   3.503   1.504   8.363  0.4715  0.1801 -1.2193
 8125SOL    HW235838   3.425   1.579   8.261 -1.9773 -2.4533  0.6678
 8126SOL     OW35839   4.053   3.809   5.493  0.7846  0.5592 -0.4461
 8126SOL    HW135840   4.024   3.718   5.486  1.5855  0.3785 -1.3284
 8126SOL    HW235841   3.965   3.847   5.497  0.6388  0.0082  1.4963
 8127SOL     OW35842   3.494   4.413  11.670  0.2012  0.1903 -0.0022
 8127SOL    HW135843   3.539   4.404  11.586 -1.4788 -1.0748 -0.7545
 8127SOL    HW235844   3.406   4.425  11.636  0.9396 -0.2613 -2.0694
 8128SOL     OW35845   2.689   4.473   6.257  0.1358 -0.1868 -0.2054
 8128SOL    HW135846   2.718   4.564   6.256 -1.4805  0.3216  0.3251
 8128SOL    HW235847   2.730   4.445   6.175 -0.1665 -0.7610 -0.1573
 8129SOL     OW35848   3.399   1.112  10.861 -0.0794 -0.6380  0.0500
 8129SOL    HW135849   3.451   1.041  10.823  0.2461 -0.1505 -0.4075
 8129SOL    HW235850   3.329   1.061  10.902 -0.7764  0.8122  0.6349
 8130SOL     OW35851   0.079   1.760   0.935 -0.0878  0.4474  0.2520
 8130SOL    HW135852   0.166   1.792   0.914 -0.1640 -0.5662 -1.5907
 8130SOL    HW235853   0.086   1.732   1.026  2.2373  0.0928 -0.0416
 8131SOL     OW35854   1.006   2.560   3.412 -0.6619 -0.1704  0.3308
 8131SOL    HW135855   0.959   2.628   3.461  0.4464  1.3244 -0.6798
 8131SOL    HW235856   1.083   2.614   3.393 -1.5916  0.5111 -1.4974
 8132SOL     OW35857   1.218   3.982   0.357 -0.3439 -0.0378  0.1724
 8132SOL    HW135858   1.146   3.999   0.417 -1.3834 -0.4073 -0.9738
 8132SOL    HW235859   1.291   4.021   0.405 -0.2393  2.0151 -1.6648
 8133SOL     OW35860   2.348   0.213   3.824 -0.1508 -0.6398  0.1824
 8133SOL    HW135861   2.387   0.129   3.802 -0.8486 -0.8386 -0.2895
 8133SOL    HW235862   2.425   0.269   3.822 -1.0153  0.5043 -1.0023
 8134SOL     OW35863   0.562   3.738  12.834  0.1468  0.0614  0.5740
 8134SOL    HW135864   0.482   3.790  12.826  1.7487  2.4474  0.1751
 8134SOL    HW235865   0.602   3.776  12.756  1.6109 -1.7177  0.4496
 8135SOL     OW35866   0.094   1.672   0.450  0.0376 -0.5875  0.2133
 8135SOL    HW135867   0.182   1.668   0.412  0.6014 -1.1245  1.5343
 8135SOL    HW235868   0.102   1.589   0.497 -0.6270 -1.5155 -1.3282
 8136SOL     OW35869   0.814   4.123   2.907 -0.3468  0.9072 -0.0546
 8136SOL    HW135870   0.864   4.168   2.975 -1.6828  0.1330  1.4371
 8136SOL    HW235871   0.813   4.204   2.855 -0.9130  2.6633  2.7331
 8137SOL     OW35872   4.447   2.589   6.163  0.1110  0.0727  0.0321
 8137SOL    HW135873   4.535   2.590   6.125  0.1020 -2.1219 -0.0173
 8137SOL    HW235874   4.437   2.681   6.188 -1.2254  0.1300 -0.7354
 8138SOL     OW35875   3.678   4.351  16.990  0.6909 -0.0396  0.5623
 8138SOL    HW135876   3.683   4.412  16.916 -1.3565  2.7506  2.7423
 8138SOL    HW235877   3.601   4.384  17.035  0.0957 -1.4556  0.5919
 8139SOL     OW35878   3.178   0.230   3.404  0.4164  0.0330 -0.5491
 8139SOL    HW135879   3.258   0.211   3.452 -1.5498 -1.8583  1.9295
 8139SOL    HW235880   3.218   0.260   3.322 -0.7231  1.7814 -0.4734
 8140SOL     OW35881   3.048   0.897   2.404 -0.2389  0.1678  0.1680
 8140SOL    HW135882   3.062   0.865   2.315 -1.2791  0.9213 -0.2712
 8140SOL    HW235883   2.972   0.839   2.418 -0.9542  0.5556 -2.1963
 8141SOL     OW35884   2.796   1.960   8.028 -0.1269  0.0661  0.2485
 8141SOL    HW135885   2.719   2.015   8.044 -1.1298 -0.6807 -2.0349
 8141SOL    HW235886   2.778   1.868   8.049  0.7070  0.1783  1.4827
 8142SOL     OW35887   0.106   3.374   6.788  0.2253 -1.0863  0.1558
 8142SOL    HW135888   0.155   3.429   6.849 -0.8920  0.1243 -0.0443
 8142SOL    HW235889   0.100   3.292   6.837 -0.3910 -0.1722  1.6144
 8143SOL     OW35890   0.855   0.110  10.734  0.3002 -0.3227  0.5703
 8143SOL    HW135891   0.948   0.097  10.716  0.0125 -0.5756 -0.6883
 8143SOL    HW235892   0.820   0.027  10.703 -1.7313  0.4544  0.7720
 8144SOL     OW35893   3.912   1.315   3.591  0.6938  0.3784  0.7922
 8144SOL    HW135894   3.919   1.380   3.661 -1.1011  1.3597  0.0498
 8144SOL    HW235895   3.821   1.301   3.566  1.0351 -1.4267  0.5168
 8145SOL     OW35896   2.239   0.331  10.756  0.1021 -0.6120  0.5553
 8145SOL    HW135897   2.302   0.393  10.794 -0.6910  1.3744 -1.4151
 8145SOL    HW235898   2.291   0.252  10.774  1.5569  0.3737  0.7333
 8146SOL     OW35899   2.464   3.123  13.971  0.4677  0.1875 -0.1581
 8146SOL    HW135900   2.498   3.062  14.037 -0.1696 -0.8583 -0.7963
 8146SOL    HW235901   2.397   3.171  14.019  0.5971 -1.1813  1.3999
 8147SOL     OW35902   0.269   2.781   4.740 -0.4813  0.3152  0.3521
 8147SOL    HW135903   0.210   2.797   4.666 -0.6126 -2.9073 -0.2628
 8147SOL    HW235904   0.271   2.866   4.782  1.1202 -0.3682  1.6449
 8148SOL     OW35905   4.046   1.531   1.878  0.7676 -0.5304 -0.3153
 8148SOL    HW135906   3.982   1.601   1.865  1.9315  0.5921  0.0600
 8148SOL    HW235907   4.024   1.516   1.970  2.3254 -1.7209 -0.1359
 8149SOL     OW35908   0.994   0.207   6.289  0.4486  0.1012 -0.4791
 8149SOL    HW135909   1.018   0.115   6.286  1.5314  0.3430  1.0589
 8149SOL    HW235910   0.908   0.207   6.246  1.2784  0.1107 -2.1398
 8150SOL     OW35911   3.564   3.548   5.211  0.2933  0.0071 -0.4681
 8150SOL    HW135912   3.627   3.562   5.282  0.1542 -2.9683  0.2722
 8150SOL    HW235913   3.501   3.493   5.258 -1.3727  1.7365 -0.7156
 8151SOL     OW35914   0.132   3.035   6.408 -0.0415 -0.9373 -0.0205
 8151SOL    HW135915   0.162   3.006   6.494 -1.7727  0.5950  1.0965
 8151SOL    HW235916   0.056   3.091   6.425  1.1715  0.3416  1.1168
 8152SOL     OW35917   1.187   2.565  11.953  0.1023 -0.6072 -0.2798
 8152SOL    HW135918   1.251   2.567  11.883 -2.5084 -2.5894 -2.7032
 8152SOL    HW235919   1.209   2.651  11.988  0.2552 -0.4818 -0.6926
 8153SOL     OW35920   0.676   0.344   7.345  0.0243 -0.1481  0.4732
 8153SOL    HW135921   0.625   0.389   7.413 -2.2214 -1.2938 -0.4362
 8153SOL    HW235922   0.684   0.262   7.394 -0.0398 -1.2594 -1.4010
 8154SOL     OW35923   3.341   0.748   2.290 -0.3209 -0.1030 -0.1151
 8154SOL    HW135924   3.396   0.670   2.287 -1.1050 -0.6940  0.9286
 8154SOL    HW235925   3.294   0.736   2.372  3.2319  3.3440  2.4799
 8155SOL     OW35926   3.100   2.205   3.654  0.8368 -0.3127 -0.2547
 8155SOL    HW135927   3.026   2.254   3.690 -1.2180 -3.1967 -0.5911
 8155SOL    HW235928   3.090   2.222   3.560  0.1789 -1.1126 -0.3279
 8156SOL     OW35929   4.466   2.856   6.143  0.5844 -0.0177  0.0694
 8156SOL    HW135930   4.518   2.879   6.067  1.7651  1.6250  1.3571
 8156SOL    HW235931   4.491   2.935   6.193 -1.3906  0.3814  0.4324
 8157SOL     OW35932   4.539   4.485   3.487 -0.0405 -0.3389  0.3774
 8157SOL    HW135933   4.536   4.580   3.480 -2.3142 -0.2664  2.2581
 8157SOL    HW235934   4.607   4.473   3.421 -1.1082  0.8063 -0.9124
 8158SOL     OW35935   3.755   2.171   7.957  0.4292 -0.2251  0.0239
 8158SOL    HW135936   3.741   2.158   8.051  0.3285 -0.2413  0.0068
 8158SOL    HW235937   3.744   2.085   7.917  2.3187 -0.4856  0.0573
 8159SOL     OW35938   4.405   0.991   8.514  0.7169  0.4729 -0.4073
 8159SOL    HW135939   4.389   1.052   8.442 -1.3099 -0.0968 -0.4296
 8159SOL    HW235940   4.455   1.046   8.574  0.0669  1.1524 -0.4813
 8160SOL     OW35941   3.452   2.469   3.021  0.2040  0.2478  0.5110
 8160SOL    HW135942   3.490   2.439   2.939 -1.3161  1.7716 -0.7453
 8160SOL    HW235943   3.527   2.480   3.080  1.2251 -0.4766 -0.6542
 8161SOL     OW35944   2.048   2.233   9.176  0.1814 -0.0605  0.5805
 8161SOL    HW135945   2.023   2.189   9.258 -1.2430  0.6242  0.5295
 8161SOL    HW235946   2.025   2.166   9.112 -3.0199  1.6258 -0.0660
 8162SOL     OW35947   1.182   0.917   6.244  0.1369  0.3379  0.4521
 8162SOL    HW135948   1.112   0.982   6.249 -0.6592 -0.4356 -0.9054
 8162SOL    HW235949   1.235   0.933   6.322 -0.9894  0.3982  1.2071
 8163SOL     OW35950   2.339   0.076  17.088  0.4510  0.3677  0.4395
 8163SOL    HW135951   2.435   0.080  17.091  0.4780  1.2143 -1.6956
 8163SOL    HW235952   2.331   0.147  17.024 -2.6165  0.6590  1.1199
 8164SOL     OW35953   4.244   1.860   7.346 -0.0777 -0.1603 -0.1477
 8164SOL    HW135954   4.207   1.774   7.364  1.7244 -0.7681  0.5884
 8164SOL    HW235955   4.192   1.907   7.410  0.1767 -0.2041  0.0895
 8165SOL     OW35956   3.157   0.007   5.648  0.1416  0.9361 -0.1587
 8165SOL    HW135957   3.071   0.033   5.681 -1.2831 -0.9802 -2.3909
 8165SOL    HW235958   3.200   0.092   5.641 -2.1335  1.9998 -1.3101
 8166SOL     OW35959   3.404   4.434   5.557  0.5781 -0.2549 -0.0918
 8166SOL    HW135960   3.352   4.459   5.481  0.4786 -0.3659 -0.0619
 8166SOL    HW235961   3.492   4.459   5.528  0.6992 -0.0424  0.4637
 8167SOL     OW35962   4.438   2.992  12.839 -0.5768 -0.2564  0.3503
 8167SOL    HW135963   4.464   2.900  12.830  0.3418 -0.1115  1.5437
 8167SOL    HW235964   4.344   2.979  12.827 -0.5910 -0.3988  0.6222
 8168SOL     OW35965   3.920   0.617   8.480 -0.4434 -0.0970 -0.1793
 8168SOL    HW135966   3.895   0.582   8.395  1.1026 -0.0466 -0.6560
 8168SOL    HW235967   3.937   0.707   8.454  0.3687 -0.1957  0.0036
 8169SOL     OW35968   1.552   0.051   7.538  0.0524 -0.1257  0.0669
 8169SOL    HW135969   1.622   0.097   7.585  1.2123 -3.5588  1.6696
 8169SOL    HW235970   1.482   0.071   7.601  0.2929  1.4937 -0.1673
 8170SOL     OW35971   1.880   3.729  13.781  0.2180  0.2727  0.0759
 8170SOL    HW135972   1.882   3.825  13.780 -0.6034  0.2530 -2.7008
 8170SOL    HW235973   1.935   3.711  13.705 -0.4946  1.8584 -0.8082
 8171SOL     OW35974   0.449   0.870  12.324  0.1218 -0.0071  0.3197
 8171SOL    HW135975   0.382   0.863  12.256  0.4865 -0.0373 -0.0378
 8171SOL    HW235976   0.498   0.790  12.302 -2.1446 -1.2504 -0.2240
 8172SOL     OW35977   4.060   0.601   6.082 -0.1913 -0.0761  0.1900
 8172SOL    HW135978   4.129   0.575   6.021 -1.6042 -2.1290 -0.5180
 8172SOL    HW235979   3.995   0.634   6.020  0.9726 -1.0213 -1.5220
 8173SOL     OW35980   0.497   4.175   2.693  0.1047 -0.2156  0.4729
 8173SOL    HW135981   0.519   4.251   2.748 -1.3995  2.6316 -2.8212
 8173SOL    HW235982   0.430   4.213   2.635  1.9336  3.3540  0.6763
 8174SOL     OW35983   0.884   3.609   5.479  0.5018  0.3153  0.4099
 8174SOL    HW135984   0.852   3.523   5.506  0.2450 -0.0181 -0.9746
 8174SOL    HW235985   0.884   3.675   5.548  0.3019  0.5716  0.1657
 8175SOL     OW35986   3.422   1.423  12.174  0.4536  0.5107  0.2420
 8175SOL    HW135987   3.392   1.429  12.265 -1.4280  1.0806 -0.4149
 8175SOL    HW235988   3.447   1.331  12.177  0.2591  0.4706  0.5824
 8176SOL     OW35989   4.451   1.413   9.586  0.1273  0.0858 -0.3212
 8176SOL    HW135990   4.424   1.322   9.587 -0.7567  0.3502 -0.2735
 8176SOL    HW235991   4.380   1.446   9.531  0.6908  1.7095 -0.0772
 8177SOL     OW35992   2.713   3.120   0.782  0.1297 -0.2086 -0.0160
 8177SOL    HW135993   2.757   3.115   0.697 -1.2393 -1.0038 -0.6714
 8177SOL    HW235994   2.761   3.191   0.826 -1.4669  1.4566 -0.9660
 8178SOL     OW35995   3.567   1.500   5.112 -0.1842  0.3610  0.5273
 8178SOL    HW135996   3.602   1.457   5.190  0.7579 -0.9498 -0.6118
 8178SOL    HW235997   3.643   1.499   5.054 -0.2003  0.1871  0.5072
 8179SOL     OW35998   3.703   2.379  12.930  0.0980 -0.0898  0.2291
 8179SOL    HW135999   3.654   2.352  13.008 -0.5315  0.6108  0.0774
 8179SOL    HW236000   3.678   2.317  12.861  0.0581 -0.1315  0.2813
 8180SOL     OW36001   2.876   1.259   5.253 -0.0269  0.0724  0.2548
 8180SOL    HW136002   2.785   1.249   5.226 -0.2756  1.8331  0.4147
 8180SOL    HW236003   2.889   1.172   5.289 -1.1433 -0.0260  0.4207
 8181SOL     OW36004   3.319   2.442   7.350 -0.1074 -0.3495 -0.4587
 8181SOL    HW136005   3.299   2.454   7.258  2.1910 -0.5368 -0.9807
 8181SOL    HW236006   3.236   2.408   7.383 -0.4656  0.8324 -0.1595
 8182SOL     OW36007   3.340   3.120   5.397  0.3163  0.5987 -0.5621
 8182SOL    HW136008   3.319   3.162   5.314 -1.6660  0.1079 -0.3186
 8182SOL    HW236009   3.359   3.193   5.457 -1.1680  0.5755 -0.0654
 8183SOL     OW36010   4.135   4.546   7.592  0.0324  0.4444  0.5643
 8183SOL    HW136011   4.208   4.518   7.536  0.4372 -0.8914  1.7627
 8183SOL    HW236012   4.177   4.613   7.646 -0.3536  0.2709  1.0795
 8184SOL     OW36013   2.702   1.199   6.500  0.1094  0.6870 -0.6539
 8184SOL    HW136014   2.748   1.162   6.576  0.7479  0.7700 -1.0017
 8184SOL    HW236015   2.752   1.165   6.425 -2.4855  1.4238 -2.6900
 8185SOL     OW36016   2.761   4.701   7.980  0.1673 -0.1584 -0.2852
 8185SOL    HW136017   2.751   4.624   7.926 -0.2752  1.3611 -2.3636
 8185SOL    HW236018   2.727   4.676   8.066 -0.7090 -0.8305 -0.8428
 8186SOL     OW36019   0.134   0.508  12.990 -0.3481  0.1806  0.0371
 8186SOL    HW136020   0.107   0.550  13.072 -0.1655 -0.3612  0.3755
 8186SOL    HW236021   0.062   0.527  12.930 -0.1734  0.6196 -0.0284
 8187SOL     OW36022   1.080   2.860  11.935  0.6124 -0.0040  0.3880
 8187SOL    HW136023   0.984   2.851  11.935  0.7697 -1.6762  2.0382
 8187SOL    HW236024   1.094   2.827  12.024 -0.2645 -2.6165 -0.4386
 8188SOL     OW36025   3.755   2.097   3.782 -0.1712  0.4860 -0.0889
 8188SOL    HW136026   3.697   2.159   3.827  1.2779 -0.1451  2.6379
 8188SOL    HW236027   3.689   2.046   3.734 -0.0029  1.0276 -0.8919
 8189SOL     OW36028   2.678   2.357  13.603 -0.4757 -0.2870  0.0069
 8189SOL    HW136029   2.765   2.351  13.642 -0.3483 -3.1340 -0.6938
 8189SOL    HW236030   2.639   2.282  13.647 -0.6716  1.1904  2.3131
 8190SOL     OW36031   2.845   3.350   8.085  0.0723  0.0352  0.4668
 8190SOL    HW136032   2.761   3.332   8.127  1.2175 -0.5033  2.5326
 8190SOL    HW236033   2.817   3.341   7.994  2.0753 -0.0581 -0.1592
 8191SOL     OW36034   4.118   3.605  13.178 -0.5773  0.0870 -0.3618
 8191SOL    HW136035   4.022   3.602  13.185 -0.5912  1.1327 -0.1752
 8191SOL    HW236036   4.136   3.601  13.084  0.2929  0.8549 -0.2201
 8192SOL     OW36037   1.003   2.479  12.282  0.4244 -0.0656 -0.6529
 8192SOL    HW136038   0.982   2.387  12.267 -0.5629 -0.0294  0.4751
 8192SOL    HW236039   0.925   2.517  12.243 -1.8787 -1.1175  2.9274
 8193SOL     OW36040   1.133   4.082   1.973  0.3000 -0.0119 -0.4848
 8193SOL    HW136041   1.081   4.133   1.911  1.1317  0.8727 -0.4628
 8193SOL    HW236042   1.197   4.050   1.910  0.0000 -1.3350 -0.1131
 8194SOL     OW36043   0.771   4.519  10.255  0.5009  0.1108  0.0043
 8194SOL    HW136044   0.865   4.531  10.239  0.5010  1.6267  1.1905
 8194SOL    HW236045   0.742   4.499  10.166  0.2149 -0.2248  0.1735
 8195SOL     OW36046   4.264   3.646   8.862 -0.1033  0.1074  0.3580
 8195SOL    HW136047   4.337   3.681   8.812 -0.1241 -0.6577 -0.2088
 8195SOL    HW236048   4.272   3.705   8.937  0.9984  1.2401 -0.6610
 8196SOL     OW36049   0.002   1.824   7.434 -0.6892  0.4068  0.2310
 8196SOL    HW136050   4.662   1.874   7.381  0.2121 -0.1829 -1.3955
 8196SOL    HW236051   0.052   1.904   7.450  0.0057  0.7111 -3.4034
 8197SOL     OW36052   2.614   4.035   7.180 -0.0185  0.9621  0.2529
 8197SOL    HW136053   2.651   4.019   7.267 -1.2343  1.5516  0.8916
 8197SOL    HW236054   2.531   4.076   7.207  0.6062  1.2009  1.8253
 8198SOL     OW36055   4.316   2.426  13.678  0.3166  0.3786  0.5254
 8198SOL    HW136056   4.407   2.432  13.649  0.4500  1.1293  1.0983
 8198SOL    HW236057   4.323   2.342  13.722 -1.1019 -0.1451 -0.2488
 8199SOL     OW36058   0.650   2.143   6.582 -0.1951  0.2923  0.1629
 8199SOL    HW136059   0.596   2.222   6.589 -3.0814 -1.7346  0.6880
 8199SOL    HW236060   0.715   2.167   6.516 -0.2567  0.2342  0.0803
 8200SOL     OW36061   3.532   0.325   7.007 -0.0418 -0.4970 -0.0603
 8200SOL    HW136062   3.552   0.294   6.919  1.5778  0.1161  0.0897
 8200SOL    HW236063   3.567   0.413   6.999 -0.2999 -0.2319  1.7391
 8201SOL     OW36064   2.167   0.905   3.534 -0.2740 -0.4765  0.4493
 8201SOL    HW136065   2.189   0.911   3.627  0.7360 -0.6891  0.2189
 8201SOL    HW236066   2.199   0.987   3.496  0.1297 -1.0912 -0.5203
 8202SOL     OW36067   0.648   1.474   1.996 -0.0629 -0.6966 -0.0636
 8202SOL    HW136068   0.626   1.462   1.904 -1.4481  0.0381  0.1729
 8202SOL    HW236069   0.670   1.568   1.996  2.0061 -1.1857 -1.0055
 8203SOL     OW36070   4.054   4.523  15.765 -0.1038  0.2754  0.0008
 8203SOL    HW136071   4.049   4.617  15.746  0.8028 -0.2533 -2.7716
 8203SOL    HW236072   4.005   4.521  15.847 -0.7142  1.1723 -0.3414
 8204SOL     OW36073   4.299   0.024   2.756  0.7001 -0.0840  0.4162
 8204SOL    HW136074   4.350   0.053   2.680 -0.4640  1.3496  0.1978
 8204SOL    HW236075   4.217   4.718   2.715  0.1606  2.2731 -0.1312
 8205SOL     OW36076   3.229   4.492  10.747 -0.2956  0.8024 -0.2838
 8205SOL    HW136077   3.303   4.475  10.805 -0.7716  3.0620  0.9926
 8205SOL    HW236078   3.204   4.577  10.783  3.4449  1.9530 -0.4503
 8206SOL     OW36079   0.973   3.537   7.004  0.1753  0.2174 -0.5587
 8206SOL    HW136080   0.939   3.580   6.926 -1.4846  0.4765  0.3098
 8206SOL    HW236081   0.888   3.550   7.047  1.0434  2.1639  0.5569
 8207SOL     OW36082   4.089   1.347   3.388  0.0652  0.1699 -0.6058
 8207SOL    HW136083   4.038   1.359   3.468  2.3893  0.3307  0.8423
 8207SOL    HW236084   4.024   1.343   3.318  0.5120 -1.7403 -0.9331
 8208SOL     OW36085   2.236   4.540  16.108 -0.4115 -0.1277 -0.1411
 8208SOL    HW136086   2.236   4.483  16.185  2.1464 -0.8523 -0.6940
 8208SOL    HW236087   2.318   4.518  16.063  1.3504  1.9548  2.0094
 8209SOL     OW36088   4.680   1.639   4.985  0.5771 -0.7190  0.1071
 8209SOL    HW136089   4.630   1.640   4.903 -0.8610 -1.4293  0.9696
 8209SOL    HW236090   4.639   1.694   5.052 -0.6199 -2.6306  0.9380
 8210SOL     OW36091   3.138   2.305   4.194 -0.2288 -0.5195  0.1138
 8210SOL    HW136092   3.207   2.369   4.177  0.2856 -0.5316  2.1638
 8210SOL    HW236093   3.116   2.270   4.108  0.4369 -2.6253  0.8039
 8211SOL     OW36094   2.530   4.242   3.287  0.5420 -0.2411 -0.0907
 8211SOL    HW136095   2.513   4.179   3.357  0.2716  0.6520  0.6439
 8211SOL    HW236096   2.537   4.191   3.206  0.6639 -1.8943  0.9549
 8212SOL     OW36097   0.254   0.538   1.083  0.5239 -0.2406 -0.1941
 8212SOL    HW136098   0.330   0.581   1.045 -0.3356  0.2925 -1.3345
 8212SOL    HW236099   0.243   0.463   1.024  0.1923 -0.2345 -0.1397
 8213SOL     OW36100   0.400   0.658   8.699 -0.2598 -0.9589 -0.7647
 8213SOL    HW136101   0.490   0.658   8.669 -0.3225 -2.4421 -0.9081
 8213SOL    HW236102   0.418   0.652   8.793 -1.5046  2.6616 -0.2662
 8214SOL     OW36103   2.458   2.989   0.732 -0.0919  0.1213  0.1402
 8214SOL    HW136104   2.436   2.964   0.643 -0.0666  2.2786 -0.4665
 8214SOL    HW236105   2.523   3.058   0.719  1.0639 -0.8507  0.7592
 8215SOL     OW36106   1.544   4.393   3.408 -0.1052 -0.2360  0.2642
 8215SOL    HW136107   1.494   4.411   3.488  0.5701 -0.1452  0.6597
 8215SOL    HW236108   1.575   4.481   3.386 -2.0399 -0.0219 -1.6009
 8216SOL     OW36109   3.291   0.229  14.307 -0.5907 -0.1991  0.2623
 8216SOL    HW136110   3.357   0.193  14.247 -3.2810  1.8527 -3.9187
 8216SOL    HW236111   3.238   0.274  14.241 -1.5914 -1.7354  0.0151
 8217SOL     OW36112   2.847   1.097   3.521 -0.1164  0.3234  0.0574
 8217SOL    HW136113   2.813   1.180   3.487  3.0978  1.7928  0.5023
 8217SOL    HW236114   2.897   1.123   3.598 -3.1108 -0.3835  2.2579
 8218SOL     OW36115   4.274   1.669   4.977  0.5705 -0.6161  0.1496
 8218SOL    HW136116   4.203   1.730   4.957 -0.8358 -2.9580 -1.9726
 8218SOL    HW236117   4.342   1.725   5.014  0.4703 -0.3784 -0.0258
 8219SOL     OW36118   0.824   4.411   3.476 -0.2513  0.1968 -0.1232
 8219SOL    HW136119   0.804   4.491   3.428 -0.9455 -0.1971 -0.4948
 8219SOL    HW236120   0.738   4.369   3.476 -0.3090  0.3313 -0.9566
 8220SOL     OW36121   2.923   4.239  13.837  0.5346  0.3532 -0.6401
 8220SOL    HW136122   2.839   4.260  13.796 -0.2774 -2.6082 -0.4981
 8220SOL    HW236123   2.913   4.225  13.931 -1.5243  0.7748 -0.7862
 8221SOL     OW36124   4.317   0.514   1.050 -0.6100  0.1453 -0.2949
 8221SOL    HW136125   4.306   0.534   0.957 -0.0403  2.5658  0.1630
 8221SOL    HW236126   4.402   0.547   1.078 -0.8881  1.1382 -0.5910
 8222SOL     OW36127   0.106   0.492   6.279 -0.4141 -0.2301 -0.3827
 8222SOL    HW136128   0.181   0.466   6.332  0.6258  2.0416 -0.7692
 8222SOL    HW236129   0.073   0.406   6.252  0.2135 -0.4814 -0.3397
 8223SOL     OW36130   4.440   2.630   9.073 -0.3615  0.3866 -0.1347
 8223SOL    HW136131   4.354   2.590   9.082  0.7162 -1.5337  1.4157
 8223SOL    HW236132   4.443   2.638   8.977  0.8951 -1.4371 -0.2477
 8224SOL     OW36133   2.287   2.263   6.457 -0.3825 -0.3636  0.5029
 8224SOL    HW136134   2.259   2.338   6.405  1.4620 -1.2158 -1.7043
 8224SOL    HW236135   2.332   2.214   6.387  0.2763  1.8666 -0.6360
 8225SOL     OW36136   3.874   3.521   1.904  0.1544  0.0045  0.3457
 8225SOL    HW136137   3.883   3.524   1.809 -0.5569  2.1021  0.3538
 8225SOL    HW236138   3.858   3.428   1.922 -2.5367  0.4638  0.3225
 8226SOL     OW36139   3.262   1.025   5.585 -0.6592 -0.3188  0.2770
 8226SOL    HW136140   3.201   1.088   5.548 -0.1343 -0.5386 -0.9357
 8226SOL    HW236141   3.348   1.060   5.563  0.3437 -2.5844  0.5435
 8227SOL     OW36142   1.121   4.225   2.834 -0.1324  0.1301 -0.2320
 8227SOL    HW136143   1.053   4.216   2.900 -1.5841 -1.1810 -1.8746
 8227SOL    HW236144   1.200   4.188   2.873 -1.3319 -1.6555  0.4965
 8228SOL     OW36145   0.040   4.700   9.622 -0.5515  0.0521  0.2539
 8228SOL    HW136146   0.096   0.043   9.579 -2.1806  1.0022 -0.3883
 8228SOL    HW236147   0.061   4.711   9.715  0.6261 -0.4058  0.0459
 8229SOL     OW36148   4.637   1.551   4.488 -0.2494 -0.0449 -0.7046
 8229SOL    HW136149   4.617   1.567   4.580 -2.1408 -1.5199 -0.8720
 8229SOL    HW236150   4.692   1.627   4.467 -0.2162  0.6375  1.7863
 8230SOL     OW36151   3.905   4.657   2.808  0.2569 -0.0973  0.0301
 8230SOL    HW136152   3.840   4.587   2.821  1.8199 -1.5922 -0.1953
 8230SOL    HW236153   3.964   4.647   2.883  0.7534 -0.9445 -0.4752
 8231SOL     OW36154   2.144   2.139  14.959  0.0004  0.4588  0.3835
 8231SOL    HW136155   2.229   2.095  14.959 -0.7594 -1.0347  1.9311
 8231SOL    HW236156   2.163   2.206  14.893 -0.1046 -1.6587 -1.7862
 8232SOL     OW36157   3.692   3.851   7.738  0.4617 -0.1133 -0.6766
 8232SOL    HW136158   3.662   3.872   7.650  1.5474  0.8530 -0.8183
 8232SOL    HW236159   3.654   3.764   7.751  0.4088 -0.1468 -1.0602
 8233SOL     OW36160   1.975   1.019   4.538 -0.5415 -0.0683 -0.1431
 8233SOL    HW136161   1.911   0.951   4.516 -1.9404  2.0998 -2.8294
 8233SOL    HW236162   2.053   0.979   4.575 -1.0557 -0.3093  0.6784
 8234SOL     OW36163   4.024   4.306   3.692  0.3446 -0.5035 -0.5554
 8234SOL    HW136164   3.932   4.321   3.714  0.7221 -1.3965  1.6177
 8234SOL    HW236165   4.060   4.243   3.755 -1.5520 -0.3798  0.6521
 8235SOL     OW36166   2.269   3.998  16.372 -0.0962 -0.2839  0.1385
 8235SOL    HW136167   2.339   4.034  16.427 -0.7489  1.7943 -0.3800
 8235SOL    HW236168   2.265   3.908  16.404 -0.1778  0.3999  2.0386
 8236SOL     OW36169   4.170   4.476   7.269  0.6316 -0.1775  0.0660
 8236SOL    HW136170   4.244   4.532   7.293  1.3625 -0.4882 -1.4792
 8236SOL    HW236171   4.206   4.388   7.284  2.2072 -0.2028 -3.9708
 8237SOL     OW36172   2.593   3.073   8.353 -0.2828 -0.5895 -0.2487
 8237SOL    HW136173   2.517   3.027   8.318  0.4321 -1.7987 -0.2306
 8237SOL    HW236174   2.627   3.008   8.415 -0.6884 -1.0553 -0.5144
 8238SOL     OW36175   3.880   0.120  16.929  0.3335  0.1993 -0.4131
 8238SOL    HW136176   3.964   0.164  16.924 -0.3774  1.5806 -0.0655
 8238SOL    HW236177   3.822   0.196  16.929 -0.7461 -0.6215  3.3838
 8239SOL     OW36178   4.094   3.902  17.573 -0.2007  0.3549 -0.3799
 8239SOL    HW136179   4.103   3.879  17.481 -0.5692 -0.6740 -0.1607
 8239SOL    HW236180   4.156   3.858  17.631 -1.8777 -3.6307 -1.6603
 8240SOL     OW36181   1.981   0.981  12.755 -0.4189  0.0593  0.2394
 8240SOL    HW136182   1.995   0.964  12.848 -0.3967 -1.0738  0.0218
 8240SOL    HW236183   1.973   1.076  12.762  1.6528  0.1627  1.1523
 8241SOL     OW36184   2.175   2.088   2.156  0.1607 -0.4683 -0.1301
 8241SOL    HW136185   2.091   2.046   2.139 -0.1034  1.0255 -2.5755
 8241SOL    HW236186   2.152   2.179   2.175  0.3526 -0.2676 -0.8757
 8242SOL     OW36187   2.965   3.175   7.300 -0.8001 -0.4840 -0.2905
 8242SOL    HW136188   3.035   3.195   7.239  0.3523  2.5841  2.0009
 8242SOL    HW236189   2.907   3.117   7.252 -0.9394  0.6749 -1.5277
 8243SOL     OW36190   1.237   4.417   8.656 -0.3881  0.4928 -0.2361
 8243SOL    HW136191   1.323   4.446   8.628  1.1843 -1.3585  2.6989
 8243SOL    HW236192   1.218   4.473   8.731 -3.7790 -0.1499 -0.6092
 8244SOL     OW36193   0.558   4.690   0.793 -0.4096  0.2170 -0.1389
 8244SOL    HW136194   0.468   4.705   0.764  0.4107  2.4641 -1.5001
 8244SOL    HW236195   0.576   4.597   0.782 -0.1008  0.5976 -2.8672
 8245SOL     OW36196   3.255   4.113   4.459 -0.0930  0.3729 -0.1744
 8245SOL    HW136197   3.270   4.068   4.542  2.0751  0.3252 -0.5829
 8245SOL    HW236198   3.160   4.109   4.450  0.1730  1.0161 -3.3228
 8246SOL     OW36199   1.956   2.584   2.308 -0.8144  0.6088 -0.2944
 8246SOL    HW136200   2.005   2.591   2.390 -0.8927 -2.6052  0.0165
 8246SOL    HW236201   1.874   2.628   2.329 -0.6629  0.3032  0.9410
 8247SOL     OW36202   4.046   2.989  10.700 -0.2556  0.3558  0.5196
 8247SOL    HW136203   4.094   3.008  10.620 -2.2228  0.2107 -0.6962
 8247SOL    HW236204   3.956   2.987  10.668  0.4455 -1.9828 -1.2896
 8248SOL     OW36205   0.631   2.556   1.167 -0.8299 -0.0565  0.3917
 8248SOL    HW136206   0.664   2.466   1.179 -1.8103 -0.4695 -0.0367
 8248SOL    HW236207   0.702   2.608   1.206 -0.6172  0.9118 -1.3204
 8249SOL     OW36208   1.636   3.068   0.834  0.0028  0.5298  0.0040
 8249SOL    HW136209   1.687   3.113   0.766 -0.5258  0.3163 -0.5264
 8249SOL    HW236210   1.696   3.045   0.905  0.2701 -1.7350 -0.9559
 8250SOL     OW36211   2.493   0.402   4.682  0.2945 -0.1878  0.1796
 8250SOL    HW136212   2.565   0.380   4.741  1.2050 -1.4643 -1.4227
 8250SOL    HW236213   2.543   0.421   4.603 -1.3374 -0.7174 -0.9780
 8251SOL     OW36214   2.403   0.785  13.316 -0.4437  0.1670 -0.5185
 8251SOL    HW136215   2.320   0.773  13.270 -0.5765  0.0900 -0.2619
 8251SOL    HW236216   2.460   0.759  13.245  1.3278  1.4552  0.4349
 8252SOL     OW36217   0.441   2.120   8.130 -0.1817 -0.5106  0.7001
 8252SOL    HW136218   0.532   2.148   8.134 -0.2233 -0.4431  1.1903
 8252SOL    HW236219   0.456   2.025   8.130  0.3862 -0.4276 -5.0360
 8253SOL     OW36220   3.875   1.913   8.300 -0.4341  0.0430  0.0366
 8253SOL    HW136221   3.841   1.835   8.256  1.7005  0.2403 -1.9322
 8253SOL    HW236222   3.969   1.902   8.287 -0.3232  0.1990  0.6771
 8254SOL     OW36223   3.013   0.127   9.891 -0.7132 -0.1595  0.0885
 8254SOL    HW136224   3.054   0.054   9.846 -0.9327  0.3674 -0.9716
 8254SOL    HW236225   3.074   0.195   9.861 -0.0967 -1.6904 -2.0824
 8255SOL     OW36226   4.257   2.335   8.827  0.2100  0.0331  0.1013
 8255SOL    HW136227   4.209   2.252   8.832  1.1042 -0.3100  2.6861
 8255SOL    HW236228   4.236   2.374   8.912  2.0549 -1.2161  1.1226
 8256SOL     OW36229   2.082   3.185   6.355 -0.0346 -0.0230  0.2020
 8256SOL    HW136230   2.021   3.151   6.420  0.3171 -1.6629 -0.2953
 8256SOL    HW236231   2.160   3.219   6.398 -2.3662  0.2015  4.2572
 8257SOL     OW36232   2.322   3.930  14.926 -0.3213 -0.3655  0.0683
 8257SOL    HW136233   2.365   3.845  14.916 -0.4873 -0.7638  2.7466
 8257SOL    HW236234   2.232   3.911  14.896  0.1154  0.0285 -1.4868
 8258SOL     OW36235   0.484   0.177  15.194  0.2213  0.3084  0.2481
 8258SOL    HW136236   0.561   0.197  15.141 -0.9423  2.2459 -0.7236
 8258SOL    HW236237   0.454   0.263  15.224  3.5904  1.3316  0.7176
 8259SOL     OW36238   1.495   1.277   6.983 -0.0807 -0.3963  0.8336
 8259SOL    HW136239   1.511   1.367   6.955 -0.2960 -0.5342  0.2622
 8259SOL    HW236240   1.578   1.268   7.031 -1.1199 -1.5882  2.4143
 8260SOL     OW36241   3.592   2.796  12.060  0.8276 -0.0106 -0.2764
 8260SOL    HW136242   3.509   2.844  12.053  0.3751 -0.7889 -0.2633
 8260SOL    HW236243   3.568   2.717  12.011  0.3108 -2.0636  3.3457
 8261SOL     OW36244   3.158   3.506   8.139  0.7803 -0.0386  0.5035
 8261SOL    HW136245   3.126   3.423   8.105 -2.2720  0.9546  0.9133
 8261SOL    HW236246   3.098   3.510   8.215  0.5811  0.3555  0.3272
 8262SOL     OW36247   4.591   3.670   5.073 -0.1628  0.7779 -0.0047
 8262SOL    HW136248   4.536   3.678   4.995  0.6943  0.1510 -0.6631
 8262SOL    HW236249   4.538   3.608   5.123 -0.7693  0.0223 -1.5994
 8263SOL     OW36250   2.668   3.426   7.142  0.5291 -0.0334 -0.5281
 8263SOL    HW136251   2.718   3.391   7.068  0.3066 -0.7753 -0.3213
 8263SOL    HW236252   2.735   3.488   7.171  0.3311 -0.7852  1.5125
 8264SOL     OW36253   4.602   0.634   9.812  0.7174 -0.1311  0.3725
 8264SOL    HW136254   4.600   0.544   9.780  0.1342  1.0307 -2.9645
 8264SOL    HW236255   4.655   0.614   9.889  1.6383  0.9480  0.0242
 8265SOL     OW36256   1.871   1.296  11.699 -0.9789  0.1522 -0.5349
 8265SOL    HW136257   1.866   1.338  11.785 -0.4913  1.7791 -1.2980
 8265SOL    HW236258   1.829   1.212  11.717  2.2085 -1.1087  1.0409
 8266SOL     OW36259   2.052   4.133  16.264 -0.3450 -0.3753  0.4003
 8266SOL    HW136260   2.037   4.059  16.205 -1.2576  0.4538 -0.3895
 8266SOL    HW236261   2.122   4.090  16.314 -0.6163 -1.2406  0.0327
 8267SOL     OW36262   0.651   3.688   4.335  0.7782 -0.1935 -0.2676
 8267SOL    HW136263   0.719   3.736   4.288  2.0040 -0.1956  1.5321
 8267SOL    HW236264   0.586   3.661   4.270 -2.0966  1.1055  2.1017
 8268SOL     OW36265   2.729   3.480   9.217  0.1004 -0.1665  0.2429
 8268SOL    HW136266   2.732   3.450   9.308 -0.0409 -1.5008 -0.1883
 8268SOL    HW236267   2.682   3.407   9.177  0.2084 -1.2418  2.0728
 8269SOL     OW36268   0.614   1.019   1.203 -0.1640  0.4547 -0.6030
 8269SOL    HW136269   0.554   1.093   1.207  0.1649  0.6325  1.2114
 8269SOL    HW236270   0.696   1.068   1.195 -0.5806  1.2005 -0.3750
 8270SOL     OW36271   2.518   4.600   5.214  0.0083 -0.1479  0.4929
 8270SOL    HW136272   2.425   4.621   5.206  0.2155 -0.3910 -2.5625
 8270SOL    HW236273   2.514   4.524   5.271  0.4222  0.0247  0.7550
 8271SOL     OW36274   3.771   3.050   4.884  0.2351 -0.2229 -0.0269
 8271SOL    HW136275   3.833   2.990   4.925  0.3538 -0.2642 -0.2645
 8271SOL    HW236276   3.709   2.992   4.840  0.6618  0.8577 -2.0859
 8272SOL     OW36277   4.394   0.844   9.873 -0.6271  0.4071  0.3753
 8272SOL    HW136278   4.411   0.888   9.957  4.6973  0.8232 -0.9110
 8272SOL    HW236279   4.468   0.782   9.869  1.5188  2.6814  4.3397
 8273SOL     OW36280   1.170   4.331   5.228  0.2339  0.2309  1.2523
 8273SOL    HW136281   1.152   4.346   5.135 -0.1329  2.4721  1.7058
 8273SOL    HW236282   1.266   4.334   5.227  0.1645  1.6852  0.0544
 8274SOL     OW36283   0.297   0.836   0.989  0.1055 -0.2220 -0.2447
 8274SOL    HW136284   0.372   0.777   0.981  3.3755  3.6615  1.4359
 8274SOL    HW236285   0.292   0.849   1.083  0.0782  1.4663 -0.4694
 8275SOL     OW36286   3.257   3.916  16.049  0.2259 -0.0478 -0.5658
 8275SOL    HW136287   3.278   3.936  15.957 -0.4095  0.8507 -0.5143
 8275SOL    HW236288   3.230   4.003  16.078  2.3043 -0.6367  3.2057
 8276SOL     OW36289   0.054   3.129  15.797  0.2760 -0.3883  0.5592
 8276SOL    HW136290   0.016   3.051  15.838  0.0957 -0.1612  0.8260
 8276SOL    HW236291   0.061   3.095  15.708  0.7761  0.3924  0.3091
 8277SOL     OW36292   2.520   1.086   7.299  0.4416  0.3935 -0.2402
 8277SOL    HW136293   2.587   1.034   7.253 -0.9623  0.3114 -2.1547
 8277SOL    HW236294   2.452   1.080   7.232  0.1401  1.2886 -0.0127
 8278SOL     OW36295   3.021   1.554   4.041  0.0264 -0.1762 -0.1595
 8278SOL    HW136296   3.065   1.492   3.982 -0.9296  0.0844 -1.1306
 8278SOL    HW236297   3.063   1.525   4.122  1.0398 -1.0901 -0.9939
 8279SOL     OW36298   2.452   0.537   5.160 -0.6348  0.1745  0.3739
 8279SOL    HW136299   2.392   0.598   5.117 -0.8982  0.1841  0.7538
 8279SOL    HW236300   2.514   0.602   5.194  0.2386 -0.5026  0.0729
 8280SOL     OW36301   4.442   2.106   1.330  0.3094 -0.6433  0.6731
 8280SOL    HW136302   4.473   2.095   1.419  1.4027 -0.6486  0.2885
 8280SOL    HW236303   4.349   2.087   1.339 -0.2124  2.1537  1.2099
 8281SOL     OW36304   0.041   1.394   4.775  0.6040 -0.2384 -0.0261
 8281SOL    HW136305   0.012   1.403   4.866  3.0857  0.8063  0.6703
 8281SOL    HW236306   4.689   1.347   4.737 -0.8752  1.5627  0.6201
 8282SOL     OW36307   4.307   1.480   5.190  0.2560 -0.1403 -0.4379
 8282SOL    HW136308   4.248   1.405   5.195 -1.7874  1.6009  1.1044
 8282SOL    HW236309   4.292   1.504   5.099  1.8558  2.3309 -0.0491
 8283SOL     OW36310   2.140   1.211   7.536 -0.4685  0.3997 -0.6933
 8283SOL    HW136311   2.154   1.249   7.623 -2.8890 -0.7588  0.2165
 8283SOL    HW236312   2.159   1.120   7.558 -1.3559  0.3332 -0.2004
 8284SOL     OW36313   1.485   3.678  16.534  0.5013  0.1262 -0.0574
 8284SOL    HW136314   1.553   3.623  16.575  0.3801  1.0953  1.4690
 8284SOL    HW236315   1.490   3.753  16.593 -2.1359 -0.3009  0.6919
 8285SOL     OW36316   4.001   1.291   4.364  0.3244 -0.3142 -0.1631
 8285SOL    HW136317   4.026   1.346   4.289  0.6853 -0.8973 -0.4704
 8285SOL    HW236318   3.909   1.283   4.339 -0.4918  1.7771  2.2570
 8286SOL     OW36319   2.657   4.501   1.731  0.3537 -0.2224  0.2861
 8286SOL    HW136320   2.742   4.460   1.747 -0.4229 -1.3035  1.6371
 8286SOL    HW236321   2.686   4.561   1.662 -1.1652 -0.7950 -0.8487
 8287SOL     OW36322   2.029   0.143  17.183 -0.1358 -0.5448  0.1090
 8287SOL    HW136323   1.999   0.203  17.115  1.9649 -0.7102 -0.9832
 8287SOL    HW236324   2.097   0.095  17.135  0.9160  1.4015 -0.3218
 8288SOL     OW36325   2.871   0.268   9.711  0.3356  0.2000  0.2620
 8288SOL    HW136326   2.871   0.193   9.770 -0.1134 -0.0051 -0.0004
 8288SOL    HW236327   2.812   0.235   9.643 -0.2224  0.2210  0.7294
 8289SOL     OW36328   2.375   2.835   6.737 -0.4784  0.3620 -0.1140
 8289SOL    HW136329   2.332   2.910   6.778  1.6835  2.1372 -1.0751
 8289SOL    HW236330   2.387   2.773   6.809 -1.0047  0.6623  0.2281
 8290SOL     OW36331   0.749   3.659  13.505 -0.0536  0.4534  0.8561
 8290SOL    HW136332   0.712   3.599  13.440  1.0885  0.1796  0.4535
 8290SOL    HW236333   0.685   3.657  13.577 -0.4539  0.8364  0.5080
 8291SOL     OW36334   1.477   2.713   6.715  0.2647 -0.0193 -0.0479
 8291SOL    HW136335   1.528   2.751   6.786  0.4409  0.3110 -0.3521
 8291SOL    HW236336   1.470   2.783   6.650  0.2365  0.5664  0.5847
 8292SOL     OW36337   2.810   1.491  11.297 -0.3694 -0.0911 -0.1965
 8292SOL    HW136338   2.820   1.398  11.318 -1.7907 -0.2360 -0.1688
 8292SOL    HW236339   2.902   1.517  11.305 -1.0816  1.8798  1.7216
 8293SOL     OW36340   4.695   1.291  11.117  0.2471  0.4892  0.0404
 8293SOL    HW136341   0.000   1.309  11.028 -0.2374 -2.6058 -0.7429
 8293SOL    HW236342   4.624   1.230  11.096 -0.7501  1.5846  0.2030
 8294SOL     OW36343   3.283   2.239   6.172  0.0198  0.7101  0.2231
 8294SOL    HW136344   3.362   2.190   6.196  0.7589  1.4357 -0.7096
 8294SOL    HW236345   3.305   2.259   6.081 -1.3117  0.4298 -0.1643
 8295SOL     OW36346   4.345   3.386   2.556  0.0449 -0.1263 -0.6209
 8295SOL    HW136347   4.275   3.423   2.501 -0.3490  0.4890  0.2989
 8295SOL    HW236348   4.423   3.431   2.521  0.0165  1.1585  0.9408
 8296SOL     OW36349   2.229   4.214   3.096 -0.6763 -0.5176 -0.1632
 8296SOL    HW136350   2.284   4.268   3.039  0.7667  0.4202  2.1313
 8296SOL    HW236351   2.217   4.275   3.169 -1.4163 -1.3351  0.3931
 8297SOL     OW36352   4.108   2.341   3.547 -0.2427 -0.0793  0.4034
 8297SOL    HW136353   4.033   2.295   3.584  0.5584 -1.8296 -0.1570
 8297SOL    HW236354   4.171   2.270   3.552 -1.9779 -1.6997 -0.6574
 8298SOL     OW36355   4.528   0.650   3.586  0.0495 -0.5995  0.4585
 8298SOL    HW136356   4.619   0.657   3.560 -0.1773 -1.1813 -0.5168
 8298SOL    HW236357   4.488   0.659   3.499 -0.4611 -1.9954  0.5472
 8299SOL     OW36358   1.331   1.618   9.097 -0.2100  0.2882 -0.3619
 8299SOL    HW136359   1.387   1.695   9.098 -0.1222  0.2199  0.3882
 8299SOL    HW236360   1.396   1.547   9.091 -0.4022  0.0317  0.5648
 8300SOL     OW36361   4.634   2.889  12.586 -0.4278 -0.6263  0.3389
 8300SOL    HW136362   4.575   2.838  12.640 -0.0049 -2.3812 -0.8831
 8300SOL    HW236363   0.001   2.870  12.618 -0.0306 -0.3291 -0.5846
 8301SOL     OW36364   3.456   1.061   2.834  0.4643 -0.3172  0.4312
 8301SOL    HW136365   3.379   1.013   2.803 -1.1893  1.1995  2.1329
 8301SOL    HW236366   3.410   1.065   2.918  1.6085 -0.0645  1.0387
 8302SOL     OW36367   0.168   2.921   5.227  0.3675  0.6599 -0.7482
 8302SOL    HW136368   0.125   2.876   5.300  0.0659  2.4336  0.1678
 8302SOL    HW236369   0.250   2.872   5.216 -0.5107 -1.3529  1.5816
 8303SOL     OW36370   1.134   2.564  13.701  0.2994 -0.2878  0.4238
 8303SOL    HW136371   1.215   2.512  13.709  0.1485 -0.3706  1.4241
 8303SOL    HW236372   1.079   2.501  13.654  1.7454  0.0191 -1.7143
 8304SOL     OW36373   4.165   2.970   4.310 -0.1314 -0.2075 -0.0617
 8304SOL    HW136374   4.156   2.901   4.376  1.6189  0.3902  0.8221
 8304SOL    HW236375   4.214   2.925   4.241  0.6556 -0.6269  0.7524
 8305SOL     OW36376   0.687   0.939   7.325 -0.4812 -0.1896  0.0606
 8305SOL    HW136377   0.603   0.905   7.296 -1.1763  0.4470  1.3724
 8305SOL    HW236378   0.746   0.886   7.271  0.6343 -1.7265  2.7690
 8306SOL     OW36379   1.496   1.977   6.151 -0.3960 -0.0957  0.0397
 8306SOL    HW136380   1.517   1.901   6.205 -1.2020 -0.5194 -0.2405
 8306SOL    HW236381   1.556   1.961   6.078 -1.3273 -0.0979 -0.7294
 8307SOL     OW36382   2.164   1.645  13.946  0.6690 -0.2123 -0.3236
 8307SOL    HW136383   2.122   1.693  13.874 -0.1587  1.2466  1.1430
 8307SOL    HW236384   2.253   1.655  13.913  0.0513 -2.0992 -2.5892
 8308SOL     OW36385   2.035   1.366   6.741  0.3327 -0.0666 -0.0218
 8308SOL    HW136386   2.072   1.279   6.755  2.1596  0.6175 -0.5482
 8308SOL    HW236387   2.080   1.422   6.804 -0.0523 -0.7478  0.8545
 8309SOL     OW36388   1.157   0.309   0.004  0.2066 -0.6935  0.2456
 8309SOL    HW136389   1.215   0.325   0.079 -0.1130 -1.6198  0.6993
 8309SOL    HW236390   1.101   0.238   0.035 -0.4046 -0.0893  0.5337
 8310SOL     OW36391   1.991   2.912   6.846  0.6182  0.1023 -0.5925
 8310SOL    HW136392   1.976   2.853   6.920 -1.5747  0.3325 -0.8597
 8310SOL    HW236393   1.923   2.891   6.783  0.8118 -0.4080 -0.6286
 8311SOL     OW36394   2.728   0.767   0.276  0.1600 -0.4591 -0.4638
 8311SOL    HW136395   2.671   0.716   0.334 -0.1494 -0.0023 -0.3586
 8311SOL    HW236396   2.695   0.754   0.187 -1.5577  2.2995 -0.2506
 8312SOL     OW36397   2.066   0.713   8.981  0.2506 -0.1221 -0.4305
 8312SOL    HW136398   2.145   0.688   9.028 -0.3816 -2.5390 -0.6411
 8312SOL    HW236399   1.993   0.693   9.040  0.4467  1.5228  0.3607
 8313SOL     OW36400   4.451   3.710   0.552 -0.6762 -0.1156  0.2864
 8313SOL    HW136401   4.405   3.637   0.595 -0.8984 -1.3316 -2.0121
 8313SOL    HW236402   4.396   3.725   0.475  0.5766  0.7807 -0.4185
 8314SOL     OW36403   2.946   3.615   1.588 -0.5828 -0.3002  0.6625
 8314SOL    HW136404   2.934   3.686   1.525  2.2760  0.0532  0.5299
 8314SOL    HW236405   2.863   3.568   1.587 -2.0902  2.3515  0.9091
 8315SOL     OW36406   4.256   0.393   8.374  0.1767  0.0745 -0.6104
 8315SOL    HW136407   4.275   0.471   8.426 -1.8297 -0.4928  0.9779
 8315SOL    HW236408   4.227   0.436   8.293 -2.5675  1.5650  1.1500
 8316SOL     OW36409   0.326   2.720   5.228 -0.2171  0.6613  0.4968
 8316SOL    HW136410   0.380   2.707   5.307  0.0969 -0.2197  0.1424
 8316SOL    HW236411   0.308   2.629   5.205  1.5927  0.1127  1.2183
 8317SOL     OW36412   3.881   1.059   9.484 -0.3297 -0.4456  0.3631
 8317SOL    HW136413   3.790   1.044   9.512 -0.5815 -0.9986 -0.7742
 8317SOL    HW236414   3.898   0.984   9.427 -1.1125 -0.9539  0.7826
 8318SOL     OW36415   0.206   1.250  12.350  0.5859 -0.4391 -0.1798
 8318SOL    HW136416   0.191   1.327  12.295 -0.8367 -1.3732 -1.0947
 8318SOL    HW236417   0.301   1.245  12.356  0.5328 -2.5624 -1.1864
 8319SOL     OW36418   4.302   1.624   6.846 -0.2245 -0.1241 -0.2954
 8319SOL    HW136419   4.377   1.643   6.789 -0.7530  0.3154 -0.8317
 8319SOL    HW236420   4.324   1.531   6.860  0.5030  0.1147  0.1652
 8320SOL     OW36421   3.184   2.624   9.033 -0.9361 -0.3039  0.2433
 8320SOL    HW136422   3.176   2.705   8.983 -1.8772 -0.7688 -0.3647
 8320SOL    HW236423   3.138   2.554   8.986  1.9520 -0.7412 -1.8877
 8321SOL     OW36424   4.523   2.262   5.036 -0.2659 -0.3070 -0.1524
 8321SOL    HW136425   4.552   2.230   5.122 -1.0869 -0.6767 -0.0184
 8321SOL    HW236426   4.531   2.188   4.977 -0.9913 -1.2005  0.8685
 8322SOL     OW36427   1.915   1.305  13.668 -1.0564  0.1057  0.0578
 8322SOL    HW136428   1.981   1.283  13.602 -2.7075 -2.0918 -0.8730
 8322SOL    HW236429   1.948   1.251  13.740 -0.4696  1.0295  0.4832
 8323SOL     OW36430   4.411   3.524  16.860 -0.1153 -0.1657 -0.1414
 8323SOL    HW136431   4.397   3.586  16.932 -1.1500  0.8430 -1.2249
 8323SOL    HW236432   4.338   3.550  16.804  0.5459 -0.4285 -1.1233
 8324SOL     OW36433   2.687   0.433  14.026  0.4129  0.0321 -0.4400
 8324SOL    HW136434   2.774   0.435  13.987  0.2800 -1.0928 -0.7954
 8324SOL    HW236435   2.648   0.379  13.958 -1.3405 -0.8900  1.3071
 8325SOL     OW36436   4.631   3.338  17.071  0.4993  0.2929  0.4357
 8325SOL    HW136437   4.629   3.255  17.024 -0.4132  0.3607  0.3552
 8325SOL    HW236438   4.718   3.369  17.046  0.1041  1.8753  1.0353
 8326SOL     OW36439   0.968   4.402   4.556 -0.2464 -0.3554 -0.0510
 8326SOL    HW136440   0.987   4.373   4.466 -0.0320  0.1244 -0.1614
 8326SOL    HW236441   1.021   4.354   4.619 -2.2526 -0.1745  1.7524
 8327SOL     OW36442   0.207   0.287   2.662 -0.4918 -0.2529 -0.0115
 8327SOL    HW136443   0.112   0.292   2.672 -0.6210  0.7102 -1.9150
 8327SOL    HW236444   0.229   0.378   2.682 -0.6627 -0.1090 -0.4878
 8328SOL     OW36445   2.684   4.430  12.644  0.1845 -0.0957 -0.0054
 8328SOL    HW136446   2.769   4.400  12.610 -0.3793 -1.4543 -0.2184
 8328SOL    HW236447   2.722   4.504  12.691 -2.7457  0.8881  0.7938
 8329SOL     OW36448   4.207   0.167   4.318 -1.1129 -0.0406  0.4135
 8329SOL    HW136449   4.177   0.179   4.228 -2.1567  0.7949  0.8781
 8329SOL    HW236450   4.127   0.194   4.363 -0.7192  1.7295  0.0756
 8330SOL     OW36451   3.421   3.605   4.972  0.0229  0.4213 -0.0690
 8330SOL    HW136452   3.467   3.605   5.056 -1.8740  0.8688  0.9488
 8330SOL    HW236453   3.408   3.511   4.959  2.9920  0.2166 -1.6326
 8331SOL     OW36454   2.150   2.777  13.443  0.3296  0.5093  0.2589
 8331SOL    HW136455   2.130   2.783  13.350  3.8983 -0.2811 -0.5550
 8331SOL    HW236456   2.240   2.746  13.436  0.5808  1.4208 -0.5957
 8332SOL     OW36457   1.847   1.365   8.008  0.6080  0.1395  0.9159
 8332SOL    HW136458   1.815   1.290   8.058 -1.2578  0.7419  0.6291
 8332SOL    HW236459   1.926   1.391   8.056  0.7873  1.5664 -0.1664
 8333SOL     OW36460   0.578   2.409   6.660 -0.0759 -0.0425 -0.1161
 8333SOL    HW136461   0.620   2.404   6.746  1.1687 -0.1698 -0.7499
 8333SOL    HW236462   0.493   2.449   6.681  0.0050  0.4363 -0.6968
 8334SOL     OW36463   1.524   1.896   4.126 -0.6161  0.0557  0.6025
 8334SOL    HW136464   1.511   1.801   4.131 -1.3032  0.0935 -0.5556
 8334SOL    HW236465   1.511   1.927   4.216 -0.3600 -1.6637  1.2472
 8335SOL     OW36466   2.903   4.229  12.818  0.2066  0.0558  0.2455
 8335SOL    HW136467   2.998   4.218  12.822  0.3873  1.0477 -1.2713
 8335SOL    HW236468   2.888   4.287  12.744  1.6243 -0.2921 -0.3094
 8336SOL     OW36469   0.726   1.118   2.106  0.3007 -0.2031  0.3488
 8336SOL    HW136470   0.780   1.195   2.091 -0.2815  0.3231  0.9440
 8336SOL    HW236471   0.788   1.045   2.111  2.8785  2.0402  0.9924
 8337SOL     OW36472   4.554   2.370   2.052  0.3913  0.2950  0.1511
 8337SOL    HW136473   4.616   2.376   1.979 -0.9121  1.0514 -0.8973
 8337SOL    HW236474   4.584   2.292   2.098 -3.0846 -0.4989  1.0496
 8338SOL     OW36475   4.491   2.762  11.192 -0.2198  0.3617 -0.3881
 8338SOL    HW136476   4.562   2.797  11.246  1.2009 -0.1863 -1.8913
 8338SOL    HW236477   4.410   2.786  11.238  0.2146  0.8350  0.1355
 8339SOL     OW36478   3.551   3.529   3.378  0.0631 -0.0895  0.5168
 8339SOL    HW136479   3.617   3.567   3.435 -0.0527 -0.6625  1.0335
 8339SOL    HW236480   3.478   3.564   3.428 -0.1183 -0.0244  0.2094
 8340SOL     OW36481   0.143   2.741   7.360  0.6846  1.0432 -0.1848
 8340SOL    HW136482   0.121   2.649   7.344 -1.6327  1.1687  2.1976
 8340SOL    HW236483   0.211   2.755   7.294 -0.6037 -0.8107 -1.9293
 8341SOL     OW36484   1.392   0.025  17.507  0.1860 -0.0275  0.4538
 8341SOL    HW136485   1.301   4.720  17.510 -0.5172  2.2771  0.2711
 8341SOL    HW236486   1.416   4.697  17.429  0.0225  0.9688 -0.2526
 8342SOL     OW36487   2.323   4.363   4.461 -0.7144  0.2951  0.6993
 8342SOL    HW136488   2.407   4.399   4.432 -0.7207  1.9739  2.7904
 8342SOL    HW236489   2.290   4.432   4.518  0.1000  1.0876  0.2048
 8343SOL     OW36490   0.179   0.039  13.918  0.3053 -0.4595  0.0917
 8343SOL    HW136491   0.203   0.125  13.952 -1.3433 -0.8986  2.3145
 8343SOL    HW236492   0.129   0.018  13.997  0.2192 -0.8179 -0.0557
 8344SOL     OW36493   4.098   2.199   2.807 -0.0859 -0.2987 -0.2595
 8344SOL    HW136494   4.192   2.185   2.813 -0.1501  0.2363  1.9830
 8344SOL    HW236495   4.086   2.289   2.840  0.0177 -0.7176  0.9303
 8345SOL     OW36496   0.252   1.472  15.717  0.0603 -0.2071  0.2795
 8345SOL    HW136497   0.228   1.550  15.667  0.9166 -0.1999 -0.1207
 8345SOL    HW236498   0.168   1.428  15.732 -0.3166  0.6954  0.7804
 8346SOL     OW36499   3.508   2.236   9.474  0.4509  0.4250 -0.7298
 8346SOL    HW136500   3.468   2.150   9.484 -0.2289  0.8511  0.2119
 8346SOL    HW236501   3.508   2.273   9.563  1.3162 -1.4429  0.0515
 8347SOL     OW36502   3.308   0.717   8.214 -0.0231 -0.1381 -0.4773
 8347SOL    HW136503   3.354   0.800   8.208 -0.4469  0.2165  1.0019
 8347SOL    HW236504   3.221   0.749   8.238 -0.3120 -0.6073 -0.8982
 8348SOL     OW36505   4.534   2.063   9.841 -0.3336 -0.0940  0.2169
 8348SOL    HW136506   4.514   2.120   9.766  1.4960  1.0978  0.6177
 8348SOL    HW236507   4.599   2.005   9.801 -1.1074 -1.4735  0.9882
 8349SOL     OW36508   0.230   1.612   4.761 -0.9612 -0.2184 -0.1194
 8349SOL    HW136509   0.190   1.679   4.815  1.2167  1.2701 -0.3356
 8349SOL    HW236510   0.161   1.545   4.760  0.3227 -1.6133  3.6800
 8350SOL     OW36511   2.562   0.698  13.110 -0.1686 -0.0306  0.3896
 8350SOL    HW136512   2.552   0.651  13.027  0.0429 -1.3578  1.1169
 8350SOL    HW236513   2.615   0.775  13.089  0.6863 -0.0854  2.3924
 8351SOL     OW36514   1.253   2.223   0.997 -0.1463 -0.4286  0.0731
 8351SOL    HW136515   1.179   2.269   1.035  0.6565  0.5907  0.3864
 8351SOL    HW236516   1.262   2.151   1.059  1.5055 -0.9449 -0.7491
 8352SOL     OW36517   1.558   0.761   1.847 -0.1264 -0.3230 -0.4939
 8352SOL    HW136518   1.497   0.833   1.861  0.5689  0.0859  0.4179
 8352SOL    HW236519   1.543   0.709   1.926  1.2257  0.6620  0.4025
 8353SOL     OW36520   1.511   3.260   0.674 -0.3216  0.3765 -0.7264
 8353SOL    HW136521   1.521   3.177   0.720  1.6405  0.0786 -1.6873
 8353SOL    HW236522   1.488   3.315   0.749  0.4769  1.5480 -1.3319
 8354SOL     OW36523   2.540   1.420   7.180  0.2047  0.5104 -0.3958
 8354SOL    HW136524   2.614   1.379   7.134  1.1103  1.7224  0.0045
 8354SOL    HW236525   2.551   1.378   7.265  0.6728  0.0272 -0.6926
 8355SOL     OW36526   1.245   0.431   2.526  0.2908 -0.2059 -0.7748
 8355SOL    HW136527   1.220   0.493   2.594 -0.3415 -1.7424  0.4035
 8355SOL    HW236528   1.183   0.359   2.535 -0.2664  0.3783  0.0076
 8356SOL     OW36529   4.386   3.408   3.207  0.3400 -0.1834  0.2589
 8356SOL    HW136530   4.331   3.466   3.155 -0.1170 -2.3240 -1.6828
 8356SOL    HW236531   4.420   3.351   3.138  0.6305  1.6404 -1.1043
 8357SOL     OW36532   2.573   1.636  14.799  0.3347 -0.1499  0.1897
 8357SOL    HW136533   2.511   1.698  14.761  1.3727  0.2205 -0.9150
 8357SOL    HW236534   2.562   1.668  14.888  0.6508 -2.1077  0.9297
 8358SOL     OW36535   0.093   2.755  13.893 -0.4662  0.4376 -0.3341
 8358SOL    HW136536   0.136   2.687  13.842 -3.3931 -1.6884  0.0056
 8358SOL    HW236537   0.005   2.753  13.856 -0.7688  2.7603  0.2892
 8359SOL     OW36538   2.713   3.691   7.549 -0.4009 -0.1970  0.4602
 8359SOL    HW136539   2.709   3.657   7.638  2.6489 -0.5363  0.4569
 8359SOL    HW236540   2.653   3.635   7.500  1.0276 -1.2372 -0.0871
 8360SOL     OW36541   1.979   4.467   3.972 -0.1315  0.4381 -0.6904
 8360SOL    HW136542   2.057   4.471   4.027  0.6019  0.0502 -1.6993
 8360SOL    HW236543   1.935   4.548   3.999  0.6243  1.0112 -1.1814
 8361SOL     OW36544   1.794   2.869   4.268 -0.0921  0.5444  0.2807
 8361SOL    HW136545   1.828   2.862   4.357 -1.9171  0.3431  0.9483
 8361SOL    HW236546   1.730   2.799   4.265 -1.9513  2.3205 -1.6276
 8362SOL     OW36547   3.646   3.683   9.085 -0.0328  0.1969  0.0445
 8362SOL    HW136548   3.736   3.667   9.113  0.0782  0.3961 -0.1923
 8362SOL    HW236549   3.650   3.779   9.089  1.9561  0.1396 -0.2496
 8363SOL     OW36550   1.131   1.195   8.133  0.7852  0.8638  0.1728
 8363SOL    HW136551   1.180   1.232   8.207 -0.6365  0.6487  1.2070
 8363SOL    HW236552   1.148   1.262   8.066 -0.0325  1.3809  0.4853
 8364SOL     OW36553   3.274   0.592   4.044 -0.2506  0.1779  0.4342
 8364SOL    HW136554   3.311   0.647   3.975 -0.3729 -1.0407 -0.6114
 8364SOL    HW236555   3.181   0.612   4.041 -0.1134  0.7752  0.1678
 8365SOL     OW36556   3.184   0.313   7.906  0.2791 -0.4900 -0.0110
 8365SOL    HW136557   3.222   0.374   7.969 -1.6923  0.4419  0.2856
 8365SOL    HW236558   3.094   0.344   7.900  0.3942 -0.1575 -0.0104
 8366SOL     OW36559   2.998   0.573   0.052  0.1871 -0.5612 -0.7619
 8366SOL    HW136560   2.995   0.636   0.125  0.5336  1.5863 -2.5996
 8366SOL    HW236561   2.919   0.597   0.003 -0.1860 -0.5538 -0.1656
 8367SOL     OW36562   3.848   2.965   6.873  0.4101  0.5759 -0.7074
 8367SOL    HW136563   3.884   3.053   6.881 -1.5663  1.4280 -1.2145
 8367SOL    HW236564   3.915   2.929   6.931  0.1240  1.9797  0.5076
 8368SOL     OW36565   3.723   1.991  11.921 -0.4342 -0.0008 -0.3102
 8368SOL    HW136566   3.698   1.965  12.009 -0.8527  0.0139 -0.4260
 8368SOL    HW236567   3.819   1.983  11.924 -0.6060 -1.2110  1.9963
 8369SOL     OW36568   3.737   3.848  16.291  0.0169  0.3314 -0.1424
 8369SOL    HW136569   3.651   3.853  16.250 -0.0704  1.2917  0.1708
 8369SOL    HW236570   3.752   3.761  16.254  0.0573  0.0491  0.5473
 8370SOL     OW36571   0.659   3.188  13.563 -0.3534 -0.2647  0.0784
 8370SOL    HW136572   0.708   3.197  13.645 -1.4062  1.2166  0.5415
 8370SOL    HW236573   0.732   3.212  13.506 -1.2976 -1.1690 -1.4804
 8371SOL     OW36574   0.088   1.060   7.121 -0.4788 -0.3906 -0.3549
 8371SOL    HW136575   0.041   0.981   7.094 -1.3955 -0.6443  2.0295
 8371SOL    HW236576   0.124   1.087   7.036  0.6590  0.1727  0.3064
 8372SOL     OW36577   1.469   1.419   8.538 -0.7730 -0.0477 -0.3391
 8372SOL    HW136578   1.535   1.351   8.532 -3.1588 -2.2187 -1.9503
 8372SOL    HW236579   1.390   1.366   8.550 -1.1488  0.2559 -1.4536
 8373SOL     OW36580   2.121   0.340   7.504 -0.5337  0.2987  0.7412
 8373SOL    HW136581   2.078   0.267   7.459 -2.4798  1.7596  0.2565
 8373SOL    HW236582   2.172   0.370   7.429 -0.6292  1.0169  0.9693
 8374SOL     OW36583   2.090   2.696   3.684 -0.3884 -0.0713 -0.6599
 8374SOL    HW136584   2.098   2.722   3.776 -0.2686  0.9353 -0.9514
 8374SOL    HW236585   2.008   2.743   3.668 -1.1378 -1.9443 -2.3165
 8375SOL     OW36586   1.238   0.571  17.524 -0.0735  0.5552  0.3581
 8375SOL    HW136587   1.236   0.495  17.582 -2.0907  0.6710  0.4396
 8375SOL    HW236588   1.293   0.633  17.572  0.5786 -0.8021  1.3505
 8376SOL     OW36589   3.489   2.556  11.924  0.5681  0.4145 -0.2126
 8376SOL    HW136590   3.438   2.526  11.849 -1.5435 -2.2446  2.2903
 8376SOL    HW236591   3.424   2.555  11.994  0.7554 -1.3305 -0.0598
 8377SOL     OW36592   3.344   1.649   7.768  0.9801  0.3994  0.1189
 8377SOL    HW136593   3.425   1.693   7.796 -0.8267  2.5275  1.9450
 8377SOL    HW236594   3.373   1.604   7.688  0.3152 -0.2841  0.2630
 8378SOL     OW36595   1.650   2.800   6.909 -0.6918  0.2275  0.1060
 8378SOL    HW136596   1.739   2.783   6.938 -0.0895  1.7937 -0.8391
 8378SOL    HW236597   1.644   2.894   6.926 -0.0906  0.3653 -0.4803
 8379SOL     OW36598   3.641   0.090   3.681 -0.1433 -0.0832 -0.0447
 8379SOL    HW136599   3.710   0.126   3.737  0.3457  0.1988 -0.8254
 8379SOL    HW236600   3.657   0.114   3.590 -0.4805  2.1929  0.4951
 8380SOL     OW36601   0.978   2.958   7.824 -0.1144  0.1314  0.8956
 8380SOL    HW136602   1.039   2.943   7.751  0.0857  2.4257  0.6142
 8380SOL    HW236603   0.904   2.898   7.815  1.1825 -1.4141  0.5514
 8381SOL     OW36604   0.963   0.366   4.263  0.3956  0.2523  0.2521
 8381SOL    HW136605   0.880   0.401   4.231  0.5236  1.6978  1.5496
 8381SOL    HW236606   0.989   0.328   4.179 -0.4806 -2.8408  1.3867
 8382SOL     OW36607   4.095   3.251   7.841  0.2647 -0.5940  0.5703
 8382SOL    HW136608   4.152   3.242   7.765 -1.9606 -0.9565 -1.0325
 8382SOL    HW236609   4.158   3.291   7.901 -0.7582  2.4456 -0.3707
 8383SOL     OW36610   1.884   1.150   2.528  0.1121 -0.1470 -0.0236
 8383SOL    HW136611   1.885   1.093   2.450 -1.8735 -1.8267  1.1934
 8383SOL    HW236612   1.972   1.186   2.515  0.8400 -1.8802  0.0612
 8384SOL     OW36613   1.205   2.883  17.147  0.1978 -0.0161 -0.6207
 8384SOL    HW136614   1.160   2.968  17.144  1.0713  0.4565 -0.5443
 8384SOL    HW236615   1.214   2.856  17.056 -0.9621  0.9794 -1.0304
 8385SOL     OW36616   1.760   4.475   8.343  0.8011  0.3799  0.1850
 8385SOL    HW136617   1.850   4.454   8.368  1.1110 -1.3494 -2.3939
 8385SOL    HW236618   1.709   4.400   8.374  1.6634 -0.2660  0.0365
 8386SOL     OW36619   3.925   0.645   8.816  0.3216 -0.3050  0.0213
 8386SOL    HW136620   3.975   0.584   8.762  1.1969  0.3717  0.0691
 8386SOL    HW236621   3.860   0.684   8.757  3.0728  1.6665 -1.6906
 8387SOL     OW36622   2.191   2.077   3.661  0.3006 -0.4236  0.3619
 8387SOL    HW136623   2.137   2.146   3.698  2.7625  1.6427  0.0778
 8387SOL    HW236624   2.129   2.007   3.637  1.0178 -1.2070  0.8115
 8388SOL     OW36625   4.266   2.901  13.823  0.2251 -0.4944  0.0996
 8388SOL    HW136626   4.251   2.845  13.900 -0.0307  0.1521  0.5257
 8388SOL    HW236627   4.287   2.975  13.880 -1.2107 -0.7455  0.9824
 8389SOL     OW36628   0.680   4.164   5.304 -0.2431 -0.1508  0.3201
 8389SOL    HW136629   0.754   4.168   5.244 -1.7872  0.5957 -1.5013
 8389SOL    HW236630   0.691   4.072   5.331 -0.2882 -1.3227 -3.6464
 8390SOL     OW36631   0.570   3.589  14.725 -0.2881  0.2004 -0.2272
 8390SOL    HW136632   0.580   3.656  14.657 -0.4588 -0.6368 -1.0779
 8390SOL    HW236633   0.610   3.515  14.680  0.2126 -0.9673  2.1407
 8391SOL     OW36634   3.185   4.121   3.854  0.1147  0.3578 -0.0316
 8391SOL    HW136635   3.126   4.066   3.906 -0.2612  0.6542 -0.1427
 8391SOL    HW236636   3.269   4.076   3.862 -0.2273  0.1300  2.2169
 8392SOL     OW36637   1.072   1.498   1.924 -0.2130  0.8506 -0.2653
 8392SOL    HW136638   1.063   1.587   1.888 -0.4155  0.6611 -0.6786
 8392SOL    HW236639   1.154   1.476   1.880  0.4819 -0.8260  1.8986
 8393SOL     OW36640   1.359   2.396  13.701  0.2279  0.3727 -0.0211
 8393SOL    HW136641   1.393   2.456  13.767  1.3120  0.6757 -0.8490
 8393SOL    HW236642   1.405   2.427  13.622 -0.2156 -0.3648 -0.5747
 8394SOL     OW36643   2.865   4.309  16.682  0.3996  0.2899  0.3349
 8394SOL    HW136644   2.776   4.328  16.652  1.4215 -0.5294 -3.2082
 8394SOL    HW236645   2.908   4.385  16.642  0.0482 -0.8295 -2.2274
 8395SOL     OW36646   3.223   4.695   5.932 -0.2310  0.4918  0.2611
 8395SOL    HW136647   3.252   4.624   5.876  1.0332  0.7255  0.6212
 8395SOL    HW236648   3.260   0.048   5.885  3.8584 -0.2008  2.4486
 8396SOL     OW36649   1.648   3.594   1.588 -0.0287  0.1569 -0.0548
 8396SOL    HW136650   1.697   3.661   1.635 -0.6922 -0.0120  0.9033
 8396SOL    HW236651   1.722   3.535   1.582  0.5524  1.0058 -1.2201
 8397SOL     OW36652   1.553   4.258   9.133  0.0719  0.1503  0.6259
 8397SOL    HW136653   1.565   4.184   9.073 -1.3027  1.8893 -1.7883
 8397SOL    HW236654   1.592   4.222   9.213  1.8868  2.2541  0.6825
 8398SOL     OW36655   2.149   4.608   4.943  0.5126 -0.1785  0.3060
 8398SOL    HW136656   2.177   4.641   5.029 -0.3966 -1.3495  1.0618
 8398SOL    HW236657   2.138   4.692   4.899  2.6780 -0.0361  0.0332
 8399SOL     OW36658   2.004   3.925   7.449 -0.1583  0.1642 -0.3439
 8399SOL    HW136659   1.918   3.904   7.414  0.4237  0.5989 -2.0792
 8399SOL    HW236660   2.043   3.848   7.406 -2.7667 -2.2686  1.6829
 8400SOL     OW36661   4.267   2.168   9.109 -0.1727 -0.0192  0.6840
 8400SOL    HW136662   4.202   2.128   9.051  0.5019 -1.9428  1.2479
 8400SOL    HW236663   4.215   2.156   9.189 -0.0780 -3.6532  0.1920
 8401SOL     OW36664   2.878   1.535  13.091 -0.2524  0.4159 -0.0806
 8401SOL    HW136665   2.832   1.613  13.060  0.8119  0.6783 -0.9953
 8401SOL    HW236666   2.879   1.551  13.185 -0.1624  0.0008 -0.0109
 8402SOL     OW36667   2.054   2.599  13.624  0.2063  0.0363  0.2114
 8402SOL    HW136668   2.035   2.608  13.717  0.6030 -0.0264  0.3000
 8402SOL    HW236669   2.068   2.688  13.593  0.3693  0.4831  1.5912
 8403SOL     OW36670   3.152   2.895   8.891  0.3421 -0.4091  0.3251
 8403SOL    HW136671   3.240   2.858   8.884  1.0927  1.4198  0.0955
 8403SOL    HW236672   3.169   2.986   8.865  1.4712 -1.2548 -1.9468
 8404SOL     OW36673   2.065   2.828  13.164  0.0949 -0.4752  0.2162
 8404SOL    HW136674   2.080   2.792  13.077  2.5768  0.4655  0.2350
 8404SOL    HW236675   1.994   2.889  13.144 -0.1597 -1.4172 -1.6794
 8405SOL     OW36676   0.203   0.448   4.357 -0.3395  0.3095  0.4249
 8405SOL    HW136677   0.212   0.536   4.396  0.4075 -0.3660  1.7687
 8405SOL    HW236678   0.268   0.406   4.412  1.7026  0.2402 -2.0283
 8406SOL     OW36679   0.136   4.660   9.897 -0.5228  0.4029 -0.4433
 8406SOL    HW136680   0.222   4.618   9.890  0.0374  1.5883 -0.5985
 8406SOL    HW236681   0.152   0.009   9.958 -0.0259 -0.8793  0.9303
 8407SOL     OW36682   2.045   2.137  16.534  0.3932  0.2517 -0.6909
 8407SOL    HW136683   2.017   2.113  16.445  0.6269  0.0473 -0.7089
 8407SOL    HW236684   1.968   2.192  16.551  2.4437  2.4060  1.4998
 8408SOL     OW36685   4.509   1.129   8.143 -0.0455 -0.1462  0.2728
 8408SOL    HW136686   4.560   1.185   8.085  0.1709 -0.2075  0.4045
 8408SOL    HW236687   4.517   1.044   8.099  1.8468 -0.8199  1.8527
 8409SOL     OW36688   0.460   0.823   7.249  0.0893 -0.3251  0.1349
 8409SOL    HW136689   0.486   0.746   7.198  2.8811  1.4496 -1.0871
 8409SOL    HW236690   0.388   0.861   7.198 -0.4004 -2.0898 -0.4840
 8410SOL     OW36691   2.827   1.450   3.873 -0.2865 -0.2750  0.0815
 8410SOL    HW136692   2.887   1.501   3.928 -1.2450  2.4772 -1.4201
 8410SOL    HW236693   2.784   1.408   3.947  0.7261  2.0914  2.0151
 8411SOL     OW36694   0.914   3.349  16.016 -0.0599  0.0363  0.0630
 8411SOL    HW136695   0.841   3.339  16.077 -0.0462 -0.4103  0.0082
 8411SOL    HW236696   0.976   3.404  16.065  0.9790  0.5021 -1.7803
 8412SOL     OW36697   0.811   0.645  14.540  0.2946  0.2479  0.4807
 8412SOL    HW136698   0.790   0.707  14.610 -0.1012  1.5664 -0.8073
 8412SOL    HW236699   0.871   0.687  14.479 -0.8547 -1.5979 -1.9293
 8413SOL     OW36700   1.291   2.549   2.819  0.3875 -0.5469  0.3100
 8413SOL    HW136701   1.281   2.567   2.912  0.8877 -2.5137  0.7412
 8413SOL    HW236702   1.354   2.477   2.813  1.0326 -0.0008  0.5662
 8414SOL     OW36703   0.693   3.797   8.748 -0.5415 -0.2943 -0.3283
 8414SOL    HW136704   0.784   3.802   8.720 -0.5485  0.9056 -0.1344
 8414SOL    HW236705   0.713   3.785   8.841  0.5353  0.4463 -0.4749
 8415SOL     OW36706   3.979   2.187   9.455 -0.3284 -0.0870 -0.5930
 8415SOL    HW136707   3.901   2.134   9.473 -0.5677 -0.4787 -2.7936
 8415SOL    HW236708   4.021   2.210   9.539  0.2584  0.5828 -1.0674
 8416SOL     OW36709   4.517   2.506  14.658  0.5820  0.0693  1.2003
 8416SOL    HW136710   4.584   2.485  14.593 -0.7775  0.9213 -0.4826
 8416SOL    HW236711   4.436   2.476  14.616  1.3093 -0.9161  0.5025
 8417SOL     OW36712   4.119   3.795   9.234 -0.3349  0.1122 -0.2185
 8417SOL    HW136713   4.103   3.888   9.253  1.0744  0.6754 -1.7906
 8417SOL    HW236714   4.196   3.782   9.289  1.4189 -0.4044 -2.8359
 8418SOL     OW36715   3.259   4.090   6.229 -0.9116 -0.0349  0.5792
 8418SOL    HW136716   3.295   4.179   6.230 -0.4159 -0.2479  2.6538
 8418SOL    HW236717   3.165   4.103   6.220 -0.5282  0.9772 -1.9137
 8419SOL     OW36718   0.216   3.558   6.956 -0.5970 -0.0423 -0.4764
 8419SOL    HW136719   0.205   3.510   7.038 -0.5676  1.4084  0.3802
 8419SOL    HW236720   0.155   3.630   6.972 -1.9468 -1.3394  0.2742
 8420SOL     OW36721   2.033   4.430   1.131 -0.3334 -0.3333 -0.4836
 8420SOL    HW136722   2.038   4.342   1.169 -0.6759  0.2957  1.0019
 8420SOL    HW236723   1.951   4.470   1.158  0.3327  0.1593  0.8263
 8421SOL     OW36724   3.787   0.512   2.180 -0.0851  0.5996 -0.3658
 8421SOL    HW136725   3.726   0.445   2.209  1.0186 -0.1924  0.1437
 8421SOL    HW236726   3.760   0.534   2.091 -0.9474  1.4920  0.1220
 8422SOL     OW36727   2.806   0.645   6.492  0.6719  0.5078  0.2056
 8422SOL    HW136728   2.726   0.623   6.445  0.5665  2.6109 -0.6082
 8422SOL    HW236729   2.873   0.632   6.425 -0.5100 -1.2094 -0.6202
 8423SOL     OW36730   0.825   2.814   7.029  0.3301  0.2196  0.3174
 8423SOL    HW136731   0.859   2.726   7.046  0.8927  0.3971  0.1062
 8423SOL    HW236732   0.737   2.800   7.065 -0.1288  1.8021 -0.1957
 8424SOL     OW36733   4.409   1.349  14.412 -0.1192  0.0473  0.0508
 8424SOL    HW136734   4.487   1.374  14.462  0.2591 -1.8094  0.3867
 8424SOL    HW236735   4.341   1.368  14.477  0.2658  0.2972  0.3792
 8425SOL     OW36736   0.780   4.324  15.563  0.3388  0.3600 -0.1236
 8425SOL    HW136737   0.871   4.308  15.540  0.6936 -0.2573  1.6879
 8425SOL    HW236738   0.742   4.242  15.595 -1.4650  1.8670  1.6428
 8426SOL     OW36739   3.724   1.560   3.358  0.2206  0.8363  0.8179
 8426SOL    HW136740   3.662   1.513   3.303  2.2467  0.6011 -1.2495
 8426SOL    HW236741   3.674   1.565   3.440  0.1182  3.4184  0.5841
 8427SOL     OW36742   4.415   4.195   3.187  0.2259 -0.6889 -0.0581
 8427SOL    HW136743   4.509   4.182   3.178  0.5123  0.6084  1.1082
 8427SOL    HW236744   4.410   4.219   3.280  1.5482 -1.0653  0.1177
 8428SOL     OW36745   3.911   1.979   3.380  0.0415  0.1031  0.7232
 8428SOL    HW136746   3.861   1.969   3.461  0.4295  0.2124  0.9737
 8428SOL    HW236747   3.868   1.918   3.320  0.4150 -0.5466  1.1276
 8429SOL     OW36748   0.794   4.150   4.766  0.1517  0.2853  0.5527
 8429SOL    HW136749   0.745   4.223   4.806 -0.0935 -0.6702  1.9856
 8429SOL    HW236750   0.770   4.153   4.673 -0.6057 -1.2939  0.7048
 8430SOL     OW36751   3.518   1.939   1.683 -0.0367  0.1220 -0.8343
 8430SOL    HW136752   3.541   1.876   1.614 -1.9429 -0.2068 -1.1552
 8430SOL    HW236753   3.478   2.009   1.631  1.1745  0.3685 -1.4514
 8431SOL     OW36754   1.885   0.015   5.313  0.6202 -0.0892  0.5095
 8431SOL    HW136755   1.955   0.080   5.326 -0.0631  0.8137 -0.3609
 8431SOL    HW236756   1.910   0.002   5.221 -0.4512  0.5927  0.1221
 8432SOL     OW36757   3.943   2.724   4.499 -1.1286  0.1170  0.2558
 8432SOL    HW136758   4.009   2.709   4.431 -2.4028  0.6965 -1.0964
 8432SOL    HW236759   3.926   2.817   4.486  0.0596  0.3198  0.0821
 8433SOL     OW36760   2.533   0.653   4.555 -0.1911  0.3953  0.3161
 8433SOL    HW136761   2.613   0.604   4.572  0.6921  0.9234 -2.2850
 8433SOL    HW236762   2.527   0.714   4.629 -3.3331  2.6389 -1.7855
 8434SOL     OW36763   3.891   1.341  15.049 -0.5112  0.0109 -0.1960
 8434SOL    HW136764   3.866   1.290  15.126 -0.3160  1.2691  0.7086
 8434SOL    HW236765   3.984   1.322  15.043 -0.7229 -1.0847  0.1127
 8435SOL     OW36766   3.313   3.715   2.178 -0.7105  0.1630  0.0242
 8435SOL    HW136767   3.395   3.694   2.134 -1.0504  0.8764 -0.9443
 8435SOL    HW236768   3.277   3.631   2.208 -2.1278  1.3151  1.5715
 8436SOL     OW36769   2.682   4.345   4.623 -0.2679  0.1109  0.3410
 8436SOL    HW136770   2.746   4.275   4.635  0.2678  0.2174 -2.0132
 8436SOL    HW236771   2.620   4.302   4.683 -0.7839  0.7719  0.2867
 8437SOL     OW36772   1.545   4.306   4.488 -0.2262 -0.0312 -0.4457
 8437SOL    HW136773   1.539   4.352   4.572 -1.6555 -0.5712 -0.2516
 8437SOL    HW236774   1.469   4.341   4.440 -1.4269 -2.2069 -0.1048
 8438SOL     OW36775   1.304   0.307  16.800  0.0757 -0.8051  0.3736
 8438SOL    HW136776   1.264   0.230  16.759 -1.2107 -0.1092  0.3137
 8438SOL    HW236777   1.398   0.291  16.786  0.0762 -1.5919  1.2401
 8439SOL     OW36778   2.254   0.604  16.653  0.0450 -0.2500  0.2534
 8439SOL    HW136779   2.277   0.691  16.620 -0.3055 -1.1262 -2.2703
 8439SOL    HW236780   2.324   0.548  16.620 -0.9193 -1.2769 -0.0452
 8440SOL     OW36781   0.533   1.603   8.909  0.3273  0.3583 -0.2523
 8440SOL    HW136782   0.477   1.596   8.831  0.2410 -1.2817 -0.0491
 8440SOL    HW236783   0.622   1.611   8.876 -0.0765  1.0041 -1.1838
 8441SOL     OW36784   2.133   1.196  14.746  0.0036 -0.2324 -0.5846
 8441SOL    HW136785   2.152   1.138  14.673 -0.8802  0.5969 -1.4602
 8441SOL    HW236786   2.063   1.254  14.719 -0.9949 -0.6168  1.1516
 8442SOL     OW36787   1.543   1.508  13.584  0.0103  0.0205 -0.4413
 8442SOL    HW136788   1.457   1.520  13.623  1.1075  0.2294  1.9024
 8442SOL    HW236789   1.585   1.585  13.622 -1.6839  0.9427 -0.4337
 8443SOL     OW36790   3.372   1.267   4.582 -0.1880  0.2042  0.2139
 8443SOL    HW136791   3.447   1.266   4.640  0.1701  0.9964 -0.2482
 8443SOL    HW236792   3.413   1.285   4.498  0.7748  0.3857  0.7228
 8444SOL     OW36793   0.306   0.222   6.663 -0.0757 -0.3170 -0.2231
 8444SOL    HW136794   0.286   0.170   6.741 -0.5940  1.5955  0.9364
 8444SOL    HW236795   0.309   0.157   6.593  1.1799 -1.6615  1.0824
 8445SOL     OW36796   0.513   0.708   5.065 -0.1054 -0.9595  0.1785
 8445SOL    HW136797   0.586   0.656   5.101  0.2914  0.1495  0.9930
 8445SOL    HW236798   0.548   0.774   5.005  0.1288  1.8697  3.4187
 8446SOL     OW36799   3.969   3.124  10.444 -0.2963  0.0194 -0.0751
 8446SOL    HW136800   4.031   3.096  10.376 -0.9980 -1.1773 -0.2147
 8446SOL    HW236801   3.892   3.138  10.388  0.1504  0.6285 -0.5438
 8447SOL     OW36802   4.341   1.113  11.689 -0.0952  0.5945 -0.7912
 8447SOL    HW136803   4.302   1.106  11.602 -1.2450  2.3344 -0.4194
 8447SOL    HW236804   4.265   1.102  11.747  1.1415 -0.0473  0.6952
 8448SOL     OW36805   0.645   0.722   8.643 -0.6855 -0.0671 -0.2054
 8448SOL    HW136806   0.705   0.734   8.569 -0.7300 -0.3185 -0.2826
 8448SOL    HW236807   0.699   0.754   8.715 -0.2665  0.2522 -0.6659
 8449SOL     OW36808   2.840   3.331   2.630 -0.4096 -0.1942 -0.0659
 8449SOL    HW136809   2.809   3.263   2.570  0.7802  0.0788 -1.0039
 8449SOL    HW236810   2.911   3.364   2.575  0.9205  1.2112  2.4901
 8450SOL     OW36811   2.834   3.659   6.132  0.1791 -0.0517  0.4814
 8450SOL    HW136812   2.881   3.707   6.201 -1.0521 -0.2698  1.4703
 8450SOL    HW236813   2.876   3.573   6.139  1.3048  0.2957 -2.1471
 8451SOL     OW36814   3.144   1.090   5.217 -0.7352 -0.4654 -1.2111
 8451SOL    HW136815   3.202   1.162   5.192 -1.2878 -0.6938 -3.2066
 8451SOL    HW236816   3.196   1.010   5.204  0.3257 -0.0096  0.1519
 8452SOL     OW36817   1.827   3.432  11.581  0.3157  0.2898 -1.1285
 8452SOL    HW136818   1.906   3.381  11.599 -1.5964 -1.7856  1.3706
 8452SOL    HW236819   1.876   3.514  11.586 -2.5545  1.9249  0.5326
 8453SOL     OW36820   3.428   2.969   9.855  0.3545 -0.4306 -0.2270
 8453SOL    HW136821   3.432   2.905   9.926 -0.9278  0.6311  0.8007
 8453SOL    HW236822   3.506   3.019   9.882  0.0673  0.1861 -0.5420
 8454SOL     OW36823   3.432   1.395   3.442  0.2066 -0.7747  0.7841
 8454SOL    HW136824   3.460   1.398   3.350 -2.6899  1.8439 -0.0052
 8454SOL    HW236825   3.346   1.437   3.437 -0.2971 -1.7245  1.4637
 8455SOL     OW36826   3.529   3.703   3.194  0.0431  0.4250 -0.2035
 8455SOL    HW136827   3.500   3.767   3.259 -1.2371  0.0433 -0.4042
 8455SOL    HW236828   3.549   3.628   3.250 -1.8679  1.0769  1.3416
 8456SOL     OW36829   0.322   1.629   0.312  0.6529  0.2565  0.2288
 8456SOL    HW136830   0.416   1.645   0.304  0.6033  0.5605  0.2674
 8456SOL    HW236831   0.302   1.687   0.239 -0.4183 -0.6491 -0.1998
 8457SOL     OW36832   2.944   2.383   8.236 -0.2044  0.0215  0.0247
 8457SOL    HW136833   2.916   2.344   8.319 -0.9916  0.6176  0.0443
 8457SOL    HW236834   2.860   2.420   8.210  0.6792  1.3892 -0.8595
 8458SOL     OW36835   4.696   2.169  12.451  0.0360  0.2025  0.3572
 8458SOL    HW136836   4.680   2.263  12.462 -1.6190 -0.1565  0.8731
 8458SOL    HW236837   4.696   2.138  12.360  0.3124  3.1663 -0.6651
 8459SOL     OW36838   3.884   2.841   7.966  0.2701 -0.0438 -0.0840
 8459SOL    HW136839   3.885   2.936   7.982  0.6023 -0.6612  3.5986
 8459SOL    HW236840   3.934   2.810   8.041  0.3841 -0.6529 -0.4149
 8460SOL     OW36841   1.042   0.867   5.452  0.0796  0.5319 -0.0488
 8460SOL    HW136842   0.955   0.901   5.473  0.3556  0.3579  1.3427
 8460SOL    HW236843   1.095   0.943   5.476  0.7293  0.2232 -0.5043
 8461SOL     OW36844   1.710   0.462  10.615 -0.4819  0.0845 -0.1067
 8461SOL    HW136845   1.707   0.404  10.539  0.7276  0.8869 -0.7798
 8461SOL    HW236846   1.801   0.446  10.640 -0.2479  2.3588  0.5574
 8462SOL     OW36847   1.554   4.156  17.619  0.3618 -0.0827  0.2476
 8462SOL    HW136848   1.614   4.198  17.557  1.4054  1.6249  2.4384
 8462SOL    HW236849   1.527   4.074  17.576  1.3598  1.2670 -2.9558
 8463SOL     OW36850   4.070   2.504   1.444 -0.6509  0.0403 -0.7244
 8463SOL    HW136851   4.105   2.465   1.364  1.5986 -0.1174  0.3357
 8463SOL    HW236852   4.056   2.591   1.406 -0.5639 -0.2959 -1.5258
 8464SOL     OW36853   1.324   0.637   4.054 -0.2123 -0.5952 -0.7094
 8464SOL    HW136854   1.244   0.602   4.015 -1.9036  0.6457  1.6846
 8464SOL    HW236855   1.323   0.593   4.139  1.6679  2.5828  0.9583
 8465SOL     OW36856   3.104   3.906  14.552 -0.2120 -0.1087  0.1631
 8465SOL    HW136857   3.188   3.867  14.574  0.6302  0.1133 -2.7002
 8465SOL    HW236858   3.065   3.824  14.519 -0.7524  0.1119  0.2551
 8466SOL     OW36859   3.814   3.188   1.200 -0.9992  0.0121 -0.3353
 8466SOL    HW136860   3.848   3.268   1.241 -1.0757  0.4279 -1.0718
 8466SOL    HW236861   3.867   3.182   1.120 -2.3806 -1.4713 -1.1107
 8467SOL     OW36862   3.829   1.556   4.278  0.1527  0.2073  0.2986
 8467SOL    HW136863   3.778   1.475   4.286 -0.1018  0.1812 -1.7040
 8467SOL    HW236864   3.908   1.529   4.232 -1.2041 -0.1248 -1.8146
 8468SOL     OW36865   3.411   4.036   0.910  0.2172  0.2877 -0.0020
 8468SOL    HW136866   3.477   3.969   0.893  0.8841  1.2131 -1.0165
 8468SOL    HW236867   3.470   4.112   0.915  0.3508  0.3820 -3.2357
 8469SOL     OW36868   3.654   3.744   3.929 -0.0266  0.4620  0.8037
 8469SOL    HW136869   3.728   3.787   3.885 -1.0530  0.2085 -1.1196
 8469SOL    HW236870   3.661   3.788   4.014  0.4862  2.8377 -0.4725
 8470SOL     OW36871   1.036   1.923   0.949  0.4176  0.5351 -0.1661
 8470SOL    HW136872   1.035   1.962   0.862  0.8030 -0.4045 -0.5953
 8470SOL    HW236873   0.962   1.975   0.980 -0.3022 -0.8278  0.4177
 8471SOL     OW36874   2.443   4.047   6.411  0.2042  0.0724 -0.1592
 8471SOL    HW136875   2.380   4.008   6.350  0.3026 -1.2505  0.5723
 8471SOL    HW236876   2.515   3.985   6.406  2.1055  2.0218  3.1283
 8472SOL     OW36877   3.084   3.052  14.067  0.6266 -0.1312  0.0808
 8472SOL    HW136878   3.110   2.965  14.096  1.7097  0.7282  1.6758
 8472SOL    HW236879   3.005   3.081  14.113  1.0646  1.6385 -0.2849
 8473SOL     OW36880   3.246   0.076   7.757  0.3775 -1.0918 -0.0537
 8473SOL    HW136881   3.236   0.158   7.805  2.8891 -1.4429  1.0755
 8473SOL    HW236882   3.310   0.106   7.692 -0.5376  1.1458  0.0704
 8474SOL     OW36883   4.048   1.591   4.645 -0.0742  0.3339  0.1687
 8474SOL    HW136884   4.042   1.658   4.713  0.9920  0.9662 -0.3665
 8474SOL    HW236885   4.091   1.519   4.692 -1.2363  0.6746  1.7656
 8475SOL     OW36886   1.465   3.940   3.956 -0.1065  0.3121  0.7616
 8475SOL    HW136887   1.464   4.019   4.009 -0.7016  0.1797  0.9474
 8475SOL    HW236888   1.559   3.926   3.951 -0.3374 -0.6879 -0.7636
 8476SOL     OW36889   2.971   2.775   7.548  0.1430  0.1838 -0.0706
 8476SOL    HW136890   2.965   2.685   7.517  2.0734 -0.6878  2.0775
 8476SOL    HW236891   2.910   2.777   7.621  1.6947  0.2218  1.2369
 8477SOL     OW36892   0.546   2.982   5.366 -0.3226  0.2059  0.0879
 8477SOL    HW136893   0.560   2.999   5.272 -1.0201 -0.7212 -0.1891
 8477SOL    HW236894   0.625   3.019   5.405  1.4414 -1.1544 -2.1567
 8478SOL     OW36895   1.630   1.260   2.528 -0.0820 -0.2282 -0.1380
 8478SOL    HW136896   1.721   1.232   2.513 -0.1946 -1.1811  0.9006
 8478SOL    HW236897   1.649   1.353   2.538  0.4297 -0.2823 -0.5589
 8479SOL     OW36898   0.175   2.904   6.672 -0.0002  0.0713 -0.2684
 8479SOL    HW136899   0.160   2.811   6.658  2.7293 -0.1546 -1.7515
 8479SOL    HW236900   0.086   2.929   6.696 -1.0832 -0.3099 -4.0149
 8480SOL     OW36901   2.983   0.284   7.376  0.1547 -0.3458 -0.3358
 8480SOL    HW136902   2.958   0.221   7.444  1.9615 -0.2836  0.3899
 8480SOL    HW236903   2.900   0.308   7.334 -0.2546  1.2454  1.3417
 8481SOL     OW36904   4.198   2.500   9.053  0.1607  0.0414  0.2295
 8481SOL    HW136905   4.155   2.437   9.112 -1.2944 -0.2533 -1.1300
 8481SOL    HW236906   4.127   2.544   9.006 -2.1993 -2.1221  1.7275
 8482SOL     OW36907   4.153   2.579   7.940  0.0264  0.6028  0.1433
 8482SOL    HW136908   4.230   2.527   7.962 -1.1897 -1.3148 -0.1091
 8482SOL    HW236909   4.151   2.640   8.014 -0.2096 -0.6090  1.1326
 8483SOL     OW36910   4.685   4.145   4.455  0.2734 -0.5358  0.3917
 8483SOL    HW136911   0.007   4.229   4.468 -2.7951  1.1049  0.0693
 8483SOL    HW236912   0.039   4.090   4.473 -0.1182 -1.8386 -1.9948
 8484SOL     OW36913   0.727   0.273   2.570  0.2389 -0.7921  0.0249
 8484SOL    HW136914   0.632   0.270   2.562  0.2082 -1.6407  0.7653
 8484SOL    HW236915   0.733   0.366   2.546 -0.2882 -0.5188  0.9825
 8485SOL     OW36916   3.253   1.886   3.259  0.1664 -0.1543  0.7948
 8485SOL    HW136917   3.327   1.843   3.302 -0.0374  1.5787  2.8923
 8485SOL    HW236918   3.252   1.842   3.174  0.5909 -0.3040  0.8670
 8486SOL     OW36919   4.160   2.166   1.649  0.1967 -0.1902 -0.4277
 8486SOL    HW136920   4.164   2.120   1.565 -1.3030 -0.0494 -0.5767
 8486SOL    HW236921   4.251   2.193   1.659 -0.0398 -0.2652  1.7631
 8487SOL     OW36922   3.644   1.705   8.618  0.1477 -0.0266 -0.1253
 8487SOL    HW136923   3.631   1.772   8.551  0.9725 -0.3582 -0.6107
 8487SOL    HW236924   3.626   1.750   8.701  0.7043 -0.7614  0.3963
 8488SOL     OW36925   4.052   4.245   8.274 -0.4393  0.0239 -0.1413
 8488SOL    HW136926   3.989   4.222   8.206  0.3902  0.9538 -1.2154
 8488SOL    HW236927   4.135   4.246   8.227  0.1662  0.0056  0.9258
 8489SOL     OW36928   3.059   2.837   9.247 -0.0024 -0.1653 -0.0867
 8489SOL    HW136929   3.054   2.932   9.253  0.0737 -0.2710  1.8750
 8489SOL    HW236930   3.150   2.814   9.267  0.4437  1.6072 -0.0684
 8490SOL     OW36931   3.968   3.196  17.104 -0.0794  0.3242 -0.0029
 8490SOL    HW136932   3.909   3.268  17.128  1.0935  1.4132 -0.4077
 8490SOL    HW236933   4.053   3.239  17.096 -0.9549  1.6336 -2.3370
 8491SOL     OW36934   4.353   1.329   9.266 -0.1973  0.4854  0.0713
 8491SOL    HW136935   4.404   1.308   9.188  1.1408 -0.3579  1.1693
 8491SOL    HW236936   4.269   1.309   9.225  0.6920 -2.1796 -0.4135
 8492SOL     OW36937   2.747   3.535   2.769  0.7476  0.2991 -0.0769
 8492SOL    HW136938   2.787   3.455   2.736 -0.7043 -1.0909  1.5425
 8492SOL    HW236939   2.659   3.522   2.734  0.7798 -0.9545  0.3246
 8493SOL     OW36940   0.274   2.474  13.266 -0.3360 -0.4563 -0.0130
 8493SOL    HW136941   0.181   2.475  13.244 -0.1650  0.0073 -0.7218
 8493SOL    HW236942   0.277   2.482  13.361  1.3443  0.3196 -0.1304
 8494SOL     OW36943   4.570   1.771   3.756  0.5658 -0.0425  0.5921
 8494SOL    HW136944   4.545   1.862   3.774 -0.4442 -0.1706 -0.2133
 8494SOL    HW236945   4.648   1.764   3.811  0.8147 -0.4301  0.1874
 8495SOL     OW36946   1.429   1.053   5.938  0.0793  0.0261 -0.0430
 8495SOL    HW136947   1.468   1.139   5.953 -0.8883  0.3968  0.3633
 8495SOL    HW236948   1.454   1.019   5.852 -1.6086  0.3787 -0.6832
 8496SOL     OW36949   3.172   2.032  14.078 -0.5813 -0.0539  0.2656
 8496SOL    HW136950   3.173   2.118  14.121  0.0882 -0.8949  1.9588
 8496SOL    HW236951   3.098   1.991  14.122  0.0352 -0.4818  0.9234
 8497SOL     OW36952   3.542   2.356   1.374  0.3225 -0.6534 -0.0250
 8497SOL    HW136953   3.631   2.390   1.377  0.1704 -0.1128 -1.6256
 8497SOL    HW236954   3.484   2.425   1.407  2.1740  2.4255 -3.2656
 8498SOL     OW36955   4.551   4.080  11.482 -0.0362 -0.2014 -0.4274
 8498SOL    HW136956   4.555   4.020  11.407  1.5515  1.3818 -1.6077
 8498SOL    HW236957   4.606   4.025  11.539 -1.2338 -0.9080  0.0439
 8499SOL     OW36958   0.779   2.132  15.864 -0.0899  0.3530  0.0224
 8499SOL    HW136959   0.685   2.143  15.849 -0.5961 -1.5238  1.8097
 8499SOL    HW236960   0.770   2.062  15.929 -1.3696  0.0619 -0.4517
 8500SOL     OW36961   3.266   3.322   6.654  0.1222 -0.4387 -0.7374
 8500SOL    HW136962   3.251   3.230   6.676  0.5378 -0.4754 -0.6031
 8500SOL    HW236963   3.227   3.331   6.567  1.0042  1.0286 -0.9770
 8501SOL     OW36964   1.604   0.362   6.019  0.0798 -0.2263 -0.4565
 8501SOL    HW136965   1.536   0.365   5.952  0.4849 -0.3817 -0.8730
 8501SOL    HW236966   1.569   0.426   6.080  0.4845 -2.4817  2.1392
 8502SOL     OW36967   3.095   2.661   7.111  0.8393 -0.4246 -0.7482
 8502SOL    HW136968   3.107   2.723   7.183  1.9425  0.2443 -1.5077
 8502SOL    HW236969   3.002   2.640   7.125  0.5646  0.8793 -0.6166
 8503SOL     OW36970   1.130   3.553   4.565 -0.4982  0.2067 -0.1806
 8503SOL    HW136971   1.065   3.545   4.634 -0.6430 -0.2015 -0.3691
 8503SOL    HW236972   1.169   3.468   4.545  0.3343  0.5501 -0.0439
 8504SOL     OW36973   3.391   1.920  15.378  0.3688 -0.2987  0.5523
 8504SOL    HW136974   3.320   1.870  15.337 -0.6218  0.8910  0.7926
 8504SOL    HW236975   3.458   1.896  15.314  1.2579 -1.7188  2.0103
 8505SOL     OW36976   3.646   3.758   7.035  0.0266 -0.0831 -0.0373
 8505SOL    HW136977   3.716   3.809   6.995 -1.7908  0.6457 -2.2973
 8505SOL    HW236978   3.695   3.716   7.106 -0.9289 -1.2478 -0.0536
 8506SOL     OW36979   2.616   3.352  16.705 -0.0436  0.2514  0.6723
 8506SOL    HW136980   2.697   3.391  16.674 -1.4684  1.9929 -0.8967
 8506SOL    HW236981   2.566   3.339  16.624  0.5331 -0.9258  0.5033
 8507SOL     OW36982   3.651   2.867   3.298  0.4408  0.1605  0.1532
 8507SOL    HW136983   3.564   2.895   3.327  0.4357  0.4280 -0.1245
 8507SOL    HW236984   3.679   2.922   3.226  1.1296  2.0640  1.8748
 8508SOL     OW36985   2.592   3.727   1.579  0.3122 -0.2298 -0.3861
 8508SOL    HW136986   2.583   3.647   1.527 -0.2615 -1.7828  2.0965
 8508SOL    HW236987   2.634   3.689   1.656  1.3010 -1.4133 -1.5296
 8509SOL     OW36988   4.106   3.014   4.782 -0.2616 -0.1015 -0.4523
 8509SOL    HW136989   4.103   3.041   4.873  1.0752 -1.1085 -0.1289
 8509SOL    HW236990   4.024   3.050   4.747  0.5541  0.2009 -2.0659
 8510SOL     OW36991   3.261   2.770   3.925 -0.2759  0.6664  0.2101
 8510SOL    HW136992   3.176   2.807   3.900 -0.3982  0.5104  0.3943
 8510SOL    HW236993   3.302   2.826   3.992 -0.6124  1.8601 -0.5848
 8511SOL     OW36994   0.821   4.505   3.755 -0.4113  0.1949  0.1608
 8511SOL    HW136995   0.793   4.460   3.675  0.3901  0.5346 -0.3187
 8511SOL    HW236996   0.800   4.596   3.730 -0.6660 -0.2659 -1.3334
 8512SOL     OW36997   2.612   1.655   5.168 -0.3075 -0.0750  0.1558
 8512SOL    HW136998   2.627   1.749   5.165  2.2901 -0.5515 -1.4222
 8512SOL    HW236999   2.571   1.647   5.255 -0.7105  1.7005  0.1212
 8513SOL     OW37000   0.599   4.691  14.184 -0.0140  0.1134 -0.2493
 8513SOL    HW137001   0.603   4.690  14.279  0.2694  0.7484 -0.2572
 8513SOL    HW237002   0.618   0.061  14.165  0.7170  0.2315  1.0870
 8514SOL     OW37003   0.610   3.733   3.705  0.5165 -0.4231 -0.6275
 8514SOL    HW137004   0.568   3.818   3.696  1.0153  0.2818  3.5789
 8514SOL    HW237005   0.604   3.711   3.612 -3.6868 -0.9456 -0.2525
 8515SOL     OW37006   2.114   0.884   6.037 -0.5437 -0.6126  0.0648
 8515SOL    HW137007   2.085   0.799   6.005  1.0759 -0.7249 -1.0717
 8515SOL    HW237008   2.119   0.935   5.957 -2.1699  2.1066  1.6969
 8516SOL     OW37009   1.374   0.127   1.158  0.3140 -0.0701  0.2276
 8516SOL    HW137010   1.423   0.205   1.186 -0.9572  1.0398 -0.6327
 8516SOL    HW237011   1.308   0.114   1.225  0.5467  1.7767  0.7964
 8517SOL     OW37012   3.152   3.981   3.278 -0.2743  0.5210  0.0316
 8517SOL    HW137013   3.059   3.961   3.286  0.3652 -1.7991  1.4339
 8517SOL    HW237014   3.172   3.900   3.232 -0.1816  0.3137  0.4424
 8518SOL     OW37015   3.426   3.573   7.863 -0.5524 -0.2858  0.4468
 8518SOL    HW137016   3.412   3.482   7.887 -1.1286 -0.3411 -0.1076
 8518SOL    HW237017   3.521   3.570   7.849 -0.4568  0.9569  0.8483
 8519SOL     OW37018   0.349   0.173   9.743 -0.2081  0.1394 -0.3221
 8519SOL    HW137019   0.280   0.233   9.715  1.7079  1.9785 -1.0172
 8519SOL    HW237020   0.335   0.104   9.678  0.1514 -1.0525  0.8665
 8520SOL     OW37021   4.187   3.235  14.154 -0.6695  0.1238 -0.1475
 8520SOL    HW137022   4.132   3.249  14.078  0.1007  0.1615 -0.7009
 8520SOL    HW237023   4.236   3.159  14.122 -1.3502 -0.1097 -0.6286
 8521SOL     OW37024   4.099   4.167  16.268 -0.6247 -0.0242 -0.4004
 8521SOL    HW137025   4.091   4.099  16.336 -0.8398 -0.6907 -1.0995
 8521SOL    HW237026   4.181   4.210  16.292 -0.8818 -0.1549  0.7547
 8522SOL     OW37027   1.368   1.451  15.654  0.1667  0.0962 -0.5609
 8522SOL    HW137028   1.461   1.471  15.648 -0.0019  1.1994  0.5554
 8522SOL    HW237029   1.363   1.383  15.720  0.4633  1.6645  1.0746
 8523SOL     OW37030   4.448   4.128   4.561 -0.3639 -0.1342 -0.1320
 8523SOL    HW137031   4.525   4.112   4.507 -0.2911 -2.1378  0.5959
 8523SOL    HW237032   4.458   4.223   4.566  0.1456 -0.0939 -1.7809
 8524SOL     OW37033   1.344   0.558   0.873 -0.5308  0.2007 -0.0797
 8524SOL    HW137034   1.350   0.652   0.892  0.5367  0.4932 -1.8575
 8524SOL    HW237035   1.372   0.518   0.955 -1.1977 -0.5055 -0.1999
 8525SOL     OW37036   3.301   1.585   5.544  0.5268 -0.5480  0.0488
 8525SOL    HW137037   3.374   1.618   5.596  0.1249  2.0788 -1.0588
 8525SOL    HW237038   3.232   1.609   5.606  0.3936  2.0519 -1.0920
 8526SOL     OW37039   3.066   3.363   3.870  0.1139 -0.3913  0.5985
 8526SOL    HW137040   3.092   3.455   3.875  0.0886 -0.2825 -1.3241
 8526SOL    HW237041   3.059   3.356   3.775  1.7254  0.0247  0.4494
 8527SOL     OW37042   0.370   1.372   6.483  0.5791 -0.3830  0.7024
 8527SOL    HW137043   0.325   1.340   6.405 -0.1710  1.2090  0.5010
 8527SOL    HW237044   0.324   1.454   6.499 -1.7778 -1.1500 -2.1903
 8528SOL     OW37045   2.438   3.907   6.922 -0.3630  0.3852 -0.4839
 8528SOL    HW137046   2.507   3.920   6.856 -0.9702  2.1124 -0.7652
 8528SOL    HW237047   2.496   3.864   6.985 -1.1357  0.6390  0.3988
 8529SOL     OW37048   0.043   4.098  16.840 -0.6931  0.6090 -0.5131
 8529SOL    HW137049   4.717   4.178  16.862  0.2612  1.6573 -2.2087
 8529SOL    HW237050   0.125   4.140  16.815 -1.4977  1.6464 -1.4439
 8530SOL     OW37051   4.303   3.432   7.930 -0.5733 -0.2498 -0.1986
 8530SOL    HW137052   4.318   3.473   8.015  0.2761 -1.8150  0.4048
 8530SOL    HW237053   4.255   3.500   7.882  3.3001  1.4858 -1.6377
 8531SOL     OW37054   3.472   3.158   3.050 -0.1833 -0.3800  0.1808
 8531SOL    HW137055   3.411   3.087   3.069 -0.6171 -0.1136 -0.2228
 8531SOL    HW237056   3.486   3.201   3.134 -0.5827 -1.4892  0.8096
 8532SOL     OW37057   3.145   0.012   1.053 -0.6287 -0.2568 -0.3238
 8532SOL    HW137058   3.070   4.701   1.002 -2.2576 -0.6600  2.3380
 8532SOL    HW237059   3.096   0.024   1.134 -0.3615 -3.4290  0.2892
 8533SOL     OW37060   0.831   1.230  17.274  0.2189  0.0727 -0.0797
 8533SOL    HW137061   0.865   1.205  17.188 -0.0017 -1.1251  0.1808
 8533SOL    HW237062   0.891   1.185  17.335 -0.2784  0.9194  1.0394
 8534SOL     OW37063   3.430   3.330   4.919 -0.7992  0.6072 -0.2217
 8534SOL    HW137064   3.405   3.262   4.981 -0.1888 -0.5410 -1.2256
 8534SOL    HW237065   3.406   3.284   4.838 -1.2155  0.0125  0.2438
 8535SOL     OW37066   0.036   2.788  13.045  0.2445 -0.0015 -0.2425
 8535SOL    HW137067   0.104   2.832  12.994  0.6892  0.5185  0.8021
 8535SOL    HW237068   4.708   2.861  13.080  0.5848 -0.2721  0.8108
 8536SOL     OW37069   3.339   3.809   8.600 -0.0286  0.1150  0.0693
 8536SOL    HW137070   3.364   3.758   8.677 -1.2044  1.9226  1.6516
 8536SOL    HW237071   3.423   3.839   8.565  0.5770 -0.7386  0.8093
 8537SOL     OW37072   1.123   1.744   0.384  0.5613  0.0835 -0.2594
 8537SOL    HW137073   1.170   1.808   0.330  3.0853  0.1898  2.0881
 8537SOL    HW237074   1.160   1.773   0.467  2.2648 -1.5315 -0.4706
 8538SOL     OW37075   4.303   1.211   3.524  0.2737 -0.9854 -0.9879
 8538SOL    HW137076   4.257   1.254   3.452 -0.0612  1.6045  0.7712
 8538SOL    HW237077   4.331   1.290   3.572 -0.9534 -1.4395  0.4894
 8539SOL     OW37078   2.512   1.483   6.765  0.5651  0.2483 -0.1278
 8539SOL    HW137079   2.420   1.500   6.744 -0.0081 -1.3539  1.0398
 8539SOL    HW237080   2.541   1.399   6.727 -1.7001 -0.4737 -0.2386
 8540SOL     OW37081   4.245   2.891   1.837 -0.7565 -0.5145  0.2000
 8540SOL    HW137082   4.311   2.954   1.807  0.2036 -0.5002  2.4002
 8540SOL    HW237083   4.247   2.908   1.931  1.5377  2.8671 -0.4434
 8541SOL     OW37084   4.685   3.923   8.690  0.5580 -0.4108  0.2553
 8541SOL    HW137085   0.018   3.976   8.749  0.4785 -0.0481  0.0005
 8541SOL    HW237086   4.618   3.986   8.665  1.6609  0.2084 -1.1103
 8542SOL     OW37087   4.298   0.323   6.136  0.6431  0.5358  0.1698
 8542SOL    HW137088   4.337   0.255   6.081 -0.8511  0.5600 -0.9103
 8542SOL    HW237089   4.366   0.390   6.129  0.0220  1.2510  0.9449
 8543SOL     OW37090   4.690   3.174  15.386  0.2979  0.3596 -0.0834
 8543SOL    HW137091   4.697   3.128  15.303 -2.0732 -0.4270  0.1517
 8543SOL    HW237092   4.691   3.264  15.354  1.7328  1.2161  2.3889
 8544SOL     OW37093   4.206   1.111   9.752  0.1729  0.4938 -0.1117
 8544SOL    HW137094   4.170   1.028   9.786  1.2054  0.5361  1.1109
 8544SOL    HW237095   4.175   1.103   9.662 -0.2088 -1.0268  0.1386
 8545SOL     OW37096   3.058   4.668   4.741  0.3192 -0.3839 -0.4000
 8545SOL    HW137097   2.968   4.646   4.718 -0.1985  1.3487 -0.0503
 8545SOL    HW237098   3.049   4.659   4.836  2.5532  1.1912 -0.0271
 8546SOL     OW37099   3.276   4.320   2.189 -0.3315  0.0944  0.7783
 8546SOL    HW137100   3.273   4.313   2.284  0.5830 -1.5158  0.6950
 8546SOL    HW237101   3.318   4.402   2.164 -2.9898  0.9382 -0.9154
 8547SOL     OW37102   0.152   3.477   7.224 -0.2700 -1.0440 -0.1643
 8547SOL    HW137103   0.231   3.424   7.218  0.1489 -0.3273 -0.8576
 8547SOL    HW237104   0.184   3.561   7.257  1.4778 -2.1605  0.9441
 8548SOL     OW37105   2.674   0.358   4.890  0.1024  0.4124  0.5702
 8548SOL    HW137106   2.764   0.380   4.914  0.3289 -0.7582  0.8076
 8548SOL    HW237107   2.678   0.270   4.928  1.2514 -0.2035 -1.0018
 8549SOL     OW37108   4.129   1.231   8.596 -0.0797 -0.2116  0.2807
 8549SOL    HW137109   4.059   1.181   8.638  1.3518 -2.1385  0.3351
 8549SOL    HW237110   4.173   1.267   8.673 -0.9164  0.2386  0.5518
 8550SOL     OW37111   0.381   1.627   8.686 -0.5709 -0.7126  0.2168
 8550SOL    HW137112   0.317   1.698   8.692  1.5051  1.0048  2.1111
 8550SOL    HW237113   0.382   1.595   8.595  2.7713  1.4931 -0.5233
 8551SOL     OW37114   0.906   0.342   4.915  0.0902  0.2941 -0.4987
 8551SOL    HW137115   0.863   0.290   4.846 -0.3870  0.0251  0.0047
 8551SOL    HW237116   0.987   0.298   4.940  0.8027  1.1245 -1.3612
 8552SOL     OW37117   3.210   2.513  17.105 -0.2146 -0.0495  0.1234
 8552SOL    HW137118   3.216   2.450  17.034 -0.2118  0.8426 -0.6659
 8552SOL    HW237119   3.148   2.469  17.162 -0.6880 -0.1171 -0.4518
 8553SOL     OW37120   4.258   0.176  13.803 -0.0106  0.0525 -0.2073
 8553SOL    HW137121   4.266   0.271  13.804 -1.6082  0.1759  0.5221
 8553SOL    HW237122   4.244   0.155  13.710  1.2246  2.1831 -0.8772
 8554SOL     OW37123   0.957   1.809   3.172 -0.0626  0.1610  0.3356
 8554SOL    HW137124   0.937   1.863   3.096 -1.4141  0.2245  0.7350
 8554SOL    HW237125   0.977   1.725   3.129 -1.2625 -0.1657  0.4395
 8555SOL     OW37126   0.247   0.016  14.264  0.1422  0.0427 -0.1586
 8555SOL    HW137127   0.268   0.083  14.199 -0.5903  0.6918  0.2659
 8555SOL    HW237128   0.183   4.682  14.219  1.8556  0.6039 -3.2737
 8556SOL     OW37129   3.083   0.504   2.432  0.3633 -0.1941 -0.1901
 8556SOL    HW137130   3.092   0.503   2.336 -0.2773  0.7322 -0.2662
 8556SOL    HW237131   3.153   0.441   2.445  1.7130  1.4093  0.2383
 8557SOL     OW37132   1.369   1.704  15.544 -0.1528  0.0633 -0.2434
 8557SOL    HW137133   1.365   1.611  15.567  0.2756  0.2437  0.5521
 8557SOL    HW237134   1.276   1.709  15.521 -0.5932  0.7359  1.6409
 8558SOL     OW37135   2.987   0.350  10.219 -0.0204 -0.4027  0.7595
 8558SOL    HW137136   2.991   0.432  10.268  1.6538 -0.2006  0.2682
 8558SOL    HW237137   3.055   0.297  10.260 -1.2974 -3.8073 -1.5264
 8559SOL     OW37138   2.777   3.382   4.787 -0.3428  0.0466 -0.5810
 8559SOL    HW137139   2.709   3.405   4.723 -0.6915  0.0376 -0.2185
 8559SOL    HW237140   2.848   3.435   4.753 -0.0667  0.1406  0.1574
 8560SOL     OW37141   4.182   4.118  13.978 -0.1712  0.5897  0.1961
 8560SOL    HW137142   4.105   4.092  13.928 -0.6362  1.9743  0.1809
 8560SOL    HW237143   4.248   4.058  13.942  1.9611  2.2021  1.3635
 8561SOL     OW37144   3.877   0.378   2.564 -0.7483 -0.2550  0.3652
 8561SOL    HW137145   3.895   0.447   2.629  2.2599 -0.5888 -0.0958
 8561SOL    HW237146   3.838   0.315   2.625  0.6636 -1.3263  0.1524
 8562SOL     OW37147   3.890   3.888   3.908  0.3325  0.4801 -0.4508
 8562SOL    HW137148   3.923   3.884   3.818  1.8358  1.2905  0.0708
 8562SOL    HW237149   3.961   3.840   3.951  0.3558  0.5191 -0.4459
 8563SOL     OW37150   0.599   2.396   3.474  0.1071 -0.2310 -0.3284
 8563SOL    HW137151   0.632   2.459   3.410  1.9387  0.3051  1.1277
 8563SOL    HW237152   0.641   2.427   3.554  0.1773  2.2402 -1.3249
 8564SOL     OW37153   3.499   2.991   0.733  0.2061 -0.3569  0.0001
 8564SOL    HW137154   3.470   2.990   0.824 -0.6054 -1.4052 -0.2772
 8564SOL    HW237155   3.446   3.061   0.695 -1.4246  0.1124  3.0697
 8565SOL     OW37156   2.212   0.609   7.359 -0.0599  0.3022  0.3691
 8565SOL    HW137157   2.295   0.637   7.323  0.3688 -0.5150  0.7228
 8565SOL    HW237158   2.217   0.669   7.434  3.1174  0.6474 -0.1201
 8566SOL     OW37159   1.709   2.822   7.472  0.1299 -0.0906 -0.2149
 8566SOL    HW137160   1.634   2.797   7.527 -0.7806 -0.3750 -1.6099
 8566SOL    HW237161   1.782   2.771   7.507  0.7549  1.1979  0.3427
 8567SOL     OW37162   0.401   1.128  13.480 -0.4795 -0.2092  0.0894
 8567SOL    HW137163   0.325   1.128  13.421  0.0309 -2.0460 -0.5624
 8567SOL    HW237164   0.464   1.144  13.410  1.8269 -1.2790  1.9303
 8568SOL     OW37165   0.091   1.708   8.442 -0.1082 -0.0600  0.0334
 8568SOL    HW137166   0.117   1.650   8.514  0.0058  0.0534  0.0825
 8568SOL    HW237167   0.077   1.645   8.371 -0.3648  0.0879 -0.0477
 8569SOL     OW37168   2.797   2.517   4.109  0.4287  0.3056  0.2042
 8569SOL    HW137169   2.881   2.534   4.153  1.1441  2.2466 -1.9080
 8569SOL    HW237170   2.801   2.580   4.038  0.4125  0.2582  0.1612
 8570SOL     OW37171   2.562   3.368  15.966 -0.0320 -0.0594 -0.1678
 8570SOL    HW137172   2.563   3.284  15.920  1.9792  0.6992 -1.5505
 8570SOL    HW237173   2.485   3.409  15.928  0.5287 -0.9456 -2.2687
 8571SOL     OW37174   1.130   0.874   1.672 -0.3439  0.2820 -0.1433
 8571SOL    HW137175   1.210   0.926   1.675 -0.5941  0.7000 -0.6095
 8571SOL    HW237176   1.145   0.808   1.605 -1.9140 -0.2543  0.0337
 8572SOL     OW37177   2.683   2.291   3.518 -0.3400  0.0580  0.2775
 8572SOL    HW137178   2.708   2.222   3.456  1.4504  0.3449  0.6885
 8572SOL    HW237179   2.718   2.261   3.602  0.8542  2.0325  0.4829
 8573SOL     OW37180   4.242   4.308  14.143  0.1835 -0.3058  0.2105
 8573SOL    HW137181   4.198   4.274  14.220 -0.4961  3.0638  1.2752
 8573SOL    HW237182   4.220   4.236  14.084  2.5366 -0.0119 -1.0653
 8574SOL     OW37183   4.660   1.427   6.840  0.2248  0.1425  0.3849
 8574SOL    HW137184   4.583   1.389   6.881 -0.9180  3.4297  1.2639
 8574SOL    HW237185   4.688   1.480   6.915  1.4305  0.2460 -0.1372
 8575SOL     OW37186   1.942   2.181   8.339 -0.1576 -0.0897  0.4934
 8575SOL    HW137187   2.012   2.116   8.330 -1.4602 -1.1548 -2.1051
 8575SOL    HW237188   1.862   2.130   8.327 -1.0985  1.6953 -0.8822
 8576SOL     OW37189   3.027   1.235  13.602  0.4314  0.3375  0.3018
 8576SOL    HW137190   2.968   1.159  13.610 -0.2078  0.8424  0.3984
 8576SOL    HW237191   3.086   1.213  13.675  0.0520  1.6087  0.9816
 8577SOL     OW37192   0.474   4.614   0.370  0.0189 -0.2481  0.2846
 8577SOL    HW137193   0.491   4.692   0.422  0.2481  0.6174 -1.0763
 8577SOL    HW237194   0.559   4.574   0.387 -0.1806 -0.6530  0.3219
 8578SOL     OW37195   1.630   3.181   8.087  0.2267  0.2244  0.1401
 8578SOL    HW137196   1.602   3.243   8.020 -0.0239  0.9279  0.8952
 8578SOL    HW237197   1.681   3.229   8.153  1.6698  0.5448 -1.1992
 8579SOL     OW37198   4.156   1.273  12.545 -0.3630 -0.2834 -0.0579
 8579SOL    HW137199   4.212   1.319  12.608 -1.0383 -1.6516  1.5286
 8579SOL    HW237200   4.083   1.334  12.544 -0.1280  0.0278  1.4673
 8580SOL     OW37201   3.392   0.679   0.246  0.4495 -0.3069 -0.3922
 8580SOL    HW137202   3.319   0.656   0.303  1.2946  0.4550  0.9760
 8580SOL    HW237203   3.347   0.677   0.161 -0.9936  0.5044  0.3477
 8581SOL     OW37204   3.110   1.278   2.303  0.2273 -0.1232 -0.3041
 8581SOL    HW137205   3.176   1.231   2.252  0.4973  2.2297 -2.1047
 8581SOL    HW237206   3.156   1.358   2.329 -0.5973  0.1265  0.3798
 8582SOL     OW37207   4.504   1.896   7.256  0.0451  0.2118  0.1110
 8582SOL    HW137208   4.462   1.924   7.175  1.2994 -1.8640 -1.2674
 8582SOL    HW237209   4.421   1.874   7.298 -0.8174  0.8653 -1.2739
 8583SOL     OW37210   1.192   3.815   5.604 -0.1565 -0.3590  0.5230
 8583SOL    HW137211   1.191   3.769   5.521 -0.0772  1.2581 -0.3728
 8583SOL    HW237212   1.177   3.741   5.664  0.9357  0.6297  2.0187
 8584SOL     OW37213   4.379   3.218  11.121 -0.7679  0.0832  0.0066
 8584SOL    HW137214   4.300   3.168  11.143  0.1511 -1.1503  0.5153
 8584SOL    HW237215   4.420   3.155  11.062 -1.0378 -1.7270  1.7452
 8585SOL     OW37216   0.173   3.178   6.147 -0.4841 -0.9581 -0.3877
 8585SOL    HW137217   0.132   3.135   6.221  1.0541  0.3789  1.2283
 8585SOL    HW237218   0.267   3.180   6.163 -0.5687  0.2667 -0.0927
 8586SOL     OW37219   2.135   3.906   7.757  0.5973  0.3561 -0.2048
 8586SOL    HW137220   2.116   3.999   7.763  0.0777  0.3301 -1.5407
 8586SOL    HW237221   2.218   3.907   7.710  1.0178  2.3919  0.5722
 8587SOL     OW37222   3.116   1.552   7.092 -0.7320  0.1249  0.0778
 8587SOL    HW137223   3.111   1.568   6.998 -1.6165  0.8893  0.2479
 8587SOL    HW237224   3.108   1.457   7.099 -0.2688  0.2263  2.0514
 8588SOL     OW37225   0.955   3.914   6.908  0.3564  0.3504 -0.2860
 8588SOL    HW137226   1.035   3.945   6.950 -0.5912 -0.2012  1.8853
 8588SOL    HW237227   0.893   3.973   6.951 -0.5107  1.2620 -2.7863
 8589SOL     OW37228   3.684   2.122   0.982  0.4417 -0.1647  0.0503
 8589SOL    HW137229   3.593   2.094   0.972  0.7431 -0.5972 -1.4804
 8589SOL    HW237230   3.682   2.213   1.011 -0.2123 -0.5874  1.3342
 8590SOL     OW37231   4.141   4.047   5.382 -0.1548 -0.2460 -0.2082
 8590SOL    HW137232   4.055   4.075   5.415  0.4465  4.9947 -3.1413
 8590SOL    HW237233   4.140   3.952   5.394  1.4956 -0.3154 -0.7046
 8591SOL     OW37234   3.290   3.987   4.708 -0.0752 -0.6260  0.2077
 8591SOL    HW137235   3.347   3.910   4.715  2.1164  0.8248 -1.8584
 8591SOL    HW237236   3.223   3.965   4.773 -0.0784  0.5347  0.5824
 8592SOL     OW37237   3.044   0.324   8.852  0.0121 -0.1667  0.3175
 8592SOL    HW137238   3.009   0.407   8.821 -0.3463 -0.2237  0.5679
 8592SOL    HW237239   3.049   0.330   8.948  0.3802 -2.5937  0.4616
 8593SOL     OW37240   2.234   0.556   7.096 -0.1689  0.2126  0.5256
 8593SOL    HW137241   2.225   0.461   7.096 -1.0258  0.2876 -1.1469
 8593SOL    HW237242   2.197   0.589   7.178 -0.7917  0.8347 -0.0021
 8594SOL     OW37243   3.184   0.319   2.728 -0.1004  0.0453 -0.3613
 8594SOL    HW137244   3.128   0.245   2.703  1.4257 -0.6542 -1.6852
 8594SOL    HW237245   3.212   0.351   2.643  2.2680 -0.5118  0.2061
 8595SOL     OW37246   1.719   2.081   3.216 -0.3142 -0.0001 -0.7836
 8595SOL    HW137247   1.668   2.051   3.140 -0.4464 -0.4146 -0.5331
 8595SOL    HW237248   1.711   2.007   3.276 -0.8204  1.6801  1.2264
 8596SOL     OW37249   4.091   1.934   5.698  0.3611 -0.3517  0.0385
 8596SOL    HW137250   4.085   2.018   5.653  0.2544 -0.3066  0.1369
 8596SOL    HW237251   4.110   1.972   5.784  0.1379 -1.1666  0.4396
 8597SOL     OW37252   1.854   4.113   9.063  0.0396  0.6910  0.4251
 8597SOL    HW137253   1.804   4.048   9.015  0.7697  0.1909  0.3448
 8597SOL    HW237254   1.809   4.192   9.034 -1.7230 -0.7099 -0.5961
 8598SOL     OW37255   0.363   2.330   3.397  0.0572  0.0640  0.4236
 8598SOL    HW137256   0.450   2.357   3.425  0.8604 -2.2015  0.1196
 8598SOL    HW237257   0.317   2.333   3.481  2.0403  1.5451  1.4660
 8599SOL     OW37258   0.061   3.270   3.072  0.7180 -0.2754 -0.2904
 8599SOL    HW137259   0.067   3.213   2.995 -0.6859 -2.1630  0.9833
 8599SOL    HW237260   4.713   3.327   3.039 -1.3328 -2.6208  0.0445
 8600SOL     OW37261   4.270   1.574   3.332  0.8379 -0.3851 -0.0403
 8600SOL    HW137262   4.209   1.503   3.352 -0.1130  0.2395 -0.7075
 8600SOL    HW237263   4.229   1.649   3.376 -3.2809 -2.1426 -0.9300
 8601SOL     OW37264   4.206   3.826  15.709  0.6137 -0.3080 -0.5183
 8601SOL    HW137265   4.300   3.843  15.709  0.4282  0.6608  0.8162
 8601SOL    HW237266   4.194   3.743  15.755 -0.0088  1.0440  1.7535
 8602SOL     OW37267   2.042   0.372  12.331 -0.2073  0.6912 -0.2688
 8602SOL    HW137268   2.077   0.461  12.329 -0.5108  0.7963 -0.7596
 8602SOL    HW237269   2.044   0.361  12.426 -0.8997 -0.5277 -0.3994
 8603SOL     OW37270   1.289   3.831   9.280 -0.2424 -0.2558  0.0506
 8603SOL    HW137271   1.207   3.781   9.271 -0.6503  0.3626  0.3304
 8603SOL    HW237272   1.253   3.905   9.329  0.8448  0.7861 -0.7175
 8604SOL     OW37273   2.103   1.897   6.329  0.0375 -0.0117 -0.1432
 8604SOL    HW137274   2.115   1.973   6.272  3.5112 -1.3722 -1.2381
 8604SOL    HW237275   2.014   1.870   6.306 -1.0868  2.1660  1.6975
 8605SOL     OW37276   1.090   1.056   7.199 -0.2039 -0.4087  0.1849
 8605SOL    HW137277   1.165   0.997   7.197  1.0266  1.1862 -1.3536
 8605SOL    HW237278   1.064   1.059   7.107  1.4534 -2.4254 -0.3550
 8606SOL     OW37279   3.354   2.728  10.917 -0.2149 -0.0248 -0.0409
 8606SOL    HW137280   3.327   2.675  10.992  0.2182 -0.1909 -0.0026
 8606SOL    HW237281   3.445   2.751  10.933 -0.2475  0.3871 -0.4639
 8607SOL     OW37282   4.451   3.827   9.095 -0.1510 -0.8634  0.3612
 8607SOL    HW137283   4.515   3.894   9.068 -0.7245 -1.3402 -2.2143
 8607SOL    HW237284   4.370   3.868   9.063  0.6989  1.0342  0.6101
 8608SOL     OW37285   1.927   1.509   5.804  0.3550  0.4560  0.3838
 8608SOL    HW137286   1.932   1.549   5.891 -0.6151  1.2406  0.0770
 8608SOL    HW237287   1.941   1.586   5.749 -2.9790  1.4081  0.8328
 8609SOL     OW37288   2.614   4.207   0.579 -0.4928 -0.2217 -0.2192
 8609SOL    HW137289   2.705   4.176   0.584  0.2524  1.7341 -1.4799
 8609SOL    HW237290   2.632   4.273   0.512  0.3422  0.1971  0.4094
 8610SOL     OW37291   2.428   4.585   2.269 -0.0458  0.0066 -1.0714
 8610SOL    HW137292   2.385   4.501   2.252  1.8085 -1.4475  1.4001
 8610SOL    HW237293   2.461   4.568   2.357 -1.1906  1.3613 -0.3870
 8611SOL     OW37294   3.629   1.252   3.808  0.2222  0.1052  0.2478
 8611SOL    HW137295   3.643   1.235   3.715  3.3066  1.8761  0.3728
 8611SOL    HW237296   3.716   1.277   3.839 -0.5660  1.4998  1.3129
 8612SOL     OW37297   0.506   0.360   5.261 -0.3635  0.3820 -0.6729
 8612SOL    HW137298   0.562   0.289   5.292  0.3834  0.5682 -1.5936
 8612SOL    HW237299   0.566   0.422   5.220  0.5656 -0.4397 -0.5554
 8613SOL     OW37300   3.970   1.452  16.051  0.0760 -0.1980 -0.3903
 8613SOL    HW137301   3.934   1.538  16.029 -0.3106 -1.0183 -3.0437
 8613SOL    HW237302   3.993   1.460  16.143 -1.6990  0.8740 -0.0381
 8614SOL     OW37303   3.371   3.368   7.401  0.2608  0.0276 -0.3280
 8614SOL    HW137304   3.313   3.420   7.346 -1.1485 -0.1323  1.0190
 8614SOL    HW237305   3.395   3.430   7.470  1.1566 -1.0923  0.3705
 8615SOL     OW37306   2.341   3.509  15.863 -0.1806  0.1218 -0.7469
 8615SOL    HW137307   2.359   3.602  15.878  0.4694  0.0322 -0.9579
 8615SOL    HW237308   2.323   3.515  15.769 -1.2218 -0.4826 -0.5778
 8616SOL     OW37309   0.689   1.743   7.723  0.7259 -0.1276  0.0379
 8616SOL    HW137310   0.739   1.692   7.788  1.7997 -0.2805 -0.9038
 8616SOL    HW237311   0.735   1.716   7.644  0.4825 -0.7200  0.0941
 8617SOL     OW37312   3.399   3.369   8.552 -0.0814 -0.2735 -0.7799
 8617SOL    HW137313   3.379   3.421   8.474 -3.0659 -1.5050 -0.8285
 8617SOL    HW237314   3.314   3.370   8.595 -0.3270  0.4601 -1.2788
 8618SOL     OW37315   1.517   3.654   6.352  0.2899  0.0630  0.3848
 8618SOL    HW137316   1.567   3.572   6.345  1.8168  1.1263 -1.2007
 8618SOL    HW237317   1.555   3.693   6.273  1.9485 -0.8550  0.7279
 8619SOL     OW37318   2.800   0.979   3.284  0.1622  0.1537 -0.7376
 8619SOL    HW137319   2.825   1.007   3.373 -1.8917 -1.4832  0.3475
 8619SOL    HW237320   2.869   1.006   3.224 -0.9232  0.6853 -1.7306
 8620SOL     OW37321   1.579   1.162   7.658 -0.1743 -0.4110 -0.5318
 8620SOL    HW137322   1.561   1.255   7.666 -2.3811 -1.0509  2.0072
 8620SOL    HW237323   1.664   1.156   7.702 -0.2919  0.1691 -0.2220
 8621SOL     OW37324   4.547   2.811  13.814 -0.1826  0.6546 -0.0722
 8621SOL    HW137325   4.468   2.821  13.762 -2.0034 -0.7576  2.4105
 8621SOL    HW237326   4.520   2.801  13.905 -0.6852 -0.8266 -0.3805
 8622SOL     OW37327   3.749   2.875   4.014 -0.2532 -0.3359  0.2579
 8622SOL    HW137328   3.815   2.940   4.036  0.2872 -1.3532  1.6099
 8622SOL    HW237329   3.726   2.887   3.921 -0.5546  3.6697  0.8806
 8623SOL     OW37330   4.455   2.311  15.743  0.0886 -0.1458 -0.4716
 8623SOL    HW137331   4.434   2.250  15.814  1.1241 -0.9177 -0.8265
 8623SOL    HW237332   4.365   2.342  15.730 -0.9114 -2.4438  0.9913
 8624SOL     OW37333   4.033   0.693   3.055  0.2492 -0.1261  0.1230
 8624SOL    HW137334   3.946   0.676   3.091  1.0573  0.9094  2.6037
 8624SOL    HW237335   4.008   0.759   2.991  0.8814 -0.2462 -0.2566
 8625SOL     OW37336   0.575   1.187  15.734 -0.0782 -0.2857 -0.0911
 8625SOL    HW137337   0.570   1.283  15.741  0.1439 -0.1091 -2.5442
 8625SOL    HW237338   0.499   1.162  15.786  0.8779  1.0664  2.0262
 8626SOL     OW37339   2.827   2.566  15.804 -0.1099 -0.1593 -0.2094
 8626SOL    HW137340   2.878   2.646  15.815  3.1428 -1.7469 -3.8163
 8626SOL    HW237341   2.831   2.549  15.710 -1.7746  0.6157 -0.4177
 8627SOL     OW37342   2.195   2.662   2.971 -0.2470  0.5150 -0.2142
 8627SOL    HW137343   2.119   2.625   3.015 -0.6875  1.6813 -0.0083
 8627SOL    HW237344   2.256   2.675   3.044 -1.4969  1.1413  0.7214
 8628SOL     OW37345   3.461   0.184   8.677 -0.2194 -0.6990  0.1674
 8628SOL    HW137346   3.553   0.191   8.651 -0.0376 -0.5262  0.8585
 8628SOL    HW237347   3.441   0.091   8.671 -2.2730 -0.2032 -0.7030
 8629SOL     OW37348   0.899   0.777  11.748  0.4567  0.6161 -0.2031
 8629SOL    HW137349   0.989   0.755  11.723  0.9170  0.7825  1.3135
 8629SOL    HW237350   0.866   0.758  11.660 -2.4890  2.7161  0.4540
 8630SOL     OW37351   0.357   4.136   5.284  0.1335  0.3968 -0.3464
 8630SOL    HW137352   0.405   4.083   5.222  1.0292 -0.6376  1.2313
 8630SOL    HW237353   0.433   4.180   5.321  0.5059 -0.4901 -0.0602
 8631SOL     OW37354   0.201   3.807   0.043 -0.2946 -0.1429 -0.2722
 8631SOL    HW137355   0.181   3.752  17.657  0.5683  1.5451 -1.7077
 8631SOL    HW237356   0.113   3.840   0.064 -0.0728  0.7261 -0.7173
 8632SOL     OW37357   0.231   2.547  14.064 -0.1099  0.2703 -0.0334
 8632SOL    HW137358   0.161   2.608  14.085 -0.3481 -0.0393  0.0779
 8632SOL    HW237359   0.307   2.591  14.102  0.7895 -0.3665 -1.0887
 8633SOL     OW37360   3.534   2.646   9.066 -0.0548  0.6335  0.4877
 8633SOL    HW137361   3.585   2.591   9.007 -0.5542 -1.0511  1.6463
 8633SOL    HW237362   3.537   2.593   9.145 -0.9597  2.0115  1.4541
 8634SOL     OW37363   2.568   3.841  12.082  0.4545  0.0336 -0.5032
 8634SOL    HW137364   2.517   3.846  12.163 -1.0451 -0.8131 -1.3977
 8634SOL    HW237365   2.634   3.780  12.113  0.9096  1.2454  0.9096
 8635SOL     OW37366   1.453   0.880   8.380 -0.6468  0.4921  0.3786
 8635SOL    HW137367   1.412   0.837   8.455  2.7661 -3.5528 -0.1194
 8635SOL    HW237368   1.410   0.852   8.299  1.2717 -0.5745 -0.2632
 8636SOL     OW37369   0.607   1.961   4.280  0.1467  0.0682  0.2896
 8636SOL    HW137370   0.599   2.009   4.198 -1.3673  1.0295  1.0098
 8636SOL    HW237371   0.702   1.950   4.288  0.2065  0.0280 -0.4417
 8637SOL     OW37372   1.566   1.811   4.862 -0.2204  0.5559 -0.3317
 8637SOL    HW137373   1.572   1.906   4.866 -2.5857  0.6900  0.1521
 8637SOL    HW237374   1.530   1.796   4.950 -1.7762 -0.7305 -1.1766
 8638SOL     OW37375   1.632   0.912   6.664  0.3920  0.2616  0.4183
 8638SOL    HW137376   1.674   0.826   6.675 -1.3268 -0.8886 -2.1143
 8638SOL    HW237377   1.663   0.941   6.578  0.7332 -0.7904  0.1890
 8639SOL     OW37378   3.290   2.933  12.765  0.0904  0.4002 -0.1204
 8639SOL    HW137379   3.317   3.022  12.788 -1.5171  0.2218  2.5448
 8639SOL    HW237380   3.344   2.891  12.832  0.1864 -0.2742 -0.6248
 8640SOL     OW37381   0.453   1.320   5.295  0.4568 -0.4620  0.0325
 8640SOL    HW137382   0.465   1.410   5.324 -1.9593  0.0424 -0.5675
 8640SOL    HW237383   0.448   1.331   5.200 -2.4474 -0.5550  0.1583
 8641SOL     OW37384   4.666   3.834  10.142 -0.0228 -0.3893  0.1007
 8641SOL    HW137385   4.686   3.849  10.050  1.2871  0.9924  0.6136
 8641SOL    HW237386   4.584   3.884  10.144 -0.2628 -0.6777 -2.5775
 8642SOL     OW37387   1.261   0.844  15.038  0.1798 -0.0111  0.3353
 8642SOL    HW137388   1.326   0.848  15.108  0.9109  2.5750 -0.4798
 8642SOL    HW237389   1.281   0.757  15.003  0.9989  1.0374 -1.7368
 8643SOL     OW37390   0.959   3.503   3.562 -0.3843 -0.3932 -0.1170
 8643SOL    HW137391   0.925   3.530   3.648 -0.5813 -1.2372  0.0654
 8643SOL    HW237392   1.046   3.540   3.578 -1.3565  0.8463  2.4611
 8644SOL     OW37393   0.980   1.060   3.917 -0.1055  0.1090  0.1051
 8644SOL    HW137394   0.945   1.019   3.838 -0.6005  0.5094  0.1108
 8644SOL    HW237395   1.046   0.995   3.942 -0.3604  0.3619  1.4686
 8645SOL     OW37396   1.016   3.335   3.074 -0.1338 -0.0551  0.1351
 8645SOL    HW137397   1.072   3.408   3.101 -0.8552  0.7736 -0.5720
 8645SOL    HW237398   0.950   3.386   3.027  0.0382 -0.0782 -0.1288
 8646SOL     OW37399   1.277   3.478   4.276 -0.3653  0.0254  0.2588
 8646SOL    HW137400   1.351   3.536   4.257  0.6842 -1.6665 -0.8649
 8646SOL    HW237401   1.201   3.520   4.237 -1.4289 -0.5690  1.7273
 8647SOL     OW37402   1.001   2.471   7.805 -0.3749 -0.7118 -0.1312
 8647SOL    HW137403   1.096   2.481   7.811 -0.6445  2.1671 -0.7770
 8647SOL    HW237404   0.965   2.463   7.893  0.5535  0.4908  0.3449
 8648SOL     OW37405   0.969   0.254   3.982 -0.2276 -0.1803 -0.5798
 8648SOL    HW137406   1.031   0.237   3.912  1.1285  0.7548  0.4102
 8648SOL    HW237407   0.910   0.179   3.970  0.8548 -1.2486  0.7086
 8649SOL     OW37408   0.459   3.471   6.106  0.0876 -0.3081 -0.1791
 8649SOL    HW137409   0.525   3.462   6.036 -0.3465  1.3556 -0.7942
 8649SOL    HW237410   0.521   3.526   6.153  0.1131  0.3828 -1.0212
 8650SOL     OW37411   0.614   1.773  12.822  0.2586 -0.0254 -0.1445
 8650SOL    HW137412   0.671   1.821  12.882  0.6269 -2.0409  1.1105
 8650SOL    HW237413   0.527   1.811  12.835  1.3314  2.6794 -1.0692
 8651SOL     OW37414   4.553   1.639   7.575 -0.6734  0.0551  0.0124
 8651SOL    HW137415   4.614   1.706   7.544  1.5785 -1.7372  0.6019
 8651SOL    HW237416   4.606   1.591   7.638 -1.5030  0.3336  0.9114
 8652SOL     OW37417   2.775   0.534   4.639 -0.1808  0.5123 -0.1944
 8652SOL    HW137418   2.865   0.565   4.629  0.3385 -0.7542  0.6182
 8652SOL    HW237419   2.765   0.553   4.732  1.2507  1.9899 -0.3333
 8653SOL     OW37420   3.824   0.705   5.129 -0.2370 -0.0844  0.0690
 8653SOL    HW137421   3.871   0.729   5.209  0.3306 -0.4783 -0.1435
 8653SOL    HW237422   3.812   0.792   5.091  0.6046 -1.0694 -2.4312
 8654SOL     OW37423   2.385   4.618   3.312  0.2628  0.0786 -0.3973
 8654SOL    HW137424   2.429   4.692   3.352  0.9571  0.0467 -1.0904
 8654SOL    HW237425   2.341   4.653   3.235  0.3264  0.5234 -0.2270
 8655SOL     OW37426   1.642   3.777   7.477 -0.7339  0.2196 -0.4680
 8655SOL    HW137427   1.580   3.827   7.424  0.5612  1.8263 -0.4631
 8655SOL    HW237428   1.643   3.693   7.430  1.8201  1.7398 -3.0771
 8656SOL     OW37429   2.336   0.815  14.336 -0.7048  0.4967  0.0128
 8656SOL    HW137430   2.244   0.823  14.309  0.2138 -0.1742 -3.3332
 8656SOL    HW237431   2.326   0.827  14.430  2.7325  0.0402  0.4229
 8657SOL     OW37432   0.221   3.164   7.468  0.5342  0.3876 -0.1165
 8657SOL    HW137433   0.280   3.089   7.459  0.5941  0.5997 -1.5172
 8657SOL    HW237434   0.271   3.210   7.401  1.5346  1.2009  1.1844
 8658SOL     OW37435   3.487   0.168   2.503 -0.1327  0.1156  0.2656
 8658SOL    HW137436   3.463   0.087   2.458 -0.7739  0.0320  0.7513
 8658SOL    HW237437   3.540   0.132   2.573 -0.8334  1.5641  1.5492
 8659SOL     OW37438   2.521   3.312   2.341 -1.0150  0.0447 -0.5770
 8659SOL    HW137439   2.587   3.296   2.273 -1.9906 -1.3892 -1.1881
 8659SOL    HW237440   2.512   3.407   2.337 -0.3319  0.0385 -2.5651
 8660SOL     OW37441   4.619   3.318   7.841  0.0814  0.1357 -0.1184
 8660SOL    HW137442   4.646   3.383   7.906  0.4621  0.2958 -0.4355
 8660SOL    HW237443   4.696   3.301   7.788 -2.1680 -3.5453 -2.2197
 8661SOL     OW37444   4.713   3.016   2.445 -1.0758  0.1149 -0.0936
 8661SOL    HW137445   4.639   3.056   2.490 -0.3192  1.9807 -0.5130
 8661SOL    HW237446   4.702   3.053   2.357 -1.2012 -3.4758 -1.6074
 8662SOL     OW37447   4.603   1.150   9.094 -1.1404  0.0552 -0.1076
 8662SOL    HW137448   4.575   1.099   9.018  0.6298 -2.3720  0.8608
 8662SOL    HW237449   4.607   1.083   9.163 -0.2840 -1.9188 -2.0663
 8663SOL     OW37450   4.057   3.265   7.252 -0.7526  0.0285  0.7389
 8663SOL    HW137451   4.053   3.221   7.337 -1.6042 -0.1134  0.6202
 8663SOL    HW237452   4.085   3.352   7.279 -0.2849 -0.9848  3.5506
 8664SOL     OW37453   2.057   3.330   2.770 -0.3209  0.5173 -0.0965
 8664SOL    HW137454   2.015   3.247   2.749 -0.3381  0.4961  0.0206
 8664SOL    HW237455   1.997   3.393   2.731 -0.8491  0.8603  1.2737
 8665SOL     OW37456   4.092   2.237  11.497 -0.1155 -0.2300  0.4152
 8665SOL    HW137457   4.033   2.192  11.437 -1.9408  1.9988  0.5460
 8665SOL    HW237458   4.028   2.239  11.568  0.0035 -0.1888  0.5216
 8666SOL     OW37459   1.088   4.702   6.178  0.2008  0.4845 -0.1515
 8666SOL    HW137460   1.065   4.666   6.092 -0.7044  1.8580 -0.4929
 8666SOL    HW237461   1.146   0.050   6.147  0.2038  0.5266 -0.0482
 8667SOL     OW37462   0.948   1.838   3.690  0.8465  0.3314 -0.6266
 8667SOL    HW137463   0.901   1.811   3.612 -1.8052 -1.0573  1.4515
 8667SOL    HW237464   1.038   1.844   3.658  1.1186  1.0235  0.2427
 8668SOL     OW37465   0.208   2.546  13.573 -0.0559  0.3113  0.5400
 8668SOL    HW137466   0.203   2.450  13.578 -0.6159  0.4068  1.7427
 8668SOL    HW237467   0.274   2.563  13.641  0.9270  0.9773 -0.5734
 8669SOL     OW37468   1.543   1.720   2.327  0.2481  0.4027 -0.2539
 8669SOL    HW137469   1.613   1.784   2.339 -0.7260  1.5746 -0.8447
 8669SOL    HW237470   1.562   1.682   2.241 -0.5367 -0.9552  0.1842
 8670SOL     OW37471   4.520   4.036  13.524 -0.5361  0.1387  0.0112
 8670SOL    HW137472   4.433   4.038  13.484 -0.8747  0.5119  0.7623
 8670SOL    HW237473   4.570   4.052  13.444  1.1303 -1.2245  0.7675
 8671SOL     OW37474   2.357   0.247   9.310 -0.0219  0.5333 -0.3320
 8671SOL    HW137475   2.406   0.293   9.378  0.0522 -0.1738  0.0958
 8671SOL    HW237476   2.270   0.283   9.326  0.2756  1.2466 -0.3245
 8672SOL     OW37477   3.804   2.625   0.377 -0.4740 -0.1946  0.1898
 8672SOL    HW137478   3.717   2.654   0.350  1.0774  2.3160 -2.1029
 8672SOL    HW237479   3.853   2.617   0.295  0.9489 -1.3564  1.1677
 8673SOL     OW37480   2.890   3.412   6.179 -0.5623  0.2814  0.2780
 8673SOL    HW137481   2.898   3.371   6.266  0.1181 -2.2391 -0.9768
 8673SOL    HW237482   2.841   3.347   6.129 -0.8925 -0.9041  2.1159
 8674SOL     OW37483   2.325   4.430   6.309  0.0509 -0.5182  0.6538
 8674SOL    HW137484   2.260   4.499   6.301  0.2959 -0.5840 -2.2347
 8674SOL    HW237485   2.265   4.355   6.315 -1.1103  0.2630 -1.1948
 8675SOL     OW37486   4.712   0.651   4.953  0.8670  0.2939 -0.3021
 8675SOL    HW137487   4.689   0.634   4.861  1.4069 -2.9778  0.1602
 8675SOL    HW237488   4.625   0.655   4.994  0.4373  0.7438 -1.2308
 8676SOL     OW37489   2.802   1.937   7.535  0.3465 -0.6649  0.1484
 8676SOL    HW137490   2.778   2.008   7.594  3.1445  1.1979 -0.9705
 8676SOL    HW237491   2.765   1.863   7.584  1.1019 -1.1995 -0.0912
 8677SOL     OW37492   3.451   2.268   9.065 -0.3479  0.1963  0.3063
 8677SOL    HW137493   3.400   2.240   8.989  1.5668 -0.8393 -0.6168
 8677SOL    HW237494   3.512   2.333   9.031 -2.0851  0.3611 -2.4737
 8678SOL     OW37495   1.390   2.172   3.095 -0.1241  0.6335  0.4028
 8678SOL    HW137496   1.454   2.159   3.025 -0.8235  1.3089 -0.3632
 8678SOL    HW237497   1.392   2.087   3.139 -3.3525 -0.6476 -1.9372
 8679SOL     OW37498   0.950   3.539   8.451 -0.1555 -0.1413  0.3267
 8679SOL    HW137499   0.908   3.539   8.537 -3.0489 -2.4104 -1.1027
 8679SOL    HW237500   1.031   3.580   8.483 -1.1535  0.5680  1.9714
 8680SOL     OW37501   3.493   4.316  17.486  0.6036 -0.4642 -0.0162
 8680SOL    HW137502   3.557   4.383  17.462 -0.1472  0.0410 -0.6224
 8680SOL    HW237503   3.545   4.263  17.547  1.9135 -1.4407 -1.9838
 8681SOL     OW37504   3.422   4.123   2.919  0.3928 -0.1093 -0.4097
 8681SOL    HW137505   3.439   4.066   2.844  2.3796  2.0294 -1.6101
 8681SOL    HW237506   3.329   4.138   2.904 -0.2427 -1.2815  2.4281
 8682SOL     OW37507   2.733   3.961   0.804  0.1636 -0.3249 -0.0871
 8682SOL    HW137508   2.679   3.939   0.880 -1.6648 -0.9937 -1.5873
 8682SOL    HW237509   2.663   3.992   0.747 -1.5127  0.3725  2.3191
 8683SOL     OW37510   3.645   2.076   6.095  0.0637 -0.2901 -0.0509
 8683SOL    HW137511   3.591   2.106   6.169 -1.3748 -0.1065 -1.1785
 8683SOL    HW237512   3.578   2.070   6.027 -1.5428  1.3774  1.3610
 8684SOL     OW37513   1.400   2.290   8.466  0.4946 -0.0489  0.5885
 8684SOL    HW137514   1.370   2.312   8.378 -0.5043 -1.5400  0.5559
 8684SOL    HW237515   1.322   2.243   8.497  0.2842  1.3845  2.2461
 8685SOL     OW37516   1.943   2.417   7.788 -0.5557 -0.4146 -0.2701
 8685SOL    HW137517   1.875   2.458   7.734 -0.9620 -2.0595 -1.0189
 8685SOL    HW237518   1.923   2.323   7.789  2.1353 -0.9815 -0.4233
 8686SOL     OW37519   0.883   1.706   6.246  0.3652 -0.3092 -0.0989
 8686SOL    HW137520   0.933   1.685   6.325 -0.5835 -1.1995  0.2668
 8686SOL    HW237521   0.953   1.713   6.181  0.8311 -0.1077  0.4213
 8687SOL     OW37522   2.805   4.093  14.953  0.3789  0.8188 -0.8343
 8687SOL    HW137523   2.836   4.114  14.865  0.7009 -0.6514 -1.0800
 8687SOL    HW237524   2.886   4.062  14.994 -1.1974 -1.1475  0.8383
 8688SOL     OW37525   2.609   0.711   0.022  0.3507  0.3213  0.5137
 8688SOL    HW137526   2.666   0.756  17.650  1.2770 -0.3473  0.8747
 8688SOL    HW237527   2.523   0.754   0.015  0.0779 -0.3768 -0.4027
 8689SOL     OW37528   1.314   3.436   1.969  0.5063 -0.0219  0.0277
 8689SOL    HW137529   1.281   3.453   1.881 -0.4408  0.2513  0.4361
 8689SOL    HW237530   1.403   3.408   1.950  0.5457  0.3418 -0.3397
 8690SOL     OW37531   3.821   3.422   9.040  0.3780  0.1078 -0.2700
 8690SOL    HW137532   3.834   3.499   9.095 -1.3159  1.7444 -2.1578
 8690SOL    HW237533   3.882   3.439   8.968  1.7343  0.3179  0.9372
 8691SOL     OW37534   2.186   1.026   6.897 -0.1841 -0.2910  0.3766
 8691SOL    HW137535   2.176   1.021   6.992 -1.5310 -0.6611  0.2094
 8691SOL    HW237536   2.281   1.034   6.889 -0.9033  5.1226 -2.0109
 8692SOL     OW37537   3.191   3.118   8.408  0.1703 -0.0189 -0.1699
 8692SOL    HW137538   3.270   3.167   8.386 -0.5808  0.5778 -1.5373
 8692SOL    HW237539   3.224   3.030   8.428  0.0819 -0.1010 -0.3864
 8693SOL     OW37540   3.857   0.948  13.339  0.0477 -0.0296  0.2479
 8693SOL    HW137541   3.810   0.984  13.263  1.4198 -0.9669 -1.0495
 8693SOL    HW237542   3.797   0.880  13.371 -1.7578  0.8151 -1.2982
 8694SOL     OW37543   0.156   2.004   1.538  0.1491 -0.4468 -0.5933
 8694SOL    HW137544   0.086   1.966   1.485 -0.0118 -1.6028  0.4344
 8694SOL    HW237545   0.161   2.084   1.487 -0.5130  0.5989  0.9711
 8695SOL     OW37546   2.656   2.621   0.438 -0.0113 -0.0370 -0.2928
 8695SOL    HW137547   2.662   2.543   0.493  2.3763 -1.6867 -2.8449
 8695SOL    HW237548   2.751   2.637   0.442 -0.1392  1.0679 -1.8664
 8696SOL     OW37549   3.174   4.328   2.445  0.0834  0.7508  0.3242
 8696SOL    HW137550   3.097   4.335   2.502  0.8426 -0.3486  1.4785
 8696SOL    HW237551   3.249   4.311   2.502 -1.4432 -0.9654  1.8312
 8697SOL     OW37552   2.909   2.034   8.678 -0.2611  0.5910  0.3484
 8697SOL    HW137553   2.934   1.951   8.636 -1.1467 -0.7106  2.4197
 8697SOL    HW237554   2.931   2.096   8.608 -0.9680  0.1347 -0.2865
 8698SOL     OW37555   0.353   3.617   1.400  0.4219  0.0389 -0.8283
 8698SOL    HW137556   0.281   3.657   1.349  0.1122  0.2170 -0.2492
 8698SOL    HW237557   0.425   3.619   1.337 -0.4238  0.0961 -1.8075
 8699SOL     OW37558   1.390   0.940   4.716 -0.4339 -0.0720  0.2335
 8699SOL    HW137559   1.445   0.941   4.638 -1.6352 -0.3436 -0.6280
 8699SOL    HW237560   1.419   1.020   4.757 -0.2489 -1.2492  2.3889
 8700SOL     OW37561   3.881   1.959  16.995 -0.3453 -0.3149  0.4883
 8700SOL    HW137562   3.845   1.951  17.083 -1.6917  5.3512  0.4559
 8700SOL    HW237563   3.967   1.918  17.002  0.6183  1.4388 -1.0093
 8701SOL     OW37564   0.004   2.539  13.217  0.0488  0.6187 -0.0225
 8701SOL    HW137565   4.635   2.508  13.215  0.2672 -0.1872  2.4756
 8701SOL    HW237566   0.002   2.603  13.146  1.2137 -1.9723 -2.3816
 8702SOL     OW37567   2.693   3.469   1.522 -0.2401  0.0040  0.5660
 8702SOL    HW137568   2.665   3.421   1.444  1.4679 -0.3561  0.1714
 8702SOL    HW237569   2.714   3.395   1.578 -4.6541 -0.7062  1.2481
 8703SOL     OW37570   4.483   1.283   2.117  0.0362  0.1787 -0.5129
 8703SOL    HW137571   4.444   1.369   2.105  0.2158  0.1601 -1.2276
 8703SOL    HW237572   4.506   1.278   2.024  0.7073 -0.8039 -0.2993
 8704SOL     OW37573   0.419   1.301  16.272 -0.3817 -0.3819 -0.2800
 8704SOL    HW137574   0.468   1.283  16.192  1.0887 -0.8519  0.7438
 8704SOL    HW237575   0.453   1.389  16.291  0.4187 -1.1836  1.9644
 8705SOL     OW37576   1.572   3.637   6.765 -0.5420 -0.0057 -0.0471
 8705SOL    HW137577   1.528   3.696   6.703 -2.1583 -1.9798 -0.7722
 8705SOL    HW237578   1.635   3.595   6.707 -0.6398 -1.7640  1.1187
 8706SOL     OW37579   3.866   1.261  10.747  0.0343  0.3491  0.8748
 8706SOL    HW137580   3.909   1.189  10.701 -1.6568 -0.5145  0.6606
 8706SOL    HW237581   3.778   1.223  10.748 -0.0780  0.5927  0.1809
 8707SOL     OW37582   0.751   1.805   6.553  0.1721  0.0552  0.1943
 8707SOL    HW137583   0.798   1.810   6.636  0.7852  1.0600 -0.2149
 8707SOL    HW237584   0.725   1.895   6.535  2.0067  0.7357  0.9366
 8708SOL     OW37585   0.713   1.290   1.377  0.1230 -0.0036 -0.0744
 8708SOL    HW137586   0.697   1.206   1.420 -1.5248 -0.2371 -1.1332
 8708SOL    HW237587   0.626   1.312   1.345 -0.4181 -2.0965 -0.0587
 8709SOL     OW37588   3.412   1.420   3.869 -0.2167 -0.1679 -0.0142
 8709SOL    HW137589   3.441   1.329   3.870  0.0344 -0.0785  0.7349
 8709SOL    HW237590   3.496   1.463   3.856  0.0210  0.0098  2.0957
 8710SOL     OW37591   3.125   2.735   6.161 -0.1963  0.0294 -0.1522
 8710SOL    HW137592   3.147   2.656   6.112  0.1938  0.1130 -0.1085
 8710SOL    HW237593   3.105   2.704   6.249 -0.6644  0.2372 -0.1838
 8711SOL     OW37594   4.362   2.248   8.534  0.2274 -0.1638  0.2546
 8711SOL    HW137595   4.320   2.254   8.620 -2.0632 -0.2167 -0.8579
 8711SOL    HW237596   4.440   2.292   8.565  0.8014 -0.9042 -0.1377
 8712SOL     OW37597   2.487   4.133  14.948 -0.3256  0.0405  0.1837
 8712SOL    HW137598   2.418   4.198  14.963 -1.1389 -0.8730  0.4375
 8712SOL    HW237599   2.426   4.059  14.949  1.3854 -1.3672 -0.4307
 8713SOL     OW37600   3.909   3.331   4.329  0.4700  0.6513 -0.3049
 8713SOL    HW137601   3.844   3.390   4.366 -1.3670 -1.3394 -0.3780
 8713SOL    HW237602   3.857   3.291   4.259  0.6539  0.7458 -0.4967
 8714SOL     OW37603   3.473   2.040   4.892  0.2221 -0.0848  0.2031
 8714SOL    HW137604   3.402   1.981   4.867 -0.8705  1.1724  0.3326
 8714SOL    HW237605   3.527   2.028   4.814 -1.3067 -3.9854 -0.2346
 8715SOL     OW37606   1.224   4.188   3.665 -0.5255 -0.9872 -0.6706
 8715SOL    HW137607   1.144   4.239   3.679  0.4642  0.4113 -0.1319
 8715SOL    HW237608   1.290   4.257   3.664 -0.8579 -0.6430  1.6343
 8716SOL     OW37609   3.800   4.038  14.043 -0.2942 -0.2737 -0.4371
 8716SOL    HW137610   3.834   4.032  14.132 -0.6287  1.1669 -0.2150
 8716SOL    HW237611   3.715   4.069  14.075 -0.5214 -0.0544 -1.2408
 8717SOL     OW37612   3.736   1.135   5.236 -0.4067 -0.5389 -0.0781
 8717SOL    HW137613   3.776   1.050   5.253  2.5275  0.8521  0.0396
 8717SOL    HW237614   3.747   1.148   5.142 -0.6003 -3.0697 -0.4398
 8718SOL     OW37615   4.572   4.672  14.895 -0.0324 -0.3077  0.4703
 8718SOL    HW137616   4.497   4.612  14.892  1.1492 -1.7793  0.6168
 8718SOL    HW237617   4.561   4.718  14.812 -1.8130 -0.0755  0.8254
 8719SOL     OW37618   2.109   3.072  14.108  0.1045 -0.2550  0.3728
 8719SOL    HW137619   2.058   3.122  14.172  2.6805 -0.8476  2.8387
 8719SOL    HW237620   2.178   3.136  14.089 -1.9146  1.0750 -2.6036
 8720SOL     OW37621   3.154   0.917   5.816 -0.5142  0.2772  0.2097
 8720SOL    HW137622   3.089   0.987   5.816  1.7934  2.4247  1.9902
 8720SOL    HW237623   3.199   0.945   5.737  0.0616 -0.5799  0.2220
 8721SOL     OW37624   1.923   4.134   4.655  0.3900 -0.4007  0.4205
 8721SOL    HW137625   1.945   4.194   4.726 -1.7852  0.8907  0.0166
 8721SOL    HW237626   1.832   4.118   4.681  0.5649 -1.5263  0.3465
 8722SOL     OW37627   4.106   1.839   8.725  0.1366 -0.3456  0.2111
 8722SOL    HW137628   4.078   1.900   8.655  1.5781 -1.2272 -1.1418
 8722SOL    HW237629   4.201   1.849   8.724  0.2237 -1.2378 -0.6109
 8723SOL     OW37630   0.709   2.073   9.619 -0.5774  0.0032 -0.2243
 8723SOL    HW137631   0.791   2.065   9.668 -1.6875  1.8636  1.8974
 8723SOL    HW237632   0.718   2.002   9.555  0.5497  0.2224 -0.3176
 8724SOL     OW37633   2.944   1.497   8.541 -0.0256  0.5277 -0.6204
 8724SOL    HW137634   3.015   1.439   8.570 -2.6425 -1.7446  1.2376
 8724SOL    HW237635   2.998   1.552   8.483  3.0678 -1.6518  0.1876
 8725SOL     OW37636   4.480   0.395   2.020  0.1325  0.1487  0.0555
 8725SOL    HW137637   4.492   0.300   2.024  2.2117  0.3989 -0.3246
 8725SOL    HW237638   4.395   0.404   1.976  0.3245 -0.3075 -0.4029
 8726SOL     OW37639   3.185   0.663  11.917 -0.7212  0.3424  0.1168
 8726SOL    HW137640   3.131   0.628  11.846 -1.4044  1.0606  0.2760
 8726SOL    HW237641   3.244   0.589  11.929  0.4880  1.3673  0.4589
 8727SOL     OW37642   1.857   0.680  11.933  0.5818  0.1136 -0.3761
 8727SOL    HW137643   1.930   0.729  11.896  0.6172  0.2489 -0.1285
 8727SOL    HW237644   1.863   0.595  11.890 -0.4717 -1.0044  1.6700
 8728SOL     OW37645   2.014   4.285   7.482  0.5392  0.3672 -0.0204
 8728SOL    HW137646   1.965   4.320   7.408 -1.5112 -0.7162  0.8294
 8728SOL    HW237647   1.988   4.193   7.472  0.4950  0.1994  1.6316
 8729SOL     OW37648   1.187   3.630  12.273 -0.4338  0.1170 -0.1425
 8729SOL    HW137649   1.215   3.620  12.182 -2.8030  2.6535 -1.1554
 8729SOL    HW237650   1.259   3.686  12.302 -0.8200  0.7756 -0.4526
 8730SOL     OW37651   0.854   2.937   6.545 -0.2657  0.5420 -0.6171
 8730SOL    HW137652   0.766   2.975   6.544  0.0691  1.3355 -0.0401
 8730SOL    HW237653   0.908   3.011   6.518  2.1225 -2.6582 -4.6502
 8731SOL     OW37654   3.754   0.802   8.687  0.7934 -0.7104 -0.2161
 8731SOL    HW137655   3.672   0.811   8.737  0.3470 -3.1503 -0.5462
 8731SOL    HW237656   3.728   0.821   8.597  1.3551  0.1530 -0.1940
 8732SOL     OW37657   0.568   0.817   2.039 -0.5114 -0.2077 -0.0218
 8732SOL    HW137658   0.500   0.839   2.103  0.7722  1.8894  0.6055
 8732SOL    HW237659   0.537   0.876   1.970 -1.0803 -0.3763  0.0902
 8733SOL     OW37660   2.952   0.177   2.708 -0.3366  0.3295  0.0224
 8733SOL    HW137661   2.876   0.214   2.662 -0.8266 -0.7459 -0.0569
 8733SOL    HW237662   2.933   0.204   2.797 -1.9533 -3.0773  0.7248
 8734SOL     OW37663   1.590   3.451   8.214 -0.2311  0.2576 -0.4735
 8734SOL    HW137664   1.635   3.519   8.164  0.5552  0.7725  0.9431
 8734SOL    HW237665   1.642   3.471   8.292 -0.9855 -0.9596  0.3358
 8735SOL     OW37666   3.511   3.777   0.080  0.3753  0.1186  0.3293
 8735SOL    HW137667   3.509   3.798  17.676  2.6853  0.3141  0.3226
 8735SOL    HW237668   3.420   3.797   0.104  0.5888  2.1832 -0.5387
 8736SOL     OW37669   1.135   3.567   5.725 -0.2075  0.7645  0.2077
 8736SOL    HW137670   1.157   3.479   5.695  0.2615  1.6576 -2.0114
 8736SOL    HW237671   1.122   3.548   5.818  2.7849 -1.0024  0.2514
 8737SOL     OW37672   2.591   1.795   9.101  0.0755  0.0374 -0.4399
 8737SOL    HW137673   2.618   1.863   9.039 -0.5401  0.9216  0.2540
 8737SOL    HW237674   2.664   1.734   9.091 -0.6891 -0.9833  0.2445
 8738SOL     OW37675   2.096   1.505   4.410  0.7685  0.4529 -0.0424
 8738SOL    HW137676   2.177   1.553   4.427  1.1458 -0.7579  1.5703
 8738SOL    HW237677   2.139   1.428   4.372  0.0058  0.7704 -1.5526
 8739SOL     OW37678   0.016   4.005   5.389  0.6903  0.4202  0.0399
 8739SOL    HW137679   0.013   3.933   5.452 -0.1585 -0.5140 -1.0633
 8739SOL    HW237680   4.717   3.957   5.309  2.8402 -0.6348  0.1031
 8740SOL     OW37681   4.118   2.014   7.550  0.1184  0.4455  0.2694
 8740SOL    HW137682   4.047   2.060   7.505  0.2609  0.6775  0.2811
 8740SOL    HW237683   4.160   2.086   7.597  0.1885  0.3322  0.3816
 8741SOL     OW37684   1.467   2.498  13.480  0.1465 -0.0697  0.0389
 8741SOL    HW137685   1.489   2.438  13.409  1.0481 -0.0667  0.3137
 8741SOL    HW237686   1.428   2.573  13.434  1.5007 -1.7474 -3.8620
 8742SOL     OW37687   1.651   0.720  16.947 -0.1315  0.6080 -0.9689
 8742SOL    HW137688   1.708   0.797  16.959 -2.4075  1.6914  2.9626
 8742SOL    HW237689   1.634   0.699  17.039  0.2245  1.3474 -0.7270
 8743SOL     OW37690   1.926   2.600  17.603 -0.3213  0.1111  0.4573
 8743SOL    HW137691   1.843   2.576  17.562 -0.3364  2.3960 -0.8674
 8743SOL    HW237692   1.962   2.520  17.642  2.7208  0.8053 -0.9572
 8744SOL     OW37693   0.733   0.440   4.145  0.3897 -0.0476 -0.3765
 8744SOL    HW137694   0.767   0.469   4.060  0.9810 -1.5287 -0.6312
 8744SOL    HW237695   0.651   0.397   4.121  0.1931 -0.0231  0.2561
 8745SOL     OW37696   3.404   3.151   9.027 -0.0745 -0.0706  0.5855
 8745SOL    HW137697   3.409   3.080   9.091  1.6655 -1.7367 -1.4065
 8745SOL    HW237698   3.454   3.212   9.082  0.2564 -0.7096  0.9978
 8746SOL     OW37699   2.675   2.719   4.520 -0.2170 -0.4527 -0.0708
 8746SOL    HW137700   2.703   2.687   4.605  1.0849 -1.5390 -0.9178
 8746SOL    HW237701   2.678   2.642   4.463 -0.6694 -0.5576  0.0458
 8747SOL     OW37702   2.874   2.483   6.307  0.0163  0.0185 -0.0680
 8747SOL    HW137703   2.963   2.475   6.342  0.2915  0.1303 -0.7324
 8747SOL    HW237704   2.833   2.482   6.394  2.5009  1.0111  1.1210
 8748SOL     OW37705   2.442   1.294   7.486 -0.2662 -0.2868 -0.6326
 8748SOL    HW137706   2.347   1.278   7.490 -0.6334  1.4405 -2.1617
 8748SOL    HW237707   2.467   1.223   7.428  1.9767 -0.7476  0.9057
 8749SOL     OW37708   2.698   0.204  10.821 -0.0256 -0.3023 -0.2226
 8749SOL    HW137709   2.634   0.134  10.838 -2.5784  2.4135  1.5318
 8749SOL    HW237710   2.635   0.275  10.807 -1.3098 -1.7497 -1.7719
 8750SOL     OW37711   3.240   0.522  13.440 -0.6943 -0.6921  0.0858
 8750SOL    HW137712   3.301   0.536  13.368 -0.5440 -0.5165  0.2489
 8750SOL    HW237713   3.302   0.500  13.509  0.7153 -1.6185 -1.4735
 8751SOL     OW37714   3.018   2.621   4.248 -0.5820  0.2517  0.4594
 8751SOL    HW137715   3.063   2.705   4.243 -0.1152 -0.0080  0.3329
 8751SOL    HW237716   3.079   2.549   4.234 -2.6707 -1.1290 -1.6808
 8752SOL     OW37717   3.509   2.498   0.605 -0.1358 -0.2158  0.5563
 8752SOL    HW137718   3.525   2.592   0.598  0.3942 -0.2615  1.1003
 8752SOL    HW237719   3.522   2.472   0.514  0.5869 -0.5987  0.7630
 8753SOL     OW37720   3.516   0.060   2.757 -0.6634 -0.2722 -0.0420
 8753SOL    HW137721   3.513   4.689   2.781 -1.8073 -0.3013 -0.2731
 8753SOL    HW237722   3.454   0.093   2.822 -1.2342  0.5972 -1.0372
 8754SOL     OW37723   2.984   0.741  11.493  0.4312  0.0128  0.1134
 8754SOL    HW137724   3.033   0.815  11.457 -1.0488  0.4002 -1.0859
 8754SOL    HW237725   2.891   0.762  11.485  0.9673  2.4794  0.4075
 8755SOL     OW37726   3.424   4.460   3.745 -0.4454  0.2221  0.5339
 8755SOL    HW137727   3.331   4.468   3.723 -0.5528 -1.9466  0.2765
 8755SOL    HW237728   3.474   4.424   3.672  0.1350  1.0611  0.5133
 8756SOL     OW37729   0.926   4.129  14.349 -0.4641  0.4358 -0.4167
 8756SOL    HW137730   0.847   4.137  14.403 -0.2467  0.4102 -0.0942
 8756SOL    HW237731   0.970   4.203  14.391  1.3289 -0.4472 -0.7361
 8757SOL     OW37732   4.049   3.915   8.726  0.2614  0.0248 -0.0996
 8757SOL    HW137733   3.991   3.842   8.747  0.0422  0.3937  0.5659
 8757SOL    HW237734   3.989   3.973   8.679 -0.4204 -0.2728  0.4035
 8758SOL     OW37735   3.572   1.227   0.383  0.2939 -0.1272 -0.6497
 8758SOL    HW137736   3.657   1.258   0.412 -1.0162  0.5138  2.5372
 8758SOL    HW237737   3.528   1.241   0.466 -1.6192 -1.1855 -1.4794
 8759SOL     OW37738   4.661   0.731   1.781 -0.2524  0.5336 -0.0897
 8759SOL    HW137739   4.639   0.714   1.873  0.9658  0.1867  0.1498
 8759SOL    HW237740   4.597   0.797   1.755 -0.3877  0.6140  0.4523
 8760SOL     OW37741   4.600   0.958   9.561  0.0023 -0.2328 -0.1874
 8760SOL    HW137742   4.544   1.030   9.531  0.5687  0.3082  0.0541
 8760SOL    HW237743   4.689   0.979   9.531 -0.7249  0.4467 -1.8735
 8761SOL     OW37744   0.754   3.296   2.222 -0.3303 -0.3236 -0.1494
 8761SOL    HW137745   0.720   3.376   2.182  2.0136  1.0531  0.6326
 8761SOL    HW237746   0.807   3.335   2.291  0.1426 -1.1865 -0.0292
 8762SOL     OW37747   2.240   0.200   7.712  0.7545  0.8045 -0.3514
 8762SOL    HW137748   2.191   0.254   7.649  1.7727 -0.6681 -2.4189
 8762SOL    HW237749   2.225   0.108   7.690 -1.9108  0.5815  2.2808
 8763SOL     OW37750   4.165   0.077  14.094 -0.1549  0.3379 -0.2184
 8763SOL    HW137751   4.185   0.081  14.001  0.6078 -1.0615 -0.1092
 8763SOL    HW237752   4.231   0.138  14.129  1.0172 -1.0631  0.0040
 8764SOL     OW37753   3.620   0.020   0.613 -0.3242 -0.1098  0.5896
 8764SOL    HW137754   3.694   0.017   0.551 -0.3659 -2.6119  0.6351
 8764SOL    HW237755   3.577   4.660   0.588  1.7302 -1.0014 -0.0135
 8765SOL     OW37756   1.887   2.151   7.995 -0.0238 -0.0187 -0.2352
 8765SOL    HW137757   1.844   2.093   8.058  0.4171 -0.3097 -0.2040
 8765SOL    HW237758   1.932   2.102   7.927  2.1757  0.3607  0.9397
 8766SOL     OW37759   0.892   4.053   3.480  0.3428 -0.3292  0.0132
 8766SOL    HW137760   0.807   4.022   3.449  0.3869  0.4048 -0.8528
 8766SOL    HW237761   0.893   4.009   3.565 -0.0772 -2.2888 -1.0115
 8767SOL     OW37762   3.781   2.949   1.483 -0.3056 -0.9374 -0.7452
 8767SOL    HW137763   3.721   3.022   1.496  1.7005  0.7907 -1.0281
 8767SOL    HW237764   3.844   2.970   1.553  1.2948  1.6551 -2.9922
 8768SOL     OW37765   4.218   2.800   1.004  0.2947  0.1111 -0.3590
 8768SOL    HW137766   4.279   2.727   1.017  1.4337  0.9605 -0.9305
 8768SOL    HW237767   4.190   2.833   1.090  1.9697  1.8704 -0.5007
 8769SOL     OW37768   4.436   0.560  14.233 -0.2996 -0.1134 -0.1918
 8769SOL    HW137769   4.487   0.640  14.241  0.8189 -0.7388 -0.9844
 8769SOL    HW237770   4.372   0.586  14.167  1.3203  1.3697 -1.1635
 8770SOL     OW37771   3.377   3.111   4.452 -0.5764 -0.5770 -0.5056
 8770SOL    HW137772   3.382   3.171   4.378 -0.5636  0.3823  0.2626
 8770SOL    HW237773   3.384   3.027   4.407 -2.9561 -0.9064 -0.2504
 8771SOL     OW37774   3.472   2.050   5.874 -0.2420  0.1358 -0.2670
 8771SOL    HW137775   3.458   1.955   5.876  0.5886  0.0029 -0.5755
 8771SOL    HW237776   3.536   2.067   5.805 -0.6766  0.7314 -0.5172
 8772SOL     OW37777   4.502   3.396   6.990 -0.3937 -0.5196 -0.2195
 8772SOL    HW137778   4.560   3.426   6.920 -0.5822 -0.0399 -0.1692
 8772SOL    HW237779   4.451   3.473   7.014  0.5666  0.1277 -0.2463
 8773SOL     OW37780   4.237   2.469   4.637  0.4541 -0.1242 -0.2033
 8773SOL    HW137781   4.294   2.536   4.598  1.4643 -0.5460  0.5353
 8773SOL    HW237782   4.279   2.444   4.720 -1.8393  1.1785  1.3466
 8774SOL     OW37783   4.471   2.387   4.239  0.2736  0.1602  0.2308
 8774SOL    HW137784   4.502   2.385   4.329  0.7928  0.7417  0.0705
 8774SOL    HW237785   4.500   2.473   4.206 -0.4113 -0.1746 -1.2623
 8775SOL     OW37786   2.866   4.047   6.815  0.0005  0.7113 -0.9195
 8775SOL    HW137787   2.896   4.110   6.880  2.2637 -0.0646 -1.2097
 8775SOL    HW237788   2.901   4.092   6.738  1.9206  1.2015  0.2485
 8776SOL     OW37789   1.074   4.505   0.213  0.1887  0.4503  0.4228
 8776SOL    HW137790   1.056   4.462   0.130  1.4471 -0.8863  0.8363
 8776SOL    HW237791   1.150   4.558   0.192  0.9591 -1.3691 -1.3349
 8777SOL     OW37792   0.558   4.222   0.548  0.8079 -0.1342  0.2754
 8777SOL    HW137793   0.558   4.171   0.629  0.0109  1.0118  0.9990
 8777SOL    HW237794   0.649   4.215   0.517  0.1147  0.8444 -1.9552
 8778SOL     OW37795   2.753   4.112   3.507  0.6128  1.1373 -0.4196
 8778SOL    HW137796   2.682   4.163   3.546 -1.2830 -1.1602 -0.8919
 8778SOL    HW237797   2.750   4.026   3.550 -0.8757  0.2296 -2.3191
 8779SOL     OW37798   2.580   4.525   6.514 -0.1183  0.2199  0.5943
 8779SOL    HW137799   2.487   4.538   6.498  0.0095 -0.7815 -0.9453
 8779SOL    HW237800   2.611   4.473   6.440  0.4687  1.6951 -0.1873
 8780SOL     OW37801   0.446   1.462  16.598 -0.0994  0.0288  0.0252
 8780SOL    HW137802   0.401   1.469  16.682 -3.2226 -1.0170 -1.5406
 8780SOL    HW237803   0.435   1.370  16.575  0.5012 -0.4595  1.7410
 8781SOL     OW37804   2.452   3.299  10.581  0.4354 -0.3477  0.6154
 8781SOL    HW137805   2.471   3.205  10.586 -1.6619 -0.6870  2.1112
 8781SOL    HW237806   2.519   3.330  10.641  1.0802 -0.2525 -0.1410
 8782SOL     OW37807   1.815   3.391   4.263  0.0553  0.0284 -0.2564
 8782SOL    HW137808   1.877   3.425   4.200 -2.0606  2.3623 -1.0766
 8782SOL    HW237809   1.755   3.465   4.273 -0.2934 -0.0762 -1.5605
 8783SOL     OW37810   2.387   0.574   3.298  0.0773 -0.0390  0.1116
 8783SOL    HW137811   2.323   0.644   3.310  0.9857  0.6891  0.7032
 8783SOL    HW237812   2.427   0.591   3.213  2.4744 -1.3724  0.9751
 8784SOL     OW37813   1.088   2.415   0.720  0.9474  0.6033 -0.3051
 8784SOL    HW137814   1.008   2.418   0.773 -0.3055 -2.1757 -2.0180
 8784SOL    HW237815   1.130   2.495   0.751  2.6478  0.0993 -1.3015
 8785SOL     OW37816   1.321   1.467   2.112  0.1032 -0.0741 -0.5174
 8785SOL    HW137817   1.331   1.506   2.025  1.2336  2.5616  0.7769
 8785SOL    HW237818   1.395   1.499   2.164 -1.1308  0.9494  0.6510
 8786SOL     OW37819   3.606   1.052   4.241 -0.7924 -0.2467  0.1592
 8786SOL    HW137820   3.531   1.039   4.182  0.0900 -0.9496 -0.8031
 8786SOL    HW237821   3.590   0.978   4.299 -1.2764  0.7265  1.2742
 8787SOL     OW37822   1.204   4.685  16.051 -0.7902 -0.2019  0.3260
 8787SOL    HW137823   1.207   4.591  16.031 -3.5845 -0.6290  1.9287
 8787SOL    HW237824   1.296   4.703  16.072 -0.1293 -1.1442 -1.7563
 8788SOL     OW37825   3.505   2.168   6.320 -0.3104  0.1616 -0.6870
 8788SOL    HW137826   3.560   2.115   6.378 -2.8494 -0.1511  1.3990
 8788SOL    HW237827   3.549   2.251   6.342  0.1688 -0.1583 -0.4323
 8789SOL     OW37828   3.514   0.833  10.486  0.0101  0.0570  0.4126
 8789SOL    HW137829   3.538   0.878  10.566 -2.6084  1.5023  0.3786
 8789SOL    HW237830   3.587   0.774  10.464 -0.2581  0.0947 -0.6137
 8790SOL     OW37831   1.442   2.398   4.662  0.2265  0.3180  0.1515
 8790SOL    HW137832   1.431   2.415   4.756 -0.7515 -1.3117  0.3331
 8790SOL    HW237833   1.351   2.388   4.637  0.1724 -0.4228  0.6455
 8791SOL     OW37834   1.101   3.094   7.449 -0.0123 -0.4250 -0.9243
 8791SOL    HW137835   1.141   3.119   7.365  1.4277  1.0588  0.2025
 8791SOL    HW237836   1.146   3.155   7.508  0.3217 -1.8193  0.2514
 8792SOL     OW37837   0.553   4.717   3.965 -0.2174 -0.6985  0.7233
 8792SOL    HW137838   0.468   4.708   3.922  0.6490  0.4040 -1.2172
 8792SOL    HW237839   0.541   4.692   4.057 -0.3310 -0.0488  0.8867
 8793SOL     OW37840   0.732   3.354   4.352  0.0849  0.3941 -0.3064
 8793SOL    HW137841   0.787   3.299   4.408 -0.7261  0.1338  0.2374
 8793SOL    HW237842   0.761   3.438   4.387  1.4843  0.8816 -2.6344
 8794SOL     OW37843   0.647   1.484  11.296  0.5777  0.0271  0.5295
 8794SOL    HW137844   0.686   1.425  11.361 -0.5814 -1.4018 -0.0626
 8794SOL    HW237845   0.558   1.483  11.331  0.7788 -1.0928  1.0068
 8795SOL     OW37846   4.164   0.850   8.546  0.5384 -0.0646 -0.0278
 8795SOL    HW137847   4.233   0.916   8.554 -0.3639  0.8951 -0.0513
 8795SOL    HW237848   4.116   0.879   8.468  2.4910  2.8500 -0.1429
 8796SOL     OW37849   2.231   0.532   8.619  0.2501  0.2630  0.2062
 8796SOL    HW137850   2.157   0.593   8.624  1.2882  1.7220 -2.2848
 8796SOL    HW237851   2.307   0.587   8.641  1.1224 -2.1351  3.2349
 8797SOL     OW37852   2.083   0.878   3.893  0.1008 -0.6974  0.2053
 8797SOL    HW137853   2.038   0.962   3.887 -2.2543 -2.0124 -0.6167
 8797SOL    HW237854   2.011   0.818   3.914 -0.4550  0.9025  2.8281
 8798SOL     OW37855   0.077   3.393   2.714 -0.4446  0.5056  1.3781
 8798SOL    HW137856   0.151   3.446   2.745  0.9862  0.7931 -2.5587
 8798SOL    HW237857   0.114   3.310   2.684 -0.9993  1.1175 -0.9861
 8799SOL     OW37858   0.739   2.527   4.350  0.5305  0.5522 -0.2297
 8799SOL    HW137859   0.693   2.481   4.280 -1.5460  1.1861  0.7006
 8799SOL    HW237860   0.664   2.577   4.385 -0.0086 -0.1054 -0.4551
 8800SOL     OW37861   4.577   0.940  15.201 -0.8979 -0.6538 -0.1702
 8800SOL    HW137862   4.485   0.922  15.180 -0.6212 -1.2086 -0.9116
 8800SOL    HW237863   4.606   0.976  15.117  1.1726  0.2504  0.9468
 8801SOL     OW37864   0.275   0.880  11.676  0.0212 -0.0407 -0.4352
 8801SOL    HW137865   0.201   0.864  11.734  0.4768  0.5672  0.3005
 8801SOL    HW237866   0.249   0.809  11.618 -1.9817 -0.2938  0.7734
 8802SOL     OW37867   0.423   3.266  13.442  0.1836 -0.7251 -0.1141
 8802SOL    HW137868   0.508   3.257  13.485 -0.1923  1.5181  1.1226
 8802SOL    HW237869   0.424   3.179  13.403  0.9967 -0.6759 -0.2097
 8803SOL     OW37870   1.365   1.142  16.668  0.2564  0.7798  0.0375
 8803SOL    HW137871   1.302   1.197  16.622 -1.3792 -1.7872 -0.8016
 8803SOL    HW237872   1.306   1.093  16.725 -0.6256  1.0643 -0.6439
 8804SOL     OW37873   2.743   3.767   5.912 -0.0681  0.3414  0.1178
 8804SOL    HW137874   2.648   3.757   5.910 -0.2138  1.6918  0.5218
 8804SOL    HW237875   2.771   3.736   5.999 -0.8249  2.0130  0.9560
 8805SOL     OW37876   3.665   2.621   7.361  0.3844 -0.4159  0.6590
 8805SOL    HW137877   3.741   2.563   7.358  0.9911  0.3434  1.5766
 8805SOL    HW237878   3.685   2.695   7.304 -0.5628 -0.4993  0.2173
 8806SOL     OW37879   1.699   4.632   3.412  0.0171  0.2688 -0.1250
 8806SOL    HW137880   1.643   4.710   3.417 -1.2038 -0.8254  3.2447
 8806SOL    HW237881   1.777   4.672   3.450  0.3993 -0.0148 -0.6236
 8807SOL     OW37882   1.172   0.671  11.735 -0.2461 -0.5503 -0.3390
 8807SOL    HW137883   1.184   0.576  11.742 -0.3798 -0.5325  0.1520
 8807SOL    HW237884   1.169   0.686  11.640  0.5035  1.1529 -0.0969
 8808SOL     OW37885   4.401   2.324   9.299  0.3158  0.1753  0.0671
 8808SOL    HW137886   4.494   2.334   9.280  0.8747 -1.0776  2.1074
 8808SOL    HW237887   4.367   2.293   9.215  0.4458 -0.8136  0.3801
 8809SOL     OW37888   1.271   0.212   2.203 -0.1553  0.1568 -0.3767
 8809SOL    HW137889   1.323   0.240   2.279  0.7575 -1.4487 -0.4009
 8809SOL    HW237890   1.341   0.204   2.138  0.0638 -1.1695  0.0057
 8810SOL     OW37891   2.980   3.239   2.035 -0.1371  0.1445  0.6786
 8810SOL    HW137892   3.061   3.286   2.018 -0.4316 -0.2718 -1.8185
 8810SOL    HW237893   2.976   3.190   1.953  2.1792 -0.1054  0.7235
 8811SOL     OW37894   2.301   2.159  15.667 -0.1539 -0.4373 -0.3481
 8811SOL    HW137895   2.372   2.217  15.695 -0.0501 -0.4016 -0.6762
 8811SOL    HW237896   2.326   2.081  15.716  0.6550 -0.1827 -0.3590
 8812SOL     OW37897   3.396   0.643  10.764 -0.5149  0.1035  0.4605
 8812SOL    HW137898   3.427   0.659  10.853 -0.9032  0.7449  0.4810
 8812SOL    HW237899   3.482   0.628  10.724  0.0476 -0.4782  1.8910
 8813SOL     OW37900   0.721   4.532   9.981  0.0588  0.6780  0.3291
 8813SOL    HW137901   0.767   4.448   9.989 -1.9916 -0.1601  3.1007
 8813SOL    HW237902   0.737   4.545   9.888  0.8925  0.4119  0.4301
 8814SOL     OW37903   0.286   3.619   7.558 -0.6896  0.2497 -0.3149
 8814SOL    HW137904   0.297   3.640   7.651  2.1552 -0.1528 -0.5742
 8814SOL    HW237905   0.371   3.577   7.552 -0.1082  1.3020  0.6378
 8815SOL     OW37906   3.586   1.365   2.679 -0.4690  0.3878 -0.0871
 8815SOL    HW137907   3.591   1.458   2.700  1.1896  0.5061 -1.0458
 8815SOL    HW237908   3.679   1.349   2.692 -0.8935 -0.1939  2.2391
 8816SOL     OW37909   4.508   1.198   9.835  0.2060 -0.0660 -0.2561
 8816SOL    HW137910   4.505   1.145   9.915 -0.8494 -0.1034 -0.3172
 8816SOL    HW237911   4.444   1.147   9.785  0.6937 -0.5514 -0.3804
 8817SOL     OW37912   3.708   1.481   7.247  0.0965  0.5473  0.3845
 8817SOL    HW137913   3.650   1.552   7.274  0.5813  0.4951  1.5514
 8817SOL    HW237914   3.752   1.521   7.172  0.2302  0.7711  0.5813
 8818SOL     OW37915   1.974   2.636   7.295 -0.6893 -0.1366  0.3357
 8818SOL    HW137916   1.913   2.576   7.253 -2.2626 -0.5413  3.2345
 8818SOL    HW237917   1.918   2.679   7.359 -0.8803  2.5794 -1.6266
 8819SOL     OW37918   4.571   1.510   7.327 -0.1924  0.0039 -0.4355
 8819SOL    HW137919   4.552   1.533   7.418 -3.0925 -0.0853 -1.0088
 8819SOL    HW237920   4.658   1.472   7.336 -1.0121 -1.5359  0.7991
 8820SOL     OW37921   4.094   2.537   2.848  0.0937 -0.2596  0.1094
 8820SOL    HW137922   4.070   2.575   2.764  0.5234 -0.7768 -0.2489
 8820SOL    HW237923   4.026   2.572   2.906 -0.1872 -0.4795 -0.0884
 8821SOL     OW37924   0.740   0.887   8.429 -0.4593 -0.3027 -0.0537
 8821SOL    HW137925   0.671   0.865   8.366  1.9090 -1.7824 -2.1157
 8821SOL    HW237926   0.743   0.982   8.426  0.9057 -0.3124  1.0985
 8822SOL     OW37927   2.228   0.763  14.608 -0.6444 -0.3353 -0.0439
 8822SOL    HW137928   2.308   0.789  14.653  0.1111 -0.6401 -1.1908
 8822SOL    HW237929   2.230   0.667  14.607 -1.1694 -0.3328 -2.2680
 8823SOL     OW37930   0.138   2.333   0.542  0.3131  0.3156 -0.0468
 8823SOL    HW137931   0.139   2.312   0.449 -0.8381 -2.6523  0.5963
 8823SOL    HW237932   0.124   2.427   0.544  1.5484  0.5034 -0.0105
 8824SOL     OW37933   4.476   2.460   5.864 -0.1300  0.2220 -0.0219
 8824SOL    HW137934   4.498   2.415   5.946  0.3387 -0.8850 -0.7592
 8824SOL    HW237935   4.400   2.411   5.833 -1.4283  1.4575  1.1791
 8825SOL     OW37936   2.087   3.843   2.345 -0.1253  0.1525 -1.0486
 8825SOL    HW137937   2.101   3.795   2.263 -0.8103 -1.1767 -0.3973
 8825SOL    HW237938   1.995   3.864   2.326 -0.4101 -1.6539 -1.6526
 8826SOL     OW37939   0.008   3.561  16.571 -0.6116 -0.3987 -0.0851
 8826SOL    HW137940   0.027   3.480  16.619 -0.4125 -1.1551 -1.4409
 8826SOL    HW237941   4.697   3.616  16.642 -1.7718 -2.4249  0.9222
 8827SOL     OW37942   0.869   3.216   4.135  0.4108 -0.0568 -0.3546
 8827SOL    HW137943   0.964   3.229   4.135  0.2847  0.9930  1.6348
 8827SOL    HW237944   0.842   3.270   4.210  1.0442  0.6693 -0.6465
 8828SOL     OW37945   0.470   3.074   7.045 -0.3206 -0.5553 -0.1410
 8828SOL    HW137946   0.543   3.132   7.065 -0.0162 -0.7686 -0.6354
 8828SOL    HW237947   0.431   3.102   6.962 -1.1058 -0.2499  0.3261
 8829SOL     OW37948   2.508   3.229   7.216 -0.0478  0.4759  0.7157
 8829SOL    HW137949   2.426   3.272   7.237 -0.0333  0.5743  0.5719
 8829SOL    HW237950   2.565   3.302   7.193  4.0151 -2.5478  1.1412
 8830SOL     OW37951   2.313   4.051  15.722 -0.0923  0.3611  0.0093
 8830SOL    HW137952   2.257   3.982  15.686  0.3544  0.8024 -1.5532
 8830SOL    HW237953   2.249   4.120  15.739  0.5337  0.7541  0.7712
 8831SOL     OW37954   2.315   0.980   7.534  0.0006  0.3875 -0.0829
 8831SOL    HW137955   2.295   0.887   7.531 -0.0263  0.3894  0.0443
 8831SOL    HW237956   2.366   1.002   7.456  0.1107 -1.6318 -0.5604
 8832SOL     OW37957   3.261   1.690   5.897 -0.3182  0.3249 -0.0028
 8832SOL    HW137958   3.344   1.700   5.851  0.1129 -0.1813  0.6690
 8832SOL    HW237959   3.196   1.689   5.826 -0.5279 -1.1706  0.2080
 8833SOL     OW37960   0.229   2.512   9.591  0.2009 -0.4647 -0.5251
 8833SOL    HW137961   0.273   2.437   9.550  1.9186 -0.6294  1.5667
 8833SOL    HW237962   0.299   2.556   9.639  0.3716 -0.7330 -0.5262
 8834SOL     OW37963   3.906   1.360   8.510 -0.3993 -0.1419 -0.2602
 8834SOL    HW137964   3.984   1.332   8.557 -0.0727 -1.1293 -1.4001
 8834SOL    HW237965   3.933   1.423   8.443  2.1563 -1.2061 -0.2054
 8835SOL     OW37966   4.471   0.343   3.659 -0.2715  0.6005 -0.2716
 8835SOL    HW137967   4.538   0.411   3.662 -1.1875  1.5218 -0.5318
 8835SOL    HW237968   4.421   0.361   3.580  1.9890 -0.3282 -1.9135
 8836SOL     OW37969   1.243   2.724   6.910 -0.3295  0.4540  0.0004
 8836SOL    HW137970   1.242   2.797   6.972  1.2331  0.6912 -0.2662
 8836SOL    HW237971   1.331   2.723   6.873 -0.3909  1.9327 -0.1791
 8837SOL     OW37972   0.359   0.034   6.490 -0.6042  0.2332 -0.3183
 8837SOL    HW137973   0.446   0.061   6.459 -0.3775  0.7571  0.7709
 8837SOL    HW237974   0.375   4.670   6.528  1.9198  0.0909 -1.6441
 8838SOL     OW37975   1.152   4.636  17.524  0.5247  0.7732  0.0949
 8838SOL    HW137976   1.113   4.565  17.574  2.3435  0.9145  1.7309
 8838SOL    HW237977   1.097   4.619  17.448 -0.1013  0.5346  0.6040
 8839SOL     OW37978   3.592   0.441   2.866  0.2951  0.1674 -0.2647
 8839SOL    HW137979   3.682   0.473   2.860  0.0901  0.8566  0.2931
 8839SOL    HW237980   3.552   0.496   2.798 -0.9307 -1.8101 -1.1520
 8840SOL     OW37981   2.855   0.250  17.145 -0.0410  0.0890 -0.4028
 8840SOL    HW137982   2.938   0.219  17.181  0.4181  0.2839 -1.2659
 8840SOL    HW237983   2.801   0.187  17.192  1.4906 -0.1094  1.0718
 8841SOL     OW37984   1.541   2.502   5.559 -0.1428 -0.6626  0.1285
 8841SOL    HW137985   1.466   2.514   5.617  0.0673  2.8364 -0.3706
 8841SOL    HW237986   1.616   2.541   5.603 -0.7944 -0.9080  1.4815
 8842SOL     OW37987   3.912   4.607   7.429 -0.7117 -0.0122  0.1286
 8842SOL    HW137988   3.868   4.682   7.468  0.1233 -0.2171  1.4578
 8842SOL    HW237989   3.984   4.591   7.489 -0.1590 -3.2806 -1.3933
 8843SOL     OW37990   4.338   1.421   2.928 -0.5240  0.0320 -1.0293
 8843SOL    HW137991   4.351   1.362   3.001  0.6509 -0.7428 -1.8596
 8843SOL    HW237992   4.427   1.428   2.893  0.1333  1.0397  0.8429
 8844SOL     OW37993   2.093   4.656   9.653  0.4294  0.8020 -0.2467
 8844SOL    HW137994   2.023   4.611   9.605  2.0977 -0.6203 -1.3708
 8844SOL    HW237995   2.117   4.576   9.700 -1.4921  0.4866  0.1809
 8845SOL     OW37996   4.591   1.080  16.972 -0.1546  0.0436 -0.0822
 8845SOL    HW137997   4.565   1.079  16.879  1.5484  0.8852 -0.5652
 8845SOL    HW237998   4.673   1.128  16.972  0.9711 -1.8726 -0.7787
 8846SOL     OW37999   2.722   4.048  16.606  0.1252 -0.1759 -0.0600
 8846SOL    HW138000   2.674   4.114  16.557  1.1125  1.6739  1.4443
 8846SOL    HW238001   2.787   4.106  16.647 -1.3305  2.3062 -1.2931
 8847SOL     OW38002   1.087   4.468   8.392 -0.9255 -0.1389  0.0590
 8847SOL    HW138003   1.088   4.385   8.344 -0.9308  0.5717 -1.1392
 8847SOL    HW238004   1.148   4.453   8.464  0.7069  0.3387 -1.2349
 8848SOL     OW38005   4.175   4.316  16.008 -0.3989 -0.0191  0.3093
 8848SOL    HW138006   4.133   4.399  15.985 -0.8545 -0.2532  0.2932
 8848SOL    HW238007   4.249   4.308  15.948 -0.1272 -0.5635  0.7143
 8849SOL     OW38008   3.802   1.492   9.548 -0.0813 -0.3024 -0.2710
 8849SOL    HW138009   3.748   1.544   9.608  0.0243  0.1983 -0.6049
 8849SOL    HW238010   3.737   1.427   9.519  0.0857 -0.7119  0.2946
 8850SOL     OW38011   1.066   3.689   7.691  0.0890 -0.4041 -0.2480
 8850SOL    HW138012   1.008   3.616   7.710  2.1722 -2.3413 -1.3098
 8850SOL    HW238013   1.073   3.723   7.780  1.9943  0.7562 -0.8410
 8851SOL     OW38014   2.543   1.900   0.294  0.0060  0.4405  0.6332
 8851SOL    HW138015   2.538   1.980   0.242  0.3790  0.2981  0.3779
 8851SOL    HW238016   2.501   1.838   0.234 -0.8424  2.5644 -0.9771
 8852SOL     OW38017   2.448   2.795   1.166 -0.4053 -0.8138 -0.3124
 8852SOL    HW138018   2.390   2.813   1.241 -2.1490 -1.9901 -1.3797
 8852SOL    HW238019   2.527   2.771   1.214  0.1848 -1.5971 -1.6998
 8853SOL     OW38020   2.673   1.135  13.864 -0.4055 -0.2644 -0.7463
 8853SOL    HW138021   2.659   1.086  13.945  1.4557  1.0141  0.3306
 8853SOL    HW238022   2.595   1.190  13.851 -0.8789 -0.8057 -0.1977
 8854SOL     OW38023   3.624   0.171   5.430  0.1261 -0.1520  0.3875
 8854SOL    HW138024   3.615   0.129   5.515 -3.2865 -1.6514 -0.6994
 8854SOL    HW238025   3.670   0.098   5.388  1.6281  1.8400 -1.3944
 8855SOL     OW38026   1.756   4.365   1.709  0.0016  0.3472  0.2905
 8855SOL    HW138027   1.832   4.367   1.650  0.2530  2.6994  0.7075
 8855SOL    HW238028   1.783   4.426   1.777  0.3499  1.1980 -0.6020
 8856SOL     OW38029   4.298   4.592   6.078  0.2172  0.2896 -0.4088
 8856SOL    HW138030   4.290   4.682   6.046 -2.9655  0.0556 -0.2835
 8856SOL    HW238031   4.319   4.619   6.167  1.0843  1.8138 -1.0749
 8857SOL     OW38032   4.267   1.086   8.245 -0.2301 -0.2985 -0.3190
 8857SOL    HW138033   4.248   1.170   8.286 -2.0351 -2.1360  2.5749
 8857SOL    HW238034   4.356   1.101   8.212  0.1301 -4.0964 -1.1176
 8858SOL     OW38035   3.464   4.509  14.863  0.3720  0.0745  0.5660
 8858SOL    HW138036   3.385   4.461  14.886  0.4071 -1.2727 -2.1271
 8858SOL    HW238037   3.468   4.572  14.934  0.1568  1.7888 -0.9289
 8859SOL     OW38038   3.965   1.615   6.263 -0.4155 -0.3437 -0.4308
 8859SOL    HW138039   4.023   1.656   6.198  1.0701  2.9518  2.9595
 8859SOL    HW238040   3.910   1.693   6.275 -0.5720 -0.4672 -0.3478
 8860SOL     OW38041   1.209   3.141   0.315 -0.5733 -0.6527 -0.0647
 8860SOL    HW138042   1.292   3.182   0.289 -1.4785  2.1088  1.3477
 8860SOL    HW238043   1.207   3.130   0.410  1.7613  0.1872  0.0996
 8861SOL     OW38044   1.582   0.536   4.694 -0.7343  0.5835 -0.1642
 8861SOL    HW138045   1.495   0.555   4.729 -0.9978 -0.1313 -0.4160
 8861SOL    HW238046   1.571   0.447   4.661 -1.6349 -0.7692  3.8596
 8862SOL     OW38047   2.997   3.381   1.439  0.0570 -0.3226  0.0266
 8862SOL    HW138048   3.015   3.384   1.345  1.8726 -2.4031  0.3148
 8862SOL    HW238049   2.997   3.474   1.460 -0.2987 -0.4413  0.5531
 8863SOL     OW38050   0.187   0.347   7.905  0.0671 -0.3875 -0.5225
 8863SOL    HW138051   0.172   0.385   7.991  0.2539  0.8069 -1.0202
 8863SOL    HW238052   0.229   0.268   7.939  0.8386  0.2760  0.0728
 8864SOL     OW38053   1.177   2.431   3.937 -0.4340  0.2387 -0.7213
 8864SOL    HW138054   1.197   2.509   3.988  0.0183  0.1453 -0.7491
 8864SOL    HW238055   1.261   2.384   3.936 -1.2983 -1.2725 -3.0871
 8865SOL     OW38056   1.201   2.639   1.100  0.4720  0.4394  0.1361
 8865SOL    HW138057   1.238   2.713   1.147 -0.1493  0.3779  0.7171
 8865SOL    HW238058   1.208   2.656   1.006 -1.0738 -2.7123 -0.5774
 8866SOL     OW38059   1.831   4.004  13.820 -0.1236 -0.5988 -0.7589
 8866SOL    HW138060   1.755   4.047  13.859 -0.0997  0.0739 -1.4503
 8866SOL    HW238061   1.861   4.065  13.753  0.0163 -0.2506 -0.3734
 8867SOL     OW38062   2.030   4.447   8.379  0.5072  0.4151 -0.2422
 8867SOL    HW138063   2.084   4.374   8.409  0.3553  0.0995 -0.7393
 8867SOL    HW238064   2.089   4.480   8.310  1.9654  0.2611  0.9276
 8868SOL     OW38065   1.385   1.139   0.888  0.6412 -0.0015 -0.3411
 8868SOL    HW138066   1.469   1.181   0.909  0.1679  0.5880  0.3542
 8868SOL    HW238067   1.362   1.092   0.968 -0.8081  0.6260 -0.3883
 8869SOL     OW38068   1.108   1.234  13.090  0.5088 -0.0025 -0.0715
 8869SOL    HW138069   1.051   1.185  13.031  0.8864 -0.3036 -0.1839
 8869SOL    HW238070   1.039   1.258  13.152  0.2906 -1.5486  0.2702
 8870SOL     OW38071   1.666   0.861   9.295 -0.4948  0.0215 -0.4606
 8870SOL    HW138072   1.593   0.801   9.306 -0.5752  0.2554  0.2755
 8870SOL    HW238073   1.632   0.897   9.212 -1.4934  0.3964  0.1102
 8871SOL     OW38074   1.731   4.139   6.313 -0.2691  0.0053 -0.0094
 8871SOL    HW138075   1.817   4.106   6.338 -0.8449 -0.1527  1.7239
 8871SOL    HW238076   1.707   4.186   6.393  0.1575  0.2521 -0.0247
 8872SOL     OW38077   3.085   0.077  14.073 -0.1420  0.2994 -0.0073
 8872SOL    HW138078   3.105   0.021  13.999 -1.4029 -2.0862  1.4763
 8872SOL    HW238079   3.142   0.033  14.137 -1.5052  0.1296  1.0836
 8873SOL     OW38080   1.091   1.987   9.324 -0.0467  0.8692  0.7637
 8873SOL    HW138081   1.079   1.928   9.250  1.5620 -0.9427  1.9448
 8873SOL    HW238082   1.186   1.988   9.338 -0.1677  1.4638  1.5146
 8874SOL     OW38083   2.124   1.536  14.691 -0.0093 -0.2476  0.7679
 8874SOL    HW138084   2.119   1.555  14.597  1.0533 -1.2961  0.5050
 8874SOL    HW238085   2.048   1.479  14.700 -2.0596  2.1536 -1.2796
 8875SOL     OW38086   4.719   1.777   5.604 -0.2544 -0.3569 -0.0204
 8875SOL    HW138087   4.641   1.831   5.616  0.5224  0.6168  0.5777
 8875SOL    HW238088   0.048   1.809   5.678  1.5798 -0.0959 -1.3979
 8876SOL     OW38089   0.496   2.930  12.615 -0.2374 -0.2799  0.7023
 8876SOL    HW138090   0.559   2.868  12.654  1.1844  0.0360 -1.0731
 8876SOL    HW238091   0.472   2.892  12.530 -1.3650  1.2918  0.3366
 8877SOL     OW38092   1.477   3.204   2.583 -0.1361 -0.0957  0.1157
 8877SOL    HW138093   1.489   3.123   2.631  1.1359 -0.1221 -0.2376
 8877SOL    HW238094   1.428   3.263   2.640 -1.5288  1.7226 -2.9483
 8878SOL     OW38095   1.992   3.639   5.650 -0.6280 -0.0344  0.0972
 8878SOL    HW138096   1.953   3.638   5.563 -1.7328  0.0805  0.5926
 8878SOL    HW238097   1.987   3.731   5.678  1.1428  0.6480 -1.8386
 8879SOL     OW38098   0.939   3.260   1.745 -0.6283  0.5202 -0.8467
 8879SOL    HW138099   0.948   3.355   1.751  0.4309  0.5468 -3.1369
 8879SOL    HW238100   0.920   3.249   1.652 -0.7302 -0.6588 -0.6876
 8880SOL     OW38101   1.760   3.038   5.902  0.1753 -0.3948 -0.3869
 8880SOL    HW138102   1.787   3.104   5.965  0.7381 -0.7353 -0.2747
 8880SOL    HW238103   1.685   3.082   5.861 -1.3475 -0.4636  2.3503
 8881SOL     OW38104   1.635   4.373   5.781 -0.6407  0.8956  0.2274
 8881SOL    HW138105   1.633   4.322   5.861  3.5489  1.0100  0.4042
 8881SOL    HW238106   1.547   4.384   5.743 -0.0077  1.3376 -1.1247
 8882SOL     OW38107   2.582   0.666  12.145  0.0977 -0.4656  0.2902
 8882SOL    HW138108   2.629   0.583  12.134  1.0715  0.4732 -2.5886
 8882SOL    HW238109   2.500   0.640  12.188 -0.5743 -0.7821 -1.1967
 8883SOL     OW38110   0.356   1.557   2.323  0.4958  0.1669 -0.0096
 8883SOL    HW138111   0.307   1.490   2.372 -0.3375  1.7623  1.3408
 8883SOL    HW238112   0.435   1.566   2.377  1.1089 -4.7545 -0.0640
 8884SOL     OW38113   2.107   1.074   0.278  0.2861 -0.4321  0.5086
 8884SOL    HW138114   2.043   1.047   0.343 -0.3373 -2.5807 -0.9993
 8884SOL    HW238115   2.093   1.015   0.204  0.8358 -1.0895  0.9347
 8885SOL     OW38116   4.610   2.493  10.178  0.1374 -0.4391 -0.2248
 8885SOL    HW138117   4.540   2.526  10.233  1.5048 -1.9148  2.3849
 8885SOL    HW238118   4.680   2.501  10.243  0.1801  0.2402 -0.3445
 8886SOL     OW38119   0.765   0.082   9.686 -0.1853  0.3505  0.1648
 8886SOL    HW138120   0.819   0.131   9.749 -1.3303 -0.8511  2.0917
 8886SOL    HW238121   0.799   0.116   9.603 -0.0529 -1.6434 -0.5977
 8887SOL     OW38122   2.613   4.322  16.550 -0.0469  0.6180 -0.1452
 8887SOL    HW138123   2.664   4.324  16.468 -1.8797 -2.4693 -1.3461
 8887SOL    HW238124   2.544   4.381  16.521  0.1436  1.0090  0.1886
 8888SOL     OW38125   0.129   1.746   6.971 -0.1357  0.4024 -0.8281
 8888SOL    HW138126   0.062   1.810   6.947 -1.0379 -0.4558 -0.6001
 8888SOL    HW238127   0.082   1.696   7.038  0.0536  0.1147 -0.9097
 8889SOL     OW38128   2.583   2.008   4.564 -0.5702 -0.2697  0.0262
 8889SOL    HW138129   2.500   1.962   4.558 -0.9548  0.5770 -1.2130
 8889SOL    HW238130   2.634   1.971   4.491 -0.1933 -0.2941  0.2999
 8890SOL     OW38131   1.562   3.270   4.909  0.1583 -0.6531 -0.3657
 8890SOL    HW138132   1.520   3.197   4.864  0.1565 -1.2374  0.5952
 8890SOL    HW238133   1.655   3.245   4.913 -0.6057 -3.2857  1.1882
 8891SOL     OW38134   2.594   2.916  13.167  0.1874 -0.2430 -0.5733
 8891SOL    HW138135   2.612   2.849  13.233 -0.8531 -1.0465 -1.1025
 8891SOL    HW238136   2.659   2.891  13.102 -0.9770  1.1167 -2.2433
 8892SOL     OW38137   3.242   0.082  17.572  0.6702 -0.3286 -0.1297
 8892SOL    HW138138   3.155   0.106  17.540  1.0976 -2.5416 -2.9345
 8892SOL    HW238139   3.264   4.717  17.539  2.8641  0.0640  0.2941
 8893SOL     OW38140   2.236   4.305   0.397 -0.1786  0.2341 -0.4966
 8893SOL    HW138141   2.278   4.385   0.365  1.0228 -0.0759  0.2794
 8893SOL    HW238142   2.311   4.256   0.431 -0.9285  0.7326  1.9070
 8894SOL     OW38143   1.967   0.141   7.382  0.0477  0.2487 -0.1302
 8894SOL    HW138144   1.923   0.144   7.297  0.1545  2.8836 -0.0926
 8894SOL    HW238145   2.028   0.067   7.374 -3.5838 -2.5774 -2.0658
 8895SOL     OW38146   3.322   0.906  11.928  0.2918  0.1222 -0.4308
 8895SOL    HW138147   3.373   0.919  11.849  1.5364 -1.2534  0.1563
 8895SOL    HW238148   3.276   0.823  11.917 -1.1728  1.1641 -2.1411
 8896SOL     OW38149   1.940   2.220  15.137 -0.3200  0.5159  0.3377
 8896SOL    HW138150   1.899   2.134  15.145 -1.1452  1.0236  1.6055
 8896SOL    HW238151   2.007   2.207  15.069 -0.8304  1.1256 -0.2779
 8897SOL     OW38152   0.782   2.124   3.247  0.1733 -0.0920 -0.3888
 8897SOL    HW138153   0.824   2.177   3.314  0.1793  0.3550 -0.7476
 8897SOL    HW238154   0.752   2.195   3.189 -0.0301  0.2133  0.0856
 8898SOL     OW38155   4.310   0.112   6.724 -0.6317 -0.1909  0.1632
 8898SOL    HW138156   4.220   0.135   6.702 -0.4969  0.3566  0.1806
 8898SOL    HW238157   4.344   0.071   6.645  2.4496  0.9708  0.8922
 8899SOL     OW38158   0.694   3.876   5.043 -0.0782  0.2913 -0.0766
 8899SOL    HW138159   0.784   3.877   5.011 -0.6162 -1.5263 -1.6196
 8899SOL    HW238160   0.720   3.817   5.114 -0.9650 -0.9907 -0.8329
 8900SOL     OW38161   2.308   1.183   0.131  0.0114 -0.4209 -0.4387
 8900SOL    HW138162   2.387   1.170   0.184  0.1783  0.0302 -0.5748
 8900SOL    HW238163   2.246   1.142   0.193  0.5713  0.4306  0.6896
 8901SOL     OW38164   0.170   2.207   6.202  0.2831 -0.1367 -0.6990
 8901SOL    HW138165   0.221   2.136   6.163  1.2752 -0.2645  0.8256
 8901SOL    HW238166   0.236   2.243   6.261  0.6560 -1.4803 -0.2895
 8902SOL     OW38167   1.977   3.223   3.820 -0.1337  0.7417  0.5020
 8902SOL    HW138168   1.963   3.156   3.753  0.2732  1.0466  0.1120
 8902SOL    HW238169   1.882   3.231   3.826 -0.2111 -0.1507  0.3805
 8903SOL     OW38170   3.702   2.692  15.068 -0.5373 -0.0137 -0.4967
 8903SOL    HW138171   3.758   2.766  15.045  0.1402 -0.1493  0.6756
 8903SOL    HW238172   3.779   2.641  15.095  0.0365  0.8186 -0.5878
 8904SOL     OW38173   0.694   3.697   0.374 -0.0296 -0.0409  0.1405
 8904SOL    HW138174   0.729   3.753   0.444 -0.8130  0.4907  0.1098
 8904SOL    HW238175   0.609   3.675   0.413 -0.8428  0.1991 -1.4952
 8905SOL     OW38176   0.365   4.046   1.072  0.3414  0.1427 -0.0699
 8905SOL    HW138177   0.294   4.081   1.018  0.2654 -1.5282 -1.0407
 8905SOL    HW238178   0.339   4.085   1.156  0.9043  0.0160  0.1692
 8906SOL     OW38179   1.508   4.216  10.019 -0.3521 -0.6846  0.6540
 8906SOL    HW138180   1.477   4.131   9.989  0.8135 -0.8479 -0.0762
 8906SOL    HW238181   1.483   4.221  10.111  1.3014  1.4245  0.9849
 8907SOL     OW38182   1.900   1.278  11.041  0.1894  0.3820  0.2743
 8907SOL    HW138183   1.995   1.265  11.049  0.2155  0.6250  0.3509
 8907SOL    HW238184   1.885   1.358  11.090 -0.8414 -0.2713  1.0156
 8908SOL     OW38185   2.692   2.379   5.031 -0.0931  0.0284  0.2176
 8908SOL    HW138186   2.635   2.369   4.955  1.3030  2.4035 -1.1391
 8908SOL    HW238187   2.640   2.350   5.106 -0.1234 -1.8134 -0.5134
 8909SOL     OW38188   3.917   0.821  15.124 -0.3809 -0.1761  0.4777
 8909SOL    HW138189   3.863   0.744  15.142 -1.2309  0.5635  1.0954
 8909SOL    HW238190   3.982   0.800  15.191 -1.4535  1.2456  1.9610
 8910SOL     OW38191   2.265   0.782  13.045  0.5500 -0.0987  0.1735
 8910SOL    HW138192   2.172   0.804  13.047  0.3231 -0.9724 -1.5165
 8910SOL    HW238193   2.264   0.689  13.026  2.9745  0.1000 -0.9951
 8911SOL     OW38194   3.235   2.926  14.357 -0.2799 -0.3727 -0.3727
 8911SOL    HW138195   3.280   2.846  14.385  0.2341 -0.0459 -0.2665
 8911SOL    HW238196   3.223   2.919  14.263  2.5919  2.5801 -0.9534
 8912SOL     OW38197   4.200   4.318  16.605  0.1696 -0.6723 -0.0068
 8912SOL    HW138198   4.228   4.287  16.519  0.3993 -0.4246 -0.0211
 8912SOL    HW238199   4.189   4.407  16.572  1.8240 -0.1095  0.9871
 8913SOL     OW38200   2.694   0.472  15.851 -0.1269  0.1474  0.5255
 8913SOL    HW138201   2.690   0.557  15.806  0.7914  0.6128  1.3188
 8913SOL    HW238202   2.734   0.422  15.779  2.1721  0.1765  1.7845
 8914SOL     OW38203   3.085   3.337   9.673 -0.1086 -0.2680  0.3324
 8914SOL    HW138204   3.131   3.309   9.753 -0.5154  0.5070  0.8305
 8914SOL    HW238205   3.160   3.363   9.620 -1.1919  0.2739 -0.9283
 8915SOL     OW38206   0.770   3.472   8.707  0.4892  0.3896 -0.0622
 8915SOL    HW138207   0.855   3.478   8.751 -0.7164  0.2223  2.3289
 8915SOL    HW238208   0.724   3.421   8.774  1.1808 -1.0733 -0.7103
 8916SOL     OW38209   0.275   3.979  14.296  0.1362 -0.4625  0.0713
 8916SOL    HW138210   0.199   3.994  14.352 -0.7490 -0.3284 -1.1570
 8916SOL    HW238211   0.240   3.937  14.217  1.0571 -3.7440  1.4466
 8917SOL     OW38212   2.053   0.215   5.329 -0.4497 -0.0425  0.3004
 8917SOL    HW138213   2.054   0.297   5.280 -1.9292  0.2242  0.7182
 8917SOL    HW238214   2.132   0.232   5.380  0.7160  2.7918 -2.4259
 8918SOL     OW38215   4.145   3.563  11.867 -0.1345  0.0680  0.7989
 8918SOL    HW138216   4.198   3.638  11.894  2.7927 -1.9370  0.5417
 8918SOL    HW238217   4.205   3.495  11.897  2.0545  1.8804  0.4684
 8919SOL     OW38218   4.666   4.588   7.958  0.6234 -0.5090  0.6806
 8919SOL    HW138219   4.658   4.659   8.021 -1.0486  0.0634 -0.1727
 8919SOL    HW238220   0.036   4.564   7.971  1.0710  1.3324  0.9237
 8920SOL     OW38221   1.129   1.945   5.325 -0.0995 -0.2683  0.4507
 8920SOL    HW138222   1.209   1.905   5.362  0.6748  1.5811  0.7664
 8920SOL    HW238223   1.137   2.040   5.327  0.6646 -0.3341  0.9140
 8921SOL     OW38224   2.352   4.718   8.405 -0.5102  0.1665  0.6119
 8921SOL    HW138225   2.371   0.081   8.445  0.7122 -0.7019  1.8618
 8921SOL    HW238226   2.368   0.012   8.312 -2.4771  0.9712  0.4005
 8922SOL     OW38227   0.510   2.202  15.858 -0.0971  0.2127  0.1223
 8922SOL    HW138228   0.422   2.191  15.822 -0.1262 -2.8578  1.2029
 8922SOL    HW238229   0.491   2.251  15.938 -0.1126 -0.9471  0.8295
 8923SOL     OW38230   0.505   2.950  15.718 -0.5603  0.0095 -0.3600
 8923SOL    HW138231   0.426   2.978  15.672 -0.4852 -2.2167 -1.8530
 8923SOL    HW238232   0.530   3.025  15.771  1.7438 -0.7537 -0.3747
 8924SOL     OW38233   4.347   0.604   1.640 -0.1286  0.2019 -0.2302
 8924SOL    HW138234   4.374   0.694   1.624 -0.5567  0.4830  0.6251
 8924SOL    HW238235   4.415   0.550   1.599  0.8923  0.3836  1.2568
 8925SOL     OW38236   1.762   3.109  14.438 -0.3253 -0.4659 -0.4535
 8925SOL    HW138237   1.695   3.093  14.372 -0.9432  2.5319 -0.5497
 8925SOL    HW238238   1.824   3.041  14.410  1.6206  1.3674 -0.5428
 8926SOL     OW38239   3.613   3.133   3.532 -0.2992  0.2164  0.1110
 8926SOL    HW138240   3.609   3.223   3.563 -0.1032 -0.4984  2.2046
 8926SOL    HW238241   3.707   3.136   3.512 -0.3542 -0.9612 -0.3362
 8927SOL     OW38242   3.861   4.234  15.656 -0.1055  0.3495  0.4717
 8927SOL    HW138243   3.777   4.211  15.617  1.5865 -4.0998 -0.5416
 8927SOL    HW238244   3.844   4.276  15.741 -1.8931  0.6094 -0.0265
 8928SOL     OW38245   2.277   3.433   3.351 -0.5561 -0.6089  0.5107
 8928SOL    HW138246   2.326   3.424   3.432 -0.4029  0.0973  0.4966
 8928SOL    HW238247   2.194   3.409   3.392 -0.6924  1.8292  1.6551
 8929SOL     OW38248   3.628   0.657   7.342  0.5836  0.1392  0.7997
 8929SOL    HW138249   3.536   0.635   7.362 -0.0564 -0.1837 -2.5159
 8929SOL    HW238250   3.624   0.752   7.355  1.6330  0.3876 -0.8221
 8930SOL     OW38251   3.375   1.609   6.623  0.2559 -0.1207 -0.8201
 8930SOL    HW138252   3.325   1.550   6.567  1.0195  0.3435 -1.9974
 8930SOL    HW238253   3.383   1.556   6.702 -1.1326 -0.1313 -0.6893
 8931SOL     OW38254   2.743   3.410   2.112 -0.0934  0.2000  0.4139
 8931SOL    HW138255   2.820   3.353   2.120 -0.6212 -0.8988 -2.4651
 8931SOL    HW238256   2.735   3.419   2.017  0.4148  3.0972  0.6547
 8932SOL     OW38257   3.414   2.883  13.002  0.7533 -0.1093 -0.3002
 8932SOL    HW138258   3.388   2.968  13.039  1.1876 -0.5222  0.9366
 8932SOL    HW238259   3.490   2.864  13.057  0.9860 -0.7359 -0.8328
 8933SOL     OW38260   2.017   2.520   9.117  0.4471  0.4220 -0.1390
 8933SOL    HW138261   1.998   2.446   9.175 -2.3460 -1.2849 -3.2061
 8933SOL    HW238262   1.937   2.572   9.128 -0.4773 -1.0496  0.1850
 8934SOL     OW38263   0.707   3.981   6.095  0.1427  0.0123 -0.2363
 8934SOL    HW138264   0.722   4.056   6.037  0.0920 -0.0925 -0.3857
 8934SOL    HW238265   0.794   3.971   6.134 -1.4867 -4.6568  2.1643
 8935SOL     OW38266   0.742   2.938   3.336 -0.2615 -0.5235  0.1298
 8935SOL    HW138267   0.762   3.022   3.294 -0.8476 -0.2435  0.4245
 8935SOL    HW238268   0.817   2.909   3.388 -0.4677 -0.5690  0.4026
 8936SOL     OW38269   1.682   3.396   2.403  0.2760  0.1688 -0.0038
 8936SOL    HW138270   1.748   3.337   2.440 -1.3873 -1.0298  1.0399
 8936SOL    HW238271   1.629   3.329   2.359  0.3195  0.0801  0.0805
 8937SOL     OW38272   2.945   3.146   4.746 -0.2648 -0.7578  0.4749
 8937SOL    HW138273   2.974   3.174   4.659  1.1075  2.5349  2.0040
 8937SOL    HW238274   2.867   3.202   4.756  0.1995 -0.1548  0.7453
 8938SOL     OW38275   1.829   2.716  15.775 -0.3565 -0.0923  0.1758
 8938SOL    HW138276   1.834   2.790  15.715  0.9620 -1.0462 -0.8909
 8938SOL    HW238277   1.737   2.690  15.772 -0.3579 -0.3511  2.1206
 8939SOL     OW38278   0.109   4.655  13.665  0.2283 -0.3312  0.3956
 8939SOL    HW138279   0.048   4.589  13.699  0.8519 -0.9354  0.3286
 8939SOL    HW238280   0.138   4.690  13.749  0.1930 -2.7938  1.4376
 8940SOL     OW38281   0.918   3.473   7.822 -0.1823 -0.1983 -0.0986
 8940SOL    HW138282   0.890   3.439   7.737 -2.0700  1.3670 -0.1133
 8940SOL    HW238283   0.963   3.400   7.863 -0.6233 -0.3823  0.0635
 8941SOL     OW38284   2.513   2.053  17.065  0.5182 -0.9390  0.1402
 8941SOL    HW138285   2.452   2.116  17.026 -0.5084 -0.7385  2.0376
 8941SOL    HW238286   2.508   1.995  16.989 -0.3472 -0.5410 -0.1031
 8942SOL     OW38287   1.731   2.736  17.330  0.7993 -0.3227  0.2933
 8942SOL    HW138288   1.812   2.788  17.326 -0.1699  1.3026  1.6478
 8942SOL    HW238289   1.673   2.791  17.383  0.6833  0.7637 -0.9565
 8943SOL     OW38290   2.619   1.558   2.204  0.5695  0.7633  0.3942
 8943SOL    HW138291   2.622   1.547   2.299 -1.8461 -1.2918  0.2284
 8943SOL    HW238292   2.525   1.571   2.192  1.1785  3.3825 -1.5561
 8944SOL     OW38293   1.619   3.142   5.725  0.5056  0.2743 -0.5252
 8944SOL    HW138294   1.667   3.210   5.678 -0.3605  1.9639  1.0419
 8944SOL    HW238295   1.600   3.088   5.649  0.8872 -0.1247 -0.3409
 8945SOL     OW38296   3.446   1.266  10.662  0.2608 -0.1725  0.0398
 8945SOL    HW138297   3.516   1.215  10.622  1.0375  0.3658  0.7287
 8945SOL    HW238298   3.440   1.221  10.746  0.1503  0.7419  0.5260
 8946SOL     OW38299   1.028   2.167  15.746 -0.0557  0.2215  0.0000
 8946SOL    HW138300   0.939   2.156  15.780 -0.0272 -1.4066 -0.4777
 8946SOL    HW238301   1.080   2.218  15.808 -1.2545  0.4878  0.7787
 8947SOL     OW38302   1.191   0.860  17.651  0.5361 -0.4308  0.4155
 8947SOL    HW138303   1.145   0.791  17.604  0.3113  0.7334 -1.0647
 8947SOL    HW238304   1.126   0.872   0.031 -1.7051  0.0952 -1.7482
 8948SOL     OW38305   0.827   1.461  15.970  0.1355  0.0655 -0.3044
 8948SOL    HW138306   0.739   1.482  15.999  0.1616  0.3666 -0.4408
 8948SOL    HW238307   0.810   1.438  15.878 -1.0173  1.3316 -0.4032
 8949SOL     OW38308   4.195   2.001   5.969  0.4046 -0.1461  0.2359
 8949SOL    HW138309   4.214   2.095   5.979 -2.4450  0.3377  0.9705
 8949SOL    HW238310   4.274   1.961   6.005  1.3713  1.5155  0.0049
 8950SOL     OW38311   4.339   3.475  12.947  0.2915 -0.5609 -0.4445
 8950SOL    HW138312   4.381   3.406  12.997 -0.6084 -1.2360 -0.6259
 8950SOL    HW238313   4.310   3.418  12.876 -1.7645  0.0391 -0.1128
 8951SOL     OW38314   4.641   2.090  14.947  0.3313 -0.6695 -0.5953
 8951SOL    HW138315   4.579   2.051  15.009 -1.9085 -1.2555 -3.1848
 8951SOL    HW238316   4.620   2.049  14.863  2.8330 -0.2474 -1.4424
 8952SOL     OW38317   0.503   1.886   8.004  0.2605  0.0282 -0.0673
 8952SOL    HW138318   0.499   1.885   7.909 -0.9296  1.8125 -0.0251
 8952SOL    HW238319   0.597   1.901   8.014  0.3067 -0.8551  0.9214
 8953SOL     OW38320   3.028   0.583  11.716  0.5044  0.1559 -0.0777
 8953SOL    HW138321   3.057   0.517  11.653  0.0947 -0.7586  0.6915
 8953SOL    HW238322   3.007   0.647  11.648  0.3649  0.6743  0.4412
 8954SOL     OW38323   0.141   0.712   4.049 -0.0799 -0.1276 -0.0750
 8954SOL    HW138324   0.165   0.638   3.993  1.0642 -1.4794  2.2296
 8954SOL    HW238325   0.067   0.677   4.099  0.1786  0.4361  0.7073
 8955SOL     OW38326   1.200   2.407   3.556 -0.4561 -0.3562  0.0756
 8955SOL    HW138327   1.230   2.322   3.524  0.5658  0.4741 -1.1508
 8955SOL    HW238328   1.129   2.424   3.495 -0.2670  0.5394  0.0980
 8956SOL     OW38329   2.716   3.837  14.677 -0.3510  0.0344 -0.1829
 8956SOL    HW138330   2.774   3.760  14.686  0.4729  0.7460  0.6692
 8956SOL    HW238331   2.644   3.813  14.736  0.2642  2.4847  1.5484
 8957SOL     OW38332   3.185   0.667  13.085  0.1530 -0.3676 -0.0657
 8957SOL    HW138333   3.183   0.635  13.175  1.7803 -0.1299  0.0663
 8957SOL    HW238334   3.258   0.616  13.050  0.8607 -0.2877  1.3094
 8958SOL     OW38335   3.864   0.408  10.642 -0.3370  0.0126  0.2075
 8958SOL    HW138336   3.910   0.482  10.603 -1.7786  0.1014 -1.3275
 8958SOL    HW238337   3.923   0.335  10.624 -0.9536 -0.2920 -0.5864
 8959SOL     OW38338   2.324   0.158   3.500 -0.2116 -0.0979  0.1807
 8959SOL    HW138339   2.269   0.159   3.422 -1.0996  1.8424  0.8181
 8959SOL    HW238340   2.360   0.246   3.509 -0.2690 -0.0269 -0.2924
 8960SOL     OW38341   0.634   0.594   3.038 -0.3328  0.5084  0.2173
 8960SOL    HW138342   0.668   0.683   3.045  0.1318  0.4416 -1.0473
 8960SOL    HW238343   0.670   0.552   3.116 -0.1560 -0.6167 -0.4575
 8961SOL     OW38344   2.090   1.145   1.288 -0.7113  0.3430 -0.0046
 8961SOL    HW138345   2.160   1.173   1.348 -0.5458  0.0603 -0.0672
 8961SOL    HW238346   2.060   1.222   1.240 -1.3818  1.3343  2.0087
 8962SOL     OW38347   1.053   2.607   5.838 -0.1409  0.1468 -0.3989
 8962SOL    HW138348   1.016   2.642   5.919  0.7809  1.5158 -0.5663
 8962SOL    HW238349   1.017   2.519   5.848  1.1440 -0.2093  0.9449
 8963SOL     OW38350   1.860   3.829   7.230  0.6845 -0.0316 -0.7726
 8963SOL    HW138351   1.871   3.734   7.227  1.5953  0.0150  1.0448
 8963SOL    HW238352   1.890   3.853   7.142  0.4851  2.1922 -0.2451
 8964SOL     OW38353   0.067   2.236   4.117 -0.0369 -0.0742 -0.0109
 8964SOL    HW138354   4.704   2.192   4.109  1.5706 -3.0427 -1.0220
 8964SOL    HW238355   0.092   2.248   4.025 -0.9041 -2.7876 -0.6084
 8965SOL     OW38356   1.789   3.843   3.548 -0.3855  0.3583  0.7602
 8965SOL    HW138357   1.869   3.849   3.497 -2.0573  0.5962 -1.8419
 8965SOL    HW238358   1.727   3.895   3.497  0.4120  0.2456 -0.3253
 8966SOL     OW38359   0.240   1.261   9.632  0.5171 -0.3984  0.3749
 8966SOL    HW138360   0.148   1.285   9.626  0.9829  1.7101  1.8070
 8966SOL    HW238361   0.220   1.169   9.653 -1.0419 -0.2365 -0.4221
 8967SOL     OW38362   3.746   4.630   0.029 -0.3242  0.5738  0.5273
 8967SOL    HW138363   3.748   4.698  17.652 -2.0814  1.1810  1.0746
 8967SOL    HW238364   3.747   4.550  17.665  1.5801  0.0980  1.2801
 8968SOL     OW38365   3.808   0.089   5.134  0.6746  0.5254  0.4464
 8968SOL    HW138366   3.807   0.062   5.042  1.2960 -0.5810  0.7687
 8968SOL    HW238367   3.771   0.014   5.181 -1.4074  0.7574 -0.8176
 8969SOL     OW38368   3.415   0.466  13.649 -0.3544 -0.6501 -0.2307
 8969SOL    HW138369   3.351   0.518  13.699 -0.1607 -1.1189  0.5026
 8969SOL    HW238370   3.439   0.405  13.719  1.3275  1.6887  1.2316
 8970SOL     OW38371   3.878   1.455  13.400 -0.4487 -0.0692 -0.3895
 8970SOL    HW138372   3.935   1.382  13.375  0.4603 -0.0449  1.6480
 8970SOL    HW238373   3.932   1.491  13.470 -1.0705  1.4175 -0.6755
 8971SOL     OW38374   0.726   3.840  12.583 -0.0879 -0.0540  0.6859
 8971SOL    HW138375   0.710   3.796  12.499  2.0816  1.2472 -0.4311
 8971SOL    HW238376   0.659   3.907  12.591 -0.8290 -0.8296  0.9411
 8972SOL     OW38377   3.286   4.132   7.954  0.0038  0.6613 -0.0116
 8972SOL    HW138378   3.368   4.082   7.948  0.7398  2.0117 -1.1601
 8972SOL    HW238379   3.223   4.063   7.974 -0.1266  0.6527 -0.4513
 8973SOL     OW38380   3.462   2.243  16.885 -0.4571  0.6272  0.0757
 8973SOL    HW138381   3.542   2.198  16.912 -0.5205  0.2409 -0.3830
 8973SOL    HW238382   3.413   2.237  16.967  2.0116  1.9301  1.6418
 8974SOL     OW38383   0.767   4.384   5.457 -0.0527  0.8834  0.2200
 8974SOL    HW138384   0.751   4.334   5.537 -1.9026 -0.3820 -0.9404
 8974SOL    HW238385   0.720   4.338   5.387 -1.2091 -0.8155  2.1161
 8975SOL     OW38386   4.568   4.564   6.478 -0.2081 -0.2461 -0.1670
 8975SOL    HW138387   4.594   4.630   6.543  0.0220  0.8806 -1.4001
 8975SOL    HW238388   4.634   4.588   6.413 -0.1876 -0.3185 -0.1725
 8976SOL     OW38389   0.859   2.004   2.550 -0.5190 -0.0507  0.4317
 8976SOL    HW138390   0.883   1.924   2.502 -0.0872 -0.4679  1.3528
 8976SOL    HW238391   0.770   1.981   2.574  0.0057 -1.9890  0.5485
 8977SOL     OW38392   2.712   3.626   6.566  0.9176 -0.0844  1.2876
 8977SOL    HW138393   2.784   3.689   6.564 -0.1137  1.1180  2.4759
 8977SOL    HW238394   2.759   3.552   6.604 -1.1454 -1.8380  0.3564
 8978SOL     OW38395   0.035   1.680   3.202 -0.1452 -0.3278 -0.7772
 8978SOL    HW138396   4.675   1.673   3.251 -0.2726  0.3173 -0.8993
 8978SOL    HW238397   0.073   1.765   3.223  1.5088 -1.1962 -0.1709
 8979SOL     OW38398   1.307   4.452   2.396  0.0326  0.2320  0.1551
 8979SOL    HW138399   1.265   4.491   2.473  0.3476 -0.8791  0.8800
 8979SOL    HW238400   1.371   4.393   2.435  0.9544 -0.3073 -2.1546
 8980SOL     OW38401   0.997   3.910   3.719  0.3834 -0.5155 -0.3352
 8980SOL    HW138402   0.974   3.955   3.800  1.4589  0.0253 -0.3335
 8980SOL    HW238403   1.092   3.903   3.722  0.2820 -0.5105  2.5897
 8981SOL     OW38404   0.269   3.489   9.041 -0.1830  0.2442 -0.6646
 8981SOL    HW138405   0.363   3.504   9.053  0.1418 -0.8374 -1.8296
 8981SOL    HW238406   0.254   3.422   9.109 -2.3775  0.1163 -1.2951
 8982SOL     OW38407   3.481   1.866   1.933  0.7555  0.9049  0.0636
 8982SOL    HW138408   3.447   1.778   1.915 -0.3485  1.4259 -0.3732
 8982SOL    HW238409   3.514   1.886   1.846 -3.2264  1.4369 -1.3048
 8983SOL     OW38410   1.363   4.521   0.490  0.0301  0.0367 -0.7970
 8983SOL    HW138411   1.430   4.455   0.469 -1.9939 -2.3495  0.2591
 8983SOL    HW238412   1.412   4.603   0.485  0.7232 -0.3656 -0.6907
 8984SOL     OW38413   3.561   0.050  15.017 -0.3554  0.6071 -0.6719
 8984SOL    HW138414   3.580   0.114  14.948 -3.0507  0.0239 -1.9455
 8984SOL    HW238415   3.644   0.002  15.025 -1.9511 -1.6019  2.0794
 8985SOL     OW38416   0.974   2.056  13.824 -0.4102 -0.3330 -0.9613
 8985SOL    HW138417   1.041   2.122  13.809  0.0724 -0.8085 -0.8964
 8985SOL    HW238418   0.978   2.002  13.746 -0.3799  0.0807 -1.2452
 8986SOL     OW38419   2.228   3.057   7.093 -0.5513 -0.4841 -0.6490
 8986SOL    HW138420   2.228   2.974   7.140  1.0852  0.2584  0.6420
 8986SOL    HW238421   2.165   3.108   7.143 -0.3969 -1.6643  0.7500
 8987SOL     OW38422   0.036   3.751   8.291  0.0166  0.2615 -0.3428
 8987SOL    HW138423   4.716   3.833   8.263 -0.8995 -0.6933 -1.7847
 8987SOL    HW238424   0.069   3.779   8.376 -0.2117  0.8652 -0.4466
 8988SOL     OW38425   4.375   2.902   6.749  0.4424  0.0741  0.5439
 8988SOL    HW138426   4.463   2.902   6.712  1.5177  1.4723  3.1254
 8988SOL    HW238427   4.321   2.939   6.679  0.3497 -1.0924 -0.0065
 8989SOL     OW38428   2.041   0.366   4.752  0.2937  0.1573  0.1107
 8989SOL    HW138429   1.983   0.356   4.676  0.5757 -1.3408  0.1024
 8989SOL    HW238430   1.971   0.388   4.814 -0.7126 -1.2009 -0.5525
 8990SOL     OW38431   0.900   0.494   5.353 -0.6665  0.2775 -0.1940
 8990SOL    HW138432   0.982   0.535   5.379  0.2480 -0.3618 -2.0902
 8990SOL    HW238433   0.842   0.524   5.424 -2.5860 -0.1047 -1.5796
 8991SOL     OW38434   0.428   1.813   6.704  0.2161 -0.5122 -0.2780
 8991SOL    HW138435   0.438   1.828   6.798 -2.3317  0.0605 -0.1016
 8991SOL    HW238436   0.373   1.734   6.701  0.5960 -0.6637 -3.4613
 8992SOL     OW38437   2.245   0.518   9.151 -0.3917 -1.0571  0.6808
 8992SOL    HW138438   2.328   0.560   9.127 -0.7971 -0.9501 -0.5153
 8992SOL    HW238439   2.232   0.537   9.244  0.4985 -2.7222  1.1465
 8993SOL     OW38440   3.766   2.653  12.951 -0.3137 -0.1328  0.1638
 8993SOL    HW138441   3.722   2.682  13.031 -0.8073  1.8413 -0.8141
 8993SOL    HW238442   3.753   2.558  12.943  0.9093 -0.5283  3.0935
 8994SOL     OW38443   3.448   3.545   5.880 -0.1837  0.1667  0.1820
 8994SOL    HW138444   3.390   3.539   5.956 -2.3603  0.7103 -1.4120
 8994SOL    HW238445   3.380   3.547   5.812  0.6134  2.3809 -0.5262
 8995SOL     OW38446   3.843   0.468   3.144  0.2320 -0.3800 -0.2593
 8995SOL    HW138447   3.859   0.374   3.134 -0.9761 -0.5870 -0.2529
 8995SOL    HW238448   3.777   0.460   3.212 -0.4801  0.9014 -0.8082
 8996SOL     OW38449   4.377   0.835   1.473 -0.4171  0.3543  0.0847
 8996SOL    HW138450   4.376   0.771   1.402  3.3194 -0.8089  1.1246
 8996SOL    HW238451   4.297   0.882   1.448 -0.3984  1.4715  2.1132
 8997SOL     OW38452   4.297   1.291   1.627 -0.2254 -0.4481  0.1953
 8997SOL    HW138453   4.293   1.209   1.676  1.6516  0.1994  1.4365
 8997SOL    HW238454   4.342   1.254   1.552  1.7790 -1.0501  1.7083
 8998SOL     OW38455   2.504   3.644   0.981  0.2844  0.1905 -0.2416
 8998SOL    HW138456   2.549   3.725   1.008  1.8918 -0.7222 -0.1937
 8998SOL    HW238457   2.438   3.683   0.924 -0.1045  1.8622  1.3348
 8999SOL     OW38458   2.626   3.055   6.236 -0.4461  0.0438  0.1818
 8999SOL    HW138459   2.698   3.083   6.179  0.9319  0.9806  2.3657
 8999SOL    HW238460   2.591   3.135   6.276 -1.9693 -0.7746  0.4535
 9000SOL     OW38461   0.885   0.035   0.730  0.3296  0.3809 -0.5041
 9000SOL    HW138462   0.843   0.115   0.759  1.4357  1.5678 -2.1092
 9000SOL    HW238463   0.892   0.053   0.636 -0.3468 -0.1247 -0.6481
 9001SOL     OW38464   3.346   1.404  17.581 -0.4100 -0.0712 -0.2495
 9001SOL    HW138465   3.282   1.447  17.524 -2.2343  0.8801  2.5207
 9001SOL    HW238466   3.349   1.461  17.657 -0.7920  0.5334 -0.6853
 9002SOL     OW38467   3.222   1.191   3.555  0.3665 -0.1590 -0.5512
 9002SOL    HW138468   3.295   1.188   3.493  1.3783  2.5227  0.5309
 9002SOL    HW238469   3.153   1.226   3.499 -1.5516 -2.6962  0.2610
 9003SOL     OW38470   1.597   0.296   4.454 -0.7224 -0.0556 -0.4133
 9003SOL    HW138471   1.552   0.215   4.432  1.6048 -0.6273 -3.0646
 9003SOL    HW238472   1.580   0.358   4.382 -1.1344  0.1456 -0.1425
 9004SOL     OW38473   3.339   0.567   7.660  0.6999 -0.1036  0.2830
 9004SOL    HW138474   3.408   0.600   7.603  0.0320  0.7034 -0.0453
 9004SOL    HW238475   3.386   0.522   7.730  0.2945  0.7670  1.1142
 9005SOL     OW38476   1.166   0.209  16.183 -0.3451 -0.0640  0.6440
 9005SOL    HW138477   1.169   0.142  16.114 -0.9166 -1.4142  1.9183
 9005SOL    HW238478   1.129   0.285  16.138 -0.3361 -1.1468 -1.1879
 9006SOL     OW38479   0.790   0.812   3.056  0.0420 -0.3070 -0.5329
 9006SOL    HW138480   0.857   0.821   2.988  0.2807 -0.2479 -0.2885
 9006SOL    HW238481   0.794   0.898   3.097  0.8037 -1.0188  0.8816
 9007SOL     OW38482   2.009   0.917   5.322  0.7221 -0.1483 -0.1308
 9007SOL    HW138483   1.915   0.901   5.322  0.4582  1.4597  0.6489
 9007SOL    HW238484   2.006   1.009   5.296  1.7523 -0.5175 -1.5611
 9008SOL     OW38485   3.560   2.379   7.811 -0.5336 -0.0402  0.5899
 9008SOL    HW138486   3.588   2.357   7.722 -0.5995 -0.6955  0.7341
 9008SOL    HW238487   3.635   2.360   7.866 -0.0913  1.2819  0.4447
 9009SOL     OW38488   2.889   2.985  16.699  0.3212  0.3536  0.0006
 9009SOL    HW138489   2.946   3.015  16.770 -1.5748  1.1462  1.1981
 9009SOL    HW238490   2.936   2.910  16.662  0.3375  0.4293 -0.1296
 9010SOL     OW38491   3.947   4.135   4.201 -0.1174  0.1231  0.1833
 9010SOL    HW138492   4.042   4.125   4.206 -0.2646 -0.2196  2.1207
 9010SOL    HW238493   3.944   4.206   4.137 -0.2883  0.4396  0.5391
 9011SOL     OW38494   3.043   2.434   1.768 -0.2865 -0.5245  0.3858
 9011SOL    HW138495   3.004   2.502   1.713 -2.1814 -0.8196  1.3468
 9011SOL    HW238496   3.003   2.356   1.730 -0.6877 -0.5274  0.8133
 9012SOL     OW38497   1.255   3.184   6.710  0.2385 -1.1097 -0.5796
 9012SOL    HW138498   1.193   3.253   6.684  2.1048  0.5271 -0.6730
 9012SOL    HW238499   1.205   3.113   6.751 -1.2042 -0.2428 -0.8497
 9013SOL     OW38500   2.852   4.238   8.443 -0.3877  0.1189  0.3558
 9013SOL    HW138501   2.935   4.245   8.394 -0.4561  0.9720  0.3662
 9013SOL    HW238502   2.855   4.149   8.477  1.3036 -0.3457 -0.9545
 9014SOL     OW38503   1.954   4.478   7.655  0.0031  0.1255  0.2468
 9014SOL    HW138504   1.951   4.423   7.577 -2.9132 -2.2739  2.0270
 9014SOL    HW238505   1.862   4.504   7.662 -0.3840 -0.8714 -1.1319
 9015SOL     OW38506   2.257   4.094   3.539  0.5431 -0.1385 -0.0900
 9015SOL    HW138507   2.322   4.159   3.567 -0.3576  0.7779 -0.1431
 9015SOL    HW238508   2.272   4.083   3.446  1.6810  1.8120 -0.1433
 9016SOL     OW38509   3.481   4.456  17.131 -0.2942  0.1573  0.1987
 9016SOL    HW138510   3.454   4.548  17.143  1.3219  0.8061 -1.1986
 9016SOL    HW238511   3.409   4.412  17.175  0.8006 -0.4376  1.3725
 9017SOL     OW38512   0.274   4.394  10.134  0.7457 -0.1930 -0.6663
 9017SOL    HW138513   0.223   4.324  10.093  1.0468 -0.5068 -0.5089
 9017SOL    HW238514   0.315   4.435  10.057  1.0028  2.2525  0.7704
 9018SOL     OW38515   2.598   3.613  15.553 -0.2499  0.8830 -0.2104
 9018SOL    HW138516   2.597   3.641  15.645  1.2376 -0.9233  0.3637
 9018SOL    HW238517   2.685   3.621  15.514 -0.1331  0.9660  0.0668
 9019SOL     OW38518   2.047   1.937  11.221 -0.0891 -0.2258  0.6059
 9019SOL    HW138519   2.003   1.905  11.300 -1.2967  0.0309  0.0355
 9019SOL    HW238520   2.062   2.028  11.245  1.2855 -0.1640 -0.4932
 9020SOL     OW38521   0.045   1.264   2.646  0.1479 -0.2264  0.2952
 9020SOL    HW138522   0.048   1.190   2.585 -0.4016 -0.0182  0.0225
 9020SOL    HW238523   0.123   1.309   2.614  0.0965 -1.0563 -1.0230
 9021SOL     OW38524   0.019   1.178   3.011  0.1266 -0.1863 -0.2099
 9021SOL    HW138525   4.665   1.122   3.028 -0.5970  0.9136  0.1860
 9021SOL    HW238526   0.028   1.231   3.090  2.3263 -1.6139  0.5122
 9022SOL     OW38527   2.045   2.163  15.788  0.1348 -0.5371  0.1086
 9022SOL    HW138528   1.981   2.202  15.730  0.1530  1.5579  1.5105
 9022SOL    HW238529   2.131   2.181  15.748  0.5688 -1.7226  0.4910
 9023SOL     OW38530   4.298   2.600   7.465  0.3609  0.1495  1.0181
 9023SOL    HW138531   4.343   2.516   7.465  0.1988  0.0602  1.8909
 9023SOL    HW238532   4.363   2.667   7.488  0.9220 -0.9836  2.7986
 9024SOL     OW38533   2.275   2.198   8.185 -0.2827  0.5693  0.2953
 9024SOL    HW138534   2.231   2.274   8.147  1.4928  1.3675 -0.1736
 9024SOL    HW238535   2.208   2.161   8.243  0.0305 -1.9418 -0.9168
 9025SOL     OW38536   3.077   2.390   5.724 -0.4976 -0.6815  0.3159
 9025SOL    HW138537   3.149   2.345   5.767 -0.2987  0.4466  1.1755
 9025SOL    HW238538   3.026   2.320   5.684  0.3995 -1.0465 -0.1855
 9026SOL     OW38539   2.350   4.569   0.082  0.4584  0.2440 -0.2181
 9026SOL    HW138540   2.277   4.617   0.043 -0.4294 -0.9699 -0.0388
 9026SOL    HW238541   2.424   4.615   0.043  1.7657 -1.1343  0.6285
 9027SOL     OW38542   1.959   0.199   1.376 -0.2835 -0.0740  0.7111
 9027SOL    HW138543   2.050   0.228   1.371 -0.1511 -0.9517 -1.7626
 9027SOL    HW238544   1.917   0.264   1.433  1.7286  0.0221  2.0998
 9028SOL     OW38545   0.179   0.631   5.881 -0.3891  0.3659 -0.6139
 9028SOL    HW138546   0.167   0.536   5.889 -0.7073  0.7306  3.2247
 9028SOL    HW238547   0.205   0.636   5.789  0.9474 -2.0568 -0.3881
 9029SOL     OW38548   1.014   3.383  11.115 -0.8804  0.1105 -0.4861
 9029SOL    HW138549   1.057   3.423  11.040 -0.2282  2.4298  1.1098
 9029SOL    HW238550   0.974   3.462  11.151  0.9812  0.8980 -0.1577
 9030SOL     OW38551   4.719   2.134  12.720  0.0346  0.6117 -0.4862
 9030SOL    HW138552   0.054   2.209  12.733 -2.2462  2.3209 -0.2115
 9030SOL    HW238553   4.698   2.157  12.630 -0.1409 -1.2481 -0.9194
 9031SOL     OW38554   4.346   3.872   4.933  0.0573 -0.4769  0.7576
 9031SOL    HW138555   4.395   3.911   5.006 -2.1735  0.3380  1.8341
 9031SOL    HW238556   4.319   3.958   4.901  2.1697 -0.4768 -1.0058
 9032SOL     OW38557   3.206   1.769  14.251 -0.1994 -0.5143 -0.5348
 9032SOL    HW138558   3.139   1.833  14.227 -0.3082  0.0299  1.1998
 9032SOL    HW238559   3.156   1.707  14.304 -2.1576 -0.5651 -2.4095
 9033SOL     OW38560   2.148   4.390  17.389 -0.1913  0.2353  0.1642
 9033SOL    HW138561   2.101   4.464  17.428 -2.0316 -1.2483  0.7821
 9033SOL    HW238562   2.210   4.431  17.328  1.4887 -1.5167  0.6953
 9034SOL     OW38563   1.079   0.183  17.455 -0.0953 -0.3654  0.9461
 9034SOL    HW138564   1.098   0.245  17.525  0.9524 -1.1374  1.3369
 9034SOL    HW238565   1.081   0.105  17.509  1.9822 -1.1885 -0.3283
 9035SOL     OW38566   4.258   1.770   1.773 -0.0988 -0.2264  0.0507
 9035SOL    HW138567   4.289   1.846   1.823  0.4786  0.3507 -1.1837
 9035SOL    HW238568   4.185   1.741   1.827  2.3606 -0.4799  3.2898
 9036SOL     OW38569   0.656   3.276   7.038  0.4350  0.2656 -0.4001
 9036SOL    HW138570   0.673   3.307   6.949  0.1655  1.3764 -0.0602
 9036SOL    HW238571   0.702   3.337   7.095  1.1407  1.0216 -1.7747
 9037SOL     OW38572   0.484   1.774  11.433  0.2544 -1.1298  0.0246
 9037SOL    HW138573   0.429   1.708  11.390 -1.1147  0.7687 -1.1189
 9037SOL    HW238574   0.528   1.795  11.350 -3.2675  1.0273 -1.2719
 9038SOL     OW38575   3.625   2.218   2.292  0.3962  0.0039 -0.4198
 9038SOL    HW138576   3.640   2.313   2.288 -0.0220  0.0714 -0.4051
 9038SOL    HW238577   3.628   2.195   2.199 -2.4618  1.2660 -0.8207
 9039SOL     OW38578   3.477   2.963   5.803 -0.0375  0.4222  0.0778
 9039SOL    HW138579   3.393   3.000   5.827 -0.3250  0.1648 -0.5399
 9039SOL    HW238580   3.441   2.885   5.761 -0.3465 -0.8645  2.7552
 9040SOL     OW38581   4.424   3.400  12.617 -0.0146 -0.2342 -0.1887
 9040SOL    HW138582   4.369   3.470  12.581 -0.0696 -0.5916 -0.8171
 9040SOL    HW238583   4.470   3.440  12.689 -1.4270 -0.0438  0.6143
 9041SOL     OW38584   3.725   1.413   5.306 -0.1136  0.1054 -0.6162
 9041SOL    HW138585   3.698   1.419   5.398  2.7178  1.6226  0.1278
 9041SOL    HW238586   3.736   1.319   5.293  2.1696  0.2718 -0.0256
 9042SOL     OW38587   1.109   3.476   5.348  0.4188  0.1139 -0.0919
 9042SOL    HW138588   1.163   3.552   5.330 -0.8078  1.5705  2.3363
 9042SOL    HW238589   1.028   3.516   5.381  1.0722  1.5493 -0.2397
 9043SOL     OW38590   2.832   1.974   3.963  0.0767 -0.0766  0.6438
 9043SOL    HW138591   2.831   2.069   3.956  0.0519 -0.3444 -3.0651
 9043SOL    HW238592   2.834   1.946   3.872 -2.2045  2.2371 -0.1180
 9044SOL     OW38593   3.826   1.986  17.252 -0.5040  0.2275  0.3293
 9044SOL    HW138594   3.850   2.056  17.312  1.6148 -0.0323 -0.2274
 9044SOL    HW238595   3.776   1.931  17.312 -0.7543  0.6159  0.4835
 9045SOL     OW38596   1.469   3.160   3.787 -0.1026  0.1774  0.2887
 9045SOL    HW138597   1.409   3.203   3.848 -0.7877  0.0412 -0.2918
 9045SOL    HW238598   1.430   3.166   3.700  0.3138  2.3804  0.2705
 9046SOL     OW38599   0.511   4.478  10.984  0.0837  0.3407 -0.2528
 9046SOL    HW138600   0.597   4.511  11.009  0.3711 -0.0035 -0.8002
 9046SOL    HW238601   0.502   4.520  10.899  0.3101  0.9929  0.0464
 9047SOL     OW38602   4.680   3.124  12.849 -0.0882  0.5599 -0.2768
 9047SOL    HW138603   4.684   3.142  12.755  0.0906  3.7528  0.3299
 9047SOL    HW238604   4.593   3.085  12.857  0.8669 -2.0677 -2.5655
 9048SOL     OW38605   0.452   2.562   9.730 -0.1276  0.8022  0.8597
 9048SOL    HW138606   0.470   2.470   9.716  1.1101  1.3332 -1.0219
 9048SOL    HW238607   0.542   2.590   9.718  0.7311 -3.2970 -2.0011
 9049SOL     OW38608   4.620   0.897   1.211  0.0663  0.2032 -0.0037
 9049SOL    HW138609   4.601   0.964   1.146  0.2864 -1.1911 -1.5086
 9049SOL    HW238610   4.714   0.906   1.225 -0.2346  1.5509  1.2065
 9050SOL     OW38611   3.825   2.517  12.393  0.0704  0.3854 -0.0575
 9050SOL    HW138612   3.836   2.612  12.397 -0.6780  0.4168  1.1754
 9050SOL    HW238613   3.739   2.509  12.353 -1.0031 -0.9484  2.5316
 9051SOL     OW38614   1.036   4.581  10.173  0.0639  0.0106 -0.2644
 9051SOL    HW138615   1.077   4.556  10.256  0.5345  0.1227 -0.4654
 9051SOL    HW238616   1.078   4.518  10.115  0.6539  0.6024 -0.4810
 9052SOL     OW38617   2.562   0.865   1.726 -0.3949 -0.2098 -0.9688
 9052SOL    HW138618   2.565   0.856   1.821  1.9634  2.0484 -0.8420
 9052SOL    HW238619   2.646   0.831   1.698  0.2177 -0.2230  0.8890
 9053SOL     OW38620   1.657   4.496   7.697  0.2495  0.1680 -0.0210
 9053SOL    HW138621   1.629   4.472   7.785  1.8032  2.0688  1.0001
 9053SOL    HW238622   1.678   4.587   7.719 -2.6553  1.3716 -2.2326
 9054SOL     OW38623   3.178   4.622   1.930 -0.3376 -0.3840 -0.3104
 9054SOL    HW138624   3.123   4.669   1.992 -1.0797  0.6597 -1.7736
 9054SOL    HW238625   3.247   4.598   1.992 -0.4912 -2.3301 -0.9115
 9055SOL     OW38626   1.638   4.093  17.102 -0.1238  0.0803  0.0433
 9055SOL    HW138627   1.585   4.150  17.158  1.4084  2.1817 -0.6441
 9055SOL    HW238628   1.594   4.008  17.107 -0.3393  0.0560 -2.2758
 9056SOL     OW38629   1.944   3.051   3.316  0.6649  0.3827  0.5445
 9056SOL    HW138630   1.950   3.098   3.233  0.9973  1.6884  1.3085
 9056SOL    HW238631   1.998   2.976   3.293 -0.2409  0.2457 -1.0909
 9057SOL     OW38632   0.507   1.534   2.777  0.2162  0.2146 -0.0724
 9057SOL    HW138633   0.454   1.466   2.736 -0.0704  1.1129 -1.1815
 9057SOL    HW238634   0.594   1.501   2.754  0.7222  0.8482  0.9106
 9058SOL     OW38635   0.637   0.505   6.024 -0.4342 -0.3858 -0.0607
 9058SOL    HW138636   0.590   0.425   6.047  2.4716 -2.4196 -1.2220
 9058SOL    HW238637   0.724   0.470   6.005 -0.9882 -1.1091 -1.2318
 9059SOL     OW38638   2.008   0.882  13.057  0.0390  0.0325 -0.5334
 9059SOL    HW138639   1.987   0.823  13.130 -3.1373  0.0859 -1.4149
 9059SOL    HW238640   1.979   0.969  13.083  0.2063  0.0669 -0.4638
 9060SOL     OW38641   4.256   0.715   2.458 -0.3569  0.4240  0.1616
 9060SOL    HW138642   4.232   0.788   2.401  3.6226  0.0803 -1.9847
 9060SOL    HW238643   4.341   0.739   2.495  1.0616 -0.3286 -2.5777
 9061SOL     OW38644   3.047   3.915   2.919 -0.2280  0.1869  0.2575
 9061SOL    HW138645   3.098   3.994   2.901  0.3752 -0.5766 -1.3918
 9061SOL    HW238646   3.116   3.850   2.932 -0.0548  0.0924 -1.0861
 9062SOL     OW38647   1.320   0.720   2.626  0.0710 -0.2395 -0.3172
 9062SOL    HW138648   1.357   0.770   2.698 -2.0112 -1.1843  1.4027
 9062SOL    HW238649   1.234   0.697   2.661  0.8878 -0.3404  1.6058
 9063SOL     OW38650   0.526   1.150   6.816  0.5928 -0.1963 -0.4017
 9063SOL    HW138651   0.451   1.105   6.776  0.7888 -1.1536  0.3071
 9063SOL    HW238652   0.513   1.238   6.780  0.1682 -0.7554 -1.6031
 9064SOL     OW38653   4.492   3.224   4.045 -0.1125  0.4941 -0.4016
 9064SOL    HW138654   4.566   3.283   4.060 -0.9456  1.8705 -1.7453
 9064SOL    HW238655   4.468   3.199   4.135 -0.9450  1.3856 -0.3716
 9065SOL     OW38656   0.018   1.533   8.253 -0.7650 -0.4009  0.2834
 9065SOL    HW138657   0.017   1.547   8.159 -0.3037 -0.6241  0.2470
 9065SOL    HW238658   4.663   1.479   8.268  0.9306 -2.9618 -0.2479
 9066SOL     OW38659   0.135   1.453   2.440  0.4801  0.2356  0.0041
 9066SOL    HW138660   0.077   1.523   2.469 -0.6138 -0.8604  0.4371
 9066SOL    HW238661   0.080   1.415   2.371  0.4643  0.2676 -0.0009
 9067SOL     OW38662   4.668   2.696   6.369 -0.1276 -0.4918  0.4599
 9067SOL    HW138663   4.694   2.604   6.359  3.6144  0.8356 -2.2982
 9067SOL    HW238664   4.708   2.734   6.290 -2.5744 -0.3027 -0.6698
 9068SOL     OW38665   2.726   2.332  13.984 -0.5101 -0.3961 -0.7633
 9068SOL    HW138666   2.716   2.355  14.076  1.5576  0.9799 -0.8802
 9068SOL    HW238667   2.660   2.394  13.953  0.2978  1.5010  1.3451
 9069SOL     OW38668   0.814   1.445  13.850  0.0279 -0.3461  0.0400
 9069SOL    HW138669   0.776   1.436  13.937  1.0864 -0.1786  0.5265
 9069SOL    HW238670   0.792   1.535  13.826 -3.3294 -1.4137 -0.7708
 9070SOL     OW38671   3.905   3.170  14.238 -0.1045 -0.4258 -0.1276
 9070SOL    HW138672   3.962   3.247  14.243 -1.5657  0.7483 -1.3711
 9070SOL    HW238673   3.839   3.173  14.307 -0.7123 -2.3069 -0.6379
 9071SOL     OW38674   2.356   3.701   3.890 -0.1767 -0.1361  0.3145
 9071SOL    HW138675   2.272   3.733   3.857  0.3716 -1.7191 -2.6385
 9071SOL    HW238676   2.366   3.747   3.973 -0.5932  0.3164  0.1131
 9072SOL     OW38677   0.130   2.603   0.423  0.2789 -0.1455  0.3666
 9072SOL    HW138678   0.188   2.573   0.354 -0.9390  1.5695 -1.4265
 9072SOL    HW238679   0.197   2.643   0.480  2.0132  0.7861 -2.3107
 9073SOL     OW38680   3.747   0.821  13.043  0.4535  0.1373  0.4010
 9073SOL    HW138681   3.797   0.895  13.009 -0.7489  0.4165 -0.7755
 9073SOL    HW238682   3.661   0.861  13.049  0.5484  0.7570 -2.5078
 9074SOL     OW38683   3.681   3.523   0.520  0.2692  0.6206 -0.5078
 9074SOL    HW138684   3.586   3.514   0.526  0.1926  0.2177 -2.2283
 9074SOL    HW238685   3.701   3.451   0.579  0.8335 -0.7583 -2.3526
 9075SOL     OW38686   3.645   3.417   8.097  0.0852  0.0702 -0.1337
 9075SOL    HW138687   3.604   3.339   8.061  0.2545 -0.6455  1.2197
 9075SOL    HW238688   3.722   3.422   8.040  1.1872  1.6303  1.4902
 9076SOL     OW38689   2.212   1.614   5.636  0.3793  0.4859 -0.1378
 9076SOL    HW138690   2.223   1.523   5.608 -3.6943 -0.4505  1.2559
 9076SOL    HW238691   2.129   1.627   5.591 -0.5400  0.8493  1.6617
 9077SOL     OW38692   3.868   4.051   6.526  0.0458 -0.0483 -0.6419
 9077SOL    HW138693   3.796   4.110   6.504 -0.7989  0.1631  2.6485
 9077SOL    HW238694   3.820   3.969   6.541  0.4969 -0.2931 -0.5125
 9078SOL     OW38695   3.686   2.656   1.586 -0.0663 -0.0887 -0.0878
 9078SOL    HW138696   3.721   2.596   1.652  0.4430  0.3249  0.0228
 9078SOL    HW238697   3.720   2.742   1.613 -0.4194  0.4808 -1.4729
 9079SOL     OW38698   0.890   0.620   4.936  0.2737 -0.4345 -0.3098
 9079SOL    HW138699   0.825   0.612   4.866 -0.8333 -0.0473  0.6806
 9079SOL    HW238700   0.924   0.531   4.933  1.5991  0.0952 -1.0399
 9080SOL     OW38701   3.367   3.540   8.343  0.0314 -0.1388  0.7306
 9080SOL    HW138702   3.419   3.620   8.354 -1.8129  0.8888  1.9606
 9080SOL    HW238703   3.307   3.555   8.270  1.0066 -1.2602 -0.3055
 9081SOL     OW38704   2.005   2.209   5.329  0.0454  0.4903 -0.3184
 9081SOL    HW138705   1.955   2.282   5.293  1.1475  1.2981 -0.1995
 9081SOL    HW238706   2.063   2.195   5.254 -0.3165 -0.8112 -0.3682
 9082SOL     OW38707   4.537   1.067   5.892 -0.2015  0.1659  0.2028
 9082SOL    HW138708   4.562   1.134   5.829 -1.3206  0.0724 -0.3330
 9082SOL    HW238709   4.446   1.092   5.905  0.2954  0.9853  2.2575
 9083SOL     OW38710   0.023   2.408  16.698 -0.3758 -0.3531 -0.7349
 9083SOL    HW138711   0.044   2.317  16.718 -2.5264 -0.5983  0.4243
 9083SOL    HW238712   0.104   2.448  16.731 -0.8888  0.3495 -0.3356
 9084SOL     OW38713   3.887   4.104   3.413 -0.1472 -0.0688 -0.6900
 9084SOL    HW138714   3.963   4.136   3.365  0.3093 -0.3100 -0.1290
 9084SOL    HW238715   3.927   4.094   3.500  0.9490  1.5564 -1.0038
 9085SOL     OW38716   2.636   4.508   2.123 -0.4198  0.3777  0.0943
 9085SOL    HW138717   2.584   4.507   2.043  0.4240  0.8330 -0.4598
 9085SOL    HW238718   2.572   4.561   2.170  1.1685  1.5576  0.9462
 9086SOL     OW38719   4.392   4.561   7.440  0.1669  0.3745  0.0910
 9086SOL    HW138720   4.442   4.639   7.417 -2.0483  1.3545 -1.2986
 9086SOL    HW238721   4.467   4.506   7.464 -0.6696  0.4956  2.9801
 9087SOL     OW38722   2.762   3.740   5.456 -0.2839  0.0070 -0.0682
 9087SOL    HW138723   2.749   3.697   5.540 -2.0173  1.6856  0.5197
 9087SOL    HW238724   2.674   3.768   5.429  0.2879  2.6928  0.8450
 9088SOL     OW38725   0.893   3.755   5.892 -0.3000 -0.1098  0.0728
 9088SOL    HW138726   0.878   3.799   5.976  1.8025  1.7393 -0.5225
 9088SOL    HW238727   0.975   3.710   5.910 -0.8573 -0.8246  0.8290
 9089SOL     OW38728   4.478   4.540   2.854 -0.3293 -0.0431  0.4119
 9089SOL    HW138729   4.411   4.606   2.840 -1.0950 -1.0924 -0.8143
 9089SOL    HW238730   4.433   4.456   2.852  0.7933 -0.6277 -0.1388
 9090SOL     OW38731   3.794   4.443  16.734  0.4972 -0.0048  0.7937
 9090SOL    HW138732   3.746   4.512  16.781  1.5274  1.3956 -0.2046
 9090SOL    HW238733   3.864   4.428  16.796  3.1811  2.8783 -1.5045
 9091SOL     OW38734   3.392   3.629   7.135 -0.0695  0.3660  0.1099
 9091SOL    HW138735   3.458   3.559   7.127 -0.2941  0.0709  0.8958
 9091SOL    HW238736   3.425   3.709   7.094 -0.0491  1.3068  1.9962
 9092SOL     OW38737   4.048   3.496   9.480  0.1235  0.1160  0.1886
 9092SOL    HW138738   4.059   3.564   9.547 -2.8997  1.3223 -0.5567
 9092SOL    HW238739   4.008   3.430   9.537  1.2452  0.9216  1.9216
 9093SOL     OW38740   2.622   4.130   1.806 -0.3700  0.0179 -0.2251
 9093SOL    HW138741   2.687   4.152   1.872  1.8628 -0.3743 -2.2681
 9093SOL    HW238742   2.598   4.039   1.825 -1.0267  0.2649  0.1189
 9094SOL     OW38743   2.259   4.207   2.575 -0.4566 -0.9415 -0.7465
 9094SOL    HW138744   2.299   4.130   2.616 -1.6005 -1.0981  0.0458
 9094SOL    HW238745   2.266   4.193   2.480  1.3623  2.0140 -1.0493
 9095SOL     OW38746   0.437   2.440  10.102 -0.3535 -0.3704 -0.5063
 9095SOL    HW138747   0.408   2.429  10.011 -1.0911 -0.7400 -0.2265
 9095SOL    HW238748   0.507   2.374  10.103  1.8624  1.9897  0.3917
 9096SOL     OW38749   2.464   1.237   2.464 -0.0744 -0.1294  0.0818
 9096SOL    HW138750   2.539   1.283   2.426 -1.3100  0.4296 -1.6891
 9096SOL    HW238751   2.423   1.309   2.512 -1.0469  0.7481 -2.0581
 9097SOL     OW38752   2.868   3.918   5.076 -0.2174 -0.0526  0.3539
 9097SOL    HW138753   2.797   3.905   5.013  0.2580 -0.6698 -0.0471
 9097SOL    HW238754   2.938   3.962   5.029 -2.2288  0.1658 -2.4419
 9098SOL     OW38755   1.625   1.830   7.927  0.2464 -0.3324 -0.7600
 9098SOL    HW138756   1.601   1.802   8.016  0.2837  1.5921 -0.1461
 9098SOL    HW238757   1.710   1.786   7.922  0.0098 -0.9981  0.7987
 9099SOL     OW38758   2.352   2.954  13.545  0.2447  0.6146  0.0908
 9099SOL    HW138759   2.354   3.001  13.461 -0.1551 -3.1117 -2.0088
 9099SOL    HW238760   2.441   2.979  13.570  0.7072  0.8156 -1.7258
 9100SOL     OW38761   2.011   4.221   1.301  0.2065 -0.1038 -0.1168
 9100SOL    HW138762   1.991   4.275   1.378  2.0039 -0.3904  0.5495
 9100SOL    HW238763   2.013   4.133   1.339 -1.9604 -0.4273 -0.7240
 9101SOL     OW38764   3.124   3.438   4.746  0.5230  0.2384  0.0656
 9101SOL    HW138765   3.183   3.363   4.757 -0.5742 -0.8670 -1.5758
 9101SOL    HW238766   3.100   3.432   4.653  4.6732 -0.8716 -0.9644
 9102SOL     OW38767   0.717   0.840  13.529  0.3451  0.0469  0.0317
 9102SOL    HW138768   0.774   0.763  13.518  0.9973  0.4509  0.6030
 9102SOL    HW238769   0.628   0.810  13.512  0.5894 -0.2659 -0.7121
 9103SOL     OW38770   1.277   3.966   0.704  0.2670  0.5648  0.1430
 9103SOL    HW138771   1.222   3.910   0.650  1.6592 -0.3802 -0.3045
 9103SOL    HW238772   1.324   4.017   0.638 -2.9285 -0.1188 -2.6408
 9104SOL     OW38773   1.948   1.581   8.829 -1.0078  0.0921  0.0365
 9104SOL    HW138774   1.969   1.657   8.883  0.3511 -1.4209  1.6028
 9104SOL    HW238775   1.857   1.601   8.805 -1.0888 -0.9898 -0.5730
 9105SOL     OW38776   0.931   2.825   3.513  0.0694 -0.5705  0.3628
 9105SOL    HW138777   0.990   2.838   3.588 -0.6543  0.8977  0.6683
 9105SOL    HW238778   0.984   2.866   3.445  0.5045 -0.7180  0.6128
 9106SOL     OW38779   3.317   0.899  12.293 -0.3874  0.0189 -0.0431
 9106SOL    HW138780   3.320   0.991  12.317  0.6514  0.4898 -2.0002
 9106SOL    HW238781   3.260   0.862  12.360 -1.0649  0.6452 -0.2737
 9107SOL     OW38782   4.281   3.410   9.975 -0.1175  0.6106  0.3599
 9107SOL    HW138783   4.344   3.406   9.903 -0.1835 -1.3346  0.4204
 9107SOL    HW238784   4.334   3.391  10.052 -0.6434 -3.2617 -0.2539
 9108SOL     OW38785   0.425   4.672   7.016  0.3863  0.3167  0.4099
 9108SOL    HW138786   0.360   4.698   6.951 -1.2100 -1.1168  1.4129
 9108SOL    HW238787   0.374   4.616   7.075 -0.5874  1.4687  0.6495
 9109SOL     OW38788   2.059   3.550  15.246  0.1679 -0.0695  0.0637
 9109SOL    HW138789   2.040   3.458  15.223  0.8942  0.1612 -1.4599
 9109SOL    HW238790   2.024   3.546  15.335  0.5771  2.3752  0.3096
 9110SOL     OW38791   0.626   3.535   1.871  0.3655 -0.0051  0.4612
 9110SOL    HW138792   0.542   3.565   1.837  0.5210 -1.5599 -1.3246
 9110SOL    HW238793   0.695   3.573   1.817 -0.1009 -0.7921 -0.6871
 9111SOL     OW38794   4.480   2.100   3.723 -0.4038  0.0222  0.2034
 9111SOL    HW138795   4.529   2.179   3.702 -0.1607 -0.0526  0.4948
 9111SOL    HW238796   4.535   2.071   3.795  1.5349  0.2825 -1.1773
 9112SOL     OW38797   0.898   0.030   9.981  0.0219 -0.2598  0.1084
 9112SOL    HW138798   0.929   0.010  10.070 -0.1511 -0.9384  0.0134
 9112SOL    HW238799   0.820   4.698   9.976 -1.1185  1.5673 -1.7413
 9113SOL     OW38800   0.970   2.170  12.496  0.1353  0.1108  0.4723
 9113SOL    HW138801   1.030   2.244  12.500 -0.2004  0.3441  1.4201
 9113SOL    HW238802   1.012   2.116  12.564  1.2244  0.0516 -0.2598
 9114SOL     OW38803   4.292   0.631   2.776 -0.0868  0.2813  0.8663
 9114SOL    HW138804   4.342   0.667   2.703 -0.7457 -0.6570 -0.0615
 9114SOL    HW238805   4.236   0.702   2.806 -0.3425  0.3135  0.3144
 9115SOL     OW38806   1.353   2.963   3.537  0.1971 -0.9035 -0.0031
 9115SOL    HW138807   1.386   2.963   3.447 -2.3954  2.7751 -0.9753
 9115SOL    HW238808   1.393   3.044   3.566 -1.0548 -0.3260  0.1246
 9116SOL     OW38809   1.935   0.818  10.605  0.0148 -0.3217  0.2037
 9116SOL    HW138810   1.998   0.885  10.632 -0.1897  0.6937 -1.8128
 9116SOL    HW238811   1.985   0.755  10.554  0.3234 -1.5738  2.0471
 9117SOL     OW38812   1.264   1.040   0.157  0.0321 -0.0447  0.0557
 9117SOL    HW138813   1.209   1.116   0.178 -0.0509 -0.3868  1.0690
 9117SOL    HW238814   1.236   1.022   0.067  1.1542 -1.7006  0.0392
 9118SOL     OW38815   3.446   0.137   4.160  0.1489 -0.4264  0.3186
 9118SOL    HW138816   3.394   0.179   4.091 -1.1853 -1.7570  0.5171
 9118SOL    HW238817   3.385   0.090   4.216  0.1886  0.0700  0.7786
 9119SOL     OW38818   1.557   4.509   0.208 -0.2056 -0.7990  0.0696
 9119SOL    HW138819   1.651   4.496   0.212  0.2952  2.0612 -3.0404
 9119SOL    HW238820   1.554   4.599   0.178  0.3933 -0.5865  0.6408
 9120SOL     OW38821   2.796   2.401   6.610  0.2427 -0.2608  0.2170
 9120SOL    HW138822   2.875   2.351   6.627  1.0447  0.3585 -1.6537
 9120SOL    HW238823   2.725   2.337   6.618 -1.3821  1.6459  1.2328
 9121SOL     OW38824   4.676   2.621   7.977 -0.3353  0.3120  0.5270
 9121SOL    HW138825   4.705   2.534   8.005 -0.2206  0.5525  1.1765
 9121SOL    HW238826   4.673   2.665   8.062  1.7838  3.2380 -0.9068
 9122SOL     OW38827   0.017   0.708   6.773  0.1565 -0.0170 -0.2559
 9122SOL    HW138828   0.092   0.664   6.813  0.6769  1.3653  0.2695
 9122SOL    HW238829   4.673   0.657   6.821 -0.8076 -0.6157 -2.2244
 9123SOL     OW38830   2.329   1.588   7.243 -0.1687  0.2365 -0.2600
 9123SOL    HW138831   2.405   1.534   7.226  0.0711  0.1287  1.1958
 9123SOL    HW238832   2.277   1.527   7.295  1.5929 -2.5751 -1.8283
 9124SOL     OW38833   2.874   4.421   4.945  0.7458 -0.3170  0.2376
 9124SOL    HW138834   2.781   4.444   4.955  1.7142  3.2295  0.9484
 9124SOL    HW238835   2.905   4.511   4.944 -2.8560  0.9578  0.8490
 9125SOL     OW38836   1.162   0.988   5.809  0.4744 -0.0550 -0.1738
 9125SOL    HW138837   1.084   1.039   5.827 -1.0263 -2.0048 -1.1519
 9125SOL    HW238838   1.220   1.028   5.874 -0.0138  0.6969 -0.2090
 9126SOL     OW38839   2.237   3.495   2.272  0.3282 -0.3031 -0.0609
 9126SOL    HW138840   2.226   3.415   2.324 -3.3513  0.9483  1.1458
 9126SOL    HW238841   2.320   3.534   2.301 -0.5635 -1.3426  3.9015
 9127SOL     OW38842   3.042   1.926   7.032  0.2414 -0.2524  0.0181
 9127SOL    HW138843   3.125   1.932   6.984  0.1517  2.1761  0.1962
 9127SOL    HW238844   3.040   2.011   7.075 -1.4623  0.5791 -1.7428
 9128SOL     OW38845   3.537   4.520   8.246 -0.5465  0.5350  0.7293
 9128SOL    HW138846   3.559   4.599   8.295 -2.8279 -0.2567  3.0190
 9128SOL    HW238847   3.624   4.483   8.234 -0.3634  1.0443  0.5208
 9129SOL     OW38848   0.932   2.427   4.948  0.0250  0.4121  0.2103
 9129SOL    HW138849   0.859   2.383   4.992  2.6868 -0.8230  3.3949
 9129SOL    HW238850   1.004   2.421   5.011  1.4959 -1.1621 -1.6127
 9130SOL     OW38851   4.481   3.917   5.970 -0.2437 -0.5987  0.0285
 9130SOL    HW138852   4.448   3.895   6.057 -0.1544 -0.5855  0.0665
 9130SOL    HW238853   4.574   3.936   5.988 -0.4822 -0.3829  1.0496
 9131SOL     OW38854   0.794   4.663   8.632 -0.2163  0.3074 -0.4498
 9131SOL    HW138855   0.845   4.584   8.647 -1.5320 -0.3258  0.7806
 9131SOL    HW238856   0.706   4.630   8.612  0.2335 -0.5434 -1.0636
 9132SOL     OW38857   3.538   2.200   6.750  0.4197 -0.3350  0.0114
 9132SOL    HW138858   3.489   2.230   6.827 -0.5098  0.2354 -0.8003
 9132SOL    HW238859   3.600   2.273   6.752 -0.7455  0.6122  1.0925
 9133SOL     OW38860   4.316   0.304  14.233  0.5026  0.3018  0.3437
 9133SOL    HW138861   4.387   0.367  14.221  0.6740 -0.1354 -0.9412
 9133SOL    HW238862   4.245   0.367  14.221 -0.2608 -0.5896  0.1574
 9134SOL     OW38863   4.703   1.586   7.991  0.1901 -0.4331  0.0162
 9134SOL    HW138864   4.677   1.499   7.960  0.3510 -0.2600 -0.5924
 9134SOL    HW238865   0.024   1.624   7.915 -0.7214 -0.0235 -0.3018
 9135SOL     OW38866   0.576   2.476   6.380  0.1509  0.2029  0.2747
 9135SOL    HW138867   0.589   2.471   6.475  2.7264 -2.0559 -0.2157
 9135SOL    HW238868   0.488   2.514   6.378  1.0125  2.3822  3.4997
 9136SOL     OW38869   3.724   3.719  13.328 -0.4299  0.0346  0.4100
 9136SOL    HW138870   3.651   3.741  13.271 -0.3941  0.5638  0.5679
 9136SOL    HW238871   3.772   3.651  13.280  0.3168  1.3423 -0.7040
 9137SOL     OW38872   3.302   1.014   4.608 -0.6565  0.5455  0.2364
 9137SOL    HW138873   3.342   1.095   4.575 -1.7060  0.6011 -0.9031
 9137SOL    HW238874   3.255   0.985   4.530  1.0471 -2.4835  0.3615
 9138SOL     OW38875   0.208   1.584   9.643 -0.3257  0.1895  0.7269
 9138SOL    HW138876   0.282   1.527   9.621 -0.1915  0.5925  0.1200
 9138SOL    HW238877   0.231   1.605   9.733  0.4980  1.1647  0.2937
 9139SOL     OW38878   2.848   3.249  15.803  0.1007 -0.1086 -0.3259
 9139SOL    HW138879   2.775   3.209  15.850 -0.8368  1.1718 -0.6810
 9139SOL    HW238880   2.894   3.165  15.793  0.0547  0.0081 -1.5119
 9140SOL     OW38881   1.571   4.706  11.804 -0.6684 -0.1158 -0.1158
 9140SOL    HW138882   1.586   4.712  11.898  0.5636 -1.5535 -0.2243
 9140SOL    HW238883   1.505   4.637  11.804  0.8382 -1.5283 -0.4589
 9141SOL     OW38884   4.127   2.160  10.411  0.1016 -0.2095  0.3064
 9141SOL    HW138885   4.124   2.068  10.387  1.6152 -0.5849  1.5778
 9141SOL    HW238886   4.126   2.145  10.506  0.0437  1.2551  0.5477
 9142SOL     OW38887   1.990   4.663   1.422 -0.4430  0.5548 -0.1046
 9142SOL    HW138888   2.068   4.639   1.372  0.6241  4.0962 -0.1527
 9142SOL    HW238889   1.974   0.032   1.398 -0.7663  0.6386  0.4338
 9143SOL     OW38890   2.407   4.355   2.027 -0.1083 -0.3515  0.6006
 9143SOL    HW138891   2.360   4.279   2.061  0.8464 -0.9739  0.5361
 9143SOL    HW238892   2.414   4.327   1.936  1.6129  0.0604  0.6099
 9144SOL     OW38893   4.081   3.349   8.139 -0.2392 -0.1430 -0.1315
 9144SOL    HW138894   4.160   3.296   8.154  1.5174  1.5457 -3.4543
 9144SOL    HW238895   4.038   3.345   8.225  1.4922  0.4919  0.7788
 9145SOL     OW38896   0.549   1.362   7.900  0.7571 -0.3579  0.6874
 9145SOL    HW138897   0.622   1.418   7.873  0.5180 -0.2497  0.2644
 9145SOL    HW238898   0.489   1.427   7.936  0.4568  0.3278 -1.0255
 9146SOL     OW38899   1.452   4.476   1.925  0.1853  0.2761 -0.2571
 9146SOL    HW138900   1.529   4.432   1.889 -0.0988  0.1198 -0.6884
 9146SOL    HW238901   1.409   4.416   1.986  1.4143  1.0524  1.3597
 9147SOL     OW38902   1.018   1.347   0.990  0.2440 -0.2686 -0.0487
 9147SOL    HW138903   1.106   1.371   0.959  0.8004 -0.0495  1.6760
 9147SOL    HW238904   0.961   1.382   0.923 -0.1991 -0.0595  0.4379
 9148SOL     OW38905   4.448   0.736   5.348  0.6385 -0.1608  0.6617
 9148SOL    HW138906   4.360   0.741   5.384  0.2455  2.2422 -0.6192
 9148SOL    HW238907   4.462   0.821   5.305 -0.6640 -0.0736  0.4086
 9149SOL     OW38908   3.623   4.498   7.742 -0.1699  0.4888  0.0204
 9149SOL    HW138909   3.576   4.522   7.822  1.4104  0.9359  0.8163
 9149SOL    HW238910   3.658   4.582   7.713 -0.4904  0.2921 -0.9236
 9150SOL     OW38911   2.978   1.175   1.228 -0.5580 -0.2267  0.1718
 9150SOL    HW138912   3.004   1.264   1.251  1.1814 -0.5515 -0.4975
 9150SOL    HW238913   3.061   1.134   1.202  0.0930  1.1350  0.0656
 9151SOL     OW38914   0.466   2.965   3.898 -0.0536  0.4207  0.3015
 9151SOL    HW138915   0.384   2.965   3.947 -0.1392  0.7901  0.1593
 9151SOL    HW238916   0.527   3.027   3.939  0.4590 -0.8027  1.3727
 9152SOL     OW38917   1.326   4.572  14.303  0.0855  0.7109  0.3159
 9152SOL    HW138918   1.374   4.640  14.349 -1.7281  0.5686  2.4418
 9152SOL    HW238919   1.352   4.490  14.345  0.4099  1.3907  1.4090
 9153SOL     OW38920   0.857   3.572   9.571 -0.2584  0.2004 -0.2086
 9153SOL    HW138921   0.762   3.579   9.569 -0.1595  1.8280  1.4694
 9153SOL    HW238922   0.863   3.517   9.648 -1.5565  1.0572  0.5040
 9154SOL     OW38923   3.481   4.614   8.959 -1.0233 -0.1607 -0.7804
 9154SOL    HW138924   3.545   4.569   9.014 -0.9704  0.7409 -0.0869
 9154SOL    HW238925   3.440   4.534   8.929  0.4234 -0.1115 -2.8712
 9155SOL     OW38926   2.725   2.534  16.316  0.3002  0.1789 -0.2357
 9155SOL    HW138927   2.674   2.613  16.301 -1.5671 -0.9502  0.1265
 9155SOL    HW238928   2.770   2.521  16.233 -0.9643 -2.1270 -0.5614
 9156SOL     OW38929   4.238   3.302   6.266  0.3427  0.2533 -0.2901
 9156SOL    HW138930   4.324   3.341   6.281  1.5393 -2.3216 -0.3698
 9156SOL    HW238931   4.183   3.380   6.275 -0.3818 -0.0572 -2.0997
 9157SOL     OW38932   0.540   4.531   2.140  0.1413  0.0399  0.6928
 9157SOL    HW138933   0.620   4.583   2.137  1.3727 -1.8637  0.5656
 9157SOL    HW238934   0.480   4.606   2.134  1.2691  1.1400  3.3295
 9158SOL     OW38935   0.209   0.377  16.933 -0.2518 -0.1674 -0.6375
 9158SOL    HW138936   0.141   0.358  16.867  0.9594 -1.5041 -1.4940
 9158SOL    HW238937   0.259   0.296  16.931 -0.5778 -0.3655 -0.8920
 9159SOL     OW38938   0.520   4.397   9.260  0.0904  0.2457  0.8572
 9159SOL    HW138939   0.534   4.458   9.187  3.0413 -1.6102 -0.1345
 9159SOL    HW238940   0.521   4.461   9.332  0.1098  1.3218 -0.1057
 9160SOL     OW38941   0.083   2.436   3.894 -0.2704  0.7736  0.0262
 9160SOL    HW138942   0.075   2.475   3.807 -0.3037 -0.9570 -0.7279
 9160SOL    HW238943   0.176   2.448   3.914  0.4607 -2.2045 -1.7553
 9161SOL     OW38944   1.923   0.106   0.411 -0.1312  0.2889  0.7022
 9161SOL    HW138945   1.949   0.045   0.481  2.2627 -1.5701 -1.8187
 9161SOL    HW238946   1.953   0.050   0.340  0.2890 -0.3793  1.4075
 9162SOL     OW38947   0.968   2.252   8.306 -0.8921 -0.4595  0.1534
 9162SOL    HW138948   1.017   2.204   8.373  1.1691 -0.4917 -1.3860
 9162SOL    HW238949   1.035   2.255   8.237 -1.6241 -0.3334 -0.5449
 9163SOL     OW38950   1.790   2.869   6.286 -0.1746  0.8508  0.2919
 9163SOL    HW138951   1.763   2.843   6.197  4.2467 -4.3622  0.4503
 9163SOL    HW238952   1.883   2.884   6.271 -0.0301 -1.9938 -1.7424
 9164SOL     OW38953   4.330   2.448   1.594  0.1142  0.0559  0.4423
 9164SOL    HW138954   4.375   2.442   1.510  0.1008 -0.4011  0.4690
 9164SOL    HW238955   4.253   2.498   1.566 -0.4397 -1.1747 -0.1991
 9165SOL     OW38956   0.528   1.108   8.823  0.5094 -0.7422  0.0650
 9165SOL    HW138957   0.489   1.042   8.765 -0.3820 -1.0450  1.0089
 9165SOL    HW238958   0.445   1.148   8.851  0.0704 -0.3484 -1.7951
 9166SOL     OW38959   4.005   0.978   3.767 -0.3499  0.2110  0.2082
 9166SOL    HW138960   4.081   1.033   3.782  1.3038 -1.6938 -1.1492
 9166SOL    HW238961   4.054   0.896   3.769 -0.6833  0.0465  1.6186
 9167SOL     OW38962   2.213   3.906   9.791 -0.2857  0.0569  0.1256
 9167SOL    HW138963   2.144   3.858   9.746 -0.6416  1.2123 -0.5508
 9167SOL    HW238964   2.237   3.860   9.872  0.6835  0.5138  0.1016
 9168SOL     OW38965   3.751   1.793  16.111 -0.3946  0.4278  0.9165
 9168SOL    HW138966   3.808   1.747  16.173  2.1472  0.5999 -1.3116
 9168SOL    HW238967   3.745   1.733  16.037  0.4618  2.6595 -0.9603
 9169SOL     OW38968   3.556   3.726   2.946  0.5896  0.4662  0.5753
 9169SOL    HW138969   3.532   3.728   3.039  0.2514  2.0419  0.4508
 9169SOL    HW238970   3.516   3.808   2.915  1.1518  0.2413 -0.7398
 9170SOL     OW38971   1.742   1.587   8.340  0.3310  0.1787  0.8232
 9170SOL    HW138972   1.721   1.509   8.392  0.1489 -0.3379 -0.0422
 9170SOL    HW238973   1.819   1.549   8.298  0.2815  1.1483 -0.1220
 9171SOL     OW38974   3.510   2.231   4.177  0.5242  0.9117  0.1096
 9171SOL    HW138975   3.500   2.312   4.226 -0.5732  0.5940  0.4108
 9171SOL    HW238976   3.587   2.189   4.213  1.7609  1.6083 -1.7292
 9172SOL     OW38977   1.694   0.706  16.454  0.4472  0.0527  0.3848
 9172SOL    HW138978   1.742   0.740  16.529  0.1067  1.8222 -0.2069
 9172SOL    HW238979   1.643   0.632  16.488  0.8422 -0.0297  0.7948
 9173SOL     OW38980   1.818   2.295   5.757  0.1728 -0.1359 -0.6745
 9173SOL    HW138981   1.777   2.236   5.693 -0.7040 -0.1512 -0.0922
 9173SOL    HW238982   1.739   2.341   5.783  0.4668  1.0048 -1.7443
 9174SOL     OW38983   0.053   2.534   8.790 -0.0788  0.4170  0.0396
 9174SOL    HW138984   0.109   2.587   8.734  0.2141 -0.8998 -0.8956
 9174SOL    HW238985   0.051   2.568   8.880 -3.2880 -0.1671  0.2120
 9175SOL     OW38986   0.462   3.190   4.651  0.0329 -0.4676 -0.0096
 9175SOL    HW138987   0.523   3.210   4.722  0.4979  1.2077 -0.8780
 9175SOL    HW238988   0.392   3.252   4.672  1.2732  0.8454  0.2639
 9176SOL     OW38989   2.547   2.801   2.977  0.1090 -0.5258 -0.0392
 9176SOL    HW138990   2.505   2.768   3.056  2.7111  0.0539  1.5922
 9176SOL    HW238991   2.499   2.882   2.962  0.8972  0.0607  0.6118
 9177SOL     OW38992   3.071   4.247   0.616  0.2443  0.3260  0.2228
 9177SOL    HW138993   3.134   4.318   0.599 -0.1976  0.4563 -0.8977
 9177SOL    HW238994   3.103   4.222   0.703  1.7165 -3.1246 -1.3275
 9178SOL     OW38995   3.551   2.480   9.284 -0.0896 -0.6713 -0.0310
 9178SOL    HW138996   3.527   2.389   9.297 -3.6890  0.2909  0.1330
 9178SOL    HW238997   3.611   2.503   9.355  1.6353  1.7630 -2.2643
 9179SOL     OW38998   1.028   3.991  12.557  0.3440  0.1643  0.4497
 9179SOL    HW138999   1.054   4.046  12.483 -0.0449 -2.1523 -1.4181
 9179SOL    HW239000   0.974   4.042  12.618 -0.2033 -0.2501  0.3132
 9180SOL     OW39001   2.251   2.581   6.622  0.5580 -0.2564 -0.1066
 9180SOL    HW139002   2.324   2.519   6.626  0.2002 -0.7453 -1.1013
 9180SOL    HW239003   2.284   2.653   6.675  0.6244  0.4731 -1.1247
 9181SOL     OW39004   3.610   4.242  15.239  0.0663  0.0553  0.5236
 9181SOL    HW139005   3.581   4.327  15.207 -1.9878 -0.0650  2.0691
 9181SOL    HW239006   3.530   4.191  15.249  0.5505 -0.9344 -0.6454
 9182SOL     OW39007   4.562   4.019   3.435 -0.1225 -0.2712  0.0693
 9182SOL    HW139008   4.502   4.091   3.452  0.8263  0.6019 -0.3113
 9182SOL    HW239009   4.572   3.971   3.517  1.4175 -0.3683 -0.1870
 9183SOL     OW39010   1.558   2.066  10.305 -0.9891  0.1933  0.1849
 9183SOL    HW139011   1.610   2.022  10.372 -0.4147  0.0526 -0.3550
 9183SOL    HW239012   1.541   2.148  10.351 -3.2992  0.1089 -0.4968
 9184SOL     OW39013   4.451   2.322   4.510 -0.3965 -0.2446 -0.3660
 9184SOL    HW139014   4.357   2.329   4.526 -0.4188  0.4396 -0.8159
 9184SOL    HW239015   4.478   2.336   4.601  0.6653 -0.0267 -0.7185
 9185SOL     OW39016   0.816   3.450   5.115  0.7283  0.2558 -0.0368
 9185SOL    HW139017   0.832   3.368   5.163  0.0813  0.6766  0.9191
 9185SOL    HW239018   0.841   3.432   5.025 -0.3641 -0.4971 -0.1891
 9186SOL     OW39019   0.612   2.902   7.791  0.3436  0.3241 -0.6549
 9186SOL    HW139020   0.518   2.884   7.792  0.1724  1.0636 -2.8599
 9186SOL    HW239021   0.615   2.965   7.863 -3.0319 -0.1689 -0.1142
 9187SOL     OW39022   4.202   3.351   8.661  0.2599 -0.3529 -0.0454
 9187SOL    HW139023   4.244   3.411   8.598  1.1818  0.6949  1.5784
 9187SOL    HW239024   4.256   3.274   8.646  0.0136 -0.6315  0.4980
 9188SOL     OW39025   1.503   2.929   2.678  0.2284 -0.1654 -0.1104
 9188SOL    HW139026   1.522   2.860   2.742  2.1724 -0.6980 -1.2348
 9188SOL    HW239027   1.419   2.897   2.645  0.5208 -0.9065 -0.1538
 9189SOL     OW39028   1.323   1.482   2.715 -0.4902  0.2286  0.1023
 9189SOL    HW139029   1.254   1.536   2.676  1.9277  3.3617  0.1862
 9189SOL    HW239030   1.322   1.410   2.651 -0.3446  0.6302 -0.3482
 9190SOL     OW39031   3.964   1.711   1.351 -0.3488 -0.2282  0.3086
 9190SOL    HW139032   4.045   1.705   1.402 -0.7632 -1.5790  0.8203
 9190SOL    HW239033   3.900   1.711   1.423  0.1754  0.1998  0.7799
 9191SOL     OW39034   4.177   0.034   9.118  0.1181  0.2482  0.4014
 9191SOL    HW139035   4.264   0.064   9.090  0.1745  2.5256  2.9945
 9191SOL    HW239036   4.140   4.716   9.039  0.6401  0.7807 -0.1224
 9192SOL     OW39037   0.398   3.295  12.355  0.0229 -0.0612 -0.3983
 9192SOL    HW139038   0.338   3.326  12.422  0.8116  3.4283 -1.2955
 9192SOL    HW239039   0.476   3.343  12.382 -0.7461  1.7004 -1.2718
 9193SOL     OW39040   4.678   2.140   2.154 -0.1866  0.4207  0.5684
 9193SOL    HW139041   4.694   2.076   2.085  1.1747 -0.0405  1.3075
 9193SOL    HW239042   0.032   2.115   2.208 -1.3572 -0.2585  1.9215
 9194SOL     OW39043   3.604   4.476   8.676  0.4088 -0.3389 -0.4977
 9194SOL    HW139044   3.677   4.536   8.690  0.9252 -0.9248 -0.6718
 9194SOL    HW239045   3.597   4.420   8.753  0.3435  0.1894 -0.1174
 9195SOL     OW39046   3.353   2.902   4.149 -0.0032 -0.0908  0.2766
 9195SOL    HW139047   3.317   2.869   4.231  1.1855 -0.0988  0.7890
 9195SOL    HW239048   3.446   2.880   4.153 -0.0311  0.0847  1.9464
 9196SOL     OW39049   3.363   3.637  11.302 -0.3807 -0.4347 -0.5592
 9196SOL    HW139050   3.367   3.667  11.392  0.2232 -1.3191 -0.2913
 9196SOL    HW239051   3.284   3.677  11.264 -1.4710 -0.4018  1.7852
 9197SOL     OW39052   4.498   1.089   3.074 -0.3356  0.1783  0.1315
 9197SOL    HW139053   4.503   1.099   3.169 -1.5266  3.4512 -0.1462
 9197SOL    HW239054   4.407   1.109   3.054 -0.5708 -0.2467  0.7735
 9198SOL     OW39055   0.692   0.647   6.632  0.7401  0.1425 -0.0194
 9198SOL    HW139056   0.679   0.602   6.549 -1.6690 -1.8972  1.4825
 9198SOL    HW239057   0.683   0.737   6.602  0.1891  0.5062  1.2587
 9199SOL     OW39058   1.660   4.293   1.085 -0.8532 -0.0358  0.1244
 9199SOL    HW139059   1.671   4.336   1.170  2.6193 -3.3686  1.3894
 9199SOL    HW239060   1.716   4.215   1.093 -1.1680 -0.2926 -0.1915
 9200SOL     OW39061   3.068   1.681   5.689 -0.1007  0.3710 -0.6810
 9200SOL    HW139062   2.997   1.619   5.679  0.3587 -0.1570 -0.6490
 9200SOL    HW239063   3.028   1.768   5.679  0.2945  0.3661 -2.2549
 9201SOL     OW39064   1.451   3.592   2.955 -0.1128  0.5486  0.4856
 9201SOL    HW139065   1.428   3.514   2.903  1.6160 -0.6421  1.5085
 9201SOL    HW239066   1.445   3.569   3.047  0.9779 -0.1217  0.3871
 9202SOL     OW39067   3.854   0.058   8.113 -0.1810 -0.3357  0.4956
 9202SOL    HW139068   3.847   0.011   8.029 -0.7742  2.0645 -0.7875
 9202SOL    HW239069   3.794   0.132   8.104 -0.6244 -0.8179 -0.6267
 9203SOL     OW39070   2.544   2.285  12.198  0.1369  0.6321  0.3328
 9203SOL    HW139071   2.510   2.318  12.281 -0.6843  2.7981 -0.8483
 9203SOL    HW239072   2.593   2.363  12.173 -0.5018  0.9183 -0.0339
 9204SOL     OW39073   0.976   0.519   6.561 -0.7416  0.2096  0.3128
 9204SOL    HW139074   0.884   0.542   6.545 -0.6388  1.5553  1.5932
 9204SOL    HW239075   1.016   0.601   6.590 -1.3401  1.1570 -1.5334
 9205SOL     OW39076   0.029   0.957   7.475  0.1857  0.3691 -0.3752
 9205SOL    HW139077   0.071   0.877   7.445  0.8549  0.5677  0.0217
 9205SOL    HW239078   0.100   1.021   7.466  1.9361 -1.4246  0.7241
 9206SOL     OW39079   1.163   3.573   6.727 -0.2090 -0.0725 -0.1190
 9206SOL    HW139080   1.215   3.573   6.807  1.9066 -0.7514 -1.4840
 9206SOL    HW239081   1.153   3.667   6.711 -3.1342 -0.6010 -1.4995
 9207SOL     OW39082   2.210   0.566   5.329  0.0733  0.5515  0.7501
 9207SOL    HW139083   2.208   0.471   5.336  0.6275  0.4459 -0.5636
 9207SOL    HW239084   2.265   0.586   5.253  1.1127 -2.8160  0.6111
 9208SOL     OW39085   0.439   0.228  10.957 -0.5836  0.0026 -0.3289
 9208SOL    HW139086   0.454   0.225  11.051 -0.1335 -1.5280 -0.4419
 9208SOL    HW239087   0.363   0.171  10.940 -0.1195 -0.8309  0.3766
 9209SOL     OW39088   3.327   3.735  15.301 -0.2215  0.0962  0.0376
 9209SOL    HW139089   3.275   3.762  15.377  2.6065  0.1193  2.0016
 9209SOL    HW239090   3.271   3.670  15.260 -0.0339 -0.8561  1.2741
 9210SOL     OW39091   0.521   0.252   7.795 -0.0004  0.1013 -0.3533
 9210SOL    HW139092   0.491   0.329   7.844 -2.7233 -0.8605 -0.4876
 9210SOL    HW239093   0.493   0.182   7.854 -2.9299  0.9024 -0.8085
 9211SOL     OW39094   1.535   0.353   4.994 -0.2592  0.0539  0.0958
 9211SOL    HW139095   1.479   0.286   4.956  2.3711 -0.5577 -2.7197
 9211SOL    HW239096   1.472   0.425   4.995 -3.0311 -2.3681 -2.1456
 9212SOL     OW39097   3.898   0.570   0.996  0.0895  0.6989 -0.1672
 9212SOL    HW139098   3.886   0.602   0.906 -0.8459 -1.1219 -0.6913
 9212SOL    HW239099   3.934   0.649   1.035  0.3267 -0.1928  1.4056
 9213SOL     OW39100   1.798   0.447   4.043  0.1512 -0.4366 -0.1434
 9213SOL    HW139101   1.823   0.479   4.130  2.8817 -1.3531 -0.6187
 9213SOL    HW239102   1.888   0.425   4.018  1.2408  1.1519  2.4546
 9214SOL     OW39103   2.960   0.465   3.823  0.1182  0.6642 -0.0446
 9214SOL    HW139104   2.944   0.494   3.733  0.8833 -0.1662 -0.4469
 9214SOL    HW239105   3.049   0.434   3.809  1.2284  2.5030  2.9569
 9215SOL     OW39106   3.799   3.676   2.878 -0.2112 -0.1187  0.0367
 9215SOL    HW139107   3.774   3.655   2.788  0.9959  0.9144 -0.5446
 9215SOL    HW239108   3.712   3.703   2.908 -0.9515 -1.7665 -0.6654
 9216SOL     OW39109   0.954   1.085   4.231  0.1065 -0.5535 -0.1791
 9216SOL    HW139110   0.898   1.026   4.181 -1.9178 -0.7744  2.3142
 9216SOL    HW239111   0.994   1.139   4.164 -1.6830  1.1837  0.1467
 9217SOL     OW39112   1.364   0.742  16.948  0.9658  0.1920 -0.4407
 9217SOL    HW139113   1.330   0.827  16.919 -1.2701 -0.5885 -0.1097
 9217SOL    HW239114   1.456   0.748  16.925  1.7339  1.5482  3.0007
 9218SOL     OW39115   2.898   3.338   9.471  0.2029  0.0567  0.3909
 9218SOL    HW139116   2.964   3.314   9.536  2.1776  2.5451 -0.6755
 9218SOL    HW239117   2.917   3.432   9.465  0.7732 -0.1198 -0.4411
 9219SOL     OW39118   1.628   3.098   7.444  0.5425 -0.4360 -0.0701
 9219SOL    HW139119   1.668   3.011   7.445 -0.5605 -0.9371  0.7355
 9219SOL    HW239120   1.562   3.080   7.511  0.6696  1.7267  0.6177
 9220SOL     OW39121   2.488   0.344   4.204 -0.9588 -0.0486  0.5582
 9220SOL    HW139122   2.573   0.368   4.241 -1.1481 -0.1172  1.0425
 9220SOL    HW239123   2.429   0.391   4.263  1.1133  3.1869  0.0835
 9221SOL     OW39124   1.395   2.557   2.099 -0.5437 -0.9336  0.0624
 9221SOL    HW139125   1.308   2.592   2.082 -1.5372 -2.3329  2.1548
 9221SOL    HW239126   1.454   2.630   2.080  0.3546 -1.9154 -0.9148
 9222SOL     OW39127   3.004   2.605   1.135  0.3157 -0.3293 -0.3047
 9222SOL    HW139128   3.077   2.573   1.082  1.1669 -0.6424  1.0654
 9222SOL    HW239129   3.024   2.569   1.221  0.8160  0.4679 -0.0857
 9223SOL     OW39130   2.782   1.076  16.230 -0.0833 -0.2069 -0.1224
 9223SOL    HW139131   2.770   1.164  16.266 -3.0898 -0.0885 -1.4248
 9223SOL    HW239132   2.839   1.104  16.158  0.9127  0.6155  0.9969
 9224SOL     OW39133   3.848   0.282   4.789 -0.3935 -0.5903 -0.0329
 9224SOL    HW139134   3.885   0.292   4.701  2.0403  0.1030  1.0507
 9224SOL    HW239135   3.897   0.346   4.841 -1.1240 -0.5800  0.6357
 9225SOL     OW39136   2.475   4.460   8.441  0.4315 -0.1022  0.3009
 9225SOL    HW139137   2.416   4.534   8.449  3.6337  2.4633  0.3076
 9225SOL    HW239138   2.561   4.501   8.453  0.2936  0.0239  0.8574
 9226SOL     OW39139   1.563   1.451  13.317  0.1266  0.1206  0.6648
 9226SOL    HW139140   1.640   1.502  13.293 -0.4591  0.9360  0.5284
 9226SOL    HW239141   1.544   1.482  13.406  0.3465  1.1814  0.3445
 9227SOL     OW39142   2.111   2.186  17.633 -0.4258 -0.0631  0.6498
 9227SOL    HW139143   2.102   2.098  17.596 -1.6461  1.4823 -2.7034
 9227SOL    HW239144   2.126   2.160   0.034  2.8960 -0.8696 -0.1058
 9228SOL     OW39145   1.513   2.562   7.940 -0.1686 -0.0868 -0.0945
 9228SOL    HW139146   1.554   2.477   7.955 -1.6704 -0.9665 -0.9934
 9228SOL    HW239147   1.541   2.613   8.016 -0.7908 -1.0779  0.8052
 9229SOL     OW39148   2.300   4.467  12.963  0.5272  0.3556  0.1204
 9229SOL    HW139149   2.300   4.452  13.057  2.4319  1.3564  0.2671
 9229SOL    HW239150   2.373   4.411  12.936 -0.9338 -1.9199  0.9300
 9230SOL     OW39151   2.253   4.453   6.739  0.4989  0.0679  0.2230
 9230SOL    HW139152   2.302   4.371   6.734  1.4605  0.5506  1.4792
 9230SOL    HW239153   2.173   4.441   6.690  0.4428  0.5071  0.2062
 9231SOL     OW39154   1.440   2.873   2.344  0.3736  0.1073 -0.3350
 9231SOL    HW139155   1.441   2.827   2.428  0.1026  0.3714 -0.1899
 9231SOL    HW239156   1.349   2.899   2.334  0.3848  1.0749  2.0361
 9232SOL     OW39157   0.257   0.112  16.872  0.1399  0.8732 -0.1992
 9232SOL    HW139158   0.173   0.083  16.907  1.1420 -0.2856  1.2250
 9232SOL    HW239159   0.237   0.123  16.779 -0.8450  0.2991 -0.0514
 9233SOL     OW39160   0.481   4.474   6.122 -0.5265 -0.2960 -0.0614
 9233SOL    HW139161   0.451   4.533   6.053 -0.3697 -0.5605 -0.3517
 9233SOL    HW239162   0.416   4.404   6.127  0.6600 -1.5684 -2.9147
 9234SOL     OW39163   4.044   1.651   2.650 -0.2362  0.3953 -0.2001
 9234SOL    HW139164   4.075   1.582   2.709  0.5944  0.6784 -0.3098
 9234SOL    HW239165   3.990   1.614   2.579 -0.3453 -2.2699  1.2631
 9235SOL     OW39166   1.323   1.156   0.558  0.1951 -0.5545  0.7942
 9235SOL    HW139167   1.339   1.157   0.464 -0.4137 -0.2758  0.6944
 9235SOL    HW239168   1.385   1.092   0.592  1.5656  0.7495  0.7447
 9236SOL     OW39169   1.173   2.802  17.442  0.0332 -0.3040 -0.1180
 9236SOL    HW139170   1.255   2.780  17.486  0.0121  0.8655  0.5175
 9236SOL    HW239171   1.206   2.793  17.352 -0.2011 -0.6920 -0.1659
 9237SOL     OW39172   4.549   3.733   7.972  0.3360 -0.4636  0.3096
 9237SOL    HW139173   4.488   3.714   8.043 -0.5421  0.9164 -0.0765
 9237SOL    HW239174   4.523   3.669   7.906  2.6332 -1.5586  0.4790
 9238SOL     OW39175   3.311   2.465   7.086  0.0367 -0.1431 -0.1828
 9238SOL    HW139176   3.274   2.383   7.052 -0.6297 -0.0763  0.3741
 9238SOL    HW239177   3.241   2.524   7.056 -0.4636 -0.8006 -0.3140
 9239SOL     OW39178   1.441   3.449  11.746  0.1100  0.1746  0.4021
 9239SOL    HW139179   1.472   3.451  11.836 -1.2217  0.6102  0.8489
 9239SOL    HW239180   1.350   3.463  11.773 -0.8980 -2.4200 -1.7103
 9240SOL     OW39181   4.417   3.371   8.937  0.0155 -0.1538 -0.2948
 9240SOL    HW139182   4.392   3.463   8.927  0.2228 -0.2557 -1.7887
 9240SOL    HW239183   4.477   3.360   8.863 -0.4810 -2.7336 -0.3116
 9241SOL     OW39184   3.415   3.472   0.740 -0.0735  0.4004 -0.2982
 9241SOL    HW139185   3.507   3.491   0.762 -0.1084  0.7852 -0.4838
 9241SOL    HW239186   3.425   3.481   0.645  0.4146 -0.0541 -0.2929
 9242SOL     OW39187   2.308   1.303   7.009 -0.0395 -0.1267 -0.1941
 9242SOL    HW139188   2.395   1.318   7.047  0.4599  1.5348 -2.0032
 9242SOL    HW239189   2.330   1.262   6.925  0.8603  0.2928 -0.1677
 9243SOL     OW39190   4.555   3.182   5.367 -0.1624  0.0367 -0.1439
 9243SOL    HW139191   4.558   3.182   5.271  0.8448  0.8748 -0.1067
 9243SOL    HW239192   4.549   3.275   5.389  0.0095 -0.2460  1.0726
 9244SOL     OW39193   0.130   1.940   0.537 -0.3135  0.8049  0.0855
 9244SOL    HW139194   0.095   1.920   0.624 -0.2555 -0.0961 -0.0926
 9244SOL    HW239195   0.126   1.855   0.493 -2.9002  2.4196 -2.7759
 9245SOL     OW39196   4.311   4.201   6.845  0.0031 -0.7805  0.1923
 9245SOL    HW139197   4.323   4.201   6.750  0.6000  0.3490  0.2718
 9245SOL    HW239198   4.254   4.126   6.861  0.3310 -0.7626  1.4072
 9246SOL     OW39199   3.696   1.855   3.485 -0.1187  0.0784  0.3270
 9246SOL    HW139200   3.678   1.877   3.576  1.2746  1.1994  0.3504
 9246SOL    HW239201   3.641   1.778   3.481 -0.1836  0.1048  0.7598
 9247SOL     OW39202   0.328   0.293   8.436  0.0748  0.2701 -0.1510
 9247SOL    HW139203   0.259   0.341   8.480 -1.1802 -0.5310 -1.2299
 9247SOL    HW239204   0.404   0.337   8.472  0.1109 -0.4013  0.5866
 9248SOL     OW39205   4.423   0.776   4.614 -0.1134 -0.3588  0.1999
 9248SOL    HW139206   4.331   0.779   4.641 -0.5279  1.4027 -1.3800
 9248SOL    HW239207   4.430   0.726   4.533 -0.9858  1.8846 -1.2516
 9249SOL     OW39208   3.909   0.143   5.886  0.0297 -0.2235 -0.2747
 9249SOL    HW139209   3.954   0.166   5.967 -1.7897 -1.7944  1.1679
 9249SOL    HW239210   3.858   0.070   5.920 -1.1645  1.7625  2.1559
 9250SOL     OW39211   0.220   1.627   6.232 -0.3347  0.3125 -0.0596
 9250SOL    HW139212   0.178   1.554   6.277  0.1096 -0.3083 -0.6727
 9250SOL    HW239213   0.158   1.694   6.263 -1.4472 -1.0365  0.5955
 9251SOL     OW39214   2.735   0.431   4.289  0.4395  0.1609  0.6332
 9251SOL    HW139215   2.811   0.384   4.257 -0.3425  1.6219 -3.3266
 9251SOL    HW239216   2.720   0.391   4.375 -0.0270  0.5092  0.7191
 9252SOL     OW39217   1.471   3.038   5.479 -0.0869 -0.0414  0.0250
 9252SOL    HW139218   1.414   2.971   5.518  1.4566 -0.7712  0.9945
 9252SOL    HW239219   1.414   3.101   5.433 -1.2018 -0.8382  0.3108
 9253SOL     OW39220   2.768   4.574   3.498 -0.3016  0.1705  0.0424
 9253SOL    HW139221   2.834   4.514   3.532 -1.6559 -2.7369 -2.4224
 9253SOL    HW239222   2.791   4.662   3.527 -1.5035  1.2017 -2.1325
 9254SOL     OW39223   2.895   0.579  16.066  0.1275  0.5843  0.3553
 9254SOL    HW139224   2.910   0.636  16.141  0.2895  0.1202  0.6702
 9254SOL    HW239225   2.801   0.579  16.046  0.6134  0.2547 -2.0155
 9255SOL     OW39226   2.901   2.350   5.395 -0.2532 -0.1760 -0.2267
 9255SOL    HW139227   2.916   2.278   5.456  0.5462 -0.5114 -0.8205
 9255SOL    HW239228   2.809   2.366   5.413 -0.0209  1.0704 -0.1207
 9256SOL     OW39229   0.874   3.030   0.315  0.4174 -0.7002 -0.6267
 9256SOL    HW139230   0.862   2.935   0.312  0.8074 -0.7184 -1.5413
 9256SOL    HW239231   0.874   3.040   0.220 -2.0958 -2.3559 -0.7836
 9257SOL     OW39232   4.563   0.335   5.840 -0.2189 -0.3005  0.1761
 9257SOL    HW139233   4.596   0.407   5.895 -3.0637  0.4954  0.8640
 9257SOL    HW239234   4.599   0.352   5.753 -0.3275  1.0247  0.3862
 9258SOL     OW39235   4.412   3.717  12.829  0.2137  0.2967 -0.3458
 9258SOL    HW139236   4.406   3.772  12.907 -1.0614 -0.0877 -0.1774
 9258SOL    HW239237   4.403   3.627  12.860  1.3380  0.8046  1.4178
 9259SOL     OW39238   2.402   1.024   6.286  0.3821 -0.1861  0.9959
 9259SOL    HW139239   2.419   0.954   6.223  2.2877  1.7721 -0.6844
 9259SOL    HW239240   2.403   1.096   6.223  2.9009  0.4422  1.7453
 9260SOL     OW39241   3.410   4.587   5.217 -0.0259 -0.4263 -0.2799
 9260SOL    HW139242   3.328   4.563   5.259  0.8293  1.2494  2.3674
 9260SOL    HW239243   3.386   4.539   5.138  0.2260 -1.5357  0.3081
 9261SOL     OW39244   0.816   0.030   3.931  0.0665  0.1598  0.2107
 9261SOL    HW139245   0.721   0.023   3.937  0.1222  1.5923  2.9874
 9261SOL    HW239246   0.852   4.664   3.941  1.1048  0.4859 -0.6319
 9262SOL     OW39247   3.987   1.068   6.645  0.4023  0.5232  0.1099
 9262SOL    HW139248   4.017   1.062   6.554  0.5444  0.5314  0.1554
 9262SOL    HW239249   3.893   1.075   6.633  0.3082 -1.0949 -0.1415
 9263SOL     OW39250   1.843   2.970   1.797  0.5433  0.0480 -0.8385
 9263SOL    HW139251   1.938   2.982   1.789  0.4775  1.1086 -0.0750
 9263SOL    HW239252   1.828   2.876   1.789  0.8622 -0.1474  0.8073
 9264SOL     OW39253   4.388   1.044   7.838  0.2722  0.5727  0.3672
 9264SOL    HW139254   4.391   1.134   7.805 -1.9658  0.9346  1.1343
 9264SOL    HW239255   4.456   1.028   7.904 -0.0343  1.3636  0.8753
 9265SOL     OW39256   3.823   3.020   6.261 -0.0614 -0.4101  0.4310
 9265SOL    HW139257   3.893   3.066   6.306  1.2806 -0.2258 -1.8727
 9265SOL    HW239258   3.759   3.091   6.256 -0.2354 -0.6831 -1.0429
 9266SOL     OW39259   4.393   1.561   2.471 -0.2556  0.0989 -0.5271
 9266SOL    HW139260   4.412   1.612   2.550  0.6573 -1.8025  0.4960
 9266SOL    HW239261   4.431   1.616   2.403 -2.7106  0.0417 -1.9488
 9267SOL     OW39262   1.245   3.165  14.373  0.2138  0.0426  0.4650
 9267SOL    HW139263   1.337   3.144  14.393 -0.8206 -2.1339  3.0589
 9267SOL    HW239264   1.190   3.134  14.445 -1.9978  1.6029 -0.5398
 9268SOL     OW39265   0.752   2.845   4.475 -0.1717 -0.5097  0.2267
 9268SOL    HW139266   0.677   2.878   4.425  0.1409 -0.1250  0.0115
 9268SOL    HW239267   0.820   2.818   4.414  0.1823 -0.4597  0.5997
 9269SOL     OW39268   2.806   3.229   1.567  0.0947  0.0047  0.0051
 9269SOL    HW139269   2.747   3.207   1.495  0.2775  1.0465 -0.4755
 9269SOL    HW239270   2.870   3.280   1.517  0.7557  0.4270  1.2779
 9270SOL     OW39271   2.698   2.932   0.967 -0.1876  0.0763  0.4638
 9270SOL    HW139272   2.698   3.003   0.903  1.4870 -0.9824 -0.6846
 9270SOL    HW239273   2.790   2.925   0.991 -0.6399 -1.3265  1.7862
 9271SOL     OW39274   3.683   0.175   8.525 -0.1422 -0.3894  0.3003
 9271SOL    HW139275   3.620   0.196   8.457 -2.3885  3.3367  3.5330
 9271SOL    HW239276   3.768   0.180   8.480  0.1629 -2.3304  0.6561
 9272SOL     OW39277   1.408   3.837   4.293  0.1497 -0.1583  1.0125
 9272SOL    HW139278   1.393   3.929   4.270 -0.4334  0.1685  2.7339
 9272SOL    HW239279   1.339   3.823   4.358 -1.0870  0.9350 -0.0589
 9273SOL     OW39280   0.680   1.842  13.642  0.0814 -0.2571 -0.1354
 9273SOL    HW139281   0.693   1.755  13.677  0.4353  0.4357  1.4411
 9273SOL    HW239282   0.637   1.883  13.717  0.5093 -1.2533  0.6313
 9274SOL     OW39283   3.009   0.191   4.520  0.4743 -0.1573  0.1017
 9274SOL    HW139284   3.017   0.102   4.485  2.5628 -0.3145  0.9874
 9274SOL    HW239285   2.928   0.174   4.568  0.6443  2.9700  1.4498
 9275SOL     OW39286   1.043   1.049   3.400 -0.3871 -0.5150  0.0625
 9275SOL    HW139287   1.027   0.979   3.463 -0.6579  0.6908  1.3244
 9275SOL    HW239288   1.057   1.114   3.468  1.8866  1.4964 -2.3314
 9276SOL     OW39289   0.946   2.295  15.311 -0.4507 -0.4999  0.0223
 9276SOL    HW139290   0.905   2.226  15.364 -2.4233  0.1021 -0.7170
 9276SOL    HW239291   0.964   2.366  15.373 -0.2005 -1.5225  1.1228
 9277SOL     OW39292   3.584   2.977   2.585  0.1605  0.2919  0.1956
 9277SOL    HW139293   3.520   3.023   2.639  1.0108 -0.6806  2.0307
 9277SOL    HW239294   3.606   3.031   2.509 -0.1252  1.1745  0.7403
 9278SOL     OW39295   3.421   3.964   5.655 -0.4383  0.4430  0.5446
 9278SOL    HW139296   3.352   3.957   5.720 -1.9114  0.4090 -1.0384
 9278SOL    HW239297   3.430   3.873   5.627 -1.2605  0.3571  0.5730
 9279SOL     OW39298   1.297   1.595  11.566 -0.5512  0.0596  0.1302
 9279SOL    HW139299   1.208   1.561  11.566 -0.6566  0.3288  0.5597
 9279SOL    HW239300   1.300   1.617  11.472  0.0841 -0.4770  0.0267
 9280SOL     OW39301   0.954   4.326  14.087 -0.2644  0.4767  0.0278
 9280SOL    HW139302   1.018   4.384  14.128 -0.3401 -0.0928  0.9518
 9280SOL    HW239303   0.872   4.331  14.136 -0.6236 -1.4174 -0.3738
 9281SOL     OW39304   0.698   2.640   5.427  0.2688 -0.1395  0.0836
 9281SOL    HW139305   0.631   2.653   5.494  0.3112  1.2689 -0.1423
 9281SOL    HW239306   0.753   2.715   5.448  0.6559 -0.3257 -0.2746
 9282SOL     OW39307   0.888   3.613   4.759 -0.1613 -0.2632 -0.1841
 9282SOL    HW139308   0.817   3.605   4.696 -0.4273  3.5619 -0.3751
 9282SOL    HW239309   0.876   3.705   4.782  1.1420 -0.3035  0.7050
 9283SOL     OW39310   3.947   4.394   2.965  0.6415  0.7430  0.1116
 9283SOL    HW139311   3.943   4.436   3.051 -1.4225 -0.7331  0.7408
 9283SOL    HW239312   4.027   4.344   2.978  0.5692  0.7255  0.4725
 9284SOL     OW39313   1.740   4.001   0.222 -0.6320  0.5951  0.0042
 9284SOL    HW139314   1.816   4.054   0.199  1.3083 -2.9562 -1.7510
 9284SOL    HW239315   1.757   3.917   0.179  0.2735  0.0606  1.4218
 9285SOL     OW39316   4.252   4.070   7.621 -0.1744  0.5842  0.7239
 9285SOL    HW139317   4.202   4.085   7.541  0.9562  0.3990 -0.0130
 9285SOL    HW239318   4.280   3.980   7.604  1.2339  0.6286  2.8226
 9286SOL     OW39319   0.015   4.417   4.463 -0.0538 -0.3275  0.1775
 9286SOL    HW139320   0.032   4.499   4.510 -2.6155  0.7098 -0.7049
 9286SOL    HW239321   4.643   4.416   4.479 -0.3138  2.8266 -1.1386
 9287SOL     OW39322   3.709   0.883   2.502 -0.3463  0.2113 -0.3201
 9287SOL    HW139323   3.621   0.900   2.467 -0.3433  0.2719 -0.2995
 9287SOL    HW239324   3.739   0.813   2.445 -1.5654  0.6395 -1.4874
 9288SOL     OW39325   2.037   0.448  10.232 -0.1701  0.3495 -0.3724
 9288SOL    HW139326   1.991   0.415  10.155 -1.3228  1.4612 -0.1656
 9288SOL    HW239327   2.086   0.377  10.273 -2.2355 -0.2728  0.9911
 9289SOL     OW39328   0.264   2.465  17.631  0.3751  0.0347 -0.1961
 9289SOL    HW139329   0.358   2.446  17.628 -0.1140 -2.2802 -0.8446
 9289SOL    HW239330   0.266   2.538  17.570  0.5863  2.2911  2.4837
 9290SOL     OW39331   1.179   0.663  12.223  0.4108 -0.0972 -0.1373
 9290SOL    HW139332   1.263   0.687  12.184  0.1286  0.5910 -0.3115
 9290SOL    HW239333   1.132   0.611  12.157  1.0622  1.4525 -1.8293
 9291SOL     OW39334   1.042   0.044   3.123  0.4082  0.1956  0.2858
 9291SOL    HW139335   1.006   0.112   3.180 -2.0102 -0.1371 -0.8192
 9291SOL    HW239336   1.041   4.702   3.193  1.4887  1.0919  1.1156
 9292SOL     OW39337   0.337   1.982   6.513  0.1301 -0.4705 -0.0761
 9292SOL    HW139338   0.384   2.044   6.568 -0.1010  0.7391 -1.2496
 9292SOL    HW239339   0.355   1.897   6.554 -1.8438 -1.7486 -1.8309
 9293SOL     OW39340   1.532   4.535  14.055  0.3786  0.0347  0.4436
 9293SOL    HW139341   1.520   4.538  13.960  2.5704 -1.8308  0.1065
 9293SOL    HW239342   1.625   4.557  14.048  0.6592 -1.5244 -0.5848
 9294SOL     OW39343   2.069   2.671   4.159 -0.2577 -0.8535  0.1789
 9294SOL    HW139344   2.133   2.681   4.230 -0.2700  3.6552 -0.4301
 9294SOL    HW239345   2.010   2.740   4.190  0.5592 -0.9795  2.0342
 9295SOL     OW39346   1.817   1.181   8.311  0.1647  0.4979  0.0632
 9295SOL    HW139347   1.893   1.182   8.253  0.6313  1.7287  0.7114
 9295SOL    HW239348   1.810   1.085   8.309  3.6112  0.2628 -0.7862
 9296SOL     OW39349   3.678   3.494  12.440  0.2826 -0.0587  0.0811
 9296SOL    HW139350   3.586   3.498  12.466  0.6936  0.0579  1.4977
 9296SOL    HW239351   3.671   3.434  12.365  0.6065 -0.7044  0.5685
 9297SOL     OW39352   2.914   1.156  12.188  0.0672 -0.1863  0.3283
 9297SOL    HW139353   2.978   1.087  12.169 -0.6517 -0.3841 -1.3321
 9297SOL    HW239354   2.864   1.123  12.262  0.4267 -2.1773 -0.3079
 9298SOL     OW39355   2.127   4.380   5.192  0.1596 -0.0205 -0.3893
 9298SOL    HW139356   2.115   4.344   5.279  2.5032  2.2509  0.8937
 9298SOL    HW239357   2.186   4.452   5.215 -1.1551  1.3119 -1.2647
 9299SOL     OW39358   2.695   3.850   3.566 -0.1431  0.4912  0.3212
 9299SOL    HW139359   2.718   3.840   3.658  0.1936 -1.9175 -0.0358
 9299SOL    HW239360   2.599   3.853   3.569 -0.1605  0.1200  0.1339
 9300SOL     OW39361   1.750   4.333  13.872  0.0502  0.1509 -0.5756
 9300SOL    HW139362   1.664   4.293  13.888 -1.7233  3.7831 -1.1290
 9300SOL    HW239363   1.781   4.286  13.795 -3.1641 -1.4621 -0.9226
 9301SOL     OW39364   0.702   2.145  11.267  0.4193 -0.1326 -0.0339
 9301SOL    HW139365   0.712   2.240  11.256  0.8498 -0.1288  0.4241
 9301SOL    HW239366   0.709   2.118  11.175  1.7512  0.6217 -0.1572
 9302SOL     OW39367   1.409   2.208   7.230 -0.7589  0.4688 -0.6299
 9302SOL    HW139368   1.437   2.235   7.143  1.1748  0.8002  0.0927
 9302SOL    HW239369   1.315   2.226   7.230 -0.7006  0.7934 -3.0169
 9303SOL     OW39370   2.433   1.472   9.513  0.0897 -0.1743 -0.6202
 9303SOL    HW139371   2.528   1.482   9.499 -0.4439  1.7034 -2.9715
 9303SOL    HW239372   2.411   1.504   9.426 -0.4084  0.8407 -0.1218
 9304SOL     OW39373   4.396   1.236   0.304 -0.0587 -0.3454  0.0001
 9304SOL    HW139374   4.424   1.235   0.212  1.8867 -0.9060  0.6093
 9304SOL    HW239375   4.359   1.324   0.316  1.9620  0.6522 -1.0501
 9305SOL     OW39376   1.772   4.264   3.915  0.0584  0.3166  0.1170
 9305SOL    HW139377   1.841   4.208   3.949  0.5410  0.4593 -0.6232
 9305SOL    HW239378   1.800   4.356   3.916 -0.8597  0.6325 -1.6869
 9306SOL     OW39379   2.002   3.230  15.552 -0.3413  0.0825 -0.3416
 9306SOL    HW139380   1.993   3.197  15.463  2.7973  1.5998 -1.2027
 9306SOL    HW239381   1.915   3.204  15.583 -0.0583 -1.4484 -0.8303
 9307SOL     OW39382   1.900   0.348   6.786 -0.2513  1.0204 -0.6532
 9307SOL    HW139383   1.971   0.286   6.768 -1.1139  0.1420 -1.0760
 9307SOL    HW239384   1.933   0.422   6.835 -1.3385  2.0191 -1.4224
 9308SOL     OW39385   2.106   1.397   3.343  0.0863  0.2750 -0.0327
 9308SOL    HW139386   2.049   1.425   3.415 -2.0449  0.1892 -1.6736
 9308SOL    HW239387   2.073   1.307   3.343  0.1116  0.2656 -0.5370
 9309SOL     OW39388   2.901   0.504   8.510  0.7143  0.1828 -1.0814
 9309SOL    HW139389   2.889   0.411   8.531 -0.5081  1.0277  1.9478
 9309SOL    HW239390   2.816   0.535   8.540 -0.6456 -2.4793 -2.2336
 9310SOL     OW39391   3.314   3.368  10.920  0.0433  0.3843 -0.3254
 9310SOL    HW139392   3.313   3.281  10.880  0.2334 -0.7467  2.0927
 9310SOL    HW239393   3.265   3.411  10.850 -0.0612 -0.6419 -0.8860
 9311SOL     OW39394   4.223   3.198  17.486  0.1837  0.4034  0.3491
 9311SOL    HW139395   4.147   3.255  17.502 -0.6056 -1.1258  2.0660
 9311SOL    HW239396   4.298   3.246  17.523  0.2500  0.2480  0.4158
 9312SOL     OW39397   4.653   0.966  10.852 -0.3246  0.2931  0.4549
 9312SOL    HW139398   4.609   0.886  10.877  0.7510 -1.4424 -3.1795
 9312SOL    HW239399   0.019   0.945  10.820 -1.0065 -2.7759  0.6664
 9313SOL     OW39400   2.800   2.614   7.147  0.0553 -0.6035  0.1778
 9313SOL    HW139401   2.823   2.547   7.082 -0.2248  3.2231 -3.8703
 9313SOL    HW239402   2.782   2.566   7.227 -1.9231  1.0092  0.6657
 9314SOL     OW39403   3.287   0.583   8.725  0.2770  0.3968 -0.5097
 9314SOL    HW139404   3.273   0.636   8.646  2.3894  1.1563 -0.3784
 9314SOL    HW239405   3.295   0.496   8.686  3.3033  1.1027 -1.4703
 9315SOL     OW39406   3.167   4.246  12.773  0.2206  0.0649  0.0810
 9315SOL    HW139407   3.204   4.330  12.747 -1.3837  0.2563 -1.5949
 9315SOL    HW239408   3.206   4.194  12.703 -0.5459  0.2453 -0.4788
 9316SOL     OW39409   3.195   2.337   6.404  0.0633  0.3592 -1.0507
 9316SOL    HW139410   3.229   2.308   6.320 -1.4307 -1.0687 -1.1543
 9316SOL    HW239411   3.231   2.425   6.418  0.2998  0.3568 -1.6568
 9317SOL     OW39412   2.918   3.248   2.893 -0.8421 -0.2214  0.0823
 9317SOL    HW139413   2.837   3.226   2.940 -0.5067 -2.1586 -0.2249
 9317SOL    HW239414   2.896   3.223   2.803  0.5215  0.9886 -0.5787
 9318SOL     OW39415   1.067   3.272   8.363 -0.2385  0.3120 -0.5351
 9318SOL    HW139416   1.147   3.278   8.416  0.4668  1.7645 -1.7477
 9318SOL    HW239417   1.050   3.365   8.346 -1.3499 -0.3696 -3.0573
 9319SOL     OW39418   1.921   4.337   4.463 -0.0881 -1.0708  0.2244
 9319SOL    HW139419   1.938   4.265   4.523  0.3925 -1.5247 -0.4581
 9319SOL    HW239420   1.994   4.332   4.401 -1.0189 -0.0432 -0.9625
 9320SOL     OW39421   0.475   2.076   1.761  0.1800 -0.4778  0.4040
 9320SOL    HW139422   0.473   1.983   1.784 -0.2957 -0.6340 -0.2620
 9320SOL    HW239423   0.561   2.093   1.723  1.0291  0.4143  2.7217
 9321SOL     OW39424   1.035   4.303  16.941 -0.1188 -0.2613  0.1090
 9321SOL    HW139425   1.123   4.266  16.953  0.5611  1.8015  1.5962
 9321SOL    HW239426   1.031   4.333  16.851  0.6570  0.0589  0.1764
 9322SOL     OW39427   3.446   2.674  17.367 -0.2836 -0.3886  0.2614
 9322SOL    HW139428   3.377   2.730  17.400 -0.0681  0.8313 -1.4154
 9322SOL    HW239429   3.523   2.713  17.409 -0.1886 -2.0253  1.6225
 9323SOL     OW39430   1.898   0.470   5.623 -0.2995 -0.3670  0.2645
 9323SOL    HW139431   1.844   0.529   5.676 -1.6925  0.9654 -2.6127
 9323SOL    HW239432   1.914   0.529   5.549 -1.3509  0.4876  0.7214
 9324SOL     OW39433   3.805   3.428   2.310 -0.3940 -0.5717 -0.0034
 9324SOL    HW139434   3.763   3.362   2.254 -0.9216 -0.1584 -0.0910
 9324SOL    HW239435   3.895   3.427   2.279 -0.1242 -2.5661  0.7931
 9325SOL     OW39436   2.266   1.470   7.984 -0.0713  0.7139 -0.1914
 9325SOL    HW139437   2.289   1.434   8.070 -1.2896 -0.2384 -0.2729
 9325SOL    HW239438   2.312   1.553   7.974 -1.5864  1.3792 -1.5098
 9326SOL     OW39439   0.031   4.015  10.307  0.4766  0.2136  0.4519
 9326SOL    HW139440   0.028   3.932  10.260 -1.3392  1.0585 -0.9553
 9326SOL    HW239441   0.003   4.074  10.236 -0.5498 -1.7619 -0.7903
 9327SOL     OW39442   2.034   2.887   9.166  0.3503  0.0121  0.2807
 9327SOL    HW139443   1.991   2.920   9.087  1.3691  0.5016 -0.0770
 9327SOL    HW239444   1.957   2.869   9.220  1.2184  1.2509  1.9275
 9328SOL     OW39445   2.887   4.456   3.906 -0.5074 -0.4488 -0.1935
 9328SOL    HW139446   2.824   4.519   3.869  1.5217  1.7362  0.0533
 9328SOL    HW239447   2.942   4.521   3.949 -2.3099 -0.6619  2.3945
 9329SOL     OW39448   3.145   3.885   7.024  0.6352 -0.4950 -0.5047
 9329SOL    HW139449   3.184   3.964   6.987  0.3107 -0.7620 -1.4133
 9329SOL    HW239450   3.194   3.824   6.969  0.3926 -0.6554 -0.5412
 9330SOL     OW39451   3.180   1.447   6.053  0.2648  0.2808 -0.2883
 9330SOL    HW139452   3.208   1.538   6.044 -1.9140  0.8721 -1.0217
 9330SOL    HW239453   3.240   1.405   5.991 -0.9628 -0.3728 -1.0390
 9331SOL     OW39454   0.756   3.925   5.432  0.5035  0.3204 -0.0992
 9331SOL    HW139455   0.744   3.850   5.373  0.8183 -0.6005  1.0112
 9331SOL    HW239456   0.805   3.886   5.504 -1.6822  0.0591  1.2410
 9332SOL     OW39457   3.409   4.263   3.274 -0.6288 -0.2967 -0.0605
 9332SOL    HW139458   3.440   4.285   3.186 -3.1399  1.1065 -0.5959
 9332SOL    HW239459   3.463   4.188   3.298  0.5907  0.9626  1.1065
 9333SOL     OW39460   0.015   1.932   3.505  0.4411 -0.7325  0.5356
 9333SOL    HW139461   0.041   1.848   3.543  2.1164 -0.5338 -0.2094
 9333SOL    HW239462   4.661   1.906   3.453  1.7287 -0.9597 -1.2001
 9334SOL     OW39463   2.760   2.256   4.029  0.1512 -0.2011 -0.4088
 9334SOL    HW139464   2.736   2.238   4.120 -2.5796  1.5247 -0.7793
 9334SOL    HW239465   2.774   2.350   4.038 -0.3381 -0.0800 -0.9308
 9335SOL     OW39466   1.640   3.644   9.778 -0.6772 -0.6159 -0.0549
 9335SOL    HW139467   1.734   3.634   9.794 -0.4117  1.3209 -0.4051
 9335SOL    HW239468   1.602   3.617   9.862 -0.8375  1.0142  0.4101
 9336SOL     OW39469   3.980   1.263  15.304  0.4132 -0.3510  0.3042
 9336SOL    HW139470   3.973   1.284  15.397  1.0310 -1.4402  0.5876
 9336SOL    HW239471   4.026   1.343  15.278 -0.5237  0.8046  2.1403
 9337SOL     OW39472   0.388   3.650   8.352  0.2485  0.0703  0.0063
 9337SOL    HW139473   0.309   3.622   8.398  0.3735  0.7165  0.6369
 9337SOL    HW239474   0.451   3.653   8.425  0.7113  0.4157 -0.4118
 9338SOL     OW39475   4.720   4.571   9.074  0.1030  0.1397  0.5429
 9338SOL    HW139476   4.648   4.597   9.132  0.9163  0.3442  1.4619
 9338SOL    HW239477   4.706   4.622   8.995 -1.1735 -1.1951 -0.0949
 9339SOL     OW39478   2.575   2.620  17.561 -0.5712 -0.2463  0.6196
 9339SOL    HW139479   2.483   2.609  17.585 -0.2269 -1.0566  1.6004
 9339SOL    HW239480   2.612   2.535  17.587  3.1991  0.6388 -1.8188
 9340SOL     OW39481   3.411   0.982   8.164  0.7676 -0.4611 -0.3110
 9340SOL    HW139482   3.350   0.992   8.091  1.2357 -1.2386 -0.8047
 9340SOL    HW239483   3.359   1.033   8.227  1.3033 -0.5841  0.2281
 9341SOL     OW39484   2.617   1.701   8.248  0.7377 -0.2679  0.3764
 9341SOL    HW139485   2.621   1.638   8.320 -0.7962 -0.7695  0.0271
 9341SOL    HW239486   2.700   1.697   8.201  0.0598  0.2920 -0.8801
 9342SOL     OW39487   1.623   4.128   2.756 -0.4987 -0.0122 -0.1756
 9342SOL    HW139488   1.656   4.215   2.732  0.9496 -0.5674 -0.1838
 9342SOL    HW239489   1.608   4.084   2.672  1.0267 -2.0818  0.6599
 9343SOL     OW39490   0.197   2.822   9.071  0.0029  0.0638 -0.4809
 9343SOL    HW139491   0.105   2.817   9.098  0.3944  2.3856  1.3261
 9343SOL    HW239492   0.252   2.783   9.140  0.8859  1.1436 -0.5793
 9344SOL     OW39493   1.372   2.810   7.555  0.0631  0.3708  0.6082
 9344SOL    HW139494   1.383   2.876   7.623 -0.6727  1.7506 -0.5898
 9344SOL    HW239495   1.365   2.727   7.601 -2.5042  0.4634  0.3932
 9345SOL     OW39496   2.228   4.370  15.303  0.3723  0.6540 -0.2970
 9345SOL    HW139497   2.259   4.281  15.321 -1.0234  0.3738  0.7598
 9345SOL    HW239498   2.305   4.411  15.343 -0.6340 -0.2013  2.5676
 9346SOL     OW39499   2.169   0.046   0.706 -0.0606  0.2260  0.6935
 9346SOL    HW139500   2.118   0.024   0.783 -0.3582 -0.1347  0.3927
 9346SOL    HW239501   2.217   4.686   0.700 -1.5884 -0.6989  1.2749
 9347SOL     OW39502   3.292   3.227   5.872 -0.1889  0.0752  0.0458
 9347SOL    HW139503   3.382   3.216   5.840 -0.0140  1.8701 -0.1178
 9347SOL    HW239504   3.293   3.202   5.964  3.4730  0.9343  0.2541
 9348SOL     OW39505   3.256   1.178   8.294  0.1327  0.6066 -0.2266
 9348SOL    HW139506   3.260   1.266   8.257  0.7713  0.8779  0.4907
 9348SOL    HW239507   3.169   1.184   8.333  0.0658  1.5943 -0.5323
 9349SOL     OW39508   2.846   0.347   5.988 -0.4924  0.3770 -0.0137
 9349SOL    HW139509   2.889   0.267   6.018 -4.0696 -1.1127  1.1360
 9349SOL    HW239510   2.783   0.307   5.929 -0.4620  1.1950 -0.6035
 9350SOL     OW39511   0.067   0.144   7.343 -0.4832 -0.1239 -0.3291
 9350SOL    HW139512   0.150   0.183   7.316  0.1718 -1.2611  0.0540
 9350SOL    HW239513   0.090   0.108   7.429 -0.5175 -0.0925 -0.3066
 9351SOL     OW39514   2.419   4.372   9.173 -0.5347 -0.6941 -0.0682
 9351SOL    HW139515   2.366   4.441   9.214  0.5070 -0.7730  1.4192
 9351SOL    HW239516   2.466   4.340   9.250 -0.6889 -1.0285 -0.1147
 9352SOL     OW39517   0.513   4.078   4.924 -0.0427 -0.6264  0.0812
 9352SOL    HW139518   0.561   4.161   4.928 -1.0224 -0.0994  0.7865
 9352SOL    HW239519   0.575   4.022   4.971  1.2699  0.5721 -0.2134
 9353SOL     OW39520   0.766   0.086   5.858 -0.6264  0.4374 -0.4722
 9353SOL    HW139521   0.741   4.716   5.858  0.6793  0.0703  3.3401
 9353SOL    HW239522   0.859   0.067   5.849 -0.9103 -1.5220  0.6303
 9354SOL     OW39523   0.526   4.067   4.234 -0.0711  0.4568 -0.3822
 9354SOL    HW139524   0.495   4.015   4.161  0.6765 -0.3202 -0.1380
 9354SOL    HW239525   0.503   4.009   4.307  2.2549 -0.2036 -0.1745
 9355SOL     OW39526   3.182   3.487  10.714 -0.4654  0.0140 -0.1724
 9355SOL    HW139527   3.117   3.504  10.782 -0.1174  1.0842 -0.1189
 9355SOL    HW239528   3.209   3.574  10.685  0.5846 -0.3929 -0.4193
 9356SOL     OW39529   0.113   1.397   6.344  0.2163  0.4588 -0.0457
 9356SOL    HW139530   0.104   1.394   6.439 -0.0039 -1.6009 -0.1221
 9356SOL    HW239531   0.077   1.314   6.312 -0.1205  1.2236 -1.6773
 9357SOL     OW39532   0.671   1.096   5.635  0.2348  0.8374 -0.1253
 9357SOL    HW139533   0.704   1.081   5.546 -1.2856 -0.9144 -0.4021
 9357SOL    HW239534   0.709   1.018   5.675  0.6060 -0.2113 -2.5058
 9358SOL     OW39535   1.665   4.504   3.701  0.6366  0.2363 -0.0769
 9358SOL    HW139536   1.663   4.543   3.614 -2.7743  0.4962  0.1440
 9358SOL    HW239537   1.707   4.579   3.743  2.2449 -0.2561 -0.7988
 9359SOL     OW39538   4.605   3.015  11.620 -0.1786 -0.1926  0.2609
 9359SOL    HW139539   4.607   3.104  11.656  2.2018 -0.0137 -0.2637
 9359SOL    HW239540   4.521   3.002  11.577  0.0555 -0.6443 -0.0575
 9360SOL     OW39541   2.807   3.404   1.791 -0.6806 -0.2329 -0.1664
 9360SOL    HW139542   2.886   3.457   1.805 -0.5252 -0.1758 -1.2169
 9360SOL    HW239543   2.835   3.313   1.792  0.2052  0.0409  0.1533
 9361SOL     OW39544   1.031   1.853  16.787  0.3243  0.3792  0.3575
 9361SOL    HW139545   0.942   1.868  16.818 -0.5311 -3.9528  0.0794
 9361SOL    HW239546   1.070   1.821  16.869 -0.8591 -0.4629  0.5927
 9362SOL     OW39547   3.982   0.940   5.988 -0.2831 -0.1623 -0.3446
 9362SOL    HW139548   4.070   0.903   5.977 -1.2327 -1.8106 -2.5878
 9362SOL    HW239549   3.971   0.977   5.900 -0.7442 -0.9498 -0.6213
 9363SOL     OW39550   3.101   2.150   7.189 -0.1031 -0.5989  0.5359
 9363SOL    HW139551   3.054   2.228   7.218  0.4387 -0.5170  1.1924
 9363SOL    HW239552   3.054   2.084   7.241  0.0975 -1.8243 -0.8163
 9364SOL     OW39553   3.402   1.555   4.143 -0.1009  0.1925 -0.0379
 9364SOL    HW139554   3.395   1.513   4.057  1.0400  2.4512 -1.2169
 9364SOL    HW239555   3.376   1.646   4.128 -3.6839 -0.6257  1.1275
 9365SOL     OW39556   2.003   1.818   9.000 -0.0934 -0.1135  0.0244
 9365SOL    HW139557   1.994   1.911   8.979 -1.8538 -0.1576  0.5857
 9365SOL    HW239558   1.978   1.825   9.093  1.3980 -2.0258  0.5827
 9366SOL     OW39559   3.230   4.385  17.272 -0.0111 -0.1881  0.5153
 9366SOL    HW139560   3.136   4.403  17.262 -0.0926  0.7369  3.0137
 9366SOL    HW239561   3.259   4.465  17.315  1.9694 -0.3366 -0.5344
 9367SOL     OW39562   2.685   3.932   7.431  0.0287  0.8417  0.0234
 9367SOL    HW139563   2.668   3.843   7.463  1.9795  0.6136  0.3777
 9367SOL    HW239564   2.778   3.918   7.417  0.3483  1.0316  1.9466
 9368SOL     OW39565   3.352   0.392   8.556 -0.0491 -0.3620  0.2708
 9368SOL    HW139566   3.395   0.308   8.576 -1.0029 -0.6548  1.1068
 9368SOL    HW239567   3.427   0.446   8.535 -0.4455  1.1345  2.7004
 9369SOL     OW39568   3.169   1.761  13.076 -0.0499 -0.1127 -0.0174
 9369SOL    HW139569   3.195   1.781  12.986  1.0332  1.0367  0.5362
 9369SOL    HW239570   3.108   1.832  13.092 -1.3806 -0.7574 -2.3780
 9370SOL     OW39571   0.111   4.144  12.404  0.0877 -0.4041  0.5811
 9370SOL    HW139572   0.194   4.098  12.392 -0.2701 -0.5874 -1.1739
 9370SOL    HW239573   0.137   4.207  12.471 -2.6526 -0.5170  1.7279
 9371SOL     OW39574   0.378   1.067  17.185 -0.6818 -0.3313 -0.5311
 9371SOL    HW139575   0.348   0.983  17.149  0.7752 -2.0689  2.3932
 9371SOL    HW239576   0.431   1.032  17.256  2.3042 -0.5058 -2.8233
 9372SOL     OW39577   4.298   4.024  16.107  0.3786 -0.0215 -0.0029
 9372SOL    HW139578   4.357   3.949  16.120  0.2337  0.2990  2.4106
 9372SOL    HW239579   4.364   4.093  16.096  1.3282 -0.8491  0.4090
 9373SOL     OW39580   3.220   2.032   4.480  0.1886  0.1863  0.4844
 9373SOL    HW139581   3.206   1.961   4.417  0.6373  0.4372  0.0956
 9373SOL    HW239582   3.292   2.004   4.537  3.4824  1.8028 -2.8004
 9374SOL     OW39583   1.985   1.699  17.092  0.6624 -0.5977  0.5147
 9374SOL    HW139584   2.020   1.633  17.032  0.5347 -0.9494  0.8296
 9374SOL    HW239585   2.040   1.772  17.064 -1.0023  0.7513  0.7314
 9375SOL     OW39586   2.548   3.208  16.934  0.0908 -0.4512  0.0751
 9375SOL    HW139587   2.540   3.269  16.860 -0.8482  0.5530  1.0185
 9375SOL    HW239588   2.515   3.271  16.998 -0.0955 -2.4400  1.9398
 9376SOL     OW39589   3.629   2.060   6.521 -0.3259 -0.0343  0.3080
 9376SOL    HW139590   3.634   2.102   6.606  0.1139  1.3155 -0.3806
 9376SOL    HW239591   3.582   1.981   6.549  1.9383 -1.8934 -1.1388
 9377SOL     OW39592   0.122   0.958   8.050 -0.2847 -0.3979  0.0573
 9377SOL    HW139593   0.185   0.918   8.111 -1.5530 -0.1877  1.5181
 9377SOL    HW239594   0.167   1.042   8.043  0.7901 -1.1994 -2.4727
 9378SOL     OW39595   3.715   2.356  11.438  0.3560  0.3730  0.2525
 9378SOL    HW139596   3.722   2.366  11.533  0.1308 -2.2163  0.5420
 9378SOL    HW239597   3.625   2.386  11.427  0.9499  1.6742 -1.0788
 9379SOL     OW39598   3.666   2.904  13.383  0.2411  0.4785  0.6790
 9379SOL    HW139599   3.726   2.904  13.457  1.1625 -2.0915 -0.0861
 9379SOL    HW239600   3.583   2.929  13.424 -0.6225 -0.4341 -0.4948
 9380SOL     OW39601   0.755   3.862   7.187 -0.0578  0.3139 -0.3530
 9380SOL    HW139602   0.792   3.935   7.137  2.5680  1.9461  3.9137
 9380SOL    HW239603   0.691   3.909   7.241 -2.3749 -1.5881 -1.4746
 9381SOL     OW39604   2.481   0.643  11.867  0.3802  0.6029 -0.1367
 9381SOL    HW139605   2.513   0.663  11.955  1.5388  0.0172 -0.4274
 9381SOL    HW239606   2.551   0.588  11.831  0.8124  0.7304  0.5042
 9382SOL     OW39607   1.125   0.586   1.357  0.6514 -0.4475  0.0773
 9382SOL    HW139608   1.068   0.636   1.298 -1.9608 -1.5804  1.6031
 9382SOL    HW239609   1.095   0.498   1.332  0.3542 -0.2114 -0.3863
 9383SOL     OW39610   2.935   1.362   0.616 -0.3186 -0.3999  0.1707
 9383SOL    HW139611   2.910   1.444   0.659 -0.5039 -2.1084  3.3839
 9383SOL    HW239612   2.850   1.317   0.620  0.2343 -1.4105  0.8707
 9384SOL     OW39613   2.552   4.454  14.659  0.0770 -0.7388  0.3228
 9384SOL    HW139614   2.477   4.399  14.682  1.9968 -2.4138  2.5855
 9384SOL    HW239615   2.610   4.387  14.622  0.9355  0.8685 -1.2420
 9385SOL     OW39616   1.313   3.832  12.502 -0.0402  0.3640  0.3109
 9385SOL    HW139617   1.383   3.785  12.457  0.3408  0.9913  0.2506
 9385SOL    HW239618   1.318   3.918  12.461  0.2354  0.4971  0.6285
 9386SOL     OW39619   1.383   3.350   6.105 -0.2260  0.4751  0.0552
 9386SOL    HW139620   1.441   3.337   6.030  0.3863 -4.6736  1.3913
 9386SOL    HW239621   1.413   3.279   6.163 -0.0196  0.7047  0.2271
 9387SOL     OW39622   0.369   1.148   7.706  0.4303  0.5298  0.2001
 9387SOL    HW139623   0.455   1.158   7.666  0.8110 -0.3997  0.7882
 9387SOL    HW239624   0.323   1.101   7.636 -0.7840  1.3452  0.4444
 9388SOL     OW39625   0.662   3.369  16.144 -0.0126 -0.4060  0.0338
 9388SOL    HW139626   0.570   3.376  16.118 -0.4646 -1.1300  1.4631
 9388SOL    HW239627   0.661   3.458  16.178  1.2267 -0.8261  1.1584
 9389SOL     OW39628   1.028   2.402   9.645 -0.4435 -0.4663 -0.1645
 9389SOL    HW139629   1.072   2.484   9.624  1.5233 -1.2745  0.7677
 9389SOL    HW239630   0.948   2.417   9.595  1.2682  0.6776 -2.5716
 9390SOL     OW39631   4.420   1.788  13.069  0.1252  0.0775 -0.9222
 9390SOL    HW139632   4.496   1.746  13.029  1.7483  0.3177  1.8603
 9390SOL    HW239633   4.379   1.830  12.994  0.4724  0.5322 -0.8586
 9391SOL     OW39634   2.166   1.576   4.094  0.4312 -0.0624 -0.6839
 9391SOL    HW139635   2.105   1.643   4.124  0.5699  0.7793 -2.2720
 9391SOL    HW239636   2.204   1.601   4.010  0.0639 -1.0571 -1.1458
 9392SOL     OW39637   3.657   0.913   5.548  0.4733  0.5278  0.9797
 9392SOL    HW139638   3.616   0.839   5.593 -1.8889  0.8596 -0.6346
 9392SOL    HW239639   3.583   0.954   5.503 -0.8611 -2.2915  0.5987
 9393SOL     OW39640   4.320   2.789  11.771  0.1426  0.0869 -0.2616
 9393SOL    HW139641   4.379   2.820  11.702 -0.6131 -1.6088 -1.7063
 9393SOL    HW239642   4.273   2.868  11.796 -2.6526 -1.0642 -1.8175
 9394SOL     OW39643   4.523   0.788   2.622  0.0708 -0.1315  0.3071
 9394SOL    HW139644   4.497   0.876   2.594 -0.4186 -0.4098 -0.0952
 9394SOL    HW239645   4.547   0.806   2.713  1.1946  1.0012 -0.2051
 9395SOL     OW39646   4.319   1.793   6.179 -0.3112  0.1444  0.7008
 9395SOL    HW139647   4.372   1.725   6.138 -2.9701 -0.0277 -2.4619
 9395SOL    HW239648   4.323   1.772   6.272 -0.6184 -0.9409  0.4667
 9396SOL     OW39649   2.470   1.040   2.258  0.0371  0.2090  0.4638
 9396SOL    HW139650   2.563   1.018   2.259  0.0714  0.3322 -0.2910
 9396SOL    HW239651   2.458   1.098   2.334 -1.6626  0.3264  0.1082
 9397SOL     OW39652   1.910   2.013   4.330  0.0183 -0.0108  0.2142
 9397SOL    HW139653   1.851   2.044   4.398  0.3633  0.5136  0.2760
 9397SOL    HW239654   1.901   2.072   4.256 -2.0526 -1.5423 -0.7439
 9398SOL     OW39655   0.943   3.237   0.472  0.3859 -0.6493  0.5476
 9398SOL    HW139656   0.866   3.292   0.455  0.8765  0.3146  1.3965
 9398SOL    HW239657   0.923   3.164   0.414  0.7276  0.4775 -1.0085
 9399SOL     OW39658   0.942   4.066   1.195  0.0068  0.1269  0.1065
 9399SOL    HW139659   0.929   4.157   1.220 -2.6305 -0.4950  1.0002
 9399SOL    HW239660   1.035   4.046   1.204  0.7703  3.5647 -0.3753
 9400SOL     OW39661   1.180   2.965   1.809 -0.6113  0.2555 -0.2569
 9400SOL    HW139662   1.108   2.956   1.746 -1.9210 -0.1221  1.3011
 9400SOL    HW239663   1.174   3.055   1.841 -0.1588  0.4109 -0.5993
 9401SOL     OW39664   4.565   2.373  14.934  0.7515  0.1645 -0.1919
 9401SOL    HW139665   4.542   2.391  14.843  0.2288 -0.9630 -0.2842
 9401SOL    HW239666   4.616   2.293  14.925 -0.9507 -0.6553 -2.5220
 9402SOL     OW39667   4.667   1.999   3.903  0.5637  0.3712  0.2072
 9402SOL    HW139668   4.634   2.044   3.981  0.3265 -0.3772  0.5418
 9402SOL    HW239669   4.700   1.914   3.935  2.0404  1.2493  1.0260
 9403SOL     OW39670   0.028   2.593   5.335  0.2907 -0.5044  0.1452
 9403SOL    HW139671   0.061   2.650   5.404  1.8924 -0.1795 -0.8730
 9403SOL    HW239672   4.686   2.653   5.298 -2.4098 -2.9270  0.9403
 9404SOL     OW39673   1.589   3.596   2.039  0.4024 -0.5274  0.2730
 9404SOL    HW139674   1.562   3.505   2.048  0.2731 -0.3665  1.5154
 9404SOL    HW239675   1.656   3.593   2.107 -0.1869  1.0263  0.9304
 9405SOL     OW39676   4.018   0.450   3.980  0.2107  0.0347 -0.3606
 9405SOL    HW139677   4.080   0.444   3.907  0.8200 -1.0429  0.2554
 9405SOL    HW239678   3.934   0.470   3.939  1.0715  2.2337 -1.0586
 9406SOL     OW39679   1.462   1.840  17.683  0.0742 -0.1974 -0.1929
 9406SOL    HW139680   1.485   1.748  17.686  0.2216 -0.2037 -1.4396
 9406SOL    HW239681   1.514   1.877   0.064  0.4114 -1.5443  0.2535
 9407SOL     OW39682   4.527   3.977   7.685  0.1703  0.1986 -0.3740
 9407SOL    HW139683   4.433   3.959   7.677  0.4750 -1.1998 -0.7791
 9407SOL    HW239684   4.548   3.988   7.778 -1.1235 -2.0033  0.1610
 9408SOL     OW39685   4.217   2.163   3.733  0.0316  0.2017 -0.6838
 9408SOL    HW139686   4.157   2.098   3.769 -0.4367  0.4832 -0.9569
 9408SOL    HW239687   4.306   2.128   3.725  0.1846  0.5897 -0.6831
 9409SOL     OW39688   0.094   0.179   2.998 -0.1496  0.2676  0.7272
 9409SOL    HW139689   0.023   0.238   2.973  1.9112  2.3359 -0.2152
 9409SOL    HW239690   0.169   0.236   2.979  0.3791 -0.3881  0.8287
 9410SOL     OW39691   2.063   2.615  16.246 -0.2741 -0.0641  0.1821
 9410SOL    HW139692   1.987   2.671  16.230  0.7337  0.9495 -1.0161
 9410SOL    HW239693   2.129   2.682  16.263  0.6136 -1.3325  1.7981
 9411SOL     OW39694   2.601   3.201   3.073  0.1665 -0.1959  0.2755
 9411SOL    HW139695   2.552   3.283   3.077  1.2736  0.5026 -0.6604
 9411SOL    HW239696   2.574   3.155   3.153 -1.5214  0.3999  0.0420
 9412SOL     OW39697   2.426   1.808   6.738 -0.2523  0.8362  0.4375
 9412SOL    HW139698   2.412   1.898   6.707  2.9221  1.4608  0.8414
 9412SOL    HW239699   2.519   1.799   6.758 -0.2785  0.5238  0.4056
 9413SOL     OW39700   1.579   1.045   9.129  0.6398 -0.4933  0.0468
 9413SOL    HW139701   1.561   1.059   9.036  0.1271  2.1534  0.5223
 9413SOL    HW239702   1.624   1.125   9.158 -1.8906  0.4802  1.4101
 9414SOL     OW39703   1.861   1.032   2.285  0.2915  0.0366  0.3545
 9414SOL    HW139704   1.856   1.084   2.205 -3.3486  0.4926  0.8944
 9414SOL    HW239705   1.780   0.982   2.273 -0.2441  1.6620 -2.7837
 9415SOL     OW39706   3.773   0.706  10.359  0.0910  0.0092 -0.0812
 9415SOL    HW139707   3.864   0.733  10.374 -0.3667  0.3288  2.2491
 9415SOL    HW239708   3.770   0.684  10.266 -2.7956  2.6470 -0.6184
 9416SOL     OW39709   2.051   3.505   4.090  0.6460 -0.1793  0.3253
 9416SOL    HW139710   2.106   3.470   4.020 -0.4866 -0.1792 -0.5704
 9416SOL    HW239711   2.055   3.600   4.074 -0.9976 -0.2804 -0.6326
 9417SOL     OW39712   3.654   3.056   5.264  0.1904 -0.3065 -0.4879
 9417SOL    HW139713   3.640   3.045   5.358  0.0641  2.7963 -0.1457
 9417SOL    HW239714   3.572   3.040   5.216 -0.7304  1.3716  0.4970
 9418SOL     OW39715   4.220   1.688   3.970 -0.8359  0.5487  0.3177
 9418SOL    HW139716   4.138   1.725   3.938  0.0363  3.4222  1.4208
 9418SOL    HW239717   4.197   1.691   4.063  0.3108  0.3015  0.6089
 9419SOL     OW39718   0.941   2.669   8.040 -0.1791 -0.2010  0.3124
 9419SOL    HW139719   1.014   2.730   8.052  0.6406 -1.3507  1.1093
 9419SOL    HW239720   0.925   2.686   7.947 -1.5833 -0.6577  0.4650
 9420SOL     OW39721   1.088   1.478  13.886  0.1622  0.3626  0.2500
 9420SOL    HW139722   1.097   1.425  13.807 -2.2281 -0.5424  0.5872
 9420SOL    HW239723   1.000   1.449  13.910 -0.2718  1.6463  0.1872
 9421SOL     OW39724   1.559   3.800  10.013 -0.5750 -1.2096 -0.0284
 9421SOL    HW139725   1.537   3.708  10.022 -0.3844 -1.2562 -0.0300
 9421SOL    HW239726   1.642   3.795   9.966 -0.0856  1.3137  0.5631
 9422SOL     OW39727   3.497   2.636  11.244  0.1915 -0.4325  0.4954
 9422SOL    HW139728   3.488   2.606  11.334 -0.9069  1.8970  1.1443
 9422SOL    HW239729   3.519   2.549  11.209 -1.1785 -1.1052  1.2940
 9423SOL     OW39730   1.472   2.608  13.883  0.2045  0.2641 -0.0263
 9423SOL    HW139731   1.469   2.543  13.952  2.0081 -0.5136 -0.6864
 9423SOL    HW239732   1.565   2.632  13.876  0.2324  0.2608  0.3715
 9424SOL     OW39733   1.570   1.466   9.067  0.2300 -0.0714 -0.0879
 9424SOL    HW139734   1.556   1.392   9.126 -0.6389 -0.9609 -1.4152
 9424SOL    HW239735   1.663   1.449   9.049  0.0553 -0.0508 -0.9621
 9425SOL     OW39736   0.001   0.984   8.369  0.1086  0.6564 -0.0630
 9425SOL    HW139737   4.701   1.075   8.390  0.5335  0.8988 -0.6480
 9425SOL    HW239738   0.096   0.989   8.382 -0.0180  0.1110  1.0391
 9426SOL     OW39739   4.272   2.575  11.603 -0.1322 -0.5522  0.7270
 9426SOL    HW139740   4.213   2.618  11.541  1.0135  1.1240  0.8169
 9426SOL    HW239741   4.271   2.641  11.671 -1.5182  0.2891 -0.1199
 9427SOL     OW39742   1.392   2.251   4.049  0.3390  0.0780 -0.2777
 9427SOL    HW139743   1.426   2.319   3.992 -2.1617 -0.5999 -2.5877
 9427SOL    HW239744   1.471   2.232   4.099 -1.0641  0.1065  1.9767
 9428SOL     OW39745   0.408   3.765   5.702  0.1809 -0.6369  0.2241
 9428SOL    HW139746   0.330   3.714   5.724  0.8522 -0.9764  1.8081
 9428SOL    HW239747   0.481   3.708   5.727 -0.0117 -1.4486 -1.0123
 9429SOL     OW39748   1.927   4.692   6.649 -0.6769 -0.2425 -0.3247
 9429SOL    HW139749   1.918   0.012   6.564  2.9357 -0.5839 -0.8561
 9429SOL    HW239750   1.953   0.044   6.705 -0.1329 -0.0916 -0.7835
 9430SOL     OW39751   0.140   2.383   4.593  0.3752  0.2260 -0.7823
 9430SOL    HW139752   0.223   2.429   4.609  0.3427 -0.5043  1.5360
 9430SOL    HW239753   0.092   2.421   4.667 -0.9056 -1.0053 -0.9835
 9431SOL     OW39754   3.321   3.398   6.376 -0.1539  0.7084  0.3391
 9431SOL    HW139755   3.355   3.321   6.331  0.3809  1.4027 -0.4623
 9431SOL    HW239756   3.389   3.420   6.440  0.9752  1.3980 -1.1080
 9432SOL     OW39757   0.975   1.775   2.420 -0.6565 -0.1485  0.0626
 9432SOL    HW139758   0.956   1.724   2.341 -0.4569 -0.4098  0.1819
 9432SOL    HW239759   1.071   1.781   2.419 -0.5430 -1.5753  1.9894
 9433SOL     OW39760   4.346   4.151   6.573 -0.3779  0.0737  0.2302
 9433SOL    HW139761   4.411   4.134   6.505 -1.8200 -1.5432 -0.7740
 9433SOL    HW239762   4.280   4.094   6.532 -0.5196 -0.1318  0.7408
 9434SOL     OW39763   1.307   4.384   7.685  0.1379  0.1791 -0.1491
 9434SOL    HW139764   1.234   4.445   7.674  0.3939  0.4634 -0.2788
 9434SOL    HW239765   1.383   4.441   7.674  1.7647 -1.8364  0.6892
 9435SOL     OW39766   3.372   0.160   5.773 -0.4283  0.1922  0.3459
 9435SOL    HW139767   3.386   0.175   5.866  2.3323 -0.1365 -0.0198
 9435SOL    HW239768   3.371   0.245   5.730  1.7355 -0.0150 -0.1298
 9436SOL     OW39769   0.644   4.233   8.555 -0.4312 -0.4745  0.3227
 9436SOL    HW139770   0.636   4.238   8.650  0.1521 -1.3163  0.4144
 9436SOL    HW239771   0.634   4.139   8.541  1.1511 -0.4613 -0.9046
 9437SOL     OW39772   1.437   2.680  17.453 -0.7037 -0.1687 -0.0502
 9437SOL    HW139773   1.453   2.614  17.520  2.4888 -1.3121 -1.9709
 9437SOL    HW239774   1.509   2.734  17.484  0.5545 -1.1535 -1.2708
 9438SOL     OW39775   4.279   1.547   9.443 -0.2835  0.3228 -0.6273
 9438SOL    HW139776   4.188   1.574   9.433 -0.1058  0.7132 -1.1690
 9438SOL    HW239777   4.289   1.482   9.374  1.1829 -1.5592  1.3706
 9439SOL     OW39778   0.118   1.004   4.828 -0.1643  0.1649 -0.2936
 9439SOL    HW139779   0.093   1.076   4.886 -2.8828 -1.3821  0.4745
 9439SOL    HW239780   0.035   0.957   4.820  0.1594 -0.4973  0.1916
 9440SOL     OW39781   3.101   1.670   8.370 -0.4517 -0.3677  0.1949
 9440SOL    HW139782   3.081   1.751   8.324 -1.7596 -0.3224  0.8307
 9440SOL    HW239783   3.189   1.698   8.395 -1.1106  1.6182  0.2336
 9441SOL     OW39784   0.586   3.226   1.705  0.3657 -0.5417  0.1455
 9441SOL    HW139785   0.667   3.277   1.691  0.8714 -1.0836  1.1091
 9441SOL    HW239786   0.595   3.208   1.799 -1.8729 -2.0075  0.0601
 9442SOL     OW39787   3.629   2.423   8.477 -0.3064  0.0216  0.5803
 9442SOL    HW139788   3.638   2.367   8.555 -5.4382 -3.0419 -1.0928
 9442SOL    HW239789   3.551   2.470   8.506 -0.9249 -1.2028  0.8711
 9443SOL     OW39790   0.770   0.128   2.995  0.2278 -0.2678  0.2495
 9443SOL    HW139791   0.736   0.039   2.988  0.7091 -0.5462  1.4490
 9443SOL    HW239792   0.828   0.129   2.919 -0.4621  1.3020 -0.2528
 9444SOL     OW39793   4.125   2.091   7.035 -0.0415  0.2155  0.3788
 9444SOL    HW139794   4.093   2.165   6.983 -1.3830 -0.3281  0.4204
 9444SOL    HW239795   4.051   2.031   7.049  0.5711 -0.8603 -1.0118
 9445SOL     OW39796   1.919   0.079  13.711 -1.0928 -0.1142 -0.7196
 9445SOL    HW139797   1.965   0.161  13.732 -3.4043  0.2767  2.8227
 9445SOL    HW239798   1.908   0.089  13.616 -1.9696 -1.5371 -0.7683
 9446SOL     OW39799   2.209   0.558  11.721 -0.1117 -0.2293 -0.3050
 9446SOL    HW139800   2.279   0.586  11.663 -0.3414 -0.0651 -0.5022
 9446SOL    HW239801   2.210   0.463  11.706 -1.2464 -0.2456 -0.2692
 9447SOL     OW39802   4.523   2.698   2.400 -0.1122  0.1313  0.3422
 9447SOL    HW139803   4.572   2.644   2.338  0.3815 -1.9221  2.5205
 9447SOL    HW239804   4.541   2.782   2.358 -0.6508  0.0521 -0.0435
 9448SOL     OW39805   3.291   1.250   5.879  0.3626  0.2116  0.1298
 9448SOL    HW139806   3.206   1.217   5.848  0.2054  0.7368 -0.0013
 9448SOL    HW239807   3.331   1.165   5.896 -0.8320 -0.2684  0.5579
 9449SOL     OW39808   1.381   4.134   3.432  0.0734  0.4204  0.3716
 9449SOL    HW139809   1.465   4.176   3.450  0.7733 -0.5420 -0.6660
 9449SOL    HW239810   1.323   4.160   3.503 -0.4335  1.7653 -0.5331
 9450SOL     OW39811   0.890   4.223  10.539 -0.3825 -0.3212  0.3129
 9450SOL    HW139812   0.887   4.148  10.479  0.6993  0.4036 -0.6526
 9450SOL    HW239813   0.903   4.187  10.627  0.4046  0.1147  0.3767
 9451SOL     OW39814   0.168   1.005   9.657 -0.0687 -0.0196  0.5948
 9451SOL    HW139815   0.094   0.993   9.717 -0.0695 -1.1674  0.3598
 9451SOL    HW239816   0.229   0.957   9.713  0.1978 -0.1066  0.2271
 9452SOL     OW39817   4.317   0.850   4.975 -0.2899  0.0918 -0.5467
 9452SOL    HW139818   4.310   0.882   4.885  1.6809 -0.2669 -0.8339
 9452SOL    HW239819   4.329   0.933   5.020  1.4434  1.4411 -3.4732
 9453SOL     OW39820   4.513   2.519  16.659  0.5050  0.0715 -0.7386
 9453SOL    HW139821   4.596   2.473  16.671  0.5365  0.3747  0.2377
 9453SOL    HW239822   4.464   2.467  16.723 -0.0450 -0.3442 -1.5058
 9454SOL     OW39823   4.642   0.126  14.524 -0.0900  0.2307  0.2497
 9454SOL    HW139824   4.671   0.201  14.576  0.6068  0.2978 -0.2309
 9454SOL    HW239825   4.696   0.052  14.552  0.1286 -0.0796 -0.9780
 9455SOL     OW39826   2.149   2.587   2.531  0.1587  0.5627  0.1085
 9455SOL    HW139827   2.114   2.634   2.607 -0.0702 -0.4598  0.6462
 9455SOL    HW239828   2.202   2.526   2.583  0.4434 -0.7661 -1.7337
 9456SOL     OW39829   3.899   0.129  14.192 -0.7985  0.1983  0.5754
 9456SOL    HW139830   3.924   0.181  14.269  3.2785  2.8043 -2.4536
 9456SOL    HW239831   3.988   0.105  14.166 -1.1163 -2.2663  1.8294
 9457SOL     OW39832   2.617   1.952   7.344  0.2945 -0.4079 -0.1671
 9457SOL    HW139833   2.538   1.913   7.384  0.0224 -1.6488 -1.9042
 9457SOL    HW239834   2.686   1.939   7.409 -1.8806 -1.4036  1.9528
 9458SOL     OW39835   4.664   2.778   1.845 -0.7432 -0.8301 -0.4264
 9458SOL    HW139836   4.601   2.808   1.780 -0.6935 -0.0833 -0.1325
 9458SOL    HW239837   4.610   2.745   1.917  0.1063 -0.7027  0.2844
 9459SOL     OW39838   0.541   0.601   3.708  0.1863 -0.1055 -0.1668
 9459SOL    HW139839   0.501   0.516   3.688  1.3161 -1.5530  3.6957
 9459SOL    HW239840   0.474   0.646   3.760 -0.6159 -0.4602 -0.8825
 9460SOL     OW39841   2.285   3.192   4.012 -0.1467 -0.6049 -0.0382
 9460SOL    HW139842   2.254   3.263   3.954 -0.0390 -0.6315 -0.1283
 9460SOL    HW239843   2.379   3.206   4.020  0.0331 -0.2485 -2.7106
 9461SOL     OW39844   4.062   3.734   1.774  0.0481  0.3324 -0.4133
 9461SOL    HW139845   4.017   3.673   1.716  1.1393 -1.7440  0.8819
 9461SOL    HW239846   4.073   3.676   1.850 -1.4390  0.6325  0.0248
 9462SOL     OW39847   4.495   3.655   2.251 -0.2520  0.1930  0.4123
 9462SOL    HW139848   4.510   3.725   2.187  1.6283 -1.2827 -0.7523
 9462SOL    HW239849   4.584   3.628   2.276  0.4267  0.5143 -1.6787
 9463SOL     OW39850   0.673   3.784   2.432  0.0568 -0.1344  0.2915
 9463SOL    HW139851   0.650   3.876   2.419  1.8907 -0.1767 -3.2173
 9463SOL    HW239852   0.712   3.753   2.350 -0.3982  1.7295 -0.6217
 9464SOL     OW39853   1.356   0.106   5.434  0.5747 -0.2783 -0.2028
 9464SOL    HW139854   1.354   0.042   5.505 -1.7621 -0.2670 -0.2558
 9464SOL    HW239855   1.275   0.156   5.448  1.3177  1.1965 -1.1831
 9465SOL     OW39856   2.110   0.913   4.157  0.6947  0.0464  0.5028
 9465SOL    HW139857   2.018   0.929   4.179 -0.1189 -0.3819 -2.6804
 9465SOL    HW239858   2.104   0.882   4.067 -0.7640  0.9850  0.2704
 9466SOL     OW39859   0.171   1.239   5.635 -0.1159 -0.6997 -0.1838
 9466SOL    HW139860   0.197   1.322   5.676 -1.9029  0.5409 -1.5389
 9466SOL    HW239861   0.255   1.206   5.604  0.4088  0.6737 -0.2521
 9467SOL     OW39862   1.177   1.908  15.767  0.1516  0.2429 -0.0502
 9467SOL    HW139863   1.269   1.895  15.788 -0.6157 -2.7962  1.2917
 9467SOL    HW239864   1.177   2.004  15.767  1.8049  0.2548 -0.0627
 9468SOL     OW39865   0.679   2.294  10.092 -0.1136  0.5430  0.3409
 9468SOL    HW139866   0.719   2.305  10.178 -0.0937  0.2904  0.3634
 9468SOL    HW239867   0.674   2.199  10.089  2.6870  0.4136  0.0058
 9469SOL     OW39868   2.799   1.121   2.991 -0.2618  0.6308 -0.1041
 9469SOL    HW139869   2.872   1.060   2.999  0.2082  1.1286 -0.6109
 9469SOL    HW239870   2.844   1.204   3.004 -0.9325  1.0573 -0.4610
 9470SOL     OW39871   1.241   2.648  17.685 -0.6948  0.7672  0.5031
 9470SOL    HW139872   1.149   2.651  17.659 -0.0493  1.0780 -1.7556
 9470SOL    HW239873   1.237   2.671   0.088 -0.7219  0.7572  0.5044
 9471SOL     OW39874   0.925   1.892   9.541 -0.4770  0.2366  0.2847
 9471SOL    HW139875   0.980   1.929   9.471 -1.8253 -1.0429 -1.4326
 9471SOL    HW239876   0.880   1.823   9.493 -2.3452  2.6456 -1.3889
 9472SOL     OW39877   1.289   2.702   8.498  0.3845  0.6120  0.5598
 9472SOL    HW139878   1.273   2.783   8.546 -0.4756  0.4977  0.4712
 9472SOL    HW239879   1.254   2.643   8.565  1.2369  1.5529  1.8214
 9473SOL     OW39880   2.607   0.894   4.455  0.1920 -0.2165  0.1117
 9473SOL    HW139881   2.606   0.803   4.428  0.0317 -0.1106 -0.2362
 9473SOL    HW239882   2.684   0.933   4.413 -1.2329  0.3575 -1.9438
 9474SOL     OW39883   2.030   1.355   2.278 -0.6940  0.1740 -0.0042
 9474SOL    HW139884   2.041   1.420   2.208 -0.6415  2.9848  2.6276
 9474SOL    HW239885   1.940   1.380   2.302 -1.3379  0.3855 -2.5980
 9475SOL     OW39886   2.849   0.214   3.916  0.0729  0.1585  0.0963
 9475SOL    HW139887   2.874   0.179   3.830 -0.1584  0.2833 -0.0203
 9475SOL    HW239888   2.888   0.302   3.913 -0.9766  0.6239  0.0826
 9476SOL     OW39889   3.094   2.893   1.759  0.3237 -0.1328 -0.0887
 9476SOL    HW139890   3.188   2.908   1.755  0.2362  0.0579 -1.3831
 9476SOL    HW239891   3.084   2.809   1.715  0.9903  0.0842 -0.6614
 9477SOL     OW39892   4.604   4.220  10.123  0.0429 -0.8555  0.2294
 9477SOL    HW139893   4.643   4.301  10.092 -1.8155  0.0675  0.3614
 9477SOL    HW239894   4.563   4.242  10.207 -0.0516 -3.6569  0.9259
 9478SOL     OW39895   2.870   4.186   4.757  0.0215  0.0504  0.1391
 9478SOL    HW139896   2.836   4.111   4.806 -1.7631  0.9574  0.3111
 9478SOL    HW239897   2.935   4.207   4.824  1.3849  0.0399 -1.1934
 9479SOL     OW39898   0.913   3.365   6.069 -0.3865  0.1489  0.4036
 9479SOL    HW139899   0.945   3.296   6.127  2.6288 -0.1774 -1.7010
 9479SOL    HW239900   0.875   3.419   6.138  0.6418  0.9652  0.3290
 9480SOL     OW39901   0.573   2.100   4.028  0.7577 -0.3428 -0.4134
 9480SOL    HW139902   0.516   2.094   3.951 -0.5631  1.9618  0.3925
 9480SOL    HW239903   0.648   2.055   3.988  1.1517  1.2055 -1.4398
 9481SOL     OW39904   0.757   3.759   6.331  0.1901 -0.1923 -0.8123
 9481SOL    HW139905   0.810   3.794   6.260  0.8670 -1.5555 -0.9947
 9481SOL    HW239906   0.787   3.668   6.326  0.4612 -0.1916  0.7459
 9482SOL     OW39907   1.329   4.125  15.405  0.0412 -0.2779  0.7906
 9482SOL    HW139908   1.352   4.204  15.357 -2.9171  0.2727  0.2921
 9482SOL    HW239909   1.413   4.080  15.414  0.4365  0.4087  0.5522
 9483SOL     OW39910   0.806   2.949  15.283 -0.4812  0.2857  0.5824
 9483SOL    HW139911   0.760   2.966  15.365 -1.3318  1.7827 -0.2201
 9483SOL    HW239912   0.728   2.936  15.229  0.0393 -3.9257  0.7861
 9484SOL     OW39913   1.229   0.208   4.141  0.6933  0.6571  0.1340
 9484SOL    HW139914   1.277   0.268   4.198 -0.4350  1.7145 -0.0382
 9484SOL    HW239915   1.166   0.163   4.197  1.4812 -0.8691 -0.1836
 9485SOL     OW39916   0.659   2.581   2.270  0.2483  0.1535 -0.1196
 9485SOL    HW139917   0.610   2.508   2.306  0.0844 -0.4521 -1.5672
 9485SOL    HW239918   0.731   2.597   2.330 -0.6189  2.4093  0.3164
 9486SOL     OW39919   1.963   3.465  15.820  0.5174  0.1074  0.1053
 9486SOL    HW139920   1.870   3.443  15.817  0.3592  0.7569  0.2291
 9486SOL    HW239921   2.010   3.389  15.787 -1.2292 -0.7494 -0.4012
 9487SOL     OW39922   3.812   1.686   1.093  0.1373  0.1668 -0.5160
 9487SOL    HW139923   3.780   1.596   1.084 -2.9302  1.1285  1.0657
 9487SOL    HW239924   3.837   1.679   1.185 -1.7645 -1.5875 -0.1405
 9488SOL     OW39925   0.691   3.707   0.792 -0.0678  0.0990 -0.0941
 9488SOL    HW139926   0.663   3.764   0.863 -1.2915 -2.7510  1.7139
 9488SOL    HW239927   0.630   3.633   0.794  0.3493 -0.2623 -0.4704
 9489SOL     OW39928   0.746   1.573   3.027  0.9513  0.8677  0.3225
 9489SOL    HW139929   0.738   1.482   2.999 -1.2300  1.3458 -0.6440
 9489SOL    HW239930   0.841   1.581   3.038  0.9045  0.3749  1.1029
 9490SOL     OW39931   0.474   1.989   7.748 -0.1186  0.6272  0.3886
 9490SOL    HW139932   0.543   1.960   7.689  2.7432  0.4879  3.8244
 9490SOL    HW239933   0.464   2.079   7.718 -0.5347  0.1782 -0.7953
 9491SOL     OW39934   4.339   0.075  14.397  0.0805  0.3389  0.0792
 9491SOL    HW139935   4.434   0.078  14.408  0.0378 -0.8036  0.8243
 9491SOL    HW239936   4.318   0.165  14.375  1.6701  0.9569  1.0752
 9492SOL     OW39937   2.167   3.913  12.457  0.4740 -0.3490 -0.2860
 9492SOL    HW139938   2.194   3.944  12.371  0.9890  2.3712  0.8535
 9492SOL    HW239939   2.097   3.976  12.472 -0.4037 -1.0241 -1.5765
 9493SOL     OW39940   3.657   4.647   4.189  0.4576  0.0876 -0.4902
 9493SOL    HW139941   3.691   0.003   4.233  0.7685 -0.9038  1.0362
 9493SOL    HW239942   3.590   4.684   4.132  1.4118  0.2650 -1.4880
 9494SOL     OW39943   1.682   2.605  12.093 -0.5068  0.9442  0.5024
 9494SOL    HW139944   1.724   2.687  12.120 -1.2327  1.1974  0.8552
 9494SOL    HW239945   1.687   2.560  12.178 -3.1836 -0.2662  0.0113
 9495SOL     OW39946   1.239   1.521   7.613 -0.2121  0.0608 -0.0383
 9495SOL    HW139947   1.228   1.580   7.539 -2.4967 -1.0231 -0.5638
 9495SOL    HW239948   1.153   1.495   7.646  0.6573 -4.2172 -1.0950
 9496SOL     OW39949   3.860   0.462   8.261 -0.3968 -0.2035  0.0663
 9496SOL    HW139950   3.911   0.382   8.250  1.7627  1.1260  0.5207
 9496SOL    HW239951   3.811   0.471   8.179 -0.5626  0.1572  0.2054
 9497SOL     OW39952   1.278   3.745   8.860 -0.4234  0.0219 -0.4213
 9497SOL    HW139953   1.244   3.830   8.832 -1.2243 -0.2210 -0.1917
 9497SOL    HW239954   1.316   3.712   8.779  0.0745  1.7708 -0.9058
 9498SOL     OW39955   3.697   3.751   4.214  0.0684 -0.5457  0.3263
 9498SOL    HW139956   3.708   3.844   4.234 -2.2561 -0.0736 -0.4895
 9498SOL    HW239957   3.718   3.704   4.294  3.1570  1.5220  0.7303
 9499SOL     OW39958   4.509   0.312   7.535  0.2799 -0.1265 -0.0559
 9499SOL    HW139959   4.585   0.336   7.587 -0.7549  0.1723  1.3371
 9499SOL    HW239960   4.465   0.251   7.595  3.0909 -1.5346  0.5584
 9500SOL     OW39961   4.129   0.668   7.883 -0.5019  0.1437  0.3229
 9500SOL    HW139962   4.045   0.664   7.928 -2.5129  0.1022 -3.4037
 9500SOL    HW239963   4.138   0.758   7.853 -2.8356  0.9210  1.9284
 9501SOL     OW39964   0.124   1.939   8.132  0.0063 -0.3409  0.4688
 9501SOL    HW139965   0.088   2.014   8.085  2.0000  1.1242  1.2663
 9501SOL    HW239966   0.082   1.950   8.217 -0.4300 -1.0824  0.3472
 9502SOL     OW39967   4.591   2.090   4.400 -0.0047 -0.4167 -0.0989
 9502SOL    HW139968   4.542   2.170   4.420  0.9893  0.3967 -0.9218
 9502SOL    HW239969   4.655   2.089   4.470 -1.0195 -1.0391  0.8122
 9503SOL     OW39970   1.887   4.408   5.764 -0.2716 -0.3746 -0.8308
 9503SOL    HW139971   1.924   4.393   5.851 -1.2153 -0.3409 -0.4204
 9503SOL    HW239972   1.793   4.389   5.775 -0.1956  1.1096  2.3920
 9504SOL     OW39973   1.946   2.355   8.547  0.0779  0.0639  0.0465
 9504SOL    HW139974   1.945   2.298   8.470  0.0357 -0.2488  0.2797
 9504SOL    HW239975   2.009   2.305   8.599 -1.9803 -1.1390  1.3408
 9505SOL     OW39976   1.246   2.263   9.552  0.1557  0.0115 -0.1019
 9505SOL    HW139977   1.247   2.173   9.585  0.1198 -0.5003 -1.4862
 9505SOL    HW239978   1.164   2.297   9.587 -0.6475 -0.1338 -1.8277
 9506SOL     OW39979   0.595   4.281   3.520  0.5663 -0.2977 -0.2323
 9506SOL    HW139980   0.504   4.280   3.549 -0.9678 -0.6953 -4.9092
 9506SOL    HW239981   0.617   4.191   3.541 -1.4198 -0.3550  1.6395
 9507SOL     OW39982   2.717   4.031   4.419  0.4685 -0.1688  0.1872
 9507SOL    HW139983   2.674   3.946   4.420 -2.1521  1.1385 -1.2650
 9507SOL    HW239984   2.644   4.090   4.439  1.9402  2.4075 -2.0352
 9508SOL     OW39985   2.917   2.396   9.587 -0.0687 -0.6642  0.1612
 9508SOL    HW139986   2.958   2.353   9.513 -0.7949 -0.4162 -0.3862
 9508SOL    HW239987   2.888   2.319   9.635 -0.7445 -0.1838  0.5273
 9509SOL     OW39988   4.135   1.299   8.029  0.0713  0.3081 -0.1189
 9509SOL    HW139989   4.129   1.277   7.936 -4.8759 -2.3151  0.7721
 9509SOL    HW239990   4.209   1.359   8.035  0.8383 -0.3757 -2.8194
 9510SOL     OW39991   0.160   0.005   5.854 -0.0146  0.1126 -0.2718
 9510SOL    HW139992   0.145   0.003   5.760 -1.2581  0.5499 -0.0798
 9510SOL    HW239993   0.101   0.073   5.887 -2.0722 -1.0549 -1.5184
 9511SOL     OW39994   0.710   2.708   5.147  0.2826 -0.3564 -0.8280
 9511SOL    HW139995   0.680   2.669   5.229 -0.9428 -2.1210 -2.0927
 9511SOL    HW239996   0.626   2.729   5.105  0.3822  1.1676 -0.2419
 9512SOL     OW39997   1.694   3.834   4.190  0.2411 -0.1276 -0.0764
 9512SOL    HW139998   1.670   3.912   4.241  0.3240 -0.4867  0.5068
 9512SOL    HW239999   1.615   3.782   4.200 -2.4422  3.4559 -2.6762
 9513SOL     OW40000   0.953   4.506   0.796 -0.0681  0.0148 -0.7134
 9513SOL    HW140001   1.018   4.481   0.730  0.4975 -1.1154  0.2770
 9513SOL    HW240002   0.944   4.601   0.786 -2.4178 -0.1782 -0.3493
 9514SOL     OW40003   1.912   2.132  10.134  0.4533  0.5455  0.1961
 9514SOL    HW140004   1.981   2.198  10.133  2.1189 -1.1937  0.7880
 9514SOL    HW240005   1.942   2.067  10.197 -1.5447 -0.0669  0.5159
 9515SOL     OW40006   0.804   1.593   6.781  0.4588 -0.4845  0.3951
 9515SOL    HW140007   0.711   1.584   6.798  0.5221 -0.8202  0.5551
 9515SOL    HW240008   0.817   1.503   6.752 -0.0580 -0.4744  0.1440
 9516SOL     OW40009   1.429   0.291   6.248  0.0686  0.3812 -0.0194
 9516SOL    HW140010   1.442   0.385   6.237  0.4328  0.5062  1.5005
 9516SOL    HW240011   1.489   0.274   6.320 -1.1526  0.9572  1.1413
 9517SOL     OW40012   2.348   4.464   1.019  0.5317  0.5554  0.2812
 9517SOL    HW140013   2.389   4.551   1.023  1.4006  0.1689 -0.1275
 9517SOL    HW240014   2.427   4.410   1.018  0.4200  0.3294  3.0114
 9518SOL     OW40015   3.597   2.527  12.226 -0.4300  0.0622  0.2114
 9518SOL    HW140016   3.610   2.618  12.201 -1.0752  0.0323 -0.2482
 9518SOL    HW240017   3.506   2.518  12.196 -1.0046 -2.1956  2.6669
 9519SOL     OW40018   4.471   1.230   3.822 -0.0564  0.1630  0.2999
 9519SOL    HW140019   4.559   1.195   3.810 -0.6675 -1.0217 -0.8261
 9519SOL    HW240020   4.479   1.302   3.884  1.5867  0.5910 -0.4226
 9520SOL     OW40021   0.353   1.759   2.715  0.0755 -0.7966 -0.0965
 9520SOL    HW140022   0.371   1.824   2.782  0.7411  1.8794 -2.8598
 9520SOL    HW240023   0.372   1.674   2.754 -0.0294 -0.4591  0.6828
 9521SOL     OW40024   1.579   3.587   4.338  0.2285  0.2129  0.0782
 9521SOL    HW140025   1.541   3.675   4.346  0.1114  0.4012 -2.7615
 9521SOL    HW240026   1.641   3.583   4.411  0.5919 -0.3262 -0.2628
 9522SOL     OW40027   1.556   2.198   3.749 -0.3305  0.5763 -0.0495
 9522SOL    HW140028   1.580   2.115   3.789  0.5694  1.0512  0.3920
 9522SOL    HW240029   1.478   2.173   3.699  1.5591 -1.5360 -1.8995
 9523SOL     OW40030   0.727   3.749  17.394  0.1228 -0.4024  0.4113
 9523SOL    HW140031   0.809   3.703  17.412  0.0952  0.2393  2.2070
 9523SOL    HW240032   0.750   3.818  17.332  1.6549  0.6441  2.1706
 9524SOL     OW40033   0.605   1.934   3.327 -0.3845  0.2282  0.8338
 9524SOL    HW140034   0.658   2.007   3.294 -0.4922  1.0773  2.5020
 9524SOL    HW240035   0.574   1.898   3.244  0.2117 -0.2580  0.8198
 9525SOL     OW40036   1.688   2.752   7.770 -0.4726  0.3238 -0.1376
 9525SOL    HW140037   1.632   2.755   7.847 -1.1759  1.9971 -0.7086
 9525SOL    HW240038   1.767   2.794   7.804  0.3191 -1.8326  0.6348
 9526SOL     OW40039   1.846   1.732   4.275  0.2220 -0.0943  0.4283
 9526SOL    HW140040   1.848   1.827   4.282 -0.3916 -0.1644  1.7407
 9526SOL    HW240041   1.779   1.721   4.343  1.2990 -0.4883  1.4288
 9527SOL     OW40042   0.045   1.668   2.943 -0.1401 -0.1926  0.3430
 9527SOL    HW140043   4.671   1.663   2.941 -0.1824  1.0836 -0.3635
 9527SOL    HW240044   0.053   1.673   3.038 -1.5176  0.5385  0.4127
 9528SOL     OW40045   4.159   2.336  12.370  0.0537 -0.0327  0.6485
 9528SOL    HW140046   4.137   2.271  12.303  1.8935  0.2049 -0.1737
 9528SOL    HW240047   4.161   2.422  12.329  0.0724  0.3035  1.3507
 9529SOL     OW40048   2.189   0.685   3.023 -0.1184  0.1425 -0.2276
 9529SOL    HW140049   2.281   0.668   3.042 -0.0936  0.3300 -0.1829
 9529SOL    HW240050   2.190   0.766   2.973  0.4395  0.2995  0.0453
 9530SOL     OW40051   4.224   3.497  14.208  0.2292 -0.3880 -0.3646
 9530SOL    HW140052   4.216   3.405  14.232  2.7334 -0.7081 -0.7053
 9530SOL    HW240053   4.133   3.514  14.184  0.3349  2.2292  1.0298
 9531SOL     OW40054   3.556   0.966   6.561 -0.2367 -0.4821  0.1139
 9531SOL    HW140055   3.641   0.929   6.584 -0.1490  0.8342  1.9197
 9531SOL    HW240056   3.575   1.058   6.577  1.6874 -0.8903  0.1827
 9532SOL     OW40057   4.521   2.921   0.613 -0.0769 -0.5715  0.1367
 9532SOL    HW140058   4.604   2.933   0.567 -0.4699 -1.2786 -0.7410
 9532SOL    HW240059   4.561   2.884   0.692  1.6051 -1.0926 -0.9478
 9533SOL     OW40060   4.375   3.150   0.615 -0.1087  0.1416 -0.0827
 9533SOL    HW140061   4.356   3.117   0.527 -1.5895  1.7849 -0.3875
 9533SOL    HW240062   4.415   3.073   0.656 -1.6897 -0.5155  0.2119
 9534SOL     OW40063   0.995   3.913  14.200 -0.4862  0.6570  0.0592
 9534SOL    HW140064   1.037   3.852  14.261 -0.9688  1.2731  1.0130
 9534SOL    HW240065   0.961   3.987  14.250  0.7803 -0.0070  1.9116
 9535SOL     OW40066   1.817   3.311   7.308 -0.9158  0.1617  0.4871
 9535SOL    HW140067   1.897   3.269   7.277  0.3298  4.3698 -1.9957
 9535SOL    HW240068   1.766   3.231   7.322 -1.1237 -0.2205 -2.3301
 9536SOL     OW40069   4.604   4.672   5.111 -0.1132 -0.2968  0.0689
 9536SOL    HW140070   4.679   4.706   5.160 -0.5774 -1.2799  1.4381
 9536SOL    HW240071   4.576   4.601   5.169 -0.3109 -0.1906  0.1034
 9537SOL     OW40072   2.933   4.231   6.587 -0.3647 -0.1215  0.2828
 9537SOL    HW140073   2.956   4.324   6.592  0.6813 -0.2070 -2.6805
 9537SOL    HW240074   2.848   4.236   6.544 -0.8222  2.0617  1.4757
 9538SOL     OW40075   0.649   4.557  12.758 -0.1395  0.1472  0.4017
 9538SOL    HW140076   0.718   4.520  12.704  2.0426  0.1391  3.1489
 9538SOL    HW240077   0.661   4.650  12.740 -0.2839  0.0717 -0.0666
 9539SOL     OW40078   0.896   0.658   7.707  0.2428 -0.3857  0.0840
 9539SOL    HW140079   0.909   0.673   7.613  1.1433  1.4273  0.4992
 9539SOL    HW240080   0.985   0.634   7.733  1.4046  1.6179 -2.0809
 9540SOL     OW40081   0.434   0.764   6.391  0.2339  0.2555  0.3093
 9540SOL    HW140082   0.407   0.721   6.310 -0.9019  1.0363  0.2712
 9540SOL    HW240083   0.514   0.723   6.423  1.9208  3.8436  0.7205
 9541SOL     OW40084   3.457   1.333   0.616 -0.3459  0.6835 -0.2231
 9541SOL    HW140085   3.377   1.345   0.667 -1.6954 -1.7833 -1.7233
 9541SOL    HW240086   3.522   1.386   0.662 -1.3327  0.2236  1.7206
 9542SOL     OW40087   3.795   2.278  10.796 -0.4571 -0.3978 -0.4868
 9542SOL    HW140088   3.723   2.334  10.824 -0.9664 -0.4050 -1.7687
 9542SOL    HW240089   3.749   2.218  10.737  0.6091 -2.0567  0.3405
 9543SOL     OW40090   0.196   2.261   6.547  0.0413 -0.5714  0.1785
 9543SOL    HW140091   0.261   2.278   6.479  1.6387 -1.8607  1.3621
 9543SOL    HW240092   0.209   2.169   6.569 -0.4574 -0.3342  1.4885
 9544SOL     OW40093   0.404   1.731  12.144  1.0700 -0.5350  0.1975
 9544SOL    HW140094   0.408   1.636  12.158  2.4531 -0.6999 -1.2667
 9544SOL    HW240095   0.327   1.752  12.196 -0.3171  1.0518 -2.5014
 9545SOL     OW40096   4.344   3.132   8.616 -0.2658  0.3235  0.1887
 9545SOL    HW140097   4.338   3.106   8.524  1.0776  0.1442  0.1411
 9545SOL    HW240098   4.387   3.054   8.650 -0.9509  0.6757  1.8538
 9546SOL     OW40099   1.573   1.597   2.782  0.2523  0.2725  0.5915
 9546SOL    HW140100   1.502   1.533   2.774 -0.8664  1.3801  1.6092
 9546SOL    HW240101   1.520   1.675   2.796  2.9285  2.4995 -1.8237
 9547SOL     OW40102   4.043   1.748   6.031 -0.1833 -0.0519 -0.0262
 9547SOL    HW140103   4.105   1.815   6.061  0.4673 -0.1723 -1.0993
 9547SOL    HW240104   3.968   1.805   6.016  0.0963  0.1148 -0.8264
 9548SOL     OW40105   3.307   0.342   3.179  0.4437  0.6980  0.4892
 9548SOL    HW140106   3.382   0.388   3.142  1.3835 -2.1453 -1.1367
 9548SOL    HW240107   3.259   0.307   3.104  0.0490  0.5605  0.8000
 9549SOL     OW40108   1.500   1.126   8.085  0.6062  0.3295 -0.6232
 9549SOL    HW140109   1.554   1.051   8.109  0.7997  0.1877 -1.5192
 9549SOL    HW240110   1.423   1.101   8.036  0.1633 -1.9469  1.2295
 9550SOL     OW40111   2.996   3.888   2.261 -0.4227 -0.3084  0.4669
 9550SOL    HW140112   3.012   3.981   2.245  1.0823 -0.8796 -1.2940
 9550SOL    HW240113   3.023   3.838   2.184 -0.4466  0.0902  0.2018
 9551SOL     OW40114   4.377   3.228   2.196 -0.5121 -0.1305 -0.3037
 9551SOL    HW140115   4.358   3.320   2.175 -0.3255  0.2280  1.0545
 9551SOL    HW240116   4.473   3.227   2.197 -0.4541  2.8295 -0.9039
 9552SOL     OW40117   0.411   2.607   1.509  0.2900 -0.0791  0.3472
 9552SOL    HW140118   0.430   2.514   1.491 -1.6179  0.0239 -2.0947
 9552SOL    HW240119   0.372   2.604   1.596  1.3548 -0.9378  0.8088
 9553SOL     OW40120   1.500   0.509   1.490  0.4135  0.0771  0.7588
 9553SOL    HW140121   1.534   0.499   1.579  1.8347  1.4416  0.3675
 9553SOL    HW240122   1.420   0.558   1.509 -0.7522 -1.3294 -0.5863
 9554SOL     OW40123   4.388   1.277   7.719  0.2871  0.4794 -0.4558
 9554SOL    HW140124   4.454   1.244   7.657  1.6295  0.6409  0.8725
 9554SOL    HW240125   4.404   1.371   7.708  0.5677  0.4333 -0.4460
 9555SOL     OW40126   2.406   0.136   9.068 -0.3737  0.4258  0.4482
 9555SOL    HW140127   2.391   0.163   9.159  1.4110  1.4100  0.4431
 9555SOL    HW240128   2.363   0.210   9.025  1.1071 -0.1488 -2.0042
 9556SOL     OW40129   0.618   1.591   1.535  0.4659  0.3573 -0.3447
 9556SOL    HW140130   0.571   1.669   1.502 -1.4442 -0.4397  0.4777
 9556SOL    HW240131   0.583   1.533   1.467  1.4028 -0.9143  0.2680
 9557SOL     OW40132   3.980   0.265  14.455 -0.6850  0.0744  0.0788
 9557SOL    HW140133   4.041   0.306  14.518  1.0326  0.3222 -1.7525
 9557SOL    HW240134   3.893   0.279  14.493  0.1827  2.7055  1.1717
 9558SOL     OW40135   0.752   0.382  12.790 -0.5517 -0.5907 -0.2206
 9558SOL    HW140136   0.722   0.447  12.727 -2.4951 -2.6428 -1.4228
 9558SOL    HW240137   0.675   0.337  12.827 -0.3184  2.2111  3.6805
 9559SOL     OW40138   2.911   3.046  11.868 -0.2909  0.5259  0.0105
 9559SOL    HW140139   2.938   3.012  11.954 -1.2811 -0.3521 -0.0283
 9559SOL    HW240140   2.854   2.978  11.832 -0.4427  1.0576 -0.7360
 9560SOL     OW40141   0.428   3.723   7.826  0.0518  0.1605 -0.3955
 9560SOL    HW140142   0.476   3.788   7.878 -0.1674  1.1826 -1.4891
 9560SOL    HW240143   0.405   3.657   7.892  0.2487  1.6372  1.1534
 9561SOL     OW40144   0.190   2.086  15.030 -0.0637 -0.0945 -0.2468
 9561SOL    HW140145   0.214   2.143  14.957  0.9284 -0.9033 -0.5604
 9561SOL    HW240146   0.097   2.069  15.019 -0.3262  1.3308 -0.1187
 9562SOL     OW40147   4.125   1.334   7.749  0.0423  0.5801 -0.2270
 9562SOL    HW140148   4.214   1.317   7.717 -0.4848  0.2781 -1.5462
 9562SOL    HW240149   4.088   1.345   7.661  0.0301 -1.7289 -0.5029
 9563SOL     OW40150   2.318   3.957   9.117  0.3215 -0.1240 -0.2394
 9563SOL    HW140151   2.400   3.923   9.080 -1.0370 -0.1749 -3.2304
 9563SOL    HW240152   2.353   3.984   9.202 -1.3405  0.3731  0.2800
 9564SOL     OW40153   4.117   0.821  13.311 -0.1421 -0.3118 -0.1826
 9564SOL    HW140154   4.181   0.889  13.291  0.4940 -0.5506  1.0470
 9564SOL    HW240155   4.036   0.862  13.281 -0.2428  1.1564  2.1830
 9565SOL     OW40156   1.947   0.634  17.034 -0.1195 -0.3416  0.1255
 9565SOL    HW140157   2.041   0.627  17.053  0.0401  0.8561 -0.1740
 9565SOL    HW240158   1.939   0.591  16.949 -1.5763 -0.7608  0.4785
 9566SOL     OW40159   0.224   1.588   8.935 -0.1365 -0.1073 -0.0497
 9566SOL    HW140160   0.298   1.634   8.895 -0.2690  1.3693  1.4320
 9566SOL    HW240161   0.156   1.613   8.872  3.3490  2.1245 -2.9309
 9567SOL     OW40162   0.339   1.656   9.184  0.4330  0.1185  0.0375
 9567SOL    HW140163   0.337   1.600   9.107 -0.1987 -1.3693  1.1348
 9567SOL    HW240164   0.253   1.698   9.186  0.4862  0.2542 -0.7288
 9568SOL     OW40165   1.614   3.708  13.749 -0.2010  0.5959 -0.3590
 9568SOL    HW140166   1.591   3.618  13.769  2.9157 -0.1348 -0.0893
 9568SOL    HW240167   1.703   3.718  13.783 -0.3122 -0.9669  0.3934
   4.72197   4.72197  17.69003
